Membrane in water
40344
    1TMC1    C1    1   4.127   3.557  11.448 -0.3162  0.1642 -0.5840
    1TMC1    C2    2   4.036   3.564  11.346 -0.6741 -0.2682  0.5524
    1TMC1    C3    3   4.074   3.635  11.236  1.1322  0.1013 -0.1550
    1TMC1    C4    4   4.222   3.658  11.463  0.2526 -0.3505  0.6383
    1TMC1    C5    5   4.248   3.738  11.354  0.2839 -0.1623 -0.1698
    1TMC1    C6    6   4.183   3.719  11.236  0.0077  0.0822 -0.5506
    1TMC1     C    7   4.099   3.470  11.557  0.6510 -0.0854 -0.3158
    1TMC1     O    8   3.987   3.422  11.561 -0.4436  0.2030 -0.4758
    1TMC1     H    9   3.951   3.496  11.342 -1.7662  1.1803 -0.8547
    1TMC1    H1   10   4.288   3.671  11.549  0.5476  2.3520 -0.0044
    1TMC1    H2   11   4.218   3.751  11.139  2.3492  1.4911  0.7621
    1TMC1    C7   12   4.349   3.843  11.368  0.5413  0.3026 -1.6028
    1TMC1    C8   13   3.993   3.626  11.119  0.1585  0.0506 -0.3739
    1TMC1    O1   14   4.430   3.852  11.460 -0.5115 -0.4152 -0.3471
    1TMC1    O2   15   3.910   3.537  11.103  0.5613  0.3427 -0.0229
    1TMC1    O3   16   4.319   3.941  11.286 -0.4151 -0.4484  0.3306
    1TMC1    H3   17   4.244   3.916  11.227 -0.6366 -0.4222  0.6038
    1TMC1    O5   18   3.995   3.750  11.065 -0.3990 -0.3930 -1.0006
    1TMC1    H5   19   4.036   3.825  11.112 -0.2489  0.9156 -3.2262
    2MPD2     C   20   4.205   3.273  12.020 -0.1829  0.1606  0.0683
    2MPD2    C1   21   4.085   3.301  11.958  0.1443  0.6644 -0.4303
    2MPD2    C2   22   4.085   3.364  11.835  0.2114  0.1521  0.2566
    2MPD2    C3   23   4.202   3.411  11.776 -0.1385 -0.1556  0.1981
    2MPD2    C4   24   4.316   3.393  11.848 -0.0521  0.6487 -0.4375
    2MPD2    C5   25   4.319   3.326  11.967  0.5084  0.2455  0.4801
    2MPD2     H   26   3.986   3.380  11.793  0.9993 -0.9501 -2.0410
    2MPD2    H1   27   4.408   3.439  11.814 -0.4655  1.2061 -0.7906
    2MPD2    H2   28   4.212   3.217  12.113 -0.3969  0.4587  0.2637
    2MPD2    H3   29   4.413   3.328  12.020  1.0062 -2.0142 -0.2870
    2MPD2     N   30   4.202   3.476  11.652 -0.2245  0.6464 -0.5061
    2MPD2    H5   31   4.290   3.514  11.617  0.1252 -0.1434 -0.4907
    2MPD2    N1   32   3.961   3.248  12.011 -0.4130  0.2362 -0.0674
    2MPD2    H7   33   3.874   3.269  11.962 -0.9545  0.3980  0.9583
    3TMC1    C1   34   3.199   1.546  10.233 -0.2824  0.5307 -0.0031
    3TMC1    C2   35   3.253   1.632  10.331  0.1087 -0.0209 -0.3408
    3TMC1    C3   36   3.302   1.749  10.280 -0.0688  0.4380 -0.0937
    3TMC1    C4   37   3.223   1.558  10.100 -0.3013  0.5035  0.2576
    3TMC1    C5   38   3.283   1.672  10.055  0.0436 -0.1204 -0.4076
    3TMC1    C6   39   3.317   1.772  10.144  0.5089  0.4780  0.2337
    3TMC1     C   40   3.142   1.421  10.271  0.2720  0.4918  0.5506
    3TMC1     O   41   3.159   1.326  10.198  0.0204 -0.5231 -0.5284
    3TMC1     H   42   3.235   1.610  10.436  0.6581  1.9393  0.1603
    3TMC1    H1   43   3.197   1.479  10.031 -0.9615  1.7899 -0.9793
    3TMC1    H2   44   3.364   1.864  10.110  2.4832 -0.6852 -0.2117
    3TMC1    C7   45   3.244   1.730   9.930  0.6891  0.0528  0.0746
    3TMC1    C8   46   3.393   1.823  10.365 -0.4600  0.2047 -1.0557
    3TMC1    O1   47   3.310   1.814   9.874  0.1587 -0.3315 -0.2125
    3TMC1    O2   48   3.445   1.763  10.457 -0.6997 -0.1672  0.1700
    3TMC1    O3   49   3.154   1.651   9.872  0.3061 -0.2593 -0.2600
    3TMC1    H3   50   3.103   1.603   9.941 -0.3856  1.2896  0.2975
    3TMC1    O5   51   3.385   1.957  10.344  0.2036 -0.3265  0.3807
    3TMC1    H5   52   3.313   1.982  10.283 -1.2843 -3.3758  0.8830
    4MPD2     C   53   2.903   1.129  10.620  0.5702 -0.0618  0.6124
    4MPD2    C1   54   2.912   1.258  10.668  0.0728  0.3748 -0.4806
    4MPD2    C2   55   2.976   1.354  10.603  0.4476 -0.3857  0.5968
    4MPD2    C3   56   3.034   1.319  10.484 -0.5369  0.5597  0.4527
    4MPD2    C4   57   3.043   1.189  10.439 -0.4888 -0.6465 -0.1217
    4MPD2    C5   58   2.966   1.095  10.502 -0.0864  0.3848 -0.6154
    4MPD2     H   59   2.971   1.459  10.630  0.6990  0.2974 -2.0240
    4MPD2    H1   60   3.080   1.145  10.347 -0.2974 -0.4407 -0.1409
    4MPD2    H2   61   2.850   1.049  10.672  1.8899 -0.5497  1.2075
    4MPD2    H3   62   2.967   0.995  10.459 -0.1480 -0.2402  0.8080
    4MPD2     N   63   3.085   1.425  10.401 -0.0279  0.3875 -0.1991
    4MPD2    H5   64   3.064   1.517  10.437 -0.1770  1.4369 -3.0298
    4MPD2    N1   65   2.837   1.300  10.784  0.8622  0.3006  0.5445
    4MPD2    H7   66   2.859   1.395  10.811 -0.8605  1.0006 -0.5177
    5TCq1    O1   67   3.255   2.159  11.393 -0.1213 -0.1081 -0.2089
    5TCq1    C1   68   3.249   2.023  11.371  0.1982  0.6179 -0.3799
    5TCq1    O2   69   3.346   1.951  11.341  0.3960 -0.4495  0.6466
    5TCq1    C2   70   3.116   1.975  11.399 -0.4787  0.1651  0.3178
    5TCq1    C3   71   3.021   2.050  11.470  0.0829  0.0237 -0.1071
    5TCq1    C4   72   2.896   1.983  11.491 -0.2462 -0.5587  0.4136
    5TCq1    C5   73   2.875   1.857  11.452 -0.2121  0.0168 -0.4252
    5TCq1    C6   74   2.968   1.792  11.377  0.2728 -0.5232  0.1953
    5TCq1    C7   75   3.089   1.851  11.348 -0.1223 -0.2709  0.2840
    5TCq1    C8   76   2.951   1.660  11.309 -0.1004 -0.4588  0.4620
    5TCq1    O4   77   3.042   1.627  11.228  0.5486 -0.2270 -0.2991
    5TCq1    C9   78   2.796   2.062  11.550 -0.8856 -0.0374 -0.1755
    5TCq1    O5   79   2.694   2.002  11.594  0.0797 -0.3957 -0.2505
    5TCq1    O6   80   2.828   2.178  11.589  0.0886 -0.0497 -0.0707
    5TCq1    H1   81   3.166   2.195  11.411 -0.3755 -1.5834  1.4848
    5TCq1    H2   82   3.035   2.151  11.508 -0.3661 -0.2137  0.6881
    5TCq1    H3   83   2.780   1.812  11.481  1.2212 -1.8564  1.3583
    5TCq1    H4   84   3.161   1.811  11.277 -0.9736  1.3776 -1.4992
    6MPD2     C   85   2.707   1.388  11.383  0.0490 -0.3453 -0.0385
    6MPD2    C1   86   2.812   1.451  11.322  0.5837 -0.1571 -0.1368
    6MPD2    C2   87   2.893   1.371  11.242  0.0506  0.1360 -1.1103
    6MPD2    C3   88   2.871   1.237  11.212 -0.5112  0.3282 -0.5041
    6MPD2    C4   89   2.762   1.180  11.279  0.7126  0.6247  0.4284
    6MPD2    C5   90   2.683   1.259  11.363  0.4408  0.2002  0.3264
    6MPD2     H   91   2.983   1.408  11.194  0.3687  2.7178  1.4906
    6MPD2    H1   92   2.737   1.075  11.266  0.3447  0.7229  0.3341
    6MPD2    H2   93   2.640   1.448  11.443  0.8534  1.0327 -0.5096
    6MPD2    H3   94   2.607   1.215  11.425  1.2332  1.4049  2.1296
    6MPD2     N   95   2.957   1.165  11.122  0.6015 -0.0100  0.1681
    6MPD2    H5   96   3.029   1.221  11.078  1.7880  1.1177  3.5728
    6MPD2    N1   97   2.836   1.589  11.348 -0.1587 -0.1323  0.0528
    6MPD2    H7   98   2.759   1.636  11.395 -0.7425 -0.4382 -0.5847
    7TCq1    O1   99   0.960   1.520  12.844  0.0811  0.2143  0.0616
    7TCq1    C1  100   1.025   1.463  12.742 -0.1237 -0.6017  0.2840
    7TCq1    O2  101   1.084   1.516  12.651  0.3538 -0.0534  0.2245
    7TCq1    C2  102   0.965   1.326  12.734 -0.6731  0.0649 -0.1769
    7TCq1    C3  103   0.970   1.269  12.610  0.1138 -0.0665 -0.4696
    7TCq1    C4  104   0.920   1.145  12.593 -0.3722 -0.2079  0.2095
    7TCq1    C5  105   0.861   1.076  12.695 -0.8741 -0.8323  0.2856
    7TCq1    C6  106   0.883   1.127  12.818  0.1097 -0.4843  0.3299
    7TCq1    C7  107   0.938   1.249  12.842 -0.5762  0.4692  0.4193
    7TCq1    C8  108   0.858   1.039  12.929  0.5015  0.0244  0.4497
    7TCq1    O4  109   0.840   0.919  12.904  0.2035  0.0467 -1.3112
    7TCq1    C9  110   0.909   1.095  12.458 -0.3343  0.9073 -0.5714
    7TCq1    O5  111   0.938   1.168  12.361  0.5745  0.0115  0.8220
    7TCq1    O6  112   0.864   0.981  12.449 -0.2585 -0.3440 -0.6449
    7TCq1    H1  113   0.918   1.454  12.905  0.5743 -1.5663 -1.5240
    7TCq1    H2  114   1.014   1.321  12.525 -0.0119 -1.4963 -1.4035
    7TCq1    H3  115   0.815   0.981  12.671  0.1101 -0.4319 -3.2676
    7TCq1    H4  116   0.946   1.284  12.944 -0.9681  1.2925  0.1655
    8MPD2     C  117   0.818   0.915  13.420  0.0215  0.7737 -0.2901
    8MPD2    C1  118   0.869   0.842  13.316 -0.0076  0.5198  0.0930
    8MPD2    C2  119   0.869   0.902  13.191  0.1788 -1.0009  0.2555
    8MPD2    C3  120   0.829   1.032  13.173  0.0632 -0.8377 -0.4937
    8MPD2    C4  121   0.783   1.104  13.284  0.4076 -0.6279 -0.7918
    8MPD2    C5  122   0.778   1.043  13.404  0.3555  0.2566 -0.0216
    8MPD2     H  123   0.904   0.848  13.104  1.8689 -1.0172  0.9472
    8MPD2    H1  124   0.745   1.204  13.271  2.6019  0.1201 -1.4673
    8MPD2    H2  125   0.818   0.879  13.522 -1.3918  1.4444 -0.0463
    8MPD2    H3  126   0.749   1.100  13.491  0.2951  1.2534 -0.6991
    8MPD2     N  127   0.835   1.101  13.053 -0.3155  0.2971 -0.9988
    8MPD2    H5  128   0.830   1.202  13.054 -2.4763  0.1634  0.6108
    8MPD2    N1  129   0.904   0.710  13.339  0.2383  0.3012 -0.0849
    8MPD2    H7  130   0.897   0.686  13.437  0.7826 -0.1204 -0.1523
    9TMC1    C1  131   2.834   0.269  11.805 -0.6083 -0.2091  0.7829
    9TMC1    C2  132   2.878   0.236  11.684 -0.5258 -0.0287 -0.6410
    9TMC1    C3  133   2.888   0.335  11.588  0.1091  0.2055 -0.4277
    9TMC1    C4  134   2.802   0.403  11.834  0.0834 -0.2924  0.0754
    9TMC1    C5  135   2.794   0.494  11.736  0.5874 -0.9032 -0.3228
    9TMC1    C6  136   2.837   0.459  11.612  0.2268  0.1920  0.3110
    9TMC1     C  137   2.822   0.182  11.916  0.4213  0.0887 -0.2622
    9TMC1     O  138   2.730   0.203  11.997  0.0092 -0.2348 -0.5200
    9TMC1     H  139   2.914   0.136  11.663 -1.2127 -0.6790  1.2535
    9TMC1    H1  140   2.764   0.423  11.933 -1.2487 -1.4532 -0.2067
    9TMC1    H2  141   2.809   0.514  11.523  1.1100  0.4522  0.1968
    9TMC1    C7  142   2.689   0.588  11.749  0.1694 -0.3871  0.2937
    9TMC1    C8  143   2.944   0.312  11.449 -0.6273  0.2858  0.0532
    9TMC1    O1  144   2.582   0.569  11.802 -0.2687  0.2757  0.3522
    9TMC1    O2  145   2.978   0.404  11.379  0.6402  0.1179  0.4357
    9TMC1    O3  146   2.730   0.708  11.704 -0.0054 -0.5076 -0.4006
    9TMC1    H3  147   2.816   0.720  11.659 -0.2574 -1.4983 -1.1286
    9TMC1    O5  148   2.906   0.192  11.416  0.4757  0.2567  0.0370
    9TMC1    H5  149   2.855   0.138  11.480  3.1128  0.3551  2.2373
   10MPD2     C  150   2.891   4.709  12.137  0.1775 -0.3538 -0.2618
   10MPD2    C1  151   2.930   4.704  11.999 -0.2916 -0.1495 -0.3810
   10MPD2    C2  152   2.993   4.591  11.954  1.5725 -0.3247  0.5465
   10MPD2    C3  153   3.038   4.490  12.044  0.8020 -0.1283  0.3504
   10MPD2    C4  154   3.000   4.501  12.175  0.9739 -0.8098  0.2137
   10MPD2    C5  155   2.926   4.608  12.217  0.1454 -0.3967 -0.6013
   10MPD2     H  156   3.003   4.581  11.846  0.8791 -0.7164  0.5266
   10MPD2    H1  157   3.019   4.417  12.241  0.4392 -1.3081 -0.2836
   10MPD2    H2  158   2.828   0.046  12.179 -1.5301 -1.3102 -1.0492
   10MPD2    H3  159   2.884   4.596  12.316  1.2358  0.2962 -0.0517
   10MPD2     N  160   3.090   4.367  12.000 -0.2075  0.7086 -0.6309
   10MPD2    H5  161   3.107   4.293  12.067 -1.2163  1.7789  0.8056
   10MPD2    N1  162   2.907   0.075  11.910 -0.3154 -0.4735 -0.4917
   10MPD2    H7  163   2.957   0.067  11.822 -1.7479 -0.8167 -1.2732
   11TCq1    O1  164   4.231   4.199  14.604  0.2817 -0.3651  0.4461
   11TCq1    C1  165   4.107   4.161  14.649  0.3786  0.0660  0.1820
   11TCq1    O2  166   4.075   4.166  14.767 -0.8682 -0.3376  0.0434
   11TCq1    C2  167   4.029   4.234  14.546  0.3202  0.3600 -0.2357
   11TCq1    C3  168   4.062   4.368  14.540 -0.0922  0.5075  0.0576
   11TCq1    C4  169   4.002   4.446  14.444 -0.6267  0.1777  0.0142
   11TCq1    C5  170   3.902   4.398  14.365  0.0923 -0.7291  0.0793
   11TCq1    C6  171   3.878   4.266  14.371 -0.0253  0.0910 -0.2882
   11TCq1    C7  172   3.936   4.177  14.464  0.0421  0.0032  0.2542
   11TCq1    C8  173   3.766   4.221  14.277 -0.1701 -0.8868  0.5454
   11TCq1    O4  174   3.708   4.309  14.212  0.4271  0.4307 -0.0570
   11TCq1    C9  175   4.026   4.585  14.435  0.6625 -0.0092 -0.1836
   11TCq1    O5  176   4.128   4.625  14.502 -0.0230 -0.8257  0.9039
   11TCq1    O6  177   3.931   4.654  14.400 -0.1211 -0.2237 -0.0179
   11TCq1    H1  178   4.234   4.193  14.506 -1.0381  0.8094  0.3290
   11TCq1    H2  179   4.136   4.414  14.605  1.7604  0.1214 -1.7891
   11TCq1    H3  180   3.855   4.465  14.294  0.3796 -2.5104 -1.7860
   11TCq1    H4  181   3.898   4.076  14.476  0.0271  0.0922  0.9160
   12MPD2     C  182   3.612   4.049  14.071  0.7841 -0.1423 -0.2387
   12MPD2    C1  183   3.709   4.003  14.159 -0.3553  0.1729 -0.6360
   12MPD2    C2  184   3.730   3.867  14.154 -0.1808 -0.2434 -0.1719
   12MPD2    C3  185   3.658   3.783  14.069 -0.4878 -0.2835  0.4179
   12MPD2    C4  186   3.560   3.839  13.992  0.2991  0.5010 -0.5221
   12MPD2    C5  187   3.539   3.971  13.986 -0.2181  0.5454  0.4746
   12MPD2     H  188   3.803   3.821  14.220 -0.7607 -1.5735 -0.4457
   12MPD2    H1  189   3.508   3.786  13.913 -0.5303  1.0660 -0.3514
   12MPD2    H2  190   3.606   4.157  14.060  2.6413  0.1930  2.0183
   12MPD2    H3  191   3.476   4.021  13.912 -0.9687 -0.3798  0.4892
   12MPD2     N  192   3.686   3.643  14.048 -0.3045  0.3924 -0.4560
   12MPD2    H5  193   3.628   3.591  13.983  1.0209  0.5517 -1.7760
   12MPD2    N1  194   3.775   4.083  14.257  0.9024  0.4367 -0.7908
   12MPD2    H7  195   3.841   4.030  14.313  1.7231  2.1042 -0.2043
   13TCq1    O1  196   3.954   4.522  10.986 -0.7546  0.1271 -0.2462
   13TCq1    C1  197   3.825   4.482  10.983 -0.2687 -0.1243  0.0041
   13TCq1    O2  198   3.743   4.505  10.895  0.6604  0.5976  0.5241
   13TCq1    C2  199   3.831   4.357  11.063  0.3495 -0.4254  0.2077
   13TCq1    C3  200   3.938   4.275  11.054  1.3192 -0.0671 -0.1246
   13TCq1    C4  201   3.943   4.152  11.117  0.5771  0.2844  0.7117
   13TCq1    C5  202   3.834   4.115  11.190 -0.0006 -0.2183  0.0045
   13TCq1    C6  203   3.723   4.189  11.188 -0.2768 -0.0673 -0.4415
   13TCq1    C7  204   3.716   4.311  11.121 -0.4283  0.5474  0.9145
   13TCq1    C8  205   3.620   4.172  11.290 -0.1445 -0.3277 -1.0308
   13TCq1    O4  206   3.551   4.263  11.316  0.2007 -0.1821  0.1312
   13TCq1    C9  207   4.061   4.077  11.103  0.1452 -0.4567  0.4944
   13TCq1    O5  208   4.065   3.971  11.172 -0.1117 -0.3873 -0.1571
   13TCq1    O6  209   4.163   4.123  11.040 -0.2331  0.2728 -0.3821
   13TCq1    H1  210   4.005   4.490  11.063  0.7914 -1.9120 -2.1163
   13TCq1    H2  211   4.027   4.298  10.997  0.1988 -0.4557 -2.0171
   13TCq1    H3  212   3.844   4.023  11.248  0.1775  0.0800  0.4448
   13TCq1    H4  213   3.624   4.368  11.118 -0.1176  1.1820  3.5764
   14MPD2     C  214   3.550   3.850  11.455  0.2921 -0.2029  0.4146
   14MPD2    C1  215   3.529   3.983  11.423  0.0669 -0.0994 -0.9353
   14MPD2    C2  216   3.418   4.048  11.471  0.6208 -0.4793  0.2070
   14MPD2    C3  217   3.324   3.972  11.544 -0.1983  0.1055 -0.1641
   14MPD2    C4  218   3.352   3.835  11.579 -0.6997 -0.3003  0.0375
   14MPD2    C5  219   3.464   3.771  11.528 -0.4434 -0.3365  0.0957
   14MPD2     H  220   3.405   4.156  11.467  1.1972 -0.4213 -0.1405
   14MPD2    H1  221   3.293   3.774  11.646  0.6925  1.7438  3.0887
   14MPD2    H2  222   3.631   3.795  11.408 -0.0252 -0.3848  0.0767
   14MPD2    H3  223   3.498   3.671  11.554  1.5757  0.5247  0.7061
   14MPD2     N  224   3.205   4.030  11.586  0.2474 -0.0515  0.0286
   14MPD2    H5  225   3.177   4.118  11.545 -1.7336 -0.5851  0.2255
   14MPD2    N1  226   3.628   4.042  11.345 -0.7890  0.2166  0.9537
   14MPD2    H7  227   3.708   3.983  11.320 -2.2092 -1.3756  0.1882
   15TCq1    O1  228   0.136   3.077   1.390 -0.0963 -0.1905 -0.1504
   15TCq1    C1  229   0.195   3.190   1.433  0.5571 -0.1859 -0.0268
   15TCq1    O2  230   0.148   3.275   1.507 -0.5861 -0.0467 -0.0173
   15TCq1    C2  231   0.342   3.163   1.412  0.0437  0.1988  0.7748
   15TCq1    C3  232   0.422   3.274   1.429  1.0869 -0.4487 -0.5042
   15TCq1    C4  233   0.559   3.261   1.451  0.1749 -0.1151  0.1238
   15TCq1    C5  234   0.610   3.137   1.461 -0.0985 -0.2712  0.4098
   15TCq1    C6  235   0.530   3.028   1.460 -0.5122  0.2275  0.5650
   15TCq1    C7  236   0.399   3.038   1.434 -0.3223  0.2649  0.2085
   15TCq1    C8  237   0.596   2.899   1.472  0.0047  0.4650 -0.1097
   15TCq1    O4  238   0.530   2.800   1.443 -0.4418 -0.7081 -0.3745
   15TCq1    C9  239   0.638   3.379   1.482 -0.0416  0.9525 -0.4180
   15TCq1    O5  240   0.587   3.492   1.475 -0.0227  0.4971 -0.4760
   15TCq1    O6  241   0.752   3.357   1.537  0.0437 -0.0564 -0.3773
   15TCq1    H1  242   0.206   3.034   1.336 -0.0160  0.0258 -0.2193
   15TCq1    H2  243   0.378   3.373   1.420 -1.3899 -1.4413  0.6408
   15TCq1    H3  244   0.718   3.130   1.469  0.1309  0.8335 -1.8432
   15TCq1    H4  245   0.334   2.952   1.447  0.6377 -0.3882  0.7110
   16MPD2     C  246   0.883   2.818   1.699 -0.3352 -0.1711 -0.0312
   16MPD2    C1  247   0.784   2.798   1.603  0.3384  0.0650 -0.9157
   16MPD2    C2  248   0.773   2.675   1.547  0.0518  0.1232  0.0960
   16MPD2    C3  249   0.847   2.568   1.595  0.0149 -0.1150  0.0752
   16MPD2    C4  250   0.928   2.584   1.702  0.5600  0.6246  0.8146
   16MPD2    C5  251   0.958   2.713   1.739 -0.0833 -0.5947 -0.0702
   16MPD2     H  252   0.706   2.665   1.462 -0.5705 -1.6976  0.8044
   16MPD2    H1  253   0.991   2.506   1.743  0.0159  0.4243  1.2740
   16MPD2    H2  254   0.882   2.912   1.753 -1.4561 -1.4805  2.2458
   16MPD2    H3  255   1.036   2.726   1.813  2.3122  1.0041 -2.8466
   16MPD2     N  256   0.809   2.441   1.546  0.3209 -0.5920  0.3319
   16MPD2    H5  257   0.731   2.432   1.482  0.3913  1.7240 -0.0700
   16MPD2    N1  258   0.706   2.909   1.563  0.0484 -0.1270  0.0325
   16MPD2    H7  259   0.735   2.998   1.602  0.0262  0.6389 -1.6983
   17TMC1    C1  260   2.798   4.203  11.010 -0.0127 -0.1473 -0.3655
   17TMC1    C2  261   2.797   4.242  10.879  0.1785 -0.0659 -0.3401
   17TMC1    C3  262   2.685   4.312  10.837 -0.2843 -0.3584  0.0077
   17TMC1    C4  263   2.691   4.226  11.094 -0.2556  0.0856 -0.4463
   17TMC1    C5  264   2.578   4.276  11.042  0.1522  0.5429 -0.9956
   17TMC1    C6  265   2.572   4.317  10.915  0.2857  0.2336  0.5196
   17TMC1     C  266   2.896   4.102  11.060 -0.2354  0.2397 -0.6674
   17TMC1     O  267   2.850   4.020  11.139  0.9981  0.0117 -0.3567
   17TMC1     H  268   2.882   4.230  10.813  0.6094 -0.3058  0.2589
   17TMC1    H1  269   2.705   4.182  11.192  0.1782 -0.5508 -0.7950
   17TMC1    H2  270   2.483   4.366  10.876 -0.6333 -2.7965 -1.2134
   17TMC1    C7  271   2.472   4.331  11.128 -0.3266 -0.5969  0.2618
   17TMC1    C8  272   2.658   4.292  10.689  0.0278 -0.2752 -0.5332
   17TMC1    O1  273   2.403   4.432  11.097  0.1636  0.7189  0.0539
   17TMC1    O2  274   2.673   4.186  10.632  0.0587 -0.3570  0.4925
   17TMC1    O3  275   2.474   4.267  11.245  0.1628  0.1351  0.2121
   17TMC1    H3  276   2.529   4.186  11.247 -0.0099  0.0242  0.3394
   17TMC1    O5  277   2.655   4.409  10.624  0.1530 -0.6770 -0.2415
   17TMC1    H5  278   2.634   4.487  10.679 -0.7996 -1.2482  0.2214
   18MPD2     C  279   3.126   3.959  11.191 -0.2215 -0.0897 -0.5815
   18MPD2    C1  280   3.132   4.042  11.079  0.2096 -0.1200 -0.0224
   18MPD2    C2  281   3.259   4.065  11.021  0.1836  0.0053  0.2245
   18MPD2    C3  282   3.378   3.996  11.054 -0.2867 -0.1473  0.5753
   18MPD2    C4  283   3.355   3.889  11.142 -0.0409 -0.3092  0.5058
   18MPD2    C5  284   3.230   3.870  11.209 -0.1439  0.4655 -0.7530
   18MPD2     H  285   3.262   4.136  10.940  0.3901  1.5581  1.5860
   18MPD2    H1  286   3.440   3.822  11.154  0.0033  0.0279  2.0598
   18MPD2    H2  287   3.034   3.931  11.241 -0.3446  0.2720 -0.6063
   18MPD2    H3  288   3.217   3.785  11.275  0.4419  1.2295  0.3354
   18MPD2     N  289   3.501   4.012  10.994  0.6537 -0.6916  0.7566
   18MPD2    H5  290   3.574   3.952  11.030  1.8828  1.0668  1.1687
   18MPD2    N1  291   3.027   4.118  11.026  0.0301 -0.3166 -0.4425
   18MPD2    H7  292   3.053   4.191  10.960 -0.5592  1.5298  1.3811
   19TMC2    C1  293   0.330   4.238  14.099  0.8790  0.1043 -0.7635
   19TMC2    C2  294   0.385   4.282  14.219  0.9144  0.2812 -0.1987
   19TMC2    C3  295   0.297   4.312  14.316 -0.2482 -0.2743 -1.0030
   19TMC2    C4  296   0.199   4.200  14.090  0.0100  0.5851 -1.3464
   19TMC2    C5  297   0.118   4.210  14.200 -0.4160 -0.7473 -0.5458
   19TMC2    C6  298   0.167   4.274  14.306 -0.7994 -0.3447  0.1777
   19TMC2     C  299   0.418   4.169  14.016  0.3676  0.0250 -0.2948
   19TMC2     O  300   0.392   4.173  13.897 -0.3924 -0.5474 -0.0809
   19TMC2     H  301   0.485   4.324  14.217  1.3530 -0.8211 -1.4222
   19TMC2    H1  302   0.171   4.132  14.010  1.5029 -0.1511 -1.2288
   19TMC2    H2  303   0.102   4.300  14.390 -2.5672 -0.2148 -1.2267
   19TMC2    C7  304   0.035   4.095  14.217 -0.3716  0.4662 -0.2299
   19TMC2    C8  305   0.325   4.425  14.392 -0.5337 -0.2152 -1.0696
   19TMC2    O1  306   0.056   4.000  14.151 -0.1826 -0.6761  0.3363
   19TMC2    O2  307   0.437   4.430  14.445 -0.1160  0.1049 -0.1709
   19TMC2    O5  308   0.264   4.520  14.324 -0.0488  0.2554 -0.0490
   19TMC2    H5  309   0.176   4.496  14.288 -0.9863  0.9087  1.7961
   20MPD2     C  310   0.651   4.001  13.908 -0.4664 -0.6125  0.2154
   20MPD2    C1  311   0.618   4.021  14.041  0.4412  0.7817  0.0940
   20MPD2    C2  312   0.696   3.964  14.141 -0.1141 -0.2361 -0.2637
   20MPD2    C3  313   0.813   3.896  14.114 -0.0940 -0.6227  0.2111
   20MPD2    C4  314   0.849   3.876  13.981 -0.3884 -0.0192  0.0250
   20MPD2    C5  315   0.764   3.927  13.881  0.4241  0.1360  0.8779
   20MPD2     H  316   0.648   3.974  14.237 -1.6591 -0.4774 -1.0084
   20MPD2    H1  317   0.938   3.823  13.949 -0.3615  0.2003 -0.2615
   20MPD2    H2  318   0.597   4.040  13.823 -0.4929 -1.1089  0.0084
   20MPD2    H3  319   0.775   3.886  13.781  0.2977 -1.2610  1.4289
   20MPD2     N  320   0.898   3.834  14.209  0.0565  0.2577  0.4361
   20MPD2    H5  321   0.977   3.781  14.172  0.4445  0.2568  1.2606
   20MPD2    N1  322   0.515   4.098  14.091 -0.0725 -0.1737  0.1862
   20MPD2    H7  323   0.510   4.104  14.192 -0.0079  0.2334  0.1666
   21TMC2    C1  324   3.018   4.517  13.680  0.3791 -0.2855 -0.4279
   21TMC2    C2  325   3.054   4.397  13.622  0.1336 -0.6502 -0.6518
   21TMC2    C3  326   2.992   4.285  13.667  0.1746  0.5392  0.5060
   21TMC2    C4  327   2.906   4.526  13.759 -0.1420 -0.5789 -0.3213
   21TMC2    C5  328   2.857   4.406  13.809 -0.1472  0.2465  0.3344
   21TMC2    C6  329   2.897   4.287  13.768 -0.7347 -0.5631  0.6779
   21TMC2     C  330   3.130   4.543  13.768  0.8269 -0.1484 -0.3313
   21TMC2     O  331   3.212   4.450  13.776  0.0970 -0.1164  0.2666
   21TMC2     H  332   3.138   4.393  13.554  0.2610 -0.0395 -0.5316
   21TMC2    H1  333   2.867   4.620  13.796 -0.7926 -0.9478 -0.0429
   21TMC2    H2  334   2.864   4.195  13.814 -2.8892 -0.9979 -1.7554
   21TMC2    C7  335   2.844   4.414  13.954 -0.4670  0.3361 -0.4050
   21TMC2    C8  336   3.057   4.158  13.633 -0.1020  0.6548 -0.5404
   21TMC2    O1  337   2.921   4.341  14.016  0.2320  0.1180  0.2578
   21TMC2    O2  338   3.041   4.055  13.700  0.3173 -0.4426 -0.1208
   21TMC2    O5  339   3.112   4.160  13.508 -0.2292 -0.4006 -0.1890
   21TMC2    H5  340   3.129   4.252  13.478  0.7102 -1.3719 -2.6727
   22MPD2     C  341   3.261   4.690  14.228 -0.7791  0.8004  0.8677
   22MPD2    C1  342   3.254   4.570  14.168  0.6504  0.9197 -0.2587
   22MPD2    C2  343   3.204   4.572  14.045  0.1278  0.0033 -0.3017
   22MPD2    C3  344   3.164   4.677  13.977 -0.3072  0.8331  0.3935
   22MPD2    C4  345   3.158   0.055  14.040  0.7571  0.7467 -0.2441
   22MPD2    C5  346   3.216   0.063  14.165 -0.0040 -0.3608  0.4726
   22MPD2     H  347   3.200   4.472  14.003  2.6722  0.6806 -2.1774
   22MPD2    H1  348   3.111   0.143  13.997 -1.6826 -0.7438 -0.5997
   22MPD2    H2  349   3.282   4.701  14.334 -1.8604  2.5286  0.8911
   22MPD2    H3  350   3.191   0.145  14.232  1.1988 -0.9335  1.6254
   22MPD2     N  351   3.110   4.661  13.849 -0.0186 -0.6424 -0.1433
   22MPD2    H5  352   3.054   4.740  13.818  1.6096  0.1157 -1.1063
   22MPD2    N1  353   3.273   4.453  14.242  0.6300 -0.4517 -0.4496
   22MPD2    H7  354   3.258   4.363  14.198 -2.4633  0.3548 -1.0532
   23TMC2    C1  355   4.030   0.694  14.528  0.6311 -0.2942  0.7894
   23TMC2    C2  356   4.035   0.816  14.469  0.0100 -0.8830  0.3989
   23TMC2    C3  357   3.916   0.866  14.429 -0.0406  0.6320  0.8310
   23TMC2    C4  358   3.917   0.619  14.546  0.3236  0.3527  0.0937
   23TMC2    C5  359   3.797   0.682  14.511  0.3248  0.1300 -0.6876
   23TMC2    C6  360   3.793   0.805  14.446  0.1462  0.1517 -0.0445
   23TMC2     C  361   4.152   0.636  14.560  0.0763  1.0322 -0.0415
   23TMC2     O  362   4.153   0.546  14.641 -0.0257  0.0946 -0.4868
   23TMC2     H  363   4.112   0.892  14.471 -1.0655  0.2207  0.0249
   23TMC2    H1  364   3.924   0.516  14.577 -0.1550  0.9373  2.1903
   23TMC2    H2  365   3.708   0.847  14.393 -0.0042  0.0576  0.1203
   23TMC2    C7  366   3.681   0.594  14.495 -0.5846  0.0369  0.3903
   23TMC2    C8  367   3.919   0.986  14.344  0.2759  0.0913  0.5073
   23TMC2    O1  368   3.708   0.476  14.501  0.4934  0.3779 -0.9176
   23TMC2    O2  369   4.008   1.016  14.264 -0.0606  0.6712 -0.0523
   23TMC2    O5  370   3.819   1.065  14.384  0.7482  0.1925  0.3188
   23TMC2    H5  371   3.783   1.036  14.471 -2.5449 -0.1364 -1.1291
   24MPD2     C  372   4.662   0.568  14.506 -0.5453  0.0748 -0.0466
   24MPD2    C1  373   4.579   0.535  14.615  0.2809 -0.1590 -0.0279
   24MPD2    C2  374   4.439   0.572  14.606 -0.4542 -0.0163  0.2491
   24MPD2    C3  375   4.388   0.640  14.493  0.5061  0.6101 -0.3263
   24MPD2    C4  376   4.472   0.668  14.395  0.0267  0.1332  0.5666
   24MPD2    C5  377   4.603   0.622  14.396 -0.0698  0.2395  0.0185
   24MPD2     H  378   4.386   0.557  14.700 -2.7199  0.2446 -0.9868
   24MPD2    H1  379   4.430   0.703  14.302  1.9353 -0.6250 -0.5726
   24MPD2    H2  380   0.027   0.545  14.500 -0.6410 -1.0119  2.4165
   24MPD2    H3  381   4.653   0.636  14.301 -2.8460  1.9355 -1.1873
   24MPD2     N  382   4.254   0.676  14.479  0.3777 -0.0018  0.4258
   24MPD2    H5  383   4.236   0.728  14.394 -1.0253  1.4662  1.6156
   24MPD2    N1  384   4.634   0.482  14.732  0.2033  0.3398 -0.1968
   24MPD2    H7  385   4.568   0.487  14.809  0.0171  1.3560 -0.4116
   25TMC2    C1  386   2.759   3.720  11.490  0.7291 -0.3275 -0.0652
   25TMC2    C2  387   2.701   3.817  11.414 -0.3502  0.3375  0.0163
   25TMC2    C3  388   2.573   3.843  11.443 -0.0082 -0.2877 -0.3320
   25TMC2    C4  389   2.697   3.646  11.588 -0.4357 -0.2040  0.1736
   25TMC2    C5  390   2.573   3.682  11.619 -0.4234 -0.1229  0.1778
   25TMC2    C6  391   2.510   3.781  11.549  0.4141  0.0364 -0.5409
   25TMC2     C  392   2.894   3.688  11.455 -0.0542  0.0973  0.3236
   25TMC2     O  393   2.966   3.785  11.442 -0.4270 -0.3296 -0.1863
   25TMC2     H  394   2.759   3.862  11.334  1.9937  0.8016  1.9829
   25TMC2    H1  395   2.751   3.568  11.641  0.8358  1.6179  1.5642
   25TMC2    H2  396   2.409   3.814  11.571  0.1580 -1.1277  0.0448
   25TMC2    C7  397   2.499   3.582  11.699  0.5270  0.6449  0.6824
   25TMC2    C8  398   2.533   3.982  11.406 -0.4917 -0.0132 -0.0607
   25TMC2    O1  399   2.564   3.486  11.731 -0.4592 -0.1091  0.1625
   25TMC2    O2  400   2.578   4.039  11.308 -0.3614 -0.0871  0.1657
   25TMC2    O5  401   2.430   4.023  11.486 -0.4541 -0.3393 -0.1906
   25TMC2    H5  402   2.413   3.978  11.572  0.7141  0.7450  0.6031
   26MPD2     C  403   3.281   3.387  11.306 -0.3953 -0.2299 -0.4355
   26MPD2    C1  404   3.167   3.308  11.305  0.0385 -0.9115  0.2087
   26MPD2    C2  405   3.045   3.358  11.352  0.3179 -0.5918  0.4443
   26MPD2    C3  406   3.039   3.492  11.402  0.1474  0.3166  0.2179
   26MPD2    C4  407   3.157   3.567  11.394  0.9466 -0.4604  0.0384
   26MPD2    C5  408   3.277   3.515  11.343 -0.1180  0.2731 -0.4562
   26MPD2     H  409   2.948   3.310  11.341  0.0586 -0.4837  2.3568
   26MPD2    H1  410   3.165   3.667  11.436 -0.5587  0.6590 -2.3000
   26MPD2    H2  411   3.377   3.347  11.276 -0.3229  0.3786 -1.0174
   26MPD2    H3  412   3.369   3.572  11.338  0.1173  0.2533  3.5647
   26MPD2     N  413   2.915   3.547  11.441  0.5471  0.0590  0.2196
   26MPD2    H5  414   2.831   3.490  11.447  0.4539  0.1462 -0.3053
   26MPD2    N1  415   3.176   3.184  11.245  0.2142 -0.4244  0.1749
   26MPD2    H7  416   3.265   3.152  11.207  0.6346  1.0157 -0.0335
   27TMC2    C1  417   2.132   0.963  12.023  0.3487 -0.1177  0.2967
   27TMC2    C2  418   2.261   0.989  11.982  0.3477 -0.9003  0.4488
   27TMC2    C3  419   2.354   1.021  12.083  0.2122  0.3970 -0.2348
   27TMC2    C4  420   2.101   0.985  12.153 -0.4067 -0.1221 -0.0589
   27TMC2    C5  421   2.193   1.025  12.251 -0.5515  0.3444  0.3837
   27TMC2    C6  422   2.326   1.037  12.216  1.0641 -0.8766 -0.1703
   27TMC2     C  423   2.069   0.855  11.959 -0.1590 -0.5063  0.0821
   27TMC2     O  424   2.078   0.840  11.834 -0.1948 -0.1073  0.0347
   27TMC2     H  425   2.292   0.983  11.878 -2.7039 -2.3431 -0.3887
   27TMC2    H1  426   1.999   0.963  12.180 -0.5047 -0.4819 -0.7134
   27TMC2    H2  427   2.399   1.069  12.289  0.5559 -0.9396  0.3603
   27TMC2    C7  428   2.157   0.991  12.391 -0.0164 -0.4627 -0.0903
   27TMC2    C8  429   2.497   1.039  12.059  0.4472 -0.2193  0.0767
   27TMC2    O1  430   2.040   0.971  12.416 -0.1021  0.4643  0.2373
   27TMC2    O2  431   2.564   1.139  12.075  0.2120 -0.1670 -0.0945
   27TMC2    O5  432   2.532   0.948  11.973  0.1223 -0.4439 -0.1216
   27TMC2    H5  433   2.479   0.865  11.980 -2.4137  1.2771  1.0411
   28MPD2     C  434   1.700   0.491  11.984 -1.1499  0.1021  0.1517
   28MPD2    C1  435   1.710   0.558  12.101  1.0303  0.4237  0.3510
   28MPD2    C2  436   1.804   0.652  12.114  0.3416  0.4174  0.2281
   28MPD2    C3  437   1.886   0.696  12.011 -0.4223 -0.3757  0.4344
   28MPD2    C4  438   1.868   0.634  11.891  0.5671  0.1529 -0.5098
   28MPD2    C5  439   1.781   0.535  11.875  0.9469  0.5590  0.6492
   28MPD2     H  440   1.796   0.713  12.203  1.4294 -1.4333  1.5886
   28MPD2    H1  441   1.936   0.666  11.813  0.6622  0.3446 -0.3480
   28MPD2    H2  442   1.630   0.411  11.964 -1.1282  0.4661 -1.3655
   28MPD2    H3  443   1.779   0.484  11.779 -3.2299  0.7524  0.6084
   28MPD2     N  444   1.988   0.785  12.045  0.2502 -0.6614 -0.2085
   28MPD2    H5  445   1.988   0.819  12.140  0.5395 -1.9254  0.2429
   28MPD2    N1  446   1.619   0.521  12.208 -0.6023 -0.0288 -0.1571
   28MPD2    H7  447   1.545   0.455  12.188 -0.4596  0.5378 -2.6123
   29TMC2    C1  448   1.311   3.016  14.540 -0.4242 -0.4481  0.0061
   29TMC2    C2  449   1.303   3.033  14.680  0.0379 -0.4335 -1.3010
   29TMC2    C3  450   1.367   3.140  14.737  0.4353 -0.2363 -0.2767
   29TMC2    C4  451   1.395   3.095  14.473 -0.3472 -0.0397 -0.3610
   29TMC2    C5  452   1.456   3.197  14.541 -0.1716  0.6790  0.1136
   29TMC2    C6  453   1.452   3.222  14.671  0.7703 -0.6049  0.0063
   29TMC2     C  454   1.250   2.905  14.475  0.2897 -0.2483 -0.4048
   29TMC2     O  455   1.245   2.795  14.531  0.0524  0.0349 -0.6366
   29TMC2     H  456   1.244   2.973  14.749  3.1547 -0.8246  1.0439
   29TMC2    H1  457   1.427   3.068  14.373  2.2797 -1.0223  0.7278
   29TMC2    H2  458   1.491   3.309  14.723 -0.2359 -0.7391  0.9774
   29TMC2    C7  459   1.505   3.285  14.443 -0.3675  0.6428 -0.8149
   29TMC2    C8  460   1.360   3.164  14.879  0.2077  0.0117  0.3919
   29TMC2    O1  461   1.441   3.292  14.337 -0.3454  0.4463  1.0947
   29TMC2    O2  462   1.458   3.197  14.943 -0.0298 -0.1853 -0.2065
   29TMC2    O5  463   1.236   3.132  14.927 -0.0870 -0.7067  0.1796
   29TMC2    H5  464   1.169   3.130  14.856  0.1013  1.4521 -0.0430
   30MPD2     C  465   1.098   2.723  14.026 -0.2234 -0.0704 -0.7095
   30MPD2    C1  466   1.166   2.660  14.125 -0.1330  0.8888 -0.6235
   30MPD2    C2  467   1.199   2.729  14.241 -0.6113 -0.1240  0.1743
   30MPD2    C3  468   1.170   2.865  14.249  0.0823 -1.1457  0.1390
   30MPD2    C4  469   1.090   2.927  14.151  0.0669  0.0107  0.0045
   30MPD2    C5  470   1.058   2.853  14.037  0.3946 -0.3523 -1.3020
   30MPD2     H  471   1.252   2.672  14.317 -0.3020  0.6235  0.5203
   30MPD2    H1  472   1.060   3.031  14.151 -3.3679 -0.9787 -0.7944
   30MPD2    H2  473   1.073   2.678  13.931 -1.6785  0.9687 -0.8125
   30MPD2    H3  474   1.004   2.898  13.955 -0.8857  0.8077  0.1642
   30MPD2     N  475   1.200   2.945  14.359  0.7100 -0.5562  0.0462
   30MPD2    H5  476   1.187   3.043  14.337  0.4201 -1.0663 -2.1243
   30MPD2    N1  477   1.197   2.519  14.121  0.0412  0.0969 -0.2384
   30MPD2    H7  478   1.249   2.481  14.199 -0.4405  1.9914  0.9957
   31TMC2    C1  479   4.642   1.226  15.309 -0.1054 -0.1575 -0.3306
   31TMC2    C2  480   4.708   1.136  15.235 -0.1408 -0.0853  0.6505
   31TMC2    C3  481   4.733   1.008  15.285  0.8929 -0.0698  0.5474
   31TMC2    C4  482   4.589   1.187  15.429 -0.1513  0.0378 -0.7906
   31TMC2    C5  483   4.599   1.055  15.469 -0.0305 -0.4667  0.1209
   31TMC2    C6  484   4.687   0.971  15.405 -0.1379 -0.0855  0.0168
   31TMC2     C  485   4.571   1.333  15.241  0.5192  0.2366  0.4088
   31TMC2     O  486   4.618   1.359  15.130 -0.2147  0.2305 -0.3507
   31TMC2     H  487   4.726   1.160  15.130 -1.1198  1.6384  0.8830
   31TMC2    H1  488   4.552   1.264  15.495  0.2038  0.0612 -0.6188
   31TMC2    H2  489   4.700   0.867  15.432  3.4772  0.7879  1.5813
   31TMC2    C7  490   4.562   1.014  15.603 -1.0601  0.5754  0.8944
   31TMC2    C8  491   0.004   0.907  15.183  0.2880  0.1634 -0.4051
   31TMC2    O1  492   4.660   0.982  15.670  0.5433  0.1761  0.2415
   31TMC2    O2  493   4.694   0.924  15.072 -0.1007  0.2586 -0.9276
   31TMC2    O5  494   0.079   0.801  15.232 -0.1277  0.1077 -0.1936
   31TMC2    H5  495   0.129   0.825  15.313  1.0755  1.8952 -1.4641
   32MPD2     C  496   4.153   1.626  15.168 -0.3430 -0.2677 -0.2367
   32MPD2    C1  497   4.243   1.587  15.078 -0.0655 -0.3277 -0.0415
   32MPD2    C2  498   4.353   1.511  15.125  0.3886 -0.3657  0.6188
   32MPD2    C3  499   4.356   1.469  15.257 -0.4056 -0.2251  0.2215
   32MPD2    C4  500   4.258   1.506  15.339 -0.2448 -0.0214  0.4350
   32MPD2    C5  501   4.149   1.582  15.296  0.1581 -0.4642 -0.3807
   32MPD2     H  502   4.429   1.488  15.051  0.3706 -0.6203  0.6789
   32MPD2    H1  503   4.254   1.468  15.441 -0.8065 -0.1917  0.3515
   32MPD2    H2  504   4.068   1.685  15.136 -2.1741 -2.1243  1.2267
   32MPD2    H3  505   4.075   1.603  15.372  1.0309  1.1240  0.0174
   32MPD2     N  506   4.454   1.381  15.306  0.0319  0.3873 -0.5241
   32MPD2    H5  507   4.431   1.320  15.384  1.3973 -1.5972 -1.6606
   32MPD2    N1  508   4.233   1.620  14.939  0.1399  0.8529  1.0590
   32MPD2    H7  509   4.153   1.678  14.914 -1.9508 -1.3327  2.6053
   33TMC2    C1  510   3.845   4.675  10.084 -0.8458 -1.2371  0.5365
   33TMC2    C2  511   3.714   4.700  10.055  0.9986  0.3653 -0.4600
   33TMC2    C3  512   3.684   0.082   9.999 -0.0809 -0.1676 -0.3854
   33TMC2    C4  513   3.936   0.033  10.061 -0.6381 -0.1840  0.8708
   33TMC2    C5  514   3.903   0.156  10.016 -0.2171 -0.1877 -0.5050
   33TMC2    C6  515   3.775   0.180   9.988  0.5853  0.0729 -0.1785
   33TMC2     C  516   3.873   4.555  10.161 -0.3016 -0.3764 -0.5006
   33TMC2     O  517   3.774   4.496  10.206  0.3076 -0.1272 -0.0555
   33TMC2     H  518   3.638   4.624  10.069  2.7360 -1.2721 -0.0131
   33TMC2    H1  519   4.037   0.026  10.099  0.1041  0.0495 -1.0663
   33TMC2    H2  520   3.747   0.281   9.961 -1.1153 -0.7913 -1.5839
   33TMC2    C7  521   4.004   0.251   9.999  0.1760  0.1250  0.4250
   33TMC2    C8  522   3.548   0.114  10.006 -0.2531 -0.9199 -0.2604
   33TMC2    O1  523   4.099   0.245  10.077  0.1571  0.5699 -0.2551
   33TMC2    O2  524   3.502   0.189   9.924  0.2817  0.1510  0.2851
   33TMC2    O5  525   3.504   0.097  10.134  0.5304  0.0052  0.2565
   33TMC2    H5  526   3.574   0.059  10.190  0.2971  1.5825  1.6137
   34MPD2     C  527   4.197   4.273  10.433 -0.0922 -1.3148 -0.0882
   34MPD2    C1  528   4.067   4.307  10.462  0.0816  0.5879  0.3590
   34MPD2    C2  529   3.999   4.389  10.373  0.0760  0.3829 -0.2839
   34MPD2    C3  530   4.071   4.442  10.266  0.5207 -0.5877  0.0678
   34MPD2    C4  531   4.193   4.396  10.240 -0.6552 -0.0344  0.3723
   34MPD2    C5  532   4.262   4.317  10.324 -0.3354 -0.0229 -0.4751
   34MPD2     H  533   3.897   4.421  10.393  0.6455  0.9008  1.7601
   34MPD2    H1  534   4.250   4.434  10.156  0.6581 -1.8773  0.4087
   34MPD2    H2  535   4.251   4.218  10.510 -0.6119 -0.0748  1.1569
   34MPD2    H3  536   4.365   4.291  10.301  0.7729  5.0377 -1.2240
   34MPD2     N  537   4.007   4.535  10.174 -0.4339 -0.4056  0.2599
   34MPD2    H5  538   4.073   4.577  10.109  1.0052 -0.3885  1.7286
   34MPD2    N1  539   4.015   4.244  10.578  0.4212 -0.1867 -0.4249
   34MPD2    H7  540   4.071   4.178  10.631 -1.0186 -0.8472  0.2501
   35TMC2    C1  541   4.698   0.359  11.715  0.2934 -0.5259 -0.2233
   35TMC2    C2  542   4.562   0.362  11.679 -0.8238 -0.1984  0.1187
   35TMC2    C3  543   4.497   0.249  11.672  0.0853 -0.1668 -0.1772
   35TMC2    C4  544   0.030   0.243  11.723  0.1315 -0.6719 -0.6060
   35TMC2    C5  545   4.692   0.131  11.719  0.3314  0.6435  0.1528
   35TMC2    C6  546   4.560   0.133  11.689 -0.1401  0.3930 -0.6737
   35TMC2     C  547   0.027   0.483  11.681  0.1671 -0.0477 -0.0687
   35TMC2     O  548   4.703   0.553  11.602 -0.1730  0.2688  0.3979
   35TMC2     H  549   4.507   0.452  11.656  0.8621  0.8913  0.3808
   35TMC2    H1  550   0.138   0.244  11.725  0.1206 -0.8484  0.0296
   35TMC2    H2  551   4.501   0.043  11.695 -0.9862  0.8963 -1.5046
   35TMC2    C7  552   0.021   0.002  11.759 -0.6839  0.7598 -0.2060
   35TMC2    C8  553   4.355   0.245  11.654  0.0223 -0.7948  1.0038
   35TMC2    O1  554   4.710   4.638  11.725  0.1362 -0.5574 -0.0782
   35TMC2    O2  555   4.304   0.141  11.618 -0.3157  0.1850  0.2205
   35TMC2    O5  556   4.314   0.311  11.766  0.2316 -0.3984  0.3688
   35TMC2    H5  557   4.368   0.389  11.792  0.8966 -0.7698  0.0802
   36MPD2     C  558   0.453   0.769  11.671  0.1610  0.4538 -0.3585
   36MPD2    C1  559   0.492   0.650  11.729  0.4924  0.0499  0.5776
   36MPD2    C2  560   0.383   0.562  11.754 -0.3841 -0.2751  0.9779
   36MPD2    C3  561   0.252   0.583  11.706 -0.5423  0.2277 -0.2542
   36MPD2    C4  562   0.229   0.696  11.633  0.6766  0.0712 -0.3162
   36MPD2    C5  563   0.327   0.789  11.621  0.0317 -0.1947  0.0898
   36MPD2     H  564   0.399   0.468  11.805 -0.8243 -1.2402 -0.6353
   36MPD2    H1  565   0.134   0.725  11.589  0.9231 -0.2592 -1.0592
   36MPD2    H2  566   0.529   0.845  11.660 -0.0202  0.9408  1.6604
   36MPD2    H3  567   0.291   0.881  11.575 -2.1103 -1.2226 -0.3015
   36MPD2     N  568   0.154   0.486  11.726 -0.1840  0.2247 -0.2230
   36MPD2    H5  569   0.182   0.409  11.787  1.8780  1.1530 -0.0127
   36MPD2    N1  570   0.624   0.624  11.770 -0.2262 -0.2293 -0.1494
   36MPD2    H7  571   0.675   0.710  11.757 -0.0576 -0.6950 -2.4890
   37TMC2    C1  572   2.226   0.472  11.533  0.2149  0.1226 -0.0948
   37TMC2    C2  573   2.120   0.487  11.440 -0.1663 -0.3349  0.2192
   37TMC2    C3  574   2.145   0.516  11.311 -0.3444  0.2644 -0.2757
   37TMC2    C4  575   2.351   0.480  11.485 -0.1782  0.2570 -0.1824
   37TMC2    C5  576   2.374   0.519  11.357  0.6460  0.3839  0.2776
   37TMC2    C6  577   2.270   0.531  11.265  0.1161 -0.2240  0.2028
   37TMC2     C  578   2.190   0.456  11.673  0.6631 -0.1705 -0.0273
   37TMC2     O  579   2.071   0.478  11.698  0.3995 -0.1858  0.0512
   37TMC2     H  580   2.020   0.461  11.474 -0.7926  2.2518  0.2858
   37TMC2    H1  581   2.437   0.476  11.551  0.9677 -0.0630 -1.6744
   37TMC2    H2  582   2.281   0.560  11.161 -0.6388  0.3189  0.2781
   37TMC2    C7  583   2.510   0.542  11.315 -0.5279  0.2868 -0.0067
   37TMC2    C8  584   2.031   0.550  11.224 -0.0713 -0.4555 -0.4123
   37TMC2    O1  585   2.593   0.537  11.402  0.1565  0.0812 -0.5320
   37TMC2    O2  586   2.024   0.501  11.114 -0.2236 -0.3820 -0.1773
   37TMC2    O5  587   1.924   0.584  11.295  0.3004  0.1980 -0.0278
   37TMC2    H5  588   1.950   0.616  11.384 -5.4717  1.3676  1.2149
   38MPD2     C  589   2.289   0.394  12.169  0.0659  0.2374  0.5245
   38MPD2    C1  590   2.405   0.356  12.098 -0.1983 -0.4973  0.1232
   38MPD2    C2  591   2.404   0.376  11.964 -0.2021  0.6399  0.0568
   38MPD2    C3  592   2.291   0.427  11.903 -0.2153 -0.5079 -0.0457
   38MPD2    C4  593   2.175   0.466  11.975 -0.1422  0.7099  0.7063
   38MPD2    C5  594   2.179   0.461  12.108 -0.0599  0.1333  0.0287
   38MPD2     H  595   2.491   0.358  11.902  1.0084  0.9425  1.6729
   38MPD2    H1  596   2.091   0.518  11.931  0.7971  1.9797  0.4365
   38MPD2    H2  597   2.286   0.379  12.276  1.2743  4.4016  1.1457
   38MPD2    H3  598   2.106   0.515  12.166 -1.3281  0.9463 -2.3314
   38MPD2     N  599   2.292   0.432  11.761 -0.2692  0.1483 -0.1502
   38MPD2    H5  600   2.388   0.430  11.728 -1.0816 -4.2834 -2.2568
   38MPD2    N1  601   2.518   0.304  12.161  0.0321  0.7625  0.1835
   38MPD2    H7  602   2.597   0.288  12.098  0.3876 -0.9852  1.0775
   39TMC2    C1  603   0.765   2.023   1.874 -0.3147 -0.1547 -0.0923
   39TMC2    C2  604   0.749   2.145   1.934 -0.6347 -0.3597 -0.6087
   39TMC2    C3  605   0.861   2.229   1.949  0.4031  0.3024  0.3861
   39TMC2    C4  606   0.889   1.979   1.844  0.6782 -0.1724  0.4163
   39TMC2    C5  607   0.994   2.058   1.866  0.0067 -0.6986  0.0155
   39TMC2    C6  608   0.984   2.181   1.929 -0.0637 -0.7715 -0.0693
   39TMC2     C  609   0.648   1.976   1.796  0.1242  0.0095  0.3415
   39TMC2     O  610   0.559   2.060   1.791 -0.7622 -0.0773 -0.0757
   39TMC2     H  611   0.651   2.183   1.959 -1.0436 -1.3324 -0.7433
   39TMC2    H1  612   0.908   1.885   1.793 -1.3129 -1.1836  1.5470
   39TMC2    H2  613   1.071   2.245   1.932  0.2975 -1.2223 -0.9032
   39TMC2    C7  614   1.122   2.018   1.796 -0.3759  0.0062  0.1219
   39TMC2    C8  615   0.842   2.374   1.972 -0.2469  0.0778 -0.0311
   39TMC2    O1  616   1.140   1.900   1.770  0.1527  0.2643 -0.0751
   39TMC2    O2  617   0.737   2.432   1.953 -0.0958 -0.4219 -0.6422
   39TMC2    O5  618   0.949   2.421   2.049 -0.3807  0.2368 -0.1801
   39TMC2    H5  619   1.002   2.351   2.093  1.8328  0.4002 -2.5957
   40MPD2     C  620   0.633   1.689   1.572  0.1260  0.0527  0.2736
   40MPD2    C1  621   0.592   1.807   1.634 -0.0968 -0.3018  0.4846
   40MPD2    C2  622   0.465   1.866   1.605  0.2205  0.1581 -0.3094
   40MPD2    C3  623   0.387   1.800   1.512  0.5863 -0.2329 -0.3832
   40MPD2    C4  624   0.424   1.680   1.459  0.6971  0.1462  0.1436
   40MPD2    C5  625   0.544   1.626   1.491 -0.3969 -0.3612 -0.2885
   40MPD2     H  626   0.421   1.954   1.650 -1.5768 -0.6850 -0.4099
   40MPD2    H1  627   0.358   1.642   1.382  0.6503  0.0123  0.2505
   40MPD2    H2  628   0.732   1.653   1.595  0.1458 -0.1346 -0.1168
   40MPD2    H3  629   0.574   1.534   1.442 -0.3165 -0.1301 -0.6795
   40MPD2     N  630   0.264   1.852   1.460  0.3843 -0.3952 -0.0510
   40MPD2    H5  631   0.219   1.785   1.399  0.7009 -2.0434  1.5290
   40MPD2    N1  632   0.682   1.874   1.712  0.9495 -0.1539  0.2965
   40MPD2    H7  633   0.775   1.835   1.724  0.3852 -1.2810  0.9880
   41TMC2    C1  634   0.077   0.519  13.564 -0.9193 -0.2851  0.5009
   41TMC2    C2  635   0.001   0.401  13.560 -0.6425 -0.1144  0.3387
   41TMC2    C3  636   4.735   0.339  13.439  0.3203 -0.0610 -0.6496
   41TMC2    C4  637   0.141   0.572  13.448  0.0240 -0.2383 -0.1863
   41TMC2    C5  638   0.135   0.496  13.339  0.1976  0.4269  0.2722
   41TMC2    C6  639   0.059   0.384  13.322 -0.5599  0.3411  0.0265
   41TMC2     C  640   0.055   0.613  13.678 -0.2807  0.2093 -0.2524
   41TMC2     O  641   0.057   0.733  13.644 -0.0856  0.3182 -0.3775
   41TMC2     H  642   4.689   0.355  13.643  1.9644  1.3427  2.7822
   41TMC2    H1  643   0.192   0.667  13.458  0.2668 -0.2486 -1.3136
   41TMC2    H2  644   0.078   0.319  13.237 -1.7708 -0.5267  0.4140
   41TMC2    C7  645   0.191   0.568  13.224  0.3349 -0.4531  0.0279
   41TMC2    C8  646   4.666   0.219  13.436 -0.2601  0.0507  1.0715
   41TMC2    O1  647   0.263   0.667  13.247 -0.2295 -0.1986  0.2558
   41TMC2    O2  648   4.681   0.128  13.520 -0.2285  0.1555 -0.0907
   41TMC2    O5  649   4.605   0.219  13.317 -0.4023  0.1228 -0.2056
   41TMC2    H5  650   4.589   0.311  13.289  0.7400  1.0682  2.2892
   42MPD2     C  651   0.055   0.747  13.936  0.3732 -0.0704 -0.2192
   42MPD2    C1  652   0.080   0.617  13.923  1.0539  0.1999 -0.3898
   42MPD2    C2  653   0.128   0.555  14.033  0.0742 -0.4100  0.1613
   42MPD2    C3  654   0.151   0.622  14.154  0.0383 -0.6437 -0.1137
   42MPD2    C4  655   0.111   0.748  14.170  0.5267 -0.4082 -0.0738
   42MPD2    C5  656   0.061   0.809  14.056 -0.2764 -0.1353  0.4354
   42MPD2     H  657   0.165   0.454  14.020 -0.6879 -0.7022  0.2730
   42MPD2    H1  658   0.138   0.811  14.254 -0.3149 -1.5490  1.0540
   42MPD2    H2  659   0.022   0.806  13.851 -0.4896  2.1322  1.6222
   42MPD2    H3  660   0.035   0.914  14.062 -1.9547 -0.6736  2.4544
   42MPD2     N  661   0.229   0.561  14.259  0.3359  0.1558 -0.3842
   42MPD2    H5  662   0.254   0.626  14.333  0.3804 -0.9900  0.6117
   42MPD2    N1  663   0.072   0.548  13.796  0.4740  0.0372 -0.5558
   42MPD2    H7  664   0.120   0.458  13.796 -1.0332 -0.7792 -4.3750
   43TMC2    C1  665   0.765   3.570   0.445 -0.6680  0.9816  0.0275
   43TMC2    C2  666   0.673   3.517   0.353 -0.0114 -0.2646 -0.4742
   43TMC2    C3  667   0.609   3.609   0.276  0.1653 -0.8605  0.8369
   43TMC2    C4  668   0.779   3.705   0.462 -0.1469  0.2824 -0.7378
   43TMC2    C5  669   0.718   3.788   0.373  0.0119  0.2092 -0.5130
   43TMC2    C6  670   0.624   3.744   0.280  0.5796 -0.4596 -0.6544
   43TMC2     C  671   0.869   3.482   0.501 -0.7354  0.4691 -0.7034
   43TMC2     O  672   0.981   3.520   0.535 -0.0791  0.3628 -0.0674
   43TMC2     H  673   0.710   3.425   0.311 -0.5958 -0.9816  0.5539
   43TMC2    H1  674   0.841   3.743   0.542  0.9112  1.8036 -2.2763
   43TMC2    H2  675   0.573   3.811   0.212  0.4994  0.0304 -0.1131
   43TMC2    C7  676   0.738   3.935   0.384  0.1502 -0.2890 -0.5472
   43TMC2    C8  677   0.565   3.554   0.152  0.5163  0.1271 -0.5706
   43TMC2    O1  678   0.655   4.012   0.340  0.3524 -0.1095 -0.5475
   43TMC2    O2  679   0.527   3.628   0.057 -0.2186  0.6380  0.5383
   43TMC2    O5  680   0.518   3.430   0.182 -0.5747 -0.2839  0.5446
   43TMC2    H5  681   0.543   3.406   0.274 -0.7659  1.5841  1.0818
   44MPD2     C  682   0.923   3.045   0.769 -0.3474 -0.5274  0.5676
   44MPD2    C1  683   1.017   3.138   0.735 -0.9692 -0.5379  0.3398
   44MPD2    C2  684   0.974   3.250   0.668  0.3502  0.2175 -0.4961
   44MPD2    C3  685   0.841   3.276   0.637  0.0964  0.0628 -0.3840
   44MPD2    C4  686   0.754   3.170   0.662  0.2094 -0.4292 -0.4548
   44MPD2    C5  687   0.793   3.061   0.728  0.2010  0.1203 -0.0324
   44MPD2     H  688   1.049   3.328   0.660  0.8132 -0.3435 -1.7305
   44MPD2    H1  689   0.650   3.164   0.631 -0.9171  1.0341  3.0009
   44MPD2    H2  690   0.943   2.952   0.821 -0.9364  0.1802  2.0591
   44MPD2    H3  691   0.728   2.975   0.731  0.7988 -0.3342 -0.1157
   44MPD2     N  692   0.797   3.383   0.556 -0.1665 -0.6550 -0.6767
   44MPD2    H5  693   0.696   3.382   0.545 -0.3961  0.0301  1.4238
   44MPD2    N1  694   1.154   3.126   0.766  0.7131 -0.5863  0.0179
   44MPD2    H7  695   1.219   3.201   0.743 -0.0643 -0.0161 -0.3043
   45TMC2    C1  696   2.219   1.615   9.733  0.1939  0.1492  0.0120
   45TMC2    C2  697   2.185   1.588   9.596  0.1063 -0.0743 -0.5422
   45TMC2    C3  698   2.237   1.662   9.493 -0.0723 -0.0824 -0.8182
   45TMC2    C4  699   2.293   1.724   9.763  1.0569  0.5006 -0.2164
   45TMC2    C5  700   2.342   1.792   9.655  0.5117 -0.5996  0.2881
   45TMC2    C6  701   2.319   1.771   9.520  0.0337  0.0189  0.2168
   45TMC2     C  702   2.178   1.535   9.852 -0.7706 -0.1149 -0.0942
   45TMC2     O  703   2.188   1.589   9.958 -0.3987 -0.1644  0.5877
   45TMC2     H  704   2.114   1.512   9.567 -1.7044  1.6489 -0.6539
   45TMC2    H1  705   2.325   1.743   9.864 -0.3392 -0.1809  0.3573
   45TMC2    H2  706   2.360   1.831   9.440 -2.7482  1.0480 -0.4257
   45TMC2    C7  707   2.442   1.893   9.693  1.1450  0.5020  0.6657
   45TMC2    C8  708   2.174   1.653   9.364 -0.1562  0.3008 -0.0216
   45TMC2    O1  709   2.439   1.940   9.811 -0.0235  0.2784  0.3402
   45TMC2    O2  710   2.108   1.557   9.327 -0.1296  0.4005 -0.2048
   45TMC2    O5  711   2.127   1.779   9.354  0.0708 -0.4212  0.6416
   45TMC2    H5  712   2.170   1.836   9.420  0.4007  1.0419 -0.8438
   46MPD2     C  713   2.114   1.345  10.059 -0.2694 -0.2035  0.0129
   46MPD2    C1  714   2.065   1.338   9.929 -0.4849  0.2576 -0.0257
   46MPD2    C2  715   1.968   1.238   9.901 -0.6447 -0.8944  0.1719
   46MPD2    C3  716   1.928   1.147   9.995  0.2001 -0.0939  0.3823
   46MPD2    C4  717   1.979   1.164  10.125  0.0100  0.0773 -0.1123
   46MPD2    C5  718   2.075   1.254  10.151 -0.6217 -0.4692 -0.0035
   46MPD2     H  719   1.922   1.232   9.803 -0.8464 -0.1407  0.2210
   46MPD2    H1  720   1.961   1.094  10.206 -0.1852  0.9868  0.6329
   46MPD2    H2  721   2.208   1.396  10.079  0.2562 -0.8665 -0.7871
   46MPD2    H3  722   2.120   1.261  10.249  0.0414 -0.0818 -0.3332
   46MPD2     N  723   1.829   1.046   9.968 -0.5901  0.2400 -0.7559
   46MPD2    H5  724   1.781   1.051   9.879  0.0964 -1.8587 -1.2300
   46MPD2    N1  725   2.113   1.415   9.824  0.2716 -0.2400  0.2294
   46MPD2    H7  726   2.076   1.397   9.732  1.1102  1.1326 -0.3781
   47TMC2    C1  727   3.925   1.654   9.731 -0.0846 -0.1107  0.3432
   47TMC2    C2  728   3.889   1.595   9.615  0.4953  0.0620  0.3251
   47TMC2    C3  729   3.857   1.464   9.613  0.4529 -0.5325 -0.1270
   47TMC2    C4  730   3.933   1.571   9.846  0.5767 -0.5503  0.1947
   47TMC2    C5  731   3.881   1.441   9.842 -1.0800  0.2597 -0.1246
   47TMC2    C6  732   3.833   1.387   9.723 -0.7631  0.1361 -0.4773
   47TMC2     C  733   4.016   1.768   9.728  0.5508 -0.4750 -0.4263
   47TMC2     O  734   3.978   1.852   9.647  0.5970 -0.8993  0.4303
   47TMC2     H  735   3.913   1.649   9.524  1.4538 -3.4568 -1.4968
   47TMC2    H1  736   3.952   1.622   9.939 -0.5137  1.5844 -0.7426
   47TMC2    H2  737   3.811   1.283   9.701 -0.8902 -0.0958  0.7444
   47TMC2    C7  738   3.864   1.362   9.960  0.0821  0.0225 -0.7615
   47TMC2    C8  739   3.832   1.399   9.481 -0.0577 -0.0178 -0.0647
   47TMC2    O1  740   3.843   1.244   9.937 -0.1634 -0.2335 -0.4472
   47TMC2    O2  741   3.897   1.393   9.379  0.2667  0.1113 -0.0877
   47TMC2    O5  742   3.709   1.346   9.493  0.6686 -0.4151 -0.1660
   47TMC2    H5  743   3.655   1.371   9.571 -0.8535  0.8431 -1.6165
   48MPD2     C  744   4.191   2.002   9.793  0.3024 -0.2803 -0.0728
   48MPD2    C1  745   4.194   1.880   9.858  0.4186 -0.4385  0.4526
   48MPD2    C2  746   4.296   1.866   9.947  0.1807 -0.2235  0.6041
   48MPD2    C3  747   4.390   1.965   9.974  0.1218  0.3133 -0.3716
   48MPD2    C4  748   4.373   2.087   9.907  0.3065  0.3870 -0.1803
   48MPD2    C5  749   4.275   2.103   9.821  0.3154  0.1914 -0.7870
   48MPD2     H  750   4.305   1.768   9.992  1.0795 -0.4203 -0.0074
   48MPD2    H1  751   4.432   2.175   9.931  0.8185  0.0087 -0.0501
   48MPD2    H2  752   4.117   2.027   9.718 -0.5613  1.1791  1.2719
   48MPD2    H3  753   4.262   2.196   9.768  0.6339 -0.3070 -1.7439
   48MPD2     N  754   4.496   1.940  10.066 -0.3914 -0.4611 -0.5076
   48MPD2    H5  755   4.497   1.848  10.110 -1.8498 -0.3483 -0.2336
   48MPD2    N1  756   4.105   1.773   9.831 -0.1439 -0.2578 -0.1383
   48MPD2    H7  757   4.118   1.691   9.889  1.8884  0.8689  1.0194
   49TMC2    C1  758   2.939   4.172   9.710 -0.1436 -0.1144  0.3386
   49TMC2    C2  759   3.050   4.154   9.634 -0.2717  0.8940 -0.4764
   49TMC2    C3  760   3.044   4.093   9.514 -0.0200 -0.1586 -0.1133
   49TMC2    C4  761   2.826   4.108   9.672 -0.0691  0.6306 -0.1804
   49TMC2    C5  762   2.821   4.038   9.555  1.5259 -0.0513 -0.1618
   49TMC2    C6  763   2.930   4.035   9.466 -0.6772 -0.6008 -0.7968
   49TMC2     C  764   2.958   4.220   9.842 -0.2052 -0.3357 -0.0485
   49TMC2     O  765   3.068   4.242   9.890 -0.4312  0.1705  0.3728
   49TMC2     H  766   3.143   4.181   9.682 -0.4572  1.9786 -0.7099
   49TMC2    H1  767   2.749   4.087   9.745 -1.4039  0.9397 -1.4939
   49TMC2    H2  768   2.913   3.985   9.372 -1.7713  0.5732 -1.2232
   49TMC2    C7  769   2.710   3.950   9.522 -0.3665  0.2408  0.1890
   49TMC2    C8  770   3.158   4.088   9.430  0.3965  0.1864 -0.2236
   49TMC2    O1  771   2.731   3.867   9.432 -0.6272  0.0393  0.7078
   49TMC2    O2  772   3.229   4.188   9.421  0.2258 -0.3111 -0.0047
   49TMC2    O5  773   3.168   3.971   9.366  0.5541 -0.9797 -0.3044
   49TMC2    H5  774   3.115   3.906   9.418 -1.5272  1.6547  0.8303
   50MPD2     C  775   2.937   4.304  10.130 -0.4805 -0.1426  0.0273
   50MPD2    C1  776   2.830   4.264  10.051 -0.3517 -0.0436  0.1371
   50MPD2    C2  777   2.707   4.260  10.110  0.8340 -0.4311 -0.2586
   50MPD2    C3  778   2.699   4.265  10.249 -0.0394 -0.0255 -0.4663
   50MPD2    C4  779   2.803   4.297  10.331  0.0608 -0.3991 -0.1036
   50MPD2    C5  780   2.924   4.319  10.265 -0.2078 -0.6107 -0.1971
   50MPD2     H  781   2.616   4.238  10.056  1.3718 -2.0637 -0.4828
   50MPD2    H1  782   2.785   4.309  10.438 -1.8231  1.0316 -0.5787
   50MPD2    H2  783   3.040   4.314  10.100 -0.3310 -0.5670  0.3974
   50MPD2    H3  784   3.014   4.345  10.320 -1.0129  1.2721  0.2247
   50MPD2     N  785   2.566   4.269  10.311 -0.5327  0.1042 -0.9238
   50MPD2    H5  786   2.551   4.311  10.402 -0.2343 -0.8158 -0.4386
   50MPD2    N1  787   2.841   4.236   9.913  0.5541  0.6379 -0.6529
   50MPD2    H7  788   2.752   4.236   9.864 -0.7577 -2.3334  1.7157
   51TMC2    C1  789   4.418   2.037   2.322 -0.6167  0.6144  0.0635
   51TMC2    C2  790   4.509   2.022   2.425  0.5404 -0.0549  0.2702
   51TMC2    C3  791   4.497   2.117   2.519  0.0215 -0.5191  0.3802
   51TMC2    C4  792   4.336   2.149   2.311 -0.7008  0.3288 -0.7584
   51TMC2    C5  793   4.350   2.247   2.388  0.6894  0.6019  0.3196
   51TMC2    C6  794   4.416   2.233   2.508 -0.6204  0.0783 -0.0712
   51TMC2     C  795   4.416   1.939   2.211 -0.1440 -0.3172  0.2239
   51TMC2     O  796   4.333   1.948   2.122 -0.1332  0.0888  0.1818
   51TMC2     H  797   4.571   1.936   2.448  1.0265  0.3293  0.3821
   51TMC2    H1  798   4.262   2.146   2.232 -0.9281 -1.0972 -0.4792
   51TMC2    H2  799   4.440   2.319   2.569 -1.6434  1.0688 -1.0934
   51TMC2    C7  800   4.263   2.358   2.360  0.6437 -0.0340  0.2374
   51TMC2    C8  801   4.580   2.106   2.635 -0.3531  0.6375 -0.4339
   51TMC2    O1  802   4.202   2.360   2.255 -0.1156 -0.3399 -0.2315
   51TMC2    O2  803   4.689   2.055   2.647  0.0360 -0.4907 -0.0336
   51TMC2    O5  804   4.510   2.152   2.739  0.2844  0.3260 -0.0737
   51TMC2    H5  805   4.425   2.184   2.703  0.0841 -2.1474 -1.8118
   52MPD2     C  806   4.668   1.566   1.966  0.1450  0.1145 -0.2011
   52MPD2    C1  807   4.539   1.619   1.942 -0.3266 -0.3138 -0.6266
   52MPD2    C2  808   4.493   1.725   2.020  0.2257  0.4390 -0.4494
   52MPD2    C3  809   4.569   1.775   2.124  0.2497  0.1622 -0.7162
   52MPD2    C4  810   4.693   1.720   2.146  0.0134 -0.8993 -0.4022
   52MPD2    C5  811   0.003   1.626   2.067  0.9483  0.2982  0.1441
   52MPD2     H  812   4.401   1.765   1.978 -1.4616 -2.3616  0.5744
   52MPD2    H1  813   0.023   1.741   2.226 -0.5505  1.0312 -0.4143
   52MPD2    H2  814   4.723   1.497   1.903  2.0973  1.6635 -0.1694
   52MPD2    H3  815   0.093   1.574   2.097  0.7718 -0.5829 -0.8539
   52MPD2     N  816   4.526   1.865   2.216  0.2711  0.0678  0.5555
   52MPD2    H5  817   4.594   1.893   2.286 -0.6442  2.8101  0.3462
   52MPD2    N1  818   4.453   1.571   1.838  0.0811 -0.1986  0.2001
   52MPD2    H7  819   4.365   1.616   1.817  0.1296 -0.6316 -0.9578
   53TMC2    C1  820   3.255   0.594  11.165 -0.0337 -0.4127  0.4196
   53TMC2    C2  821   3.366   0.561  11.100 -0.0894 -0.1073  0.6077
   53TMC2    C3  822   3.475   0.560  11.182 -1.3537  0.0170 -0.3612
   53TMC2    C4  823   3.245   0.626  11.295 -0.1999  0.2022  0.2679
   53TMC2    C5  824   3.361   0.625  11.365  0.8486 -0.3142 -0.0847
   53TMC2    C6  825   3.483   0.596  11.314  0.3059  0.2803  0.3031
   53TMC2     C  826   3.139   0.620  11.086  0.0096  0.3170  0.9219
   53TMC2     O  827   3.158   0.668  10.974  0.0111  0.6460 -0.1074
   53TMC2     H  828   3.366   0.553  10.992  2.1772  2.1515  0.4165
   53TMC2    H1  829   3.153   0.660  11.342 -0.3216  2.2347 -1.4340
   53TMC2    H2  830   3.575   0.602  11.372  0.5071 -0.9593  0.1217
   53TMC2    C7  831   3.341   0.674  11.507 -0.1972  0.4032 -0.0736
   53TMC2    C8  832   3.600   0.541  11.116 -0.0379 -0.6678  0.0583
   53TMC2    O1  833   3.230   0.726  11.531  0.0864 -0.4877 -0.5887
   53TMC2    O2  834   3.705   0.573  11.173  0.0315 -0.2297 -0.5898
   53TMC2    O5  835   3.589   0.434  11.041 -0.3282 -0.1159  0.3133
   53TMC2    H5  836   3.496   0.407  11.024  1.0868 -2.5244 -3.7540
   54MPD2     C  837   2.877   0.587  10.958 -0.6240  0.2962 -0.3533
   54MPD2    C1  838   2.890   0.579  11.089 -0.7465  0.7615 -0.5384
   54MPD2    C2  839   2.774   0.569  11.171  0.2193  0.5873 -0.4554
   54MPD2    C3  840   2.647   0.546  11.109  0.6961  0.2396  0.4025
   54MPD2    C4  841   2.644   0.557  10.973  0.1372  0.8720 -1.1354
   54MPD2    C5  842   2.754   0.590  10.899  0.3277 -0.1096  0.2340
   54MPD2     H  843   2.796   0.556  11.276 -0.3355 -1.2157 -0.5648
   54MPD2    H1  844   2.554   0.533  10.918 -0.7365 -0.4467  0.8453
   54MPD2    H2  845   2.959   0.572  10.889 -1.8998  0.8447 -1.9827
   54MPD2    H3  846   2.741   0.581  10.792  1.1312  2.6648 -0.0883
   54MPD2     N  847   2.528   0.531  11.180  0.1688  0.2562 -0.3852
   54MPD2    H5  848   2.446   0.506  11.125 -0.5299 -1.8212  1.6256
   54MPD2    N1  849   3.022   0.590  11.146  0.6889 -0.5816  0.1777
   54MPD2    H7  850   3.020   0.550  11.240  1.8268 -0.6899  0.1594
   55TMC2    C1  851   4.183   3.262  17.656 -0.1581 -0.3026  0.3872
   55TMC2    C2  852   4.192   3.216  17.520 -0.3251  0.2145 -0.3860
   55TMC2    C3  853   4.166   3.084  17.505 -0.0011  0.4792  0.4103
   55TMC2    C4  854   4.171   3.173   0.001 -0.8345  0.5103 -0.6059
   55TMC2    C5  855   4.168   3.039  17.735  0.1516  0.0612 -0.5653
   55TMC2    C6  856   4.161   2.999  17.609 -0.3755 -0.8242 -0.2025
   55TMC2     C  857   4.167   3.403  17.690  0.7648  0.1240 -0.3793
   55TMC2     O  858   4.133   3.428   0.044 -0.7681  0.0623  0.4445
   55TMC2     H  859   4.202   3.285  17.437  0.0072  1.1062  0.3925
   55TMC2    H1  860   4.167   3.214   0.101  0.4278 -2.9124  0.8701
   55TMC2    H2  861   4.152   2.893  17.585 -1.0372 -0.9248  0.4784
   55TMC2    C7  862   4.147   2.937   0.079 -0.3333  0.1100 -0.3233
   55TMC2    C8  863   4.134   3.038  17.374 -0.2459  0.6807 -0.2010
   55TMC2    O1  864   4.143   2.818   0.049 -0.4917  0.7498  0.3144
   55TMC2    O2  865   4.180   3.094  17.274 -0.2037  0.4745 -0.0973
   55TMC2    O5  866   4.067   2.926  17.371  0.4148 -0.6762  0.6077
   55TMC2    H5  867   4.003   2.918  17.444 -0.2653  0.5175  0.1331
   56MPD2     C  868   4.138   3.678  17.448 -0.7117 -0.5874  1.1002
   56MPD2    C1  869   4.128   3.627  17.576  0.0565 -0.4066  0.8775
   56MPD2    C2  870   4.074   3.697  17.684 -0.9281  0.7078  0.0381
   56MPD2    C3  871   4.037   3.832  17.659  0.2398 -0.2154  0.3236
   56MPD2    C4  872   4.052   3.880  17.528  0.4290  0.3697  0.0872
   56MPD2    C5  873   4.086   3.800  17.421  0.2025 -0.0315  0.5736
   56MPD2     H  874   4.065   3.661   0.027  2.3421  4.1866  1.5505
   56MPD2    H1  875   4.034   3.983  17.500 -1.3330 -0.1194 -0.5396
   56MPD2    H2  876   4.186   3.617  17.372 -2.0371 -1.4951  1.0016
   56MPD2    H3  877   4.086   3.845  17.323 -6.0326  0.1768  0.6753
   56MPD2     N  878   3.975   3.907   0.002 -0.1315  0.0195 -0.0165
   56MPD2    H5  879   3.953   3.859   0.088 -3.6287  3.9413  1.2618
   56MPD2    N1  880   4.167   3.486  17.580  0.1403  0.2985 -0.3044
   56MPD2    H7  881   4.209   3.457  17.492  0.3416  1.5194 -0.6086
   57TMC2    C1  882   3.749   4.237  13.856 -0.9754 -0.2988  0.8844
   57TMC2    C2  883   3.856   4.219  13.943  0.2377 -0.2968  0.6461
   57TMC2    C3  884   3.915   4.096  13.939  0.0910 -0.5002  0.3069
   57TMC2    C4  885   3.717   4.146  13.758 -0.0013 -0.5157 -0.0152
   57TMC2    C5  886   3.781   4.023  13.751 -0.8826  0.4680 -0.3621
   57TMC2    C6  887   3.884   4.002  13.844  0.0830 -0.9536  0.1771
   57TMC2     C  888   3.666   4.353  13.852  0.4959 -0.3551 -0.1243
   57TMC2     O  889   3.594   4.374  13.755 -0.4712  1.1056 -0.3004
   57TMC2     H  890   3.885   4.289  14.021 -0.9243 -0.2118  1.0011
   57TMC2    H1  891   3.635   4.170  13.692  0.5810  1.2150 -0.1179
   57TMC2    H2  892   3.919   3.899  13.848  2.0214 -0.2217  1.7307
   57TMC2    C7  893   3.735   3.923  13.653 -0.3613 -0.2678 -0.5450
   57TMC2    C8  894   4.021   4.072  14.034 -0.6600  0.4687  0.2259
   57TMC2    O1  895   3.631   3.944  13.596  0.4057  0.8430 -0.4495
   57TMC2    O2  896   4.048   4.139  14.131 -0.1348  0.2797 -0.2066
   57TMC2    O5  897   4.105   3.974  13.986  1.0046  0.2520 -0.0420
   57TMC2    H5  898   4.077   3.953  13.894  1.0193 -0.2756  0.0738
   58MPD2     C  899   3.611   0.101  13.999 -0.5714  0.1080  0.2755
   58MPD2    C1  900   3.557   0.034  13.897  0.3023  0.1604 -0.4142
   58MPD2    C2  901   3.583   4.642  13.882  0.0785  0.1804 -0.6739
   58MPD2    C3  902   3.650   4.571  13.974 -0.2316 -0.3592 -0.5816
   58MPD2    C4  903   3.703   4.638  14.082 -0.0833 -0.4573 -0.5777
   58MPD2    C5  904   3.680   0.036  14.098 -0.0495  0.8828  0.2217
   58MPD2     H  905   3.525   4.593  13.804  0.2304  1.4992 -1.6197
   58MPD2    H1  906   3.753   4.585  14.163  1.0512 -0.1628 -1.0747
   58MPD2    H2  907   3.598   0.207  14.015 -4.8653 -0.0586 -2.1929
   58MPD2    H3  908   3.724   0.091  14.181 -1.2549  1.0417  0.7629
   58MPD2     N  909   3.686   4.433  13.965 -0.3285 -0.4132 -0.3760
   58MPD2    H5  910   3.728   4.382  14.042 -0.3931 -1.0774 -0.7805
   58MPD2    N1  911   3.483   0.090  13.795  0.4701 -0.4375  0.0595
   58MPD2    H7  912   3.426   0.031  13.735 -1.2560  1.3220 -0.0213
   59TMC2    C1  913   1.102   0.076  12.775  1.0125 -0.6982 -0.3266
   59TMC2    C2  914   0.966   0.054  12.748 -0.2879  0.0021 -0.2767
   59TMC2    C3  915   0.931   0.001  12.623  0.3752 -0.0457 -1.0742
   59TMC2    C4  916   1.200   0.056  12.692  0.0856 -0.2063 -0.1417
   59TMC2    C5  917   1.156   0.007  12.572  0.7130  0.0457  0.8945
   59TMC2    C6  918   1.031   4.720  12.531  0.2323  0.1446  0.2949
   59TMC2     C  919   1.140   0.160  12.882 -0.2464 -0.2158  0.0353
   59TMC2     O  920   1.064   0.252  12.889 -0.1155  0.2728 -0.2433
   59TMC2     H  921   0.889   0.080  12.819  1.8914  1.5356  1.4958
   59TMC2    H1  922   1.302   0.092  12.706 -0.4761  1.5816 -0.6932
   59TMC2    H2  923   1.016   4.659  12.443 -0.9257  1.5837 -0.5104
   59TMC2    C7  924   1.260   4.735  12.472  0.3423  0.3724  0.2944
   59TMC2    C8  925   0.808   4.676  12.604 -1.3424  0.1316  0.6133
   59TMC2    O1  926   1.373   4.718  12.514  0.0020  0.1256 -0.4752
   59TMC2    O2  927   0.749   4.613  12.689 -0.5083 -0.2347 -0.0943
   59TMC2    O5  928   0.766   4.680  12.477 -0.3737  0.6734  0.2606
   59TMC2    H5  929   0.821   4.738  12.420  0.1085 -1.0129 -0.9909
   60MPD2     C  930   1.242   0.322  13.110  0.3819  0.3377  0.5856
   60MPD2    C1  931   1.294   0.196  13.075 -0.0612  0.0409 -0.6043
   60MPD2    C2  932   1.406   0.146  13.142  0.5405  0.2250  0.2186
   60MPD2    C3  933   1.457   0.216  13.253 -0.0790  0.0500 -0.4753
   60MPD2    C4  934   1.394   0.334  13.287 -0.2074 -0.7076  0.5258
   60MPD2    C5  935   1.289   0.388  13.219 -0.0143  0.6724 -0.1696
   60MPD2     H  936   1.460   0.059  13.108 -1.7202 -0.0365 -2.7062
   60MPD2    H1  937   1.440   0.386  13.371  0.4374  0.5405 -0.5992
   60MPD2    H2  938   1.164   0.364  13.048  1.1655 -2.7976 -2.4798
   60MPD2    H3  939   1.245   0.482  13.251  0.5236  0.3474  1.5129
   60MPD2     N  940   1.560   0.171  13.338  0.1129 -0.4844 -0.0862
   60MPD2    H5  941   1.574   0.225  13.423 -1.6608  1.9752 -1.3839
   60MPD2    N1  942   1.251   0.124  12.961 -0.0494 -0.3204  0.2182
   60MPD2    H7  943   1.313   0.057  12.917 -0.1826  0.8977 -1.8314
   61TMC2    C1  944   0.481   1.143  15.478 -0.3386 -0.7171  0.0303
   61TMC2    C2  945   0.531   1.064  15.580 -0.1574  0.5888 -0.1503
   61TMC2    C3  946   0.585   1.125  15.690 -0.8874 -0.3266  0.2658
   61TMC2    C4  947   0.488   1.277  15.485  0.2413  0.6129  0.0370
   61TMC2    C5  948   0.544   1.334  15.600  0.8978  0.9070 -0.6477
   61TMC2    C6  949   0.600   1.261  15.703 -0.7354  0.5022 -0.2006
   61TMC2     C  950   0.440   1.071  15.355 -0.1907 -0.0840 -0.4443
   61TMC2     O  951   0.430   0.948  15.360 -0.2439  0.0640  0.0923
   61TMC2     H  952   0.550   0.958  15.568  2.6043  1.0616  0.0747
   61TMC2    H1  953   0.459   1.336  15.399 -1.0042 -0.6092 -0.3806
   61TMC2    H2  954   0.646   1.298  15.794 -0.6685  0.0046 -0.0330
   61TMC2    C7  955   0.522   1.476  15.621 -0.1054  0.0884  0.3617
   61TMC2    C8  956   0.693   1.058  15.755  0.1610 -0.5026  0.0160
   61TMC2    O1  957   0.452   1.532  15.536 -0.2195  0.6666  0.1867
   61TMC2    O2  958   0.802   1.107  15.751  0.1211 -0.6806  0.0486
   61TMC2    O5  959   0.658   0.928  15.768 -0.0081 -0.0137 -0.2914
   61TMC2    H5  960   0.561   0.913  15.778  0.2004 -2.1123 -1.5374
   62MPD2     C  961   0.418   0.973  15.075 -0.5187  0.5463  0.4621
   62MPD2    C1  962   0.458   1.097  15.108 -0.3029 -0.4021  0.4266
   62MPD2    C2  963   0.528   1.163  15.009  0.9094  0.2727 -0.2327
   62MPD2    C3  964   0.537   1.123  14.875  1.9185 -0.3526 -0.4422
   62MPD2    C4  965   0.494   0.999  14.839 -0.2865 -0.1015 -0.3702
   62MPD2    C5  966   0.432   0.923  14.941 -0.6663 -0.3981  0.0580
   62MPD2     H  967   0.567   1.258  15.042 -0.7912  0.3820  1.4207
   62MPD2    H1  968   0.481   0.966  14.737  1.5045  0.3559 -0.7485
   62MPD2    H2  969   0.376   0.908  15.151  1.7064 -0.5236  0.7605
   62MPD2    H3  970   0.378   0.832  14.915 -1.3392  0.2303 -0.7422
   62MPD2     N  971   0.606   1.195  14.779  0.4136  0.3584 -0.2800
   62MPD2    H5  972   0.623   1.140  14.695  1.4751 -0.8675  0.7256
   62MPD2    N1  973   0.458   1.149  15.243 -0.1648 -0.1673  0.1191
   62MPD2    H7  974   0.497   1.242  15.254 -0.0551 -0.3220  1.0236
   63TMC2    C1  975   4.434   1.527  10.881  0.2184  0.1888 -0.0291
   63TMC2    C2  976   4.562   1.490  10.897 -0.1406 -0.2750  0.3897
   63TMC2    C3  977   4.656   1.587  10.933  0.5583  0.3141  0.7704
   63TMC2    C4  978   4.399   1.659  10.879 -0.1051  0.1433 -0.2473
   63TMC2    C5  979   4.498   1.751  10.886 -0.0271 -0.2384  1.1038
   63TMC2    C6  980   4.630   1.721  10.916  0.5879 -0.1696 -0.4603
   63TMC2     C  981   4.340   1.449  10.804  0.5163 -0.4907  0.1468
   63TMC2     O  982   4.260   1.507  10.735  0.2922  0.2408  0.3538
   63TMC2     H  983   4.606   1.406  10.843 -1.6810 -0.6696 -0.2378
   63TMC2    H1  984   4.297   1.695  10.865 -0.3969  0.1824  2.0565
   63TMC2    H2  985   4.706   1.799  10.920 -1.1277  1.2870  3.4504
   63TMC2    C7  986   4.473   1.866  10.798  0.1498  0.5468 -0.3437
   63TMC2    C8  987   0.046   1.526  10.976 -0.2603  0.5975  0.7685
   63TMC2    O1  988   4.364   1.859  10.745 -0.2581  0.4496  0.1377
   63TMC2    O2  989   0.151   1.582  10.966  0.8614 -0.1116  0.1657
   63TMC2    O5  990   0.032   1.393  11.011  0.3068 -0.3528 -0.7788
   63TMC2    H5  991   4.679   1.363  11.014  0.2853 -0.2068  0.1058
   64MPD2     C  992   4.160   1.004  10.647  0.0983 -0.4260 -0.2750
   64MPD2    C1  993   4.269   0.977  10.726 -0.3197  0.0577  0.6333
   64MPD2    C2  994   4.329   1.086  10.785 -0.4784  0.9254 -0.7050
   64MPD2    C3  995   4.286   1.216  10.758  0.2564 -0.3990  0.4570
   64MPD2    C4  996   4.169   1.232  10.683  0.0111 -0.8043 -0.0849
   64MPD2    C5  997   4.102   1.121  10.639  0.8487  0.5389  0.1556
   64MPD2     H  998   4.419   1.073  10.843 -0.9779  0.1170 -0.1087
   64MPD2    H1  999   4.126   1.331  10.671  2.6930  0.1953 -1.5451
   64MPD2    H2 1000   4.105   0.927  10.594  1.0119 -1.0121 -0.3773
   64MPD2    H3 1001   4.004   1.134  10.594  0.4991  2.6635  1.5532
   64MPD2     N 1002   4.365   1.315  10.814  0.6140  0.0127 -0.9231
   64MPD2    H5 1003   4.437   1.277  10.874  1.3720  1.9267 -0.6363
   64MPD2    N1 1004   4.319   0.841  10.759 -0.8211  0.6540  0.2682
   64MPD2    H7 1005   4.394   0.828  10.826 -0.3899  1.1055 -0.1391
   65TMC2    C1 1006   1.068   0.975  15.407  0.0146 -0.7206 -0.6184
   65TMC2    C2 1007   1.044   0.943  15.278  0.4301  0.2690 -0.1937
   65TMC2    C3 1008   0.972   1.038  15.207 -0.7686 -0.2781 -0.3987
   65TMC2    C4 1009   1.029   1.097  15.463  0.2143  0.2901 -0.3494
   65TMC2    C5 1010   0.945   1.176  15.387 -0.6515  0.2138 -0.4212
   65TMC2    C6 1011   0.921   1.151  15.260 -0.1651  0.2157 -0.1779
   65TMC2     C 1012   1.138   0.882  15.497 -0.1657  0.0048 -0.1201
   65TMC2     O 1013   1.152   0.904  15.620 -0.6108 -0.2584  0.1634
   65TMC2     H 1014   1.074   0.850  15.231  1.4210  0.6460 -0.3110
   65TMC2    H1 1015   1.048   1.113  15.568  1.6739  0.6952 -0.6658
   65TMC2    H2 1016   0.845   1.200  15.200  0.1384  0.8561 -0.0298
   65TMC2    C7 1017   0.920   1.310  15.432  0.4762 -0.8188 -0.1897
   65TMC2    C8 1018   0.907   0.997  15.081 -0.4466  0.4945  0.1171
   65TMC2    O1 1019   0.894   1.391  15.345  0.3009  0.7502 -0.1568
   65TMC2    O2 1020   0.886   0.879  15.051 -0.1013 -0.3359 -0.2781
   65TMC2    O5 1021   0.904   1.102  14.993  0.0534 -0.3695  0.4792
   65TMC2    H5 1022   0.932   1.187  15.035 -3.2832  1.2845 -0.6750
   66MPD2     C 1023   1.297   0.655  15.631  0.2121  0.1745  0.4242
   66MPD2    C1 1024   1.231   0.653  15.511 -0.2293  0.2592 -0.2650
   66MPD2    C2 1025   1.228   0.539  15.441 -0.6548  0.5890  0.3159
   66MPD2    C3 1026   1.286   0.418  15.491  0.6145  0.0629 -0.6070
   66MPD2    C4 1027   1.332   0.419  15.615 -0.3379  0.2561  0.9658
   66MPD2    C5 1028   1.349   0.541  15.683  0.6731  0.0753  0.2602
   66MPD2     H 1029   1.198   0.547  15.337  1.7303 -4.1915 -0.7312
   66MPD2    H1 1030   1.378   0.331  15.659  0.4540  0.4448  0.5181
   66MPD2    H2 1031   1.320   0.746  15.685  1.7514 -1.2837  2.2085
   66MPD2    H3 1032   1.419   0.537  15.766 -1.2755 -0.6785  1.8642
   66MPD2     N 1033   1.270   0.297  15.421  0.4512 -0.4882  0.2990
   66MPD2    H5 1034   1.296   0.216  15.476 -1.2322 -0.4235  1.2206
   66MPD2    N1 1035   1.169   0.766  15.438 -0.1075  0.3125 -0.3145
   66MPD2    H7 1036   1.116   0.750  15.353 -0.1734 -1.0954 -0.0106
   67TMC2    C1 1037   1.488   4.426  14.130 -0.1492 -0.4378  0.0087
   67TMC2    C2 1038   1.418   4.548  14.099  0.3770 -0.4240  0.1066
   67TMC2    C3 1039   1.479   4.672  14.128 -0.2327  0.0885  0.3281
   67TMC2    C4 1040   1.609   4.436  14.186  0.5192  0.2236 -0.6857
   67TMC2    C5 1041   1.664   4.556  14.220  0.1060  0.2443  0.0847
   67TMC2    C6 1042   1.599   4.674  14.193 -0.7703 -0.2862 -0.5196
   67TMC2     C 1043   1.455   4.305  14.057 -0.0577  0.0571 -0.3464
   67TMC2     O 1044   1.544   4.226  14.019 -0.0594  0.4424 -0.1338
   67TMC2     H 1045   1.318   4.551  14.059  0.2037 -0.6981  0.5142
   67TMC2    H1 1046   1.672   4.347  14.185 -3.2252 -2.4387  1.7586
   67TMC2    H2 1047   1.638   0.029  14.229 -0.7032 -0.8419  0.8837
   67TMC2    C7 1048   1.779   4.541  14.305  0.1134 -0.5093  0.3527
   67TMC2    C8 1049   1.387   0.044  14.148 -0.2755 -0.4669  1.1897
   67TMC2    O1 1050   1.854   4.445  14.297  0.0870 -0.4803 -0.2281
   67TMC2    O2 1051   1.378   0.103  14.255  0.4420 -0.5812  0.3404
   67TMC2    O5 1052   1.308   0.037  14.037 -0.4422  0.0455 -0.0346
   67TMC2    H5 1053   1.344   4.723  13.964  0.8811  0.4050  0.3491
   68MPD2     C 1054   1.310   4.139  13.853  0.0306  0.6641  0.3063
   68MPD2    C1 1055   1.250   4.215  13.949 -0.3840  0.2528  0.1293
   68MPD2    C2 1056   1.115   4.236  13.946 -0.0733 -0.7740 -0.0678
   68MPD2    C3 1057   1.050   4.202  13.830 -0.3664  0.4234 -0.4575
   68MPD2    C4 1058   1.113   4.136  13.729 -0.9422 -0.0238  0.1773
   68MPD2    C5 1059   1.246   4.106  13.739 -0.3549  0.3457 -0.3845
   68MPD2     H 1060   1.072   4.302  14.021 -1.2539 -1.3241 -0.2581
   68MPD2    H1 1061   1.063   4.099  13.640  0.7457 -2.2227  0.1439
   68MPD2    H2 1062   1.414   4.107  13.850 -0.0007  0.4121  1.8849
   68MPD2    H3 1063   1.290   4.037  13.668  0.0169  1.0955 -0.8763
   68MPD2     N 1064   0.912   4.237  13.825 -0.6302 -0.2045 -0.1413
   68MPD2    H5 1065   0.872   4.294  13.898  0.0784 -0.1888  0.2316
   68MPD2    N1 1066   1.318   4.297  14.039 -0.3332  0.5105  0.2169
   68MPD2    H7 1067   1.253   4.344  14.102 -0.1718 -0.8041  1.3717
   69TMC2    C1 1068   3.133   1.405  12.790 -0.1111 -0.1246  0.0051
   69TMC2    C2 1069   3.000   1.439  12.790  0.3807 -0.1212 -0.6085
   69TMC2    C3 1070   2.943   1.509  12.686  0.2140 -0.2791 -0.8602
   69TMC2    C4 1071   3.210   1.424  12.673  0.1441 -0.1670  0.4855
   69TMC2    C5 1072   3.143   1.480  12.570  0.8233  0.5763  0.6307
   69TMC2    C6 1073   3.014   1.528  12.576  0.3101  0.7502  0.2189
   69TMC2     C 1074   3.178   1.315  12.892  0.0199  0.2923 -0.1909
   69TMC2     O 1075   3.085   1.254  12.947 -0.3450 -0.4093  0.1940
   69TMC2     H 1076   2.944   1.428  12.882  0.8737 -1.1890 -0.4339
   69TMC2    H1 1077   3.316   1.405  12.661 -0.1470 -1.2388 -0.3626
   69TMC2    H2 1078   2.968   1.576  12.490 -0.2126  0.0649  0.1221
   69TMC2    C7 1079   3.218   1.477  12.442 -0.6107  0.6235 -0.8351
   69TMC2    C8 1080   2.801   1.553  12.687 -0.5003  1.0246 -0.4197
   69TMC2    O1 1081   3.309   1.398  12.442 -0.4150 -0.1433 -0.0133
   69TMC2    O2 1082   2.725   1.528  12.592  0.2312 -0.9333 -0.3709
   69TMC2    O5 1083   2.763   1.557  12.815  0.4435 -0.3106 -0.3214
   69TMC2    H5 1084   2.833   1.586  12.878  0.3596  0.6114 -0.6454
   70MPD2     C 1085   3.506   1.183  12.969 -0.0930  0.1517  0.7093
   70MPD2    C1 1086   3.370   1.181  12.932  0.4036  0.2659  0.0824
   70MPD2    C2 1087   3.304   1.057  12.947 -0.0847  0.2955 -0.1860
   70MPD2    C3 1088   3.367   0.939  12.977  0.5624 -0.4868  0.5212
   70MPD2    C4 1089   3.502   0.949  13.002 -0.5675  0.2404 -0.8489
   70MPD2    C5 1090   3.568   1.071  13.004  0.0389  0.8742  0.6250
   70MPD2     H 1091   3.201   1.056  12.913 -0.4790  1.1211  0.9737
   70MPD2    H1 1092   3.561   0.858  13.007 -0.4236  0.2860 -1.7644
   70MPD2    H2 1093   3.572   1.270  12.971 -0.4054  0.3895  0.7310
   70MPD2    H3 1094   3.673   1.079  13.031  0.4385 -0.9186 -0.4569
   70MPD2     N 1095   3.305   0.811  12.973 -0.2675 -0.5104 -0.4899
   70MPD2    H5 1096   3.355   0.736  13.020  0.7615  0.0176 -0.7482
   70MPD2    N1 1097   3.312   1.297  12.890 -0.0519 -0.2023 -0.0471
   70MPD2    H7 1098   3.370   1.377  12.869 -2.8204  1.8053 -0.0844
   71TMC2    C1 1099   1.095   1.244   0.693 -0.5626 -0.2207 -0.3487
   71TMC2    C2 1100   1.194   1.337   0.686  0.0026 -0.0665  0.2264
   71TMC2    C3 1101   1.313   1.310   0.747 -0.8694 -0.7020 -0.7846
   71TMC2    C4 1102   1.089   1.149   0.792 -0.1228 -0.3840 -0.1472
   71TMC2    C5 1103   1.205   1.144   0.869  0.5847  0.2776  0.3606
   71TMC2    C6 1104   1.312   1.222   0.846  0.0851 -0.1060 -0.3026
   71TMC2     C 1105   0.965   1.289   0.648 -0.3934 -0.4989  0.0516
   71TMC2     O 1106   0.963   1.398   0.585 -0.6398  0.0700 -0.8182
   71TMC2     H 1107   1.192   1.404   0.600 -1.3036 -3.0708 -2.0934
   71TMC2    H1 1108   1.013   1.072   0.793 -0.5642  0.0397 -1.7301
   71TMC2    H2 1109   1.401   1.186   0.897  0.6533 -0.4352 -1.5116
   71TMC2    C7 1110   1.203   1.059   0.986  0.3968 -0.4838 -0.4436
   71TMC2    C8 1111   1.437   1.341   0.685  0.4265  0.5845 -0.4311
   71TMC2    O1 1112   1.307   1.017   1.031  0.5005  0.5297 -0.7001
   71TMC2    O2 1113   1.540   1.274   0.683  0.3036 -0.4841  0.4748
   71TMC2    O5 1114   1.435   1.467   0.666  0.1025 -0.4823  0.4976
   71TMC2    H5 1115   1.360   1.500   0.719 -1.1192  1.0976 -2.2145
   72MPD2     C 1116   0.472   1.258   0.546 -0.6668  0.1461 -0.6203
   72MPD2    C1 1117   0.548   1.361   0.585  0.1066  0.4782  0.4106
   72MPD2    C2 1118   0.681   1.342   0.607  0.1509 -0.2744 -0.0966
   72MPD2    C3 1119   0.738   1.214   0.593 -0.1793 -0.0710  0.2825
   72MPD2    C4 1120   0.660   1.101   0.559  0.8368 -0.0418 -0.7249
   72MPD2    C5 1121   0.528   1.130   0.535 -0.2000  0.4647  0.3104
   72MPD2     H 1122   0.743   1.425   0.639 -0.5558  0.6824 -1.1962
   72MPD2    H1 1123   0.704   1.002   0.552 -1.2663 -0.9281 -1.1167
   72MPD2    H2 1124   0.369   1.276   0.519 -0.4227  1.0495 -0.9334
   72MPD2    H3 1125   0.460   1.048   0.514  1.4199 -1.2604  1.8220
   72MPD2     N 1126   0.874   1.193   0.639  0.3475 -0.3395 -0.2365
   72MPD2    H5 1127   0.905   1.096   0.647  2.5887  0.1542 -2.9314
   72MPD2    N1 1128   0.507   1.494   0.595 -0.0315 -0.4909 -0.5553
   72MPD2    H7 1129   0.563   1.556   0.652 -2.9232  0.6731  0.9984
   73TMC2    C1 1130   0.383   3.680  14.010 -0.2758 -0.3562 -0.1160
   73TMC2    C2 1131   0.351   3.788  14.074  0.1453  0.3995 -0.4246
   73TMC2    C3 1132   0.390   3.797  14.205  0.2388 -0.0147 -0.3797
   73TMC2    C4 1133   0.439   3.572  14.078 -0.5386 -0.5372 -0.5909
   73TMC2    C5 1134   0.489   3.578  14.204 -0.7202 -0.2109 -0.3952
   73TMC2    C6 1135   0.471   3.701  14.271  0.0962  0.1402 -0.1671
   73TMC2     C 1136   0.414   3.689  13.864 -0.3594 -0.8048 -0.3338
   73TMC2     O 1137   0.508   3.615  13.835 -0.1032 -0.3968  0.6926
   73TMC2     H 1138   0.301   3.873  14.029  0.6815  1.3624  0.7862
   73TMC2    H1 1139   0.458   3.480  14.024 -0.3719  0.0094 -1.4611
   73TMC2    H2 1140   0.507   3.729  14.369 -0.7902 -1.8733  0.7347
   73TMC2    C7 1141   0.625   3.543  14.201 -0.4839  0.2695 -0.7584
   73TMC2    C8 1142   0.321   3.887  14.290  0.2805 -0.1347 -0.1946
   73TMC2    O1 1143   0.670   3.520  14.313 -0.2125 -0.3718 -0.0396
   73TMC2    O2 1144   0.385   3.990  14.317 -0.6497 -0.6359  0.5331
   73TMC2    O5 1145   0.274   3.800  14.384 -0.1732  0.2336 -0.0780
   73TMC2    H5 1146   0.221   3.726  14.348 -2.7276  2.0150  0.0691
   74MPD2     C 1147   0.518   4.009  13.464  0.3562 -0.0510  0.3238
   74MPD2    C1 1148   0.588   3.896  13.519 -0.7676  0.4342 -0.0920
   74MPD2    C2 1149   0.533   3.829  13.633 -0.0164 -0.6055 -0.7207
   74MPD2    C3 1150   0.413   3.867  13.690 -0.6908 -0.2482  0.0503
   74MPD2    C4 1151   0.354   3.984  13.641  0.3008 -1.1391  0.5736
   74MPD2    C5 1152   0.403   4.050  13.528  0.2808  0.8783 -0.2575
   74MPD2     H 1153   0.594   3.751  13.679  1.7577  0.3386 -1.4585
   74MPD2    H1 1154   0.256   4.010  13.680  1.1167  0.8791  1.3203
   74MPD2    H2 1155   0.550   4.056  13.372  1.9936 -1.9239 -0.0668
   74MPD2    H3 1156   0.345   4.134  13.492  0.9539  0.0590 -3.2798
   74MPD2     N 1157   0.359   3.801  13.802 -0.0238  0.3942  0.1582
   74MPD2    H5 1158   0.268   3.837  13.830  0.1852 -0.1746  1.5789
   74MPD2    N1 1159   0.708   3.856  13.457 -0.2975  0.4347 -0.2079
   74MPD2    H7 1160   0.741   3.909  13.377  0.1653 -0.2115 -0.4479
   75TMC2    C1 1161   0.698   4.277  13.757  0.8224 -0.1366 -0.3849
   75TMC2    C2 1162   0.673   4.321  13.888  0.8911 -0.0544 -0.3510
   75TMC2    C3 1163   0.589   4.431  13.907  0.5428  0.4018 -0.3159
   75TMC2    C4 1164   0.615   4.316  13.652 -0.3343 -0.3449  0.7788
   75TMC2    C5 1165   0.531   4.426  13.679  0.1725  0.1070  0.3696
   75TMC2    C6 1166   0.514   4.483  13.803  0.0361 -0.5474  0.4037
   75TMC2     C 1167   0.825   4.215  13.721  0.0160 -0.8591 -0.5117
   75TMC2     O 1168   0.837   4.165  13.611 -0.0835  0.1859 -0.0795
   75TMC2     H 1169   0.724   4.278  13.974  0.6956 -0.7391 -0.5770
   75TMC2    H1 1170   0.624   4.277  13.552 -0.7249 -1.0825  1.0259
   75TMC2    H2 1171   0.441   4.560  13.826  1.8215  0.7473  1.7069
   75TMC2    C7 1172   0.485   4.495  13.561 -0.2912 -0.1232  0.2242
   75TMC2    C8 1173   0.629   4.503  14.024  0.6782  0.7831 -0.6053
   75TMC2    O1 1174   0.489   4.435  13.457 -0.2070  0.1624 -0.1478
   75TMC2    O2 1175   0.701   4.457  14.112 -0.2158  0.3375  0.5754
   75TMC2    O5 1176   0.602   4.630  14.007  0.5726  0.0379 -0.2335
   75TMC2    H5 1177   0.540   4.648  13.933  0.7289  2.0113  0.1103
   76TMC2    C1 1178   3.938   0.174  11.753  0.3585 -1.0520 -0.0641
   76TMC2    C2 1179   3.840   0.101  11.690  0.4155 -1.0404 -1.1792
   76TMC2    C3 1180   3.870   4.705  11.672 -0.2542 -0.3938  0.3832
   76TMC2    C4 1181   4.048   0.106  11.810  0.2313 -0.1989 -0.3828
   76TMC2    C5 1182   4.052   4.708  11.801  0.0102 -0.3921 -0.0464
   76TMC2    C6 1183   3.965   4.638  11.727  0.0804 -0.2727  0.5235
   76TMC2     C 1184   3.913   0.313  11.786 -0.5795  0.1673  0.0186
   76TMC2     O 1185   3.809   0.360  11.740  0.0398 -0.1612  0.7247
   76TMC2     H 1186   3.748   0.146  11.655  0.0950  1.7976  3.2983
   76TMC2    H1 1187   4.132   0.160  11.850  0.6197 -2.9789  2.5103
   76TMC2    H2 1188   3.973   4.530  11.717  2.1593 -0.2835  2.2332
   76TMC2    C7 1189   4.168   4.636  11.860 -0.0082 -0.0238  0.5400
   76TMC2    C8 1190   3.760   4.638  11.609 -0.2483  0.0686 -0.0137
   76TMC2    O1 1191   4.214   4.527  11.821  0.2418 -0.0079 -0.2953
   76TMC2    O2 1192   3.650   4.689  11.599 -0.0901  0.6972 -0.0003
   76TMC2    O5 1193   3.803   4.536  11.538 -0.2542 -0.3035 -0.5449
   76TMC2    H5 1194   3.899   4.519  11.549 -0.6154 -1.6457  0.5696
   77MPD2     C 1195   4.035   0.760  12.031 -0.3207  0.1754 -0.1891
   77MPD2    C1 1196   3.940   0.736  11.935 -0.1087 -0.0384 -0.3044
   77MPD2    C2 1197   3.923   0.604  11.885 -0.0594  0.5885 -1.0117
   77MPD2    C3 1198   4.002   0.503  11.928 -0.0568  0.1893 -0.0195
   77MPD2    C4 1199   4.098   0.531  12.021 -0.1410  0.1330  0.0409
   77MPD2    C5 1200   4.112   0.658  12.079 -0.3128 -0.4434 -0.1277
   77MPD2     H 1201   3.830   0.590  11.831 -1.0675  5.1703 -0.4358
   77MPD2    H1 1202   4.173   0.457  12.050  0.1183  0.5569  0.4617
   77MPD2    H2 1203   4.054   0.857  12.077 -0.4941 -0.4245  1.1512
   77MPD2    H3 1204   4.194   0.677  12.148 -0.6301 -3.0848  0.9956
   77MPD2     N 1205   4.001   0.370  11.873  0.0738 -0.6063 -0.4686
   77MPD2    H5 1206   4.072   0.313  11.918  0.5717 -0.8421 -1.5559
   77MPD2    N1 1207   3.848   0.829  11.885  0.5736 -0.1778  0.2755
   77MPD2    H7 1208   3.783   0.805  11.811  1.3721 -2.3213  0.2657
   78TMC2    C1 1209   1.086   0.113   1.073  0.3719 -0.8567 -0.5414
   78TMC2    C2 1210   1.029   0.031   1.167  0.7092 -0.3023  0.3554
   78TMC2    C3 1211   1.109   4.733   1.275 -0.4084 -0.5148 -0.0235
   78TMC2    C4 1212   1.217   0.154   1.085 -0.6687 -0.1313  0.4435
   78TMC2    C5 1213   1.292   0.114   1.188 -0.2185  0.5348  0.3502
   78TMC2    C6 1214   1.233   0.040   1.288  0.5039 -0.4006 -0.3650
   78TMC2     C 1215   1.009   0.172   0.961  0.3902 -0.5030  0.0085
   78TMC2     O 1216   0.891   0.194   0.993 -0.6506  0.5869  0.6011
   78TMC2     H 1217   0.930   4.729   1.163  0.0148  1.0842  2.7625
   78TMC2    H1 1218   1.249   0.230   1.015  0.0037 -2.2188 -1.5430
   78TMC2    H2 1219   1.284   0.007   1.378 -0.8869 -1.7898 -0.0746
   78TMC2    C7 1220   1.414   0.188   1.223  0.3871 -0.5713 -0.3080
   78TMC2    C8 1221   1.056   4.617   1.343 -0.6742  0.0906  0.3134
   78TMC2    O1 1222   1.445   0.277   1.147 -0.8399  0.2472  0.3683
   78TMC2    O2 1223   1.001   4.522   1.287  0.4515  0.0515  0.2097
   78TMC2    O5 1224   1.079   4.632   1.479 -0.4269  0.2235  0.0039
   78TMC2    H5 1225   1.129   4.712   1.504  0.4676 -0.2865 -0.1516
   79MPD1     C 1226   0.956   0.417   0.501  0.6019 -0.4212 -0.3648
   79MPD1    C1 1227   0.870   0.388   0.608 -0.7065  0.1140 -0.2675
   79MPD1    C2 1228   0.919   0.309   0.711  0.0638  0.1862 -0.7666
   79MPD1    C3 1229   1.045   0.274   0.734  0.0532  0.1768 -0.4684
   79MPD1    C4 1230   1.133   0.303   0.633  0.0944 -0.3432 -0.0320
   79MPD1    C5 1231   1.093   0.376   0.521  0.1520  0.1413  0.5676
   79MPD1     H 1232   0.838   0.270   0.771 -0.8560  1.3380 -1.2419
   79MPD1    H1 1233   1.240   0.298   0.646  0.2355  0.1084 -1.0142
   79MPD1    H2 1234   0.928   0.466   0.408  1.4027 -0.0666 -0.4214
   79MPD1    H3 1235   1.168   0.408   0.449 -0.3229  1.8119  0.8126
   79MPD1     N 1236   1.090   0.211   0.852 -0.6814 -1.0735 -0.1969
   79MPD1    H5 1237   1.191   0.198   0.848 -0.2404  1.7893  2.2471
   79MPD1    N1 1238   0.734   0.409   0.592 -0.2165 -0.2482  0.0229
   79MPD1    H6 1239   0.712   0.501   0.555 -0.7450  0.1667  1.3756
   79MPD1    H7 1240   0.678   0.405   0.677 -0.4947 -0.7884 -0.1808
   80TMC2    C1 1241   3.405   0.200  11.678 -0.1506  0.1946 -0.4224
   80TMC2    C2 1242   3.319   0.125  11.603 -0.7608  0.3392  0.4271
   80TMC2    C3 1243   3.290   0.002  11.656  0.0918  0.5656  0.5530
   80TMC2    C4 1244   3.462   0.148  11.791 -0.1013  0.0408 -0.2430
   80TMC2    C5 1245   3.444   0.021  11.819  0.1815 -0.0724  0.2473
   80TMC2    C6 1246   3.353   4.684  11.759 -0.4378  0.2773 -0.1937
   80TMC2     C 1247   3.331   0.327  11.693  0.3835  0.0581 -0.4195
   80TMC2     O 1248   3.282   0.387  11.598  0.0603 -0.2683 -0.3930
   80TMC2     H 1249   3.274   0.170  11.515 -0.1666 -0.0827 -0.0955
   80TMC2    H1 1250   3.526   0.204  11.859 -2.4988  0.6464  1.5202
   80TMC2    H2 1251   3.326   4.584  11.792 -0.3956  0.6659  1.0113
   80TMC2    C7 1252   3.532   4.694  11.913  0.2878  0.4318  0.0345
   80TMC2    C8 1253   3.173   4.676  11.597 -0.0948 -0.5871 -0.2053
   80TMC2    O1 1254   3.649   4.715  11.912  1.0225  0.3522 -0.8105
   80TMC2    O2 1255   3.066   4.684  11.652  0.4442 -0.4204  0.4874
   80TMC2    O5 1256   3.198   4.708  11.466  0.0747 -0.3585  0.7279
   80TMC2    H5 1257   3.293   4.711  11.444 -0.2583 -0.3197 -0.7452
   81MPD2     C 1258   3.171   0.541  11.824 -0.0845  0.7238  0.1906
   81MPD2    C1 1259   3.222   0.437  11.884  0.0540  0.9689  0.8059
   81MPD2    C2 1260   3.176   0.403  12.013  0.8685  0.5984 -0.1733
   81MPD2    C3 1261   3.070   0.471  12.066 -0.1858  0.6806  0.3539
   81MPD2    C4 1262   3.031   0.591  12.017  0.4753 -0.3200  0.5188
   81MPD2    C5 1263   3.078   0.625  11.894  0.4599 -0.0875 -0.4944
   81MPD2     H 1264   3.226   0.327  12.071 -0.4343  0.0889  0.2787
   81MPD2    H1 1265   2.959   0.654  12.067 -0.2982  0.5432 -1.6810
   81MPD2    H2 1266   3.215   0.582  11.734  1.8043 -2.3425 -0.2709
   81MPD2    H3 1267   3.049   0.725  11.861  1.0726  0.2419 -0.0477
   81MPD2     N 1268   2.994   0.429  12.179 -0.1868  0.0805 -0.3772
   81MPD2    H5 1269   2.921   0.491  12.212  0.6285  0.3184  0.9588
   81MPD2    N1 1270   3.305   0.342  11.827 -0.6602  0.3903  0.6473
   81MPD2    H7 1271   3.342   0.267  11.885  1.1335  0.4104 -0.4559
   82TMC2    C1 1272   1.597   0.024  11.267 -0.1146  0.0217  0.4000
   82TMC2    C2 1273   1.720   4.723  11.217 -0.1055  0.0722 -0.6200
   82TMC2    C3 1274   1.749   4.588  11.229 -0.8840 -0.5452  0.9203
   82TMC2    C4 1275   1.518   4.682  11.336  0.2159  0.0980 -0.0368
   82TMC2    C5 1276   1.562   4.553  11.366  0.5319 -0.3249  0.1675
   82TMC2    C6 1277   1.673   4.505  11.315 -0.1707 -1.2835  0.7746
   82TMC2     C 1278   1.540   0.156  11.237 -0.2607  0.5656 -0.5891
   82TMC2     O 1279   1.437   0.193  11.293 -0.6719  0.5694  0.2130
   82TMC2     H 1280   1.783   0.037  11.147 -1.2811 -0.4797 -2.1148
   82TMC2    H1 1281   1.431   4.723  11.387  0.6158  1.4854 -0.5008
   82TMC2    H2 1282   1.702   4.404  11.340  2.5362 -0.0849  2.4384
   82TMC2    C7 1283   1.475   4.454  11.431  0.4120  0.0976 -0.0141
   82TMC2    C8 1284   1.892   4.556  11.217 -0.1038 -0.1864  0.1430
   82TMC2    O1 1285   1.527   4.352  11.476  0.1086  0.3107 -0.3603
   82TMC2    O2 1286   1.975   4.629  11.261 -0.0290 -0.0268  0.3109
   82TMC2    O5 1287   1.891   4.421  11.209 -0.3350  0.2910  0.2062
   82TMC2    H5 1288   1.816   4.377  11.164 -2.1735  4.1328 -0.3976
   83MPD2     C 1289   1.492   0.567  10.939 -0.8988 -0.5481 -0.0427
   83MPD2    C1 1290   1.396   0.499  11.013  0.1106  0.4969 -0.2731
   83MPD2    C2 1291   1.439   0.394  11.092 -0.2329  0.3778  0.2600
   83MPD2    C3 1292   1.571   0.351  11.089  1.1931 -0.9654 -0.7801
   83MPD2    C4 1293   1.667   0.424  11.019  0.1245  0.1233  0.2701
   83MPD2    C5 1294   1.626   0.526  10.941 -0.3417 -0.5143 -0.7539
   83MPD2     H 1295   1.365   0.342  11.152 -0.7225  0.5953 -0.1616
   83MPD2    H1 1296   1.772   0.397  11.022  0.2655  0.6857  0.5295
   83MPD2    H2 1297   1.472   0.662  10.891  3.4146  0.5425  0.2434
   83MPD2    H3 1298   1.705   0.574  10.885 -0.4837  1.3447  0.6655
   83MPD2     N 1299   1.619   0.242  11.160  0.5569 -0.3710 -0.3116
   83MPD2    H5 1300   1.714   0.223  11.130  0.0004 -2.2770 -0.8747
   83MPD2    N1 1301   1.264   0.552  11.011  0.8365  0.2444 -0.0731
   83MPD2    H7 1302   1.248   0.628  10.947  0.2795  0.3517  0.1943
   84TMC2    C1 1303   2.267   4.252  10.563 -0.5174  0.2927 -0.1313
   84TMC2    C2 1304   2.210   4.128  10.583 -0.7762  0.0190  0.2653
   84TMC2    C3 1305   2.207   4.040  10.476 -0.0921 -0.0181  0.1695
   84TMC2    C4 1306   2.338   4.294  10.447 -0.3146  0.3209 -0.6031
   84TMC2    C5 1307   2.353   4.186  10.361 -0.1569 -0.4008  1.0337
   84TMC2    C6 1308   2.292   4.060  10.376  0.1025  0.1445 -0.3183
   84TMC2     C 1309   2.247   4.345  10.662 -0.4831  0.0765  0.5268
   84TMC2     O 1310   2.248   4.299  10.774 -0.0901  0.2396  0.4042
   84TMC2     H 1311   2.156   4.098  10.672 -1.1039  0.7049  0.2959
   84TMC2    H1 1312   2.368   4.396  10.427 -1.3983  0.7015 -0.2541
   84TMC2    H2 1313   2.318   3.983  10.303  1.6969 -1.1235  1.5976
   84TMC2    C7 1314   2.460   4.201  10.261 -0.2310 -0.0485  0.2307
   84TMC2    C8 1315   2.153   3.905  10.494  0.1480  0.3688  0.5948
   84TMC2    O1 1316   2.450   4.129  10.159  0.2403  0.2117 -0.0339
   84TMC2    O2 1317   2.213   3.833  10.575 -0.3207 -0.0355 -0.2444
   84TMC2    O5 1318   2.116   3.863  10.374 -0.5446 -0.1186 -0.7165
   84TMC2    H5 1319   2.056   3.923  10.325 -0.6721  0.4850  0.1709
   85TMC2    C1 1320   3.520   1.932  16.006 -0.4124  0.0208  0.0888
   85TMC2    C2 1321   3.481   2.061  15.979 -0.4441  0.3682 -0.3344
   85TMC2    C3 1322   3.516   2.112  15.851 -0.6332  0.5449  0.3219
   85TMC2    C4 1323   3.594   1.850  15.922  0.0801 -0.9143 -0.5085
   85TMC2    C5 1324   3.619   1.907  15.797 -0.7885 -0.0915  0.3461
   85TMC2    C6 1325   3.587   2.037  15.759 -0.6572 -0.5331  0.9024
   85TMC2     C 1326   3.483   1.878  16.139  0.0849 -0.4054 -0.0927
   85TMC2     O 1327   3.468   1.968  16.223 -0.6752 -0.2318 -0.2433
   85TMC2     H 1328   3.415   2.102  16.054 -0.0463 -0.9926  0.7711
   85TMC2    H1 1329   3.618   1.748  15.950  0.0477 -0.7574  0.0879
   85TMC2    H2 1330   3.623   2.087  15.669 -0.3992 -1.2800  0.5905
   85TMC2    C7 1331   3.709   1.828  15.709 -0.4242 -0.5083  0.2486
   85TMC2    C8 1332   3.442   2.214  15.795  0.1056 -0.5413 -0.3371
   85TMC2    O1 1333   3.769   1.746  15.776 -0.8018 -0.0097 -0.4061
   85TMC2    O2 1334   3.412   2.214  15.672 -0.2610 -0.0590  0.3276
   85TMC2    O5 1335   3.387   2.283  15.898  0.7446 -0.4872  0.8152
   85TMC2    H5 1336   3.447   2.290  15.976 -0.6818 -0.3035  1.9064
   86MPD2     C 1337   3.293   1.517  16.454  0.2344  0.1707  0.3359
   86MPD2    C1 1338   3.313   1.464  16.335  0.4765 -0.0195 -0.1238
   86MPD2    C2 1339   3.380   1.537  16.241 -0.0953  0.2692 -0.7838
   86MPD2    C3 1340   3.402   1.675  16.256 -0.4960 -0.0506  0.0568
   86MPD2    C4 1341   3.372   1.739  16.376 -0.6439  0.7588 -0.3416
   86MPD2    C5 1342   3.325   1.652  16.474 -0.3572  0.4153 -0.0601
   86MPD2     H 1343   3.395   1.491  16.144 -0.3583  0.0920 -0.7427
   86MPD2    H1 1344   3.381   1.844  16.401  0.3906  0.8554 -1.1010
   86MPD2    H2 1345   3.231   1.472  16.530 -0.6346 -2.0874 -1.7192
   86MPD2    H3 1346   3.292   1.693  16.569 -1.1012 -0.4850  0.0705
   86MPD2     N 1347   3.450   1.745  16.140 -0.2564  0.5035 -0.6612
   86MPD2    H5 1348   3.468   1.689  16.057  0.7945  0.3609 -0.3416
   86MPD2    N1 1349   3.250   1.345  16.287  0.4100  0.0194 -0.1427
   86MPD2    H7 1350   3.261   1.329  16.188  0.5486 -1.4609  0.1101
   87TMC2    C1 1351   0.040   4.688   0.346 -0.0260 -0.9139  0.6050
   87TMC2    C2 1352   4.703   0.059   0.332  0.1993 -0.0369 -0.6193
   87TMC2    C3 1353   4.675   0.124   0.451 -0.4080 -0.7094 -0.7250
   87TMC2    C4 1354   0.102   4.653   0.461  0.5325 -0.0034  0.4304
   87TMC2    C5 1355   0.074   4.728   0.570 -0.5297  0.3192  0.3214
   87TMC2    C6 1356   4.739   0.100   0.568 -0.6275 -0.3791 -0.2185
   87TMC2     C 1357   0.083   4.607   0.222 -0.1894 -0.1714 -1.0396
   87TMC2     O 1358   0.078   4.660   0.110 -0.5299 -0.1739 -0.6759
   87TMC2     H 1359   4.648   0.075   0.239  2.1036  0.9357 -1.5777
   87TMC2    H1 1360   0.176   4.574   0.461  0.7778  0.2271  0.8764
   87TMC2    H2 1361   4.722   0.169   0.650  1.9126 -1.1600  0.9857
   87TMC2    C7 1362   0.180   0.013   0.661 -0.5731 -1.0261 -0.1201
   87TMC2    C8 1363   4.603   0.248   0.446 -1.0010  0.8326  0.0066
   87TMC2    O1 1364   0.155   0.080   0.766 -0.5921 -0.4462  1.0802
   87TMC2    O2 1365   4.588   0.332   0.536  0.2271  0.3619 -0.5299
   87TMC2    O5 1366   4.611   0.293   0.322  0.1874 -0.3987 -0.0946
   87TMC2    H5 1367   4.624   0.221   0.256  1.0546 -0.8477  0.5608
   88MPD2     C 1368   0.528   4.657   0.622  0.6855 -0.2965  0.3156
   88MPD2    C1 1369   0.423   4.717   0.681  0.4987  0.2647 -0.0459
   88MPD2    C2 1370   0.449   0.077   0.773  0.1081  0.9735  0.5734
   88MPD2    C3 1371   0.577   0.101   0.825 -1.0478 -0.9024  0.9087
   88MPD2    C4 1372   0.682   0.035   0.766 -0.1928 -0.6373  0.1439
   88MPD2    C5 1373   0.651   4.688   0.661  0.1525 -0.5908 -0.3462
   88MPD2     H 1374   0.369   0.143   0.804 -0.0440  1.6126 -1.1616
   88MPD2    H1 1375   0.786   0.045   0.793 -0.7683  2.0044  1.3908
   88MPD2    H2 1376   0.512   4.579   0.549 -0.0005  1.3534 -1.3097
   88MPD2    H3 1377   0.730   4.636   0.608 -2.0984 -0.1012 -4.1848
   88MPD2     N 1378   0.621   0.188   0.925 -0.1136 -0.2633 -0.0768
   88MPD2    H5 1379   0.719   0.189   0.952 -0.5202 -1.4170  1.4314
   88MPD2    N1 1380   0.301   4.703   0.610 -0.6739 -0.7629 -0.1314
   88MPD2    H7 1381   0.309   4.673   0.513  0.7052  0.6570 -0.4639
   89TMC2    C1 1382   1.694   2.519   1.495 -0.1539 -0.1379  1.0738
   89TMC2    C2 1383   1.815   2.561   1.533  0.0826 -1.1264  0.1837
   89TMC2    C3 1384   1.824   2.693   1.553 -0.1373 -0.2066 -0.5630
   89TMC2    C4 1385   1.580   2.594   1.453  0.4194  0.7985  0.5751
   89TMC2    C5 1386   1.608   2.730   1.443 -0.7647 -0.2968  0.5435
   89TMC2    C6 1387   1.725   2.780   1.508  0.0102 -0.5195  0.0478
   89TMC2     C 1388   1.678   2.380   1.508  0.1175  0.4100  0.3956
   89TMC2     O 1389   1.773   2.304   1.504 -0.0251 -0.2566 -0.4508
   89TMC2     H 1390   1.897   2.492   1.546  2.2209  1.4119  0.1555
   89TMC2    H1 1391   1.503   2.559   1.385 -2.5439  1.8546  3.3935
   89TMC2    H2 1392   1.739   2.886   1.527  0.6418 -0.8632  1.5016
   89TMC2    C7 1393   1.514   2.825   1.380 -0.6859  0.0582 -0.6912
   89TMC2    C8 1394   1.960   2.739   1.593 -0.2110  0.3229 -1.0868
   89TMC2    O1 1395   1.411   2.766   1.344  0.0443 -0.2582  0.1590
   89TMC2    O2 1396   2.013   2.851   1.588 -0.0336  0.0827 -0.1717
   89TMC2    O5 1397   2.021   2.637   1.651 -0.5909  0.4268 -0.0470
   89TMC2    H5 1398   1.969   2.565   1.692  1.2122 -2.6742 -3.1910
   90MPD2     C 1399   1.383   2.002   1.646  0.5261  0.5712 -0.1499
   90MPD2    C1 1400   1.312   2.116   1.668  0.1129  0.8017 -0.3336
   90MPD2    C2 1401   1.379   2.232   1.633 -0.3473  0.2306  0.5215
   90MPD2    C3 1402   1.500   2.232   1.571  0.7829 -0.1990  0.0181
   90MPD2    C4 1403   1.570   2.115   1.546 -0.2358  0.6410 -0.4147
   90MPD2    C5 1404   1.503   1.998   1.584 -0.5184 -0.7615 -0.0350
   90MPD2     H 1405   1.334   2.330   1.640 -2.1846 -0.5382 -0.6097
   90MPD2    H1 1406   1.662   2.107   1.490  1.2514  0.9432  1.9571
   90MPD2    H2 1407   1.345   1.910   1.689  1.0159  1.2565  1.7414
   90MPD2    H3 1408   1.551   1.903   1.567  0.4885 -0.4567  1.1384
   90MPD2     N 1409   1.547   2.354   1.535 -0.4090 -0.3705  0.2627
   90MPD2    H5 1410   1.491   2.437   1.553 -1.2204 -0.8611 -0.0657
   90MPD2    N1 1411   1.192   2.123   1.743 -0.3237 -0.3468 -0.3776
   90MPD2    H7 1412   1.150   2.215   1.750  0.0078 -0.1203 -1.3376
   91TMC2    C1 1413   3.342   2.511  16.921  0.7816  1.1922  0.2119
   91TMC2    C2 1414   3.382   2.648  16.918  0.5319  0.3538  0.6562
   91TMC2    C3 1415   3.324   2.725  16.818  0.2222 -0.1177 -0.0503
   91TMC2    C4 1416   3.248   2.459  16.833 -0.0295  0.0928  0.1617
   91TMC2    C5 1417   3.197   2.542  16.730  0.3267 -0.2246 -0.0852
   91TMC2    C6 1418   3.240   2.670  16.723  0.4602  0.4935  0.4190
   91TMC2     C 1419   3.418   2.411  16.995  0.0787  0.1176 -0.2675
   91TMC2     O 1420   3.368   2.299  17.015 -0.0522 -0.2166  0.0713
   91TMC2     H 1421   3.457   2.703  16.974  1.6818 -1.4719  0.8835
   91TMC2    H1 1422   3.233   2.352  16.820  1.3962  0.1059 -1.4987
   91TMC2    H2 1423   3.203   2.734  16.644 -0.0350 -0.4436 -0.1164
   91TMC2    C7 1424   3.115   2.483  16.622 -0.4509  0.9290  0.5655
   91TMC2    C8 1425   3.370   2.861  16.799  0.3779 -0.2810 -0.0647
   91TMC2    O1 1426   3.089   2.363  16.646  0.7677  0.0084  0.0591
   91TMC2    O2 1427   3.478   2.904  16.828  0.1703  0.6607 -0.1391
   91TMC2    O5 1428   3.267   2.933  16.752 -0.0721  0.0629 -0.3758
   91TMC2    H5 1429   3.181   2.886  16.761  0.5229 -0.5366  2.3740
   92MPD2     C 1430   3.615   2.287  17.183 -0.7407  0.1734  0.9830
   92MPD2    C1 1431   3.621   2.421  17.135  0.0614  0.1101  0.5077
   92MPD2    C2 1432   3.727   2.504  17.161  0.3038 -0.2534  0.0180
   92MPD2    C3 1433   3.838   2.454  17.227  0.8402  0.5069 -0.0472
   92MPD2    C4 1434   3.826   2.329  17.291 -0.2831 -0.2622  0.2621
   92MPD2    C5 1435   3.717   2.248  17.266  0.3224  0.8565 -0.1748
   92MPD2     H 1436   3.722   2.609  17.134  0.0365  0.1089  1.4958
   92MPD2    H1 1437   3.910   2.303  17.355  0.1691 -1.0571 -0.6570
   92MPD2    H2 1438   3.528   2.223  17.177  0.8529 -1.6314 -2.8774
   92MPD2    H3 1439   3.724   2.151  17.313  0.0553 -0.0471 -2.0114
   92MPD2     N 1440   3.949   2.542  17.239 -0.2572  0.0219  0.0568
   92MPD2    H5 1441   3.946   2.632  17.193  0.8018 -0.0030 -0.0795
   92MPD2    N1 1442   3.526   2.475  17.045 -0.5649  0.2704 -0.1544
   92MPD2    H7 1443   3.548   2.565  17.005 -1.9968 -0.3038 -2.2722
   93TMC2    C1 1444   0.623   3.056  13.907 -0.1174 -0.2238  0.2969
   93TMC2    C2 1445   0.609   3.090  14.039 -0.5591 -0.3232  0.2057
   93TMC2    C3 1446   0.713   3.161  14.100  0.1900 -0.5895 -0.2375
   93TMC2    C4 1447   0.728   3.095  13.831 -0.1369  0.4104  0.7422
   93TMC2    C5 1448   0.835   3.151  13.898  0.2566 -0.5326 -0.1064
   93TMC2    C6 1449   0.833   3.180  14.028  0.3573  0.2973  0.5547
   93TMC2     C 1450   0.511   2.982  13.842  0.2469 -0.3413 -0.5418
   93TMC2     O 1451   0.538   2.934  13.734  0.1741 -0.1174 -0.5496
   93TMC2     H 1452   0.543   3.031  14.102  1.2091 -1.2174  1.2446
   93TMC2    H1 1453   0.735   3.067  13.726 -1.5855  0.4781  0.6298
   93TMC2    H2 1454   0.924   3.222  14.070  0.3364  0.5691  0.3286
   93TMC2    C7 1455   0.962   3.165  13.829 -0.0587  0.2918 -0.1584
   93TMC2    C8 1456   0.715   3.190  14.244  0.1503 -0.1266 -0.1433
   93TMC2    O1 1457   1.057   3.136  13.901  0.8080 -0.0699  0.2146
   93TMC2    O2 1458   0.823   3.203  14.306 -0.5895 -0.2882  0.2800
   93TMC2    O5 1459   0.596   3.226  14.283 -0.2683  0.3529  0.1200
   93TMC2    H5 1460   0.541   3.249  14.205 -0.1101  0.9398  0.1861
   94MPD2     C 1461   0.297   2.789  13.776  0.0886 -0.3201  0.0975
   94MPD2    C1 1462   0.295   2.872  13.890  0.2300  0.3220 -0.5800
   94MPD2    C2 1463   0.184   2.883  13.975  0.5866 -0.5327  1.4158
   94MPD2    C3 1464   0.079   2.797  13.946  0.1071  0.4112 -0.1018
   94MPD2    C4 1465   0.086   2.706  13.841 -0.2510  0.7128 -0.3741
   94MPD2    C5 1466   0.193   2.706  13.750  0.3381 -0.2082  0.0979
   94MPD2     H 1467   0.178   2.947  14.062  0.6755  0.1046  0.9470
   94MPD2    H1 1468   0.007   2.632  13.842  0.6249 -0.2293 -0.1545
   94MPD2    H2 1469   0.384   2.776  13.713  0.0189 -1.3227  0.1968
   94MPD2    H3 1470   0.191   2.636  13.668 -1.7700  0.0937 -0.1122
   94MPD2     N 1471   4.699   2.799  14.022 -0.4058  0.0855  0.7197
   94MPD2    H5 1472   4.634   2.725  13.994  1.1396 -0.2204 -2.0387
   94MPD2    N1 1473   0.398   2.960  13.921 -0.0588 -0.0183  0.3402
   94MPD2    H7 1474   0.388   3.013  14.007  0.2989  0.7653 -0.0969
   95TMC2    C1 1475   0.616   4.672  16.025 -0.4858 -0.2000 -0.2612
   95TMC2    C2 1476   0.617   4.573  16.115  0.9995 -0.3961  0.7394
   95TMC2    C3 1477   0.605   4.608  16.243  0.2072  0.4502 -0.6266
   95TMC2    C4 1478   0.631   0.061  16.060 -0.1479 -0.6476  0.1261
   95TMC2    C5 1479   0.620   0.088  16.200 -0.0539  0.3464 -0.7529
   95TMC2    C6 1480   0.607   4.734  16.295 -0.6343 -0.3562  0.4242
   95TMC2     C 1481   0.650   4.647  15.891 -0.4416  0.1881 -0.2910
   95TMC2     O 1482   0.667   0.002  15.814  0.1992  0.0303  0.2219
   95TMC2     H 1483   0.626   4.468  16.089  2.8990 -0.3569  1.1918
   95TMC2    H1 1484   0.606   0.141  15.990 -2.2348 -0.9559  0.5174
   95TMC2    H2 1485   0.622   0.005  16.402 -0.3213  2.0544  0.1388
   95TMC2    C7 1486   0.631   0.221  16.249 -0.4482 -0.3620 -0.4462
   95TMC2    C8 1487   0.656   4.522  16.350  0.1362  0.1702 -0.4064
   95TMC2    O1 1488   0.627   0.240  16.371  0.4437  0.0730 -0.2925
   95TMC2    O2 1489   0.602   4.412  16.377  0.1493 -0.3115 -0.1053
   95TMC2    O5 1490   0.783   4.526  16.304 -0.2812  0.0044 -0.4438
   95TMC2    H5 1491   0.808   4.619  16.288  1.6227 -0.3649  0.4265
   96MPD2     C 1492   0.726   4.380  15.461 -0.4473  0.3585  0.5986
   96MPD2    C1 1493   0.790   4.491  15.507 -0.2093 -0.0468 -0.8045
   96MPD2    C2 1494   0.755   4.537  15.634  0.2661 -0.4444 -0.5131
   96MPD2    C3 1495   0.677   4.470  15.728 -0.4073 -0.2931 -0.0704
   96MPD2    C4 1496   0.628   4.351  15.685  0.5370  0.7380  0.7848
   96MPD2    C5 1497   0.642   4.317  15.547  0.2572 -0.6565 -0.0839
   96MPD2     H 1498   0.797   4.632  15.663 -1.1853 -0.2823  1.0306
   96MPD2    H1 1499   0.575   4.282  15.750  1.5099  0.1525  0.9625
   96MPD2    H2 1500   0.738   4.345  15.359 -1.6610  1.4948  0.0629
   96MPD2    H3 1501   0.592   4.227  15.512  0.0325 -0.3704 -0.4865
   96MPD2     N 1502   0.659   4.515  15.860  0.1403 -0.3016  0.2930
   96MPD2    H5 1503   0.609   4.459  15.929  0.1197  1.8322  2.0095
   96MPD2    N1 1504   0.874   4.561  15.417 -0.9243  0.3101 -0.0119
   96MPD2    H7 1505   0.896   4.508  15.333  1.0520  0.5535  0.3417
   97TMC2    C1 1506   2.420   2.635   0.260 -0.0831  0.6740  0.5100
   97TMC2    C2 1507   2.335   2.552   0.190 -0.2541  0.3356 -0.4426
   97TMC2    C3 1508   2.293   2.593   0.067  0.5040 -0.5651 -0.5222
   97TMC2    C4 1509   2.470   2.754   0.211 -0.0742 -0.6180 -0.3868
   97TMC2    C5 1510   2.420   2.788   0.086  0.0844  0.3930 -0.0866
   97TMC2    C6 1511   2.330   2.717   0.019  0.5013  0.4296  0.0474
   97TMC2     C 1512   2.472   2.585   0.384  0.2014 -0.1340 -0.5179
   97TMC2     O 1513   2.442   2.467   0.402 -0.2256  0.2648  0.9129
   97TMC2     H 1514   2.307   2.451   0.218  0.3571  0.0600 -0.8275
   97TMC2    H1 1515   2.520   2.829   0.270 -0.0871  0.2413 -1.4593
   97TMC2    H2 1516   2.310   2.738  17.673  3.0148  1.7317 -0.1799
   97TMC2    C7 1517   2.467   2.917   0.034  0.0698  0.7384  0.1179
   97TMC2    C8 1518   2.194   2.524  17.742  0.3442 -0.5703 -0.9845
   97TMC2    O1 1519   2.574   2.954   0.079 -0.2501  1.2249 -0.2821
   97TMC2    O2 1520   2.157   2.411   0.014  0.2036  0.0199 -0.1698
   97TMC2    O5 1521   2.111   2.614  17.688 -0.4791  0.0196 -0.1669
   97TMC2    H5 1522   2.151   2.703  17.704  1.5067 -0.8059 -0.5154
   98MPD2     C 1523   2.829   2.564   0.757  0.8201  0.1083 -0.1584
   98MPD2    C1 1524   2.765   2.458   0.693  0.2219  0.2995 -0.1349
   98MPD2    C2 1525   2.670   2.498   0.596  0.2059 -0.5813  0.0275
   98MPD2    C3 1526   2.637   2.627   0.565 -0.3041 -0.2553  0.6155
   98MPD2    C4 1527   2.693   2.721   0.647  0.3052 -0.5438  0.2765
   98MPD2    C5 1528   2.782   2.690   0.742  0.2838 -0.2432 -0.3196
   98MPD2     H 1529   2.630   2.417   0.536  0.1355 -0.8245  0.4018
   98MPD2    H1 1530   2.665   2.825   0.633  2.9122  0.2632  1.0393
   98MPD2    H2 1531   2.910   2.551   0.828 -1.6241  0.5192  2.7050
   98MPD2    H3 1532   2.848   2.766   0.781 -1.1188 -1.0073  3.4953
   98MPD2     N 1533   2.557   2.671   0.451 -0.1935 -0.1756 -0.4634
   98MPD2    H5 1534   2.559   2.770   0.429  0.7932 -0.0955 -0.0146
   98MPD2    N1 1535   2.793   2.327   0.727 -0.2924 -0.3529  0.3367
   98MPD2    H7 1536   2.852   2.321   0.810  0.7399  2.7027 -0.1776
   99TMC2    C1 1537   1.397   4.298   0.714 -0.2072  0.1736 -0.3322
   99TMC2    C2 1538   1.507   4.384   0.705  0.0742  0.0273  0.8635
   99TMC2    C3 1539   1.625   4.346   0.763 -0.0089  0.5447  0.3245
   99TMC2    C4 1540   1.402   4.171   0.771 -0.1382 -1.0377 -0.1390
   99TMC2    C5 1541   1.531   4.137   0.822 -0.1280  0.1752  0.5302
   99TMC2    C6 1542   1.644   4.221   0.818 -0.3425 -0.1491 -0.8871
   99TMC2     C 1543   1.281   4.335   0.640 -0.5546  0.4600  0.1820
   99TMC2     O 1544   1.281   4.450   0.596  0.1742 -0.4659 -0.7026
   99TMC2     H 1545   1.489   4.483   0.665 -0.7586 -1.0483 -1.3895
   99TMC2    H1 1546   1.317   4.106   0.791 -0.7767 -1.4146 -3.9274
   99TMC2    H2 1547   1.745   4.193   0.845 -0.1208  0.3660 -1.1666
   99TMC2    C7 1548   1.543   4.019   0.904 -0.5574  0.3860  0.0059
   99TMC2    C8 1549   1.737   4.432   0.749 -0.4920 -0.3486 -0.5653
   99TMC2    O1 1550   1.636   4.030   0.978 -0.3954  0.4326 -0.2262
   99TMC2    O2 1551   1.731   4.515   0.661 -0.0525  0.3006  0.2563
   99TMC2    O5 1552   1.811   4.426   0.861 -1.0653  0.6028  0.2955
   99TMC2    H5 1553   1.789   4.355   0.926  2.3281 -0.7583 -0.0431
  100MPD2     C 1554   1.016   4.352   0.499  0.3065  0.1119 -0.3041
  100MPD2    C1 1555   1.078   4.234   0.546  0.0981  0.4165 -0.0948
  100MPD2    C2 1556   1.013   4.116   0.529  0.0149 -0.2496  0.7299
  100MPD2    C3 1557   0.896   4.108   0.461  0.0411 -0.0600 -0.8976
  100MPD2    C4 1558   0.831   4.222   0.419 -0.1665  0.3862  0.6956
  100MPD2    C5 1559   0.894   4.341   0.442  1.1440  0.5227  0.1161
  100MPD2     H 1560   1.063   4.028   0.567  0.6610 -0.0693  0.3024
  100MPD2    H1 1561   0.735   4.223   0.368 -0.0862 -2.4390  0.4750
  100MPD2    H2 1562   1.065   4.448   0.493  0.4358  0.1443  1.1717
  100MPD2    H3 1563   0.843   4.427   0.402  2.2764  2.2481  2.3877
  100MPD2     N 1564   0.851   3.978   0.444 -0.7685 -0.6176 -0.1008
  100MPD2    H5 1565   0.922   3.906   0.455  1.6316  1.8407  0.5820
  100MPD2    N1 1566   1.195   4.232   0.619  0.7060 -0.1467 -0.3772
  100MPD2    H7 1567   1.232   4.144   0.655  1.2758 -0.2270 -1.1720
  101TMC2    C1 1568   2.226   0.524  12.733 -0.8763  0.3467 -0.4532
  101TMC2    C2 1569   2.118   0.540  12.652  0.1592 -0.5219 -0.9767
  101TMC2    C3 1570   2.140   0.598  12.528  0.2333  0.1026  0.8583
  101TMC2    C4 1571   2.356   0.536  12.686 -0.6970 -0.3060  0.1915
  101TMC2    C5 1572   2.369   0.583  12.560 -0.6584  0.7385 -0.0946
  101TMC2    C6 1573   2.260   0.616  12.478 -0.0390 -0.0420 -0.0274
  101TMC2     C 1574   2.203   0.427  12.847  0.7522 -0.4640  0.3203
  101TMC2     O 1575   2.090   0.413  12.890 -0.2782  0.5963 -0.1158
  101TMC2     H 1576   2.024   0.508  12.693  0.6311 -0.5103  0.1080
  101TMC2    H1 1577   2.440   0.527  12.754  0.3810  2.6672 -0.7468
  101TMC2    H2 1578   2.279   0.658  12.381 -1.7989  1.1970  0.1693
  101TMC2    C7 1579   2.493   0.632  12.509 -0.1001 -0.1210  0.1866
  101TMC2    C8 1580   2.025   0.630  12.445  0.0389  0.5155 -0.1102
  101TMC2    O1 1581   2.489   0.735  12.444  0.3257 -0.0911 -0.0414
  101TMC2    O2 1582   2.041   0.679  12.333  0.4888 -0.4428 -0.1359
  101TMC2    O5 1583   1.918   0.590  12.508  0.2505 -0.2273 -0.3091
  101TMC2    H5 1584   1.834   0.595  12.458 -0.8656 -0.9061  1.4762
  102MPD2     C 1585   2.431   0.175  12.985 -0.3383 -0.0174  0.3726
  102MPD2    C1 1586   2.310   0.236  12.968 -0.1971 -1.1994  0.2458
  102MPD2    C2 1587   2.206   0.201  13.050  0.2280 -0.1480  0.4085
  102MPD2    C3 1588   2.225   0.120  13.161  0.1791  0.0223  0.5227
  102MPD2    C4 1589   2.344   0.062  13.178 -0.9176  0.7015 -0.8421
  102MPD2    C5 1590   2.444   0.084  13.087 -0.1848 -0.1656  0.2408
  102MPD2     H 1591   2.110   0.251  13.052 -0.1988 -0.9113 -0.7927
  102MPD2    H1 1592   2.358   4.728  13.257 -0.3596  3.0294  1.2417
  102MPD2    H2 1593   2.519   0.206  12.929  0.6647 -0.4768  1.7034
  102MPD2    H3 1594   2.537   0.028  13.095 -0.5096 -0.4679  1.9446
  102MPD2     N 1595   2.112   0.098  13.245  0.0102  0.5069 -0.2324
  102MPD2    H5 1596   2.027   0.140  13.209  0.1036  0.0871 -0.9428
  102MPD2    N1 1597   2.307   0.339  12.869 -0.2339  0.1703 -0.5088
  102MPD2    H7 1598   2.396   0.356  12.822 -0.7435 -0.9940 -1.8852
  103TMC2    C1 1599   4.493   0.435  12.326 -0.0327 -0.1016  0.2107
  103TMC2    C2 1600   4.413   0.549  12.335 -0.0625 -0.0717 -0.6324
  103TMC2    C3 1601   4.447   0.647  12.422  0.1211 -0.8274 -0.6702
  103TMC2    C4 1602   4.574   0.407  12.434  0.0432 -0.3108  0.3771
  103TMC2    C5 1603   4.598   0.508  12.525  0.7926  0.0835  0.2330
  103TMC2    C6 1604   4.549   0.633  12.510  0.7479  0.1197 -0.6330
  103TMC2     C 1605   4.445   0.324  12.246 -0.3346  0.0285  0.3557
  103TMC2     O 1606   4.334   0.345  12.199 -0.4562  0.7684 -0.2888
  103TMC2     H 1607   4.342   0.575  12.258  0.4041  1.3400 -0.5934
  103TMC2    H1 1608   4.626   0.313  12.449 -0.9830 -0.4709  2.8610
  103TMC2    H2 1609   4.546   0.696  12.599 -1.9611  2.4802 -2.3849
  103TMC2    C7 1610   4.696   0.492  12.632 -0.4961 -0.2370  0.2012
  103TMC2    C8 1611   4.348   0.745  12.457  0.0865 -0.4725  0.5211
  103TMC2    O1 1612   4.698   0.385  12.686 -0.1703  0.3640 -0.1100
  103TMC2    O2 1613   4.230   0.726  12.489 -0.4323 -0.5226 -0.0292
  103TMC2    O5 1614   4.401   0.864  12.427 -0.0755  0.1067  0.1234
  103TMC2    H5 1615   4.496   0.861  12.404 -0.0507 -1.4266  0.4687
  104MPD2     C 1616   4.605   0.018  12.110  0.0889  0.6622 -0.3396
  104MPD2    C1 1617   4.513   0.113  12.131 -0.0146 -0.1423 -0.3089
  104MPD2    C2 1618   4.382   0.079  12.101 -0.0382  0.4237 -0.5833
  104MPD2    C3 1619   4.351   4.717  12.010  0.0597  1.0911  0.1981
  104MPD2    C4 1620   4.448   4.622  11.985  0.1247  0.3217  0.5848
  104MPD2    C5 1621   4.573   4.638  12.040 -0.2030  0.1408  0.6660
  104MPD2     H 1622   4.293   0.130  12.136  0.1669 -0.1827  0.8389
  104MPD2    H1 1623   4.433   4.532  11.926  1.0678  2.3558 -2.7708
  104MPD2    H2 1624   4.710   0.031  12.135  0.6820 -1.2875 -1.8340
  104MPD2    H3 1625   4.647   4.558  12.040  0.1000  0.4272 -1.7400
  104MPD2     N 1626   4.215   4.712  11.963 -0.2521  0.0382  0.4387
  104MPD2    H5 1627   4.158   0.048  11.999 -0.3221  0.9120 -1.5524
  104MPD2    N1 1628   4.545   0.231  12.206  0.1949 -0.3459  0.5931
  104MPD2    H7 1629   4.643   0.243  12.230  0.4897 -1.0204 -0.2851
  105TMC2    C1 1630   0.806   4.337  17.457  0.0504  0.4668  0.8359
  105TMC2    C2 1631   0.832   4.467  17.504 -0.2363 -0.0737  0.1077
  105TMC2    C3 1632   0.723   4.540  17.537 -0.9521  0.5927  0.6157
  105TMC2    C4 1633   0.686   4.276  17.478 -0.2916 -0.5054 -0.1583
  105TMC2    C5 1634   0.582   4.351  17.521 -0.2850  0.1188  0.2042
  105TMC2    C6 1635   0.604   4.478  17.555  0.2264 -0.4209 -0.0929
  105TMC2     C 1636   0.912   4.238  17.457 -0.4242  0.3395  0.8051
  105TMC2     O 1637   0.908   4.159  17.550 -0.3414 -0.0669  0.2450
  105TMC2     H 1638   0.935   4.499  17.513 -1.5302  4.6478 -1.6541
  105TMC2    H1 1639   0.669   4.177  17.437 -1.4261 -0.9258  1.2891
  105TMC2    H2 1640   0.525   4.545  17.589  0.6987  0.4066 -0.6070
  105TMC2    C7 1641   0.479   4.277  17.593  0.3839 -0.3471 -0.3665
  105TMC2    C8 1642   0.735   4.682  17.539 -0.0416 -0.1289  0.1352
  105TMC2    O1 1643   0.517   4.160  17.605 -0.9669 -0.4124  0.4288
  105TMC2    O2 1644   0.653   0.015  17.587  0.1168  0.4821 -0.2428
  105TMC2    O5 1645   0.830   4.715  17.450  0.1549 -0.0458  0.4357
  105TMC2    H5 1646   0.865   4.641  17.396  0.5696  1.2289 -1.0271
  106MPD2     C 1647   1.405   4.108  17.393  0.4068  0.5890  0.3065
  106MPD2    C1 1648   1.388   4.240  17.357  0.0228 -0.8420 -0.0742
  106MPD2    C2 1649   1.262   4.293  17.346 -0.1984 -0.0314  0.0913
  106MPD2    C3 1650   1.150   4.225  17.393 -0.9951 -0.3728  0.1284
  106MPD2    C4 1651   1.170   4.103  17.443 -0.0746  0.8085  0.3313
  106MPD2    C5 1652   1.292   4.041  17.429 -0.3609  0.1644 -0.1263
  106MPD2     H 1653   1.248   4.395  17.311 -0.3947  0.3575  1.2925
  106MPD2    H1 1654   1.094   4.047  17.498  0.6869  1.1010  1.6652
  106MPD2    H2 1655   1.502   4.060  17.404  0.3101  0.5503  0.9574
  106MPD2    H3 1656   1.303   3.941  17.467  0.9948  0.0546 -0.8077
  106MPD2     N 1657   1.025   4.287  17.395  0.6064 -0.2198 -0.2227
  106MPD2    H5 1658   1.006   4.374  17.346 -0.8119 -0.5529 -0.2613
  106MPD2    N1 1659   1.499   4.329  17.338 -0.3179  0.8257 -0.2267
  106MPD2    H7 1660   1.480   4.427  17.323 -1.1401  0.5148 -1.2438
  107TMC2    C1 1661   2.324   4.603  11.462  0.0438 -0.0031  0.3024
  107TMC2    C2 1662   2.417   4.682  11.531 -0.0962 -0.1668 -0.0384
  107TMC2    C3 1663   2.468   0.052  11.473 -0.3484  0.7316  0.2004
  107TMC2    C4 1664   2.285   4.625  11.330  0.0669  0.8277 -0.0514
  107TMC2    C5 1665   2.352   4.737  11.275 -0.4394 -0.0837 -0.6227
  107TMC2    C6 1666   2.433   0.083  11.349  0.2070 -1.1493 -1.0703
  107TMC2     C 1667   2.253   4.511  11.550  0.4119 -0.0078 -0.0509
  107TMC2     O 1668   2.317   4.477  11.646  0.3138 -0.2318 -0.0608
  107TMC2     H 1669   2.446   4.663  11.633 -1.6571  2.3799  0.8932
  107TMC2    H1 1670   2.217   4.559  11.277  2.1099  0.5970 -2.3771
  107TMC2    H2 1671   2.478   0.171  11.306  3.1529 -1.1171  2.0774
  107TMC2    C7 1672   2.324   0.047  11.135 -0.6805 -0.3645 -0.3419
  107TMC2    C8 1673   2.540   0.156  11.551  0.0028 -0.5358  0.1676
  107TMC2    O1 1674   2.359   0.164  11.125  0.0995  0.4495 -0.2823
  107TMC2    O2 1675   2.617   0.226  11.488  0.0911  0.2650 -0.5278
  107TMC2    O5 1676   2.464   0.203  11.654  0.5044 -0.3311  0.2473
  107TMC2    H5 1677   2.389   0.146  11.682  0.2387 -0.7250 -1.2742
  108MPD2     C 1678   1.900   4.441  11.574 -0.9511 -0.4068 -0.3061
  108MPD2    C1 1679   2.028   4.458  11.617  0.2053  0.1949 -0.1398
  108MPD2    C2 1680   2.059   4.455  11.749 -0.2339  0.1890 -0.5642
  108MPD2    C3 1681   1.957   4.439  11.842  0.4161  0.4165  0.0000
  108MPD2    C4 1682   1.830   4.408  11.797 -0.3598 -0.0655 -0.1905
  108MPD2    C5 1683   1.802   4.406  11.668  0.3179  0.3846 -0.0707
  108MPD2     H 1684   2.149   4.492  11.797  1.5071 -0.8827 -3.0077
  108MPD2    H1 1685   1.755   4.400  11.874 -1.4975 -0.2614 -1.3139
  108MPD2    H2 1686   1.885   4.442  11.466 -1.8540  0.9914 -0.1749
  108MPD2    H3 1687   1.700   4.398  11.633  0.2199  1.6353 -0.0678
  108MPD2     N 1688   1.978   4.433  11.983 -0.5565 -0.1669  0.5786
  108MPD2    H5 1689   1.897   4.414  12.042 -0.9603 -0.3219 -0.0317
  108MPD2    N1 1690   2.122   4.494  11.518 -0.1532 -0.5201 -0.3382
  108MPD2    H7 1691   2.097   4.515  11.422  2.3755  1.8962 -0.4557
  109TMC2    C1 1692   1.695   1.712   0.866  0.4572 -0.0594 -0.6143
  109TMC2    C2 1693   1.643   1.837   0.841  0.5826 -0.2014  0.5166
  109TMC2    C3 1694   1.727   1.937   0.814 -0.1672 -0.2710  0.1365
  109TMC2    C4 1695   1.833   1.691   0.863 -0.0696 -0.8806 -0.1216
  109TMC2    C5 1696   1.912   1.805   0.835 -0.1918 -0.2319  0.8012
  109TMC2    C6 1697   1.859   1.931   0.802  0.1474 -0.3952  0.5306
  109TMC2     C 1698   1.607   1.616   0.929 -0.1751  0.1661 -0.5751
  109TMC2     O 1699   1.490   1.643   0.927 -0.3528 -0.5956 -0.0254
  109TMC2     H 1700   1.538   1.851   0.863  0.5120 -1.2477  0.8462
  109TMC2    H1 1701   1.867   1.588   0.865 -3.1694 -1.8715  1.6524
  109TMC2    H2 1702   1.920   2.015   0.772 -0.7417 -0.1748 -0.6406
  109TMC2    C7 1703   2.055   1.783   0.832  0.1855  0.6584 -0.0743
  109TMC2    C8 1704   1.673   2.060   0.763 -0.0034  0.3283  0.1174
  109TMC2    O1 1705   2.105   1.842   0.741 -0.7747  1.0555 -0.2883
  109TMC2    O2 1706   1.673   2.158   0.837 -0.4838  0.1123 -0.3580
  109TMC2    O5 1707   1.571   2.016   0.687 -0.1138 -0.2749  0.3223
  109TMC2    H5 1708   1.588   1.923   0.660  1.9455 -0.5765  2.6317
  110MPD2     C 1709   1.500   1.195   1.210  0.4608 -0.5796  0.3612
  110MPD2    C1 1710   1.629   1.194   1.168  0.3876  0.4982  0.8203
  110MPD2    C2 1711   1.682   1.295   1.088 -0.5943 -0.1405  0.4107
  110MPD2    C3 1712   1.606   1.400   1.045  0.4590  0.1915  0.0533
  110MPD2    C4 1713   1.475   1.398   1.089  0.8893  1.0755 -0.4318
  110MPD2    C5 1714   1.419   1.294   1.165  0.1781 -0.4557 -0.6651
  110MPD2     H 1715   1.790   1.295   1.077 -0.6408  0.4219 -0.0174
  110MPD2    H1 1716   1.405   1.477   1.063 -1.3341 -2.1656 -4.2976
  110MPD2    H2 1717   1.462   1.113   1.270 -1.8356 -0.5981 -1.0811
  110MPD2    H3 1718   1.313   1.297   1.185  0.1973 -0.8120 -0.5022
  110MPD2     N 1719   1.671   1.505   0.976  0.3697  0.3153 -0.3051
  110MPD2    H5 1720   1.772   1.505   0.967  0.4454 -0.6523  0.5296
  110MPD2    N1 1721   1.707   1.083   1.223 -0.5315  0.4090  0.2048
  110MPD2    H7 1722   1.666   1.036   1.303 -0.3413  2.9362  1.7966
  111TMC2    C1 1723   2.050   1.428  11.472 -0.3107 -0.9871  0.1359
  111TMC2    C2 1724   1.955   1.345  11.508  0.5549  0.2978 -0.0152
  111TMC2    C3 1725   1.989   1.241  11.594 -0.8190  0.2186 -0.7843
  111TMC2    C4 1726   2.180   1.415  11.514 -0.6568  0.8229 -0.1384
  111TMC2    C5 1727   2.210   1.315  11.607  0.1316  0.4683 -0.2431
  111TMC2    C6 1728   2.113   1.225  11.647  0.1580 -0.0449 -0.4503
  111TMC2     C 1729   2.022   1.527  11.371 -0.2873 -0.8226  0.5474
  111TMC2     O 1730   2.121   1.581  11.325 -0.0347  0.4981  0.4866
  111TMC2     H 1731   1.855   1.350  11.466 -0.1706 -0.0185  1.6680
  111TMC2    H1 1732   2.262   1.469  11.469 -0.0661 -0.6907 -0.8721
  111TMC2    H2 1733   2.130   1.154  11.727 -1.4699  0.4490  0.3344
  111TMC2    C7 1734   2.337   1.298  11.680 -0.4792 -0.4931 -0.2105
  111TMC2    C8 1735   1.886   1.148  11.628  0.1965  0.9383 -0.7565
  111TMC2    O1 1736   2.347   1.201  11.755  0.3695 -0.2388  0.1465
  111TMC2    O2 1737   1.772   1.180  11.604  0.0897  0.0110 -0.5368
  111TMC2    O5 1738   1.928   1.020  11.592 -0.0839 -0.3566  0.4998
  111TMC2    H5 1739   2.025   1.006  11.603  0.4163  1.6255 -1.3108
  112MPD2     C 1740   1.684   1.846  11.150 -0.7871  0.1452 -0.0705
  112MPD2    C1 1741   1.817   1.824  11.118  0.2825 -0.4583 -0.0956
  112MPD2    C2 1742   1.890   1.729  11.192  0.9494  0.0108 -0.2333
  112MPD2    C3 1743   1.825   1.670  11.300 -0.7012 -0.5107  0.6266
  112MPD2    C4 1744   1.695   1.698  11.323  0.1181 -0.2348  0.3491
  112MPD2    C5 1745   1.620   1.785  11.249 -0.7171 -0.8821 -0.4182
  112MPD2     H 1746   1.995   1.720  11.164  1.0463 -3.8687  1.3725
  112MPD2    H1 1747   1.645   1.652  11.408 -0.6509 -2.0743 -1.0909
  112MPD2    H2 1748   1.623   1.907  11.085 -0.2013 -1.2586 -1.9457
  112MPD2    H3 1749   1.521   1.819  11.278  0.1379  0.2712  1.1459
  112MPD2     N 1750   1.887   1.569  11.374  0.0501  0.4086 -0.3663
  112MPD2    H5 1751   1.822   1.523  11.438  1.3117  1.9200  2.0035
  112MPD2    N1 1752   1.889   1.896  11.016  0.4776 -0.0511  0.3499
  112MPD2    H7 1753   1.990   1.887  11.013  0.5807  0.8864  0.8751
  113TMC2    C1 1754   0.010   3.958   0.570 -0.2083 -0.0101 -0.1730
  113TMC2    C2 1755   4.676   4.070   0.581 -0.6055  0.4777  0.1405
  113TMC2    C3 1756   4.555   4.076   0.518 -0.2969 -0.1701  0.2525
  113TMC2    C4 1757   4.718   3.853   0.493 -0.5416 -0.5839  0.3522
  113TMC2    C5 1758   4.594   3.859   0.430  0.3130 -0.3867 -0.0307
  113TMC2    C6 1759   4.513   3.969   0.445 -0.2510  1.2193  0.6115
  113TMC2     C 1760   0.140   3.967   0.633 -0.1451  0.1490 -0.2077
  113TMC2     O 1761   0.171   4.076   0.673 -0.1973  0.4929  0.1108
  113TMC2     H 1762   4.700   4.151   0.649 -1.2040  1.1583 -0.4649
  113TMC2    H1 1763   0.050   3.777   0.466  0.9970 -0.0212  2.9296
  113TMC2    H2 1764   4.412   3.979   0.409  1.3298  0.9414 -3.8762
  113TMC2    C7 1765   4.514   3.743   0.393  0.3785 -0.2100  0.0466
  113TMC2    C8 1766   4.460   4.185   0.554  0.1173 -0.6565 -0.2026
  113TMC2    O1 1767   4.398   3.757   0.350 -0.0509  0.0228 -0.1872
  113TMC2    O2 1768   4.513   4.297   0.570 -0.2976  0.2197  0.0729
  113TMC2    O5 1769   4.403   4.120   0.657  0.0826 -0.0347  0.1501
  113TMC2    H5 1770   4.372   4.027   0.650  0.6704 -0.3579  2.0293
  114MPD2     C 1771   0.612   3.814   0.731  0.1147 -0.6430  0.1214
  114MPD2    C1 1772   0.562   3.941   0.733 -0.2883 -0.5030 -0.7484
  114MPD2    C2 1773   0.427   3.958   0.690 -0.1692  0.0611  0.0721
  114MPD2    C3 1774   0.350   3.847   0.662  0.5621  0.7336  0.3751
  114MPD2    C4 1775   0.408   3.723   0.675  0.0904  0.9976 -0.3350
  114MPD2    C5 1776   0.539   3.704   0.701  0.6904  0.1950 -0.2780
  114MPD2     H 1777   0.394   4.059   0.668 -0.2031 -0.4868 -2.4097
  114MPD2    H1 1778   0.346   3.637   0.658  0.2069  1.2471 -1.9793
  114MPD2    H2 1779   0.712   3.788   0.763  0.5344  2.5149  1.2775
  114MPD2    H3 1780   0.586   3.607   0.711 -0.7922 -0.4751  0.2027
  114MPD2     N 1781   0.212   3.853   0.640  0.6117  0.4295  0.0458
  114MPD2    H5 1782   0.161   3.767   0.625 -0.4295  1.1242 -0.4578
  114MPD2    N1 1783   0.637   4.055   0.761 -0.0702  0.0341  0.2714
  114MPD2    H7 1784   0.585   4.142   0.768 -0.2761 -0.2960  2.8119
  115TMC2    C1 1785   1.151   1.851  17.607  0.2333  0.4127  0.5443
  115TMC2    C2 1786   1.274   1.809  17.646  0.0559  0.4155 -0.1952
  115TMC2    C3 1787   1.369   1.902  17.646  0.5135 -0.5838 -0.4241
  115TMC2    C4 1788   1.116   1.978  17.573 -0.8914  0.0890  0.5227
  115TMC2    C5 1789   1.223   2.069  17.567 -0.0105 -0.2455 -0.2736
  115TMC2    C6 1790   1.354   2.027  17.597  0.7155 -1.0090  0.6573
  115TMC2     C 1791   1.053   1.740  17.611  0.3836  0.4886 -0.0573
  115TMC2     O 1792   1.093   1.628  17.583 -0.0348  0.3371  0.2723
  115TMC2     H 1793   1.294   1.707  17.675  1.7891  0.9062  0.3333
  115TMC2    H1 1794   1.018   1.982  17.526  0.0475 -0.4918 -1.4882
  115TMC2    H2 1795   1.437   2.094  17.576  1.0527 -1.1362  1.5969
  115TMC2    C7 1796   1.180   2.198  17.502 -0.5044 -0.3855 -0.6054
  115TMC2    C8 1797   1.503   1.876  17.692 -0.0411 -0.3105  0.1624
  115TMC2    O1 1798   1.071   2.199  17.448  0.0582  0.5587  0.2136
  115TMC2    O2 1799   1.582   1.970  17.705 -0.2101 -0.1023 -0.0181
  115TMC2    O5 1800   1.499   1.763   0.012  0.2865  0.3350 -0.1403
  115TMC2    H5 1801   1.428   1.697  17.750  0.9331 -0.5730  0.5352
  116MPD2     C 1802   0.586   1.557  17.688  0.0796  0.4008 -0.0381
  116MPD2    C1 1803   0.695   1.487  17.634 -0.4737 -0.4935 -0.2188
  116MPD2    C2 1804   0.813   1.559  17.626  0.3917 -0.1706 -0.2712
  116MPD2    C3 1805   0.821   1.695  17.673 -0.6045 -0.1122 -0.7395
  116MPD2    C4 1806   0.716   1.756  17.733 -0.0308 -0.2774 -0.6669
  116MPD2    C5 1807   0.602   1.690  17.744 -0.1705  0.2358 -0.2468
  116MPD2     H 1808   0.900   1.509  17.587  1.4055 -0.2066  2.0357
  116MPD2    H1 1809   0.719   1.862  17.754  0.5797 -0.6094  0.9356
  116MPD2    H2 1810   0.487   1.513  17.695  0.9154 -1.7237 -1.8227
  116MPD2    H3 1811   0.513   1.742   0.016 -1.4206 -2.0809  0.0167
  116MPD2     N 1812   0.928   1.779  17.656 -0.3213 -0.0543  0.2178
  116MPD2    H5 1813   0.932   1.868  17.705 -1.4128 -0.9997  2.0323
  116MPD2    N1 1814   0.670   1.358  17.582 -0.0927  0.0488 -0.7128
  116MPD2    H7 1815   0.573   1.332  17.564 -0.3780 -0.8452  2.0945
  117TMC2    C1 1816   4.737   3.200  14.409 -0.6167  0.4462  0.5439
  117TMC2    C2 1817   0.113   3.147  14.357 -0.0332  0.2686  0.0907
  117TMC2    C3 1818   0.203   3.232  14.299 -0.2187 -0.5941  0.7973
  117TMC2    C4 1819   4.699   3.325  14.384 -0.2840 -0.1333  0.2562
  117TMC2    C5 1820   0.049   3.410  14.328 -0.1802  0.7434 -0.5639
  117TMC2    C6 1821   0.172   3.361  14.292  0.0554 -0.1552 -0.6273
  117TMC2     C 1822   4.638   3.091  14.432  0.0283  0.4627 -0.2012
  117TMC2     O 1823   4.679   2.981  14.464 -0.2843 -0.0896  0.1188
  117TMC2     H 1824   0.146   3.045  14.370  2.0282  0.8937 -0.2069
  117TMC2    H1 1825   4.612   3.363  14.435 -0.8660  0.8037 -1.4200
  117TMC2    H2 1826   0.244   3.420  14.236 -1.4768 -0.9766 -3.4321
  117TMC2    C7 1827   0.039   3.558  14.328 -0.2599 -0.5856 -0.2700
  117TMC2    C8 1828   0.297   3.176  14.202  0.3062  0.1757 -0.0887
  117TMC2    O1 1829   0.133   3.612  14.270 -0.0510  0.4151 -0.0909
  117TMC2    O2 1830   0.360   3.245  14.128  0.3037  0.3251  0.6706
  117TMC2    O5 1831   0.334   3.051  14.230 -0.2386  0.5495 -0.2825
  117TMC2    H5 1832   0.287   2.994  14.295 -0.6724  0.0072 -1.0644
  118MPD2     C 1833   4.573   3.764  14.547 -0.6457  1.0593  0.2930
  118MPD2    C1 1834   4.654   3.738  14.436  0.6993  0.4590 -0.3075
  118MPD2    C2 1835   4.709   3.848  14.368 -0.6532 -0.2460 -0.4369
  118MPD2    C3 1836   4.672   3.980  14.411  0.3174  0.3079 -0.3261
  118MPD2    C4 1837   4.598   4.001  14.527  0.1886 -0.4540  0.4407
  118MPD2    C5 1838   4.554   3.889  14.592 -0.3249 -0.3144  0.6040
  118MPD2     H 1839   0.028   3.830  14.279  0.0930 -0.8788  0.1892
  118MPD2    H1 1840   4.568   4.099  14.562 -2.7244 -1.5496  0.9377
  118MPD2    H2 1841   4.525   3.680  14.596 -0.6347 -0.0813 -1.6386
  118MPD2    H3 1842   4.492   3.908  14.678 -2.4734  1.5083 -1.3392
  118MPD2     N 1843   4.711   4.099  14.340 -0.2688 -0.2880  0.0323
  118MPD2    H5 1844   4.695   4.189  14.382  0.8707  0.2899 -0.7662
  118MPD2    N1 1845   4.678   3.602  14.409  0.0389  0.0975 -0.7609
  118MPD2    H7 1846   4.626   3.538  14.468  0.2670  1.0832  0.5093
  119TMC2    C1 1847   3.193   4.640  12.945 -0.1349  0.4964 -1.2953
  119TMC2    C2 1848   3.262   4.549  12.879 -0.0182  0.5552  0.1780
  119TMC2    C3 1849   3.192   4.439  12.845  0.1003  0.2221 -0.2301
  119TMC2    C4 1850   3.060   4.633  12.975 -1.0550 -0.4571  0.1717
  119TMC2    C5 1851   2.996   4.519  12.940  0.4910 -0.4591 -0.1541
  119TMC2    C6 1852   3.059   4.422  12.871 -0.0783  0.0894  0.9495
  119TMC2     C 1853   3.255   0.016  12.996 -0.2157 -0.1833  0.5246
  119TMC2     O 1854   3.181   0.081  13.073  0.2490  0.5474  0.6562
  119TMC2     H 1855   3.366   4.564  12.851  0.7223  0.4892  2.8143
  119TMC2    H1 1856   3.001   4.712  13.020 -0.6646  0.1834 -0.4443
  119TMC2    H2 1857   3.009   4.339  12.823  1.5867 -0.6527  0.4929
  119TMC2    C7 1858   2.853   4.531  12.935 -0.6864 -0.7701 -0.0295
  119TMC2    C8 1859   3.246   4.364  12.734 -0.0764  0.0128 -0.6066
  119TMC2    O1 1860   2.806   4.639  12.919  0.4285  0.0684  0.1112
  119TMC2    O2 1861   3.180   4.350  12.631  0.5884 -0.0130  0.1475
  119TMC2    O5 1862   3.373   4.317  12.758 -0.0594  0.2368 -0.3988
  119TMC2    H5 1863   3.400   4.349  12.847  0.0773  2.2091 -1.1562
  120MPD2     C 1864   3.625   0.333  13.160  0.3076 -0.1457 -0.4204
  120MPD2    C1 1865   3.496   0.315  13.201 -0.2179 -0.2935 -0.9467
  120MPD2    C2 1866   3.420   0.221  13.140  0.8811  0.3127 -0.1370
  120MPD2    C3 1867   3.460   0.148  13.030  0.6226 -0.1512  0.0824
  120MPD2    C4 1868   3.592   0.162  12.983  0.8104  0.1270 -0.1729
  120MPD2    C5 1869   3.673   0.252  13.058 -0.1709  0.3130  0.1510
  120MPD2     H 1870   3.318   0.209  13.177  0.6400 -2.4798 -1.7452
  120MPD2    H1 1871   3.630   0.087  12.915 -1.3871  0.2813 -1.5598
  120MPD2    H2 1872   3.689   0.409  13.203 -0.9462  1.2264 -1.0110
  120MPD2    H3 1873   3.777   0.268  13.030 -0.3966  1.8829  0.2123
  120MPD2     N 1874   3.384   0.050  12.959 -0.1326  0.8719 -0.4315
  120MPD2    H5 1875   3.434   0.005  12.883 -1.1567  0.8677 -1.1137
  120MPD2    N1 1876   3.451   0.382  13.312 -0.1998  0.6014  0.2098
  120MPD2    H7 1877   3.516   0.442  13.361  3.0983 -1.7917 -1.2949
  121TMC2    C1 1878   4.336   1.296  14.449 -0.1289  0.1913 -0.0668
  121TMC2    C2 1879   4.267   1.282  14.567  0.4386  0.9651 -0.0382
  121TMC2    C3 1880   4.128   1.294  14.565 -0.3670 -0.6922 -0.4030
  121TMC2    C4 1881   4.266   1.298  14.328 -0.2494  0.2046  0.3431
  121TMC2    C5 1882   4.127   1.298  14.326  0.1126  0.3947 -0.0783
  121TMC2    C6 1883   4.058   1.303  14.449 -0.3086 -0.3394 -0.2460
  121TMC2     C 1884   4.469   1.361  14.460 -0.1980 -0.3373 -0.6638
  121TMC2     O 1885   4.508   1.387  14.572 -0.0200  0.1351 -0.0703
  121TMC2     H 1886   4.324   1.287  14.659 -2.9538 -0.1069  2.1683
  121TMC2    H1 1887   4.318   1.318  14.235  0.4693  0.0674  0.7159
  121TMC2    H2 1888   3.953   1.329  14.444 -0.5093 -1.1740 -0.2844
  121TMC2    C7 1889   4.061   1.349  14.202 -0.6501 -0.6378 -0.0592
  121TMC2    C8 1890   4.046   1.322  14.681 -0.2858 -0.2222 -0.3745
  121TMC2    O1 1891   4.130   1.395  14.111  0.1159  0.3268  0.6291
  121TMC2    O2 1892   3.942   1.382  14.670 -0.0590  0.4431 -0.2539
  121TMC2    O5 1893   4.118   1.290  14.782 -0.0589 -0.3519 -0.4412
  121TMC2    H5 1894   4.175   1.215  14.756  1.8937  0.7431  0.6757
  122MPD2     C 1895   4.718   1.530  14.410 -0.1103 -0.3485 -0.0490
  122MPD2    C1 1896   4.645   1.466  14.314 -0.6762 -0.0367  0.0898
  122MPD2    C2 1897   4.684   1.490  14.179  0.1483  0.5272  0.7258
  122MPD2    C3 1898   0.038   1.588  14.147 -0.5893 -0.3465  0.6648
  122MPD2    C4 1899   0.113   1.648  14.240 -0.0694 -0.1565 -0.2101
  122MPD2    C5 1900   0.080   1.620  14.370 -0.0836  0.1728  0.8144
  122MPD2     H 1901   4.634   1.438  14.098 -0.0158 -0.3300  1.3777
  122MPD2    H1 1902   0.176   1.731  14.209  1.2896 -1.5786 -1.2784
  122MPD2    H2 1903   4.682   1.519  14.512 -0.4427  0.6182 -0.0583
  122MPD2    H3 1904   0.111   1.694  14.442  3.1421  0.3904 -0.8081
  122MPD2     N 1905   0.058   1.628  14.009  0.4320 -0.2749  0.1354
  122MPD2    H5 1906   0.086   1.725  14.001 -1.3365  0.1850 -0.4658
  122MPD2    N1 1907   4.530   1.386  14.341  0.5391 -0.2159  0.0982
  122MPD2    H7 1908   4.489   1.338  14.262  0.9106  0.3981 -0.4646
  123TMC2    C1 1909   2.988   4.570   9.932 -0.4260 -0.0158 -0.4228
  123TMC2    C2 1910   3.121   4.576   9.942  0.3566 -0.9763 -0.5784
  123TMC2    C3 1911   3.191   4.557   9.818 -0.4258  0.5117  0.0956
  123TMC2    C4 1912   2.911   4.555   9.822 -0.8197 -0.6196  0.2413
  123TMC2    C5 1913   2.985   4.533   9.710 -0.8342  0.4374  0.2251
  123TMC2    C6 1914   3.126   4.532   9.703  0.9024  0.1892  0.5265
  123TMC2     C 1915   2.918   4.608  10.059 -0.3898  0.0489 -0.2999
  123TMC2     O 1916   2.986   4.617  10.163  0.1764 -0.6221 -0.4305
  123TMC2     H 1917   3.170   4.591  10.037 -1.1755  0.0762  0.0465
  123TMC2    H1 1918   2.803   4.561   9.814 -0.8853  0.0988  1.7359
  123TMC2    H2 1919   3.182   4.538   9.610 -1.8273 -0.6584 -1.1978
  123TMC2    C7 1920   2.909   4.489   9.594 -0.6585 -0.4675 -0.3424
  123TMC2    C8 1921   3.335   4.581   9.812 -0.4089  0.2182  0.2591
  123TMC2    O1 1922   2.790   4.479   9.617 -0.1970 -0.3187  0.1651
  123TMC2    O2 1923   3.388   4.606   9.706 -0.3803  0.7984 -0.4605
  123TMC2    O5 1924   3.384   4.561   9.934  0.1551  0.3847 -0.1370
  123TMC2    H5 1925   3.319   4.522   9.996  0.4792 -0.5173 -0.3621
  124MPD2     C 1926   2.492   4.628  10.339  0.1428 -0.5530  0.2354
  124MPD2    C1 1927   2.451   4.623  10.209 -0.3364 -0.1966  0.0739
  124MPD2    C2 1928   2.555   4.622  10.117 -1.0121 -0.4467  0.3436
  124MPD2    C3 1929   2.693   4.617  10.151  0.4951  0.2354 -0.2797
  124MPD2    C4 1930   2.729   4.612  10.288 -0.4675  0.1783 -0.6905
  124MPD2    C5 1931   2.622   4.630  10.373  0.1664 -0.3230 -0.5384
  124MPD2     H 1932   2.515   4.626  10.016  0.7252 -2.1484 -0.4037
  124MPD2    H1 1933   2.832   4.613  10.322 -0.3935 -1.3568 -0.8775
  124MPD2    H2 1934   2.421   4.642  10.420 -0.1678  0.4489 -0.2057
  124MPD2    H3 1935   2.654   4.658  10.473 -0.0767  1.4583 -0.9511
  124MPD2     N 1936   2.784   4.606  10.045 -0.1480  0.1015 -0.3546
  124MPD2    H5 1937   2.745   4.597   9.952  2.6908 -1.0180 -1.4403
  124MPD2    N1 1938   2.319   4.635  10.163  0.3751 -0.1869 -0.8266
  124MPD2    H7 1939   2.307   4.654  10.064 -3.2919 -0.0011 -0.3398
  125TMC2    C1 1940   3.574   0.710  10.340 -0.0536  1.0943  0.3314
  125TMC2    C2 1941   3.534   0.637  10.448  0.1632 -0.5167  0.3498
  125TMC2    C3 1942   3.558   0.688  10.578 -0.4230 -0.3217  0.3207
  125TMC2    C4 1943   3.641   0.822  10.348 -0.3967  0.7728  0.8846
  125TMC2    C5 1944   3.669   0.866  10.474  0.1260 -0.2372 -0.1595
  125TMC2    C6 1945   3.627   0.807  10.591 -0.5550 -0.3060  0.5920
  125TMC2     C 1946   3.553   0.638  10.213 -0.0528 -0.9268  0.5305
  125TMC2     O 1947   3.508   0.525  10.225 -0.2879  0.0631  0.0591
  125TMC2     H 1948   3.484   0.541  10.436 -0.9419 -0.0734  1.3332
  125TMC2    H1 1949   3.682   0.879  10.265 -0.2367 -0.1605  0.3204
  125TMC2    H2 1950   3.658   0.848  10.686  1.2986 -0.4540  0.0484
  125TMC2    C7 1951   3.717   1.006  10.482  0.4010 -0.8124 -0.4176
  125TMC2    C8 1952   3.547   0.599  10.690  0.5997 -0.0790  0.2277
  125TMC2    O1 1953   3.715   1.051  10.598  0.4331  0.1489 -0.6522
  125TMC2    O2 1954   3.549   0.478  10.677  0.5565 -0.9314 -0.3086
  125TMC2    O5 1955   3.526   0.677  10.800 -0.5153  0.1781 -0.1678
  125TMC2    H5 1956   3.520   0.773  10.782 -0.1866  0.8887  3.5005
  126MPD1     C 1957   3.624   0.549   9.706 -0.4060  0.0173  0.7174
  126MPD1    C1 1958   3.651   0.683   9.734 -0.1168 -0.4328  0.3545
  126MPD1    C2 1959   3.634   0.727   9.864  0.2141 -0.4695  0.3777
  126MPD1    C3 1960   3.603   0.641   9.969 -0.4103 -0.1581  0.0326
  126MPD1    C4 1961   3.574   0.511   9.942  0.1016 -0.1044  0.9491
  126MPD1    C5 1962   3.589   0.474   9.810  0.0597  0.2722  0.7520
  126MPD1     H 1963   3.652   0.832   9.885 -1.1509 -0.3281  0.8466
  126MPD1    H1 1964   3.543   0.440  10.017 -0.8261  1.0161  1.6231
  126MPD1    H2 1965   3.618   0.517   9.603  3.0244 -0.3988  0.6559
  126MPD1    H3 1966   3.564   0.372   9.783  1.2573  0.2281 -0.1927
  126MPD1     N 1967   3.598   0.700  10.098  0.1907 -0.0108  0.0725
  126MPD1    H5 1968   3.634   0.795  10.103  0.7887 -0.1722 -1.0686
  126MPD1    N1 1969   3.685   0.766   9.624  0.1977 -0.3068  0.4967
  126MPD1    H6 1970   3.741   0.718   9.553 -0.6640 -2.2076  1.1099
  126MPD1    H7 1971   3.757   0.834   9.650 -1.1009  1.9062 -1.6909
  127TMC2    C1 1972   4.590   0.997  10.221  0.0540  0.4769 -0.2569
  127TMC2    C2 1973   4.610   0.919  10.334 -0.5266 -0.6644  0.2166
  127TMC2    C3 1974   4.542   0.797  10.325  0.6950  0.7134  0.7580
  127TMC2    C4 1975   4.503   0.961  10.128 -0.0426  0.4074 -0.0905
  127TMC2    C5 1976   4.433   0.843  10.136 -0.8658  0.2199  0.0063
  127TMC2    C6 1977   4.459   0.758  10.234  0.0547  0.3790  0.2582
  127TMC2     C 1978   4.662   1.128  10.207 -0.6152 -0.1427  1.2413
  127TMC2     O 1979   4.622   1.205  10.121  0.3075 -0.2724 -0.1588
  127TMC2     H 1980   4.664   0.957  10.420 -0.7743  1.7202 -0.6940
  127TMC2    H1 1981   4.480   1.033  10.050  0.5424  2.7558  1.8843
  127TMC2    H2 1982   4.428   0.654  10.244 -0.5803  0.3922 -1.5287
  127TMC2    C7 1983   4.348   0.805  10.026  0.5158  0.4797 -0.2239
  127TMC2    C8 1984   4.553   0.716  10.443 -0.3686 -0.0062 -0.2990
  127TMC2    O1 1985   4.348   0.889   9.937 -0.1991 -0.1457 -0.0584
  127TMC2    O2 1986   4.478   0.622  10.462 -0.3728  0.1437  0.1661
  127TMC2    O5 1987   4.690   0.721  10.470  0.0347 -0.4939  0.0461
  127TMC2    H5 1988   4.730   0.796  10.422  0.2532 -0.1250  0.8110
  128MPD2     C 1989   0.261   1.216  10.303 -0.3624  0.1537  0.1464
  128MPD2    C1 1990   0.125   1.240  10.286  0.5911 -0.2741  0.1476
  128MPD2    C2 1991   0.075   1.368  10.262  0.3725 -0.8234 -0.1172
  128MPD2    C3 1992   0.159   1.478  10.284  0.2233 -0.1469  0.4001
  128MPD2    C4 1993   0.295   1.451  10.294  0.3193 -0.1478  0.0037
  128MPD2    C5 1994   0.339   1.327  10.314 -0.4566 -0.0541 -0.0951
  128MPD2     H 1995   4.709   1.387  10.254  0.8085  0.8592 -1.8285
  128MPD2    H1 1996   0.371   1.529  10.292  0.9851 -0.7921  0.2898
  128MPD2    H2 1997   0.305   1.118  10.314 -2.5058 -0.9076 -0.6616
  128MPD2    H3 1998   0.445   1.305  10.320 -0.3065  0.3760 -1.1684
  128MPD2     N 1999   0.104   1.609  10.271  0.7261 -0.3668  0.2246
  128MPD2    H5 2000   0.008   1.610  10.237  1.7872 -0.4332 -2.7223
  128MPD2    N1 2001   0.038   1.129  10.279 -0.0998 -0.0380 -0.7134
  128MPD2    H7 2002   0.068   1.036  10.307  2.6377  0.6445 -1.3669
  129TMC2    C1 2003   3.613   0.586   1.398 -0.1863 -0.6193 -0.4561
  129TMC2    C2 2004   3.559   0.691   1.460  0.1164  0.1739 -0.0001
  129TMC2    C3 2005   3.434   0.724   1.424 -0.5357 -0.0127  0.0125
  129TMC2    C4 2006   3.536   0.507   1.313  0.4423  0.0762  0.6591
  129TMC2    C5 2007   3.405   0.539   1.285 -0.2022  0.4231 -0.3361
  129TMC2    C6 2008   3.354   0.658   1.336  0.7774 -0.3400 -0.1969
  129TMC2     C 2009   3.760   0.583   1.392 -0.1166 -0.2725 -0.3189
  129TMC2     O 2010   3.810   0.474   1.370  0.4057  0.1560  0.0807
  129TMC2     H 2011   3.605   0.745   1.541  0.2464  1.3077 -0.8248
  129TMC2    H1 2012   3.593   0.429   1.263 -3.1118 -1.4284 -1.1305
  129TMC2    H2 2013   3.256   0.692   1.307  1.9046  0.9332 -2.4606
  129TMC2    C7 2014   3.325   0.459   1.198 -0.2645  0.1562  0.5275
  129TMC2    C8 2015   3.381   0.850   1.476  0.0915 -0.3961  0.8163
  129TMC2    O1 2016   3.215   0.503   1.165 -0.2102  0.0037 -0.0108
  129TMC2    O2 2017   3.436   0.959   1.479 -0.1974  0.9071  0.1029
  129TMC2    O5 2018   3.255   0.828   1.506  0.3328  0.4276 -0.4312
  129TMC2    H5 2019   3.234   0.732   1.518  1.0687  0.4089  0.6577
  130MPD2     C 2020   4.042   0.634   1.448  0.0947  0.5608  0.0555
  130MPD2    C1 2021   3.943   0.736   1.444  0.3768  0.7490 -0.3765
  130MPD2    C2 2022   3.975   0.867   1.472 -0.2210  0.5383 -0.1198
  130MPD2    C3 2023   4.102   0.895   1.514 -0.3619  0.5704 -0.1008
  130MPD2    C4 2024   4.200   0.801   1.508  0.4930 -0.1080  0.0330
  130MPD2    C5 2025   4.171   0.665   1.478 -0.3415 -0.3814  0.3519
  130MPD2     H 2026   3.896   0.940   1.468 -1.4915 -0.8587 -0.7086
  130MPD2    H1 2027   4.302   0.836   1.493 -0.2505  1.9863 -0.1967
  130MPD2    H2 2028   4.018   0.529   1.435  0.1762  0.3065  1.9915
  130MPD2    H3 2029   4.241   0.583   1.475 -2.2513 -2.0389  1.5191
  130MPD2     N 2030   4.130   1.030   1.536  0.2291 -0.1921  0.2239
  130MPD2    H5 2031   4.051   1.093   1.543  0.3041 -0.1086  0.3280
  130MPD2    N1 2032   3.807   0.707   1.418  0.0297 -0.4054 -0.4175
  130MPD2    H7 2033   3.734   0.778   1.419  0.2894 -0.1429  0.0386
  131TMC2    C1 2034   2.152   0.870   9.969 -0.2796  0.4731 -0.6317
  131TMC2    C2 2035   2.197   0.904  10.093  0.6204  0.2580  0.0858
  131TMC2    C3 2036   2.295   0.999  10.097 -0.0300 -0.1134 -0.5732
  131TMC2    C4 2037   2.198   0.924   9.853 -0.1457  0.2098  0.2177
  131TMC2    C5 2038   2.293   1.026   9.859  0.5293  0.1445 -0.7122
  131TMC2    C6 2039   2.336   1.063   9.983 -0.1772  0.3073  0.4518
  131TMC2     C 2040   2.098   0.737   9.953 -0.3889  0.2058 -0.2032
  131TMC2     O 2041   2.126   0.655  10.042  0.0251 -0.1097 -0.2453
  131TMC2     H 2042   2.166   0.855  10.185  0.5406  1.8340  0.8994
  131TMC2    H1 2043   2.173   0.882   9.756  1.8016  0.6644 -0.4860
  131TMC2    H2 2044   2.400   1.150   9.995  1.0818 -1.1244  4.0870
  131TMC2    C7 2045   2.319   1.102   9.740 -0.1419  0.4106 -0.3116
  131TMC2    C8 2046   2.366   1.026  10.224 -0.6354  0.1260  0.1647
  131TMC2    O1 2047   2.231   1.085   9.652 -0.3229 -0.7875 -0.5504
  131TMC2    O2 2048   2.427   1.124  10.259 -0.2498 -0.8564  0.5638
  131TMC2    O5 2049   2.362   0.919  10.301 -0.0093 -0.2809  0.3740
  131TMC2    H5 2050   2.375   0.837  10.249  0.8681 -0.5712  1.0680
  132MPD2     C 2051   1.830   0.630   9.727  0.7292  0.2475  0.1871
  132MPD2    C1 2052   1.927   0.617   9.828 -0.0927  0.0749 -0.9048
  132MPD2    C2 2053   1.941   0.496   9.895  0.3794 -0.0016 -0.7212
  132MPD2    C3 2054   1.858   0.389   9.862 -0.1559 -0.4880  0.6375
  132MPD2    C4 2055   1.762   0.404   9.764 -0.5409  0.0237 -0.8357
  132MPD2    C5 2056   1.755   0.521   9.693  0.0699 -0.6576 -0.1941
  132MPD2     H 2057   1.999   0.473   9.984 -1.3660  6.3259  2.0086
  132MPD2    H1 2058   1.715   0.319   9.716 -1.4562 -0.2294  0.5058
  132MPD2    H2 2059   1.817   0.720   9.667 -0.8793  0.3223  0.6408
  132MPD2    H3 2060   1.692   0.528   9.606 -2.5614 -0.9195  1.6858
  132MPD2     N 2061   1.869   0.260   9.918 -0.0135 -0.4293  0.1784
  132MPD2    H5 2062   1.809   0.187   9.880 -0.6370 -0.6942  1.6476
  132MPD2    N1 2063   2.012   0.732   9.846 -0.1607 -0.3281  0.2827
  132MPD2    H7 2064   1.992   0.813   9.788 -0.5350 -1.3437 -1.0061
  133TMC2    C1 2065   1.321   0.060  10.522  0.2674 -0.3624 -1.0866
  133TMC2    C2 2066   1.369   4.708  10.600 -0.5547  0.4435 -0.0223
  133TMC2    C3 2067   1.278   4.629  10.671 -0.0003 -0.8186 -0.4813
  133TMC2    C4 2068   1.191   0.068  10.488  0.0199  0.4201  0.4806
  133TMC2    C5 2069   1.106   4.722  10.556 -0.0128 -0.1053 -0.5365
  133TMC2    C6 2070   1.150   4.633  10.649  0.0292  0.4607  0.3938
  133TMC2     C 2071   1.413   0.152  10.452 -0.3762 -0.1448 -0.1119
  133TMC2     O 2072   1.365   0.259  10.413 -0.0850 -0.7058  0.0600
  133TMC2     H 2073   1.472   4.708  10.633 -0.3791 -1.8592 -0.5416
  133TMC2    H1 2074   1.162   0.152  10.427 -1.2408 -1.2171 -1.1671
  133TMC2    H2 2075   1.082   4.576  10.712  1.0434  1.0571  2.0379
  133TMC2    C7 2076   0.965   4.716  10.514 -0.1883  0.4638  0.2937
  133TMC2    C8 2077   1.327   4.559  10.784  0.3579  0.6128  1.0107
  133TMC2    O1 2078   0.903   4.615  10.543 -0.0287  0.6557 -0.6862
  133TMC2    O2 2079   1.385   4.609  10.880  0.2764  0.2636  0.1195
  133TMC2    O5 2080   1.325   4.431  10.764 -0.7115 -0.4203  0.1266
  133TMC2    H5 2081   1.275   4.408  10.683  1.2106 -2.1741 -0.5775
  134MPD2     C 2082   1.786   0.152  10.416 -0.0580 -0.5522  0.1362
  134MPD2    C1 2083   1.652   0.184  10.379  0.4386  0.4058 -0.2198
  134MPD2    C2 2084   1.625   0.286  10.287  0.2244  0.4496  0.6918
  134MPD2    C3 2085   1.736   0.365  10.237 -0.0339 -0.0576 -0.3670
  134MPD2    C4 2086   1.863   0.335  10.279  0.1083  0.1445 -0.3802
  134MPD2    C5 2087   1.887   0.229  10.368 -0.2951  0.2941  0.1729
  134MPD2     H 2088   1.523   0.301  10.253  0.7060 -1.6114 -1.6756
  134MPD2    H1 2089   1.946   0.396  10.246 -1.4433  2.0466 -0.7501
  134MPD2    H2 2090   1.810   0.076  10.490 -2.1135 -1.6436 -0.3256
  134MPD2    H3 2091   1.990   0.211  10.400 -0.2404 -0.3369 -0.3550
  134MPD2     N 2092   1.720   0.477  10.151  0.1589  0.0890  0.8815
  134MPD2    H5 2093   1.801   0.533  10.126 -0.4706 -0.1920 -1.7135
  134MPD2    N1 2094   1.545   0.116  10.448  0.0563  0.3134  0.5789
  134MPD2    H7 2095   1.571   0.038  10.508  0.9803  1.4476  1.6361
  135TMC2    C1 2096   3.959   2.983   9.970 -0.5189 -0.8756  0.5611
  135TMC2    C2 2097   3.892   2.923   9.875  0.1036  0.2319  0.3066
  135TMC2    C3 2098   3.760   2.906   9.891  1.0279 -0.3049  0.0555
  135TMC2    C4 2099   3.916   2.996  10.098  0.5257 -0.6154  0.2768
  135TMC2    C5 2100   3.786   2.971  10.123 -0.4939 -0.2571 -0.3051
  135TMC2    C6 2101   3.705   2.928  10.020  0.7128 -0.3352  0.2827
  135TMC2     C 2102   4.100   2.983   9.960 -0.1710 -0.5496 -0.5919
  135TMC2     O 2103   4.151   3.064  10.038  0.4332  0.1949 -0.1599
  135TMC2     H 2104   3.935   2.902   9.778  3.1230  0.2628  1.6413
  135TMC2    H1 2105   3.979   3.038  10.175  0.4092  1.4300 -0.7449
  135TMC2    H2 2106   3.598   2.913  10.016  0.1131  4.2768 -0.4931
  135TMC2    C7 2107   3.727   2.986  10.256  0.3085 -0.4486 -0.3100
  135TMC2    C8 2108   3.681   2.853   9.783  0.7235 -0.2730  0.2417
  135TMC2    O1 2109   3.793   3.060  10.332 -0.1969 -0.2515  0.4693
  135TMC2    O2 2110   3.565   2.884   9.764  0.0972 -0.0897  0.3967
  135TMC2    O5 2111   3.733   2.734   9.751 -0.1909 -0.4942 -0.3310
  135TMC2    H5 2112   3.827   2.717   9.772 -0.2738  0.9936  1.1955
  136MPD2     C 2113   4.386   2.955   9.901  0.1210  0.3443  0.0412
  136MPD2    C1 2114   4.296   2.858   9.863  0.1157 -0.1029 -0.1492
  136MPD2    C2 2115   4.338   2.736   9.817  0.6856 -0.6498 -0.2659
  136MPD2    C3 2116   4.476   2.715   9.801  0.1388  0.5541  0.0211
  136MPD2    C4 2117   4.566   2.814   9.839  0.3925 -1.0997 -0.2818
  136MPD2    C5 2118   4.519   2.933   9.887  0.2224  0.0696 -0.1758
  136MPD2     H 2119   4.257   2.670   9.787  0.3601  0.3929 -1.6711
  136MPD2    H1 2120   4.672   2.810   9.815  0.7845 -0.5351  1.3744
  136MPD2    H2 2121   4.353   3.055   9.928 -2.0541 -0.0191 -1.3010
  136MPD2    H3 2122   4.597   3.001   9.919 -0.5733  0.9654 -0.1736
  136MPD2     N 2123   4.523   2.592   9.754  1.1037 -0.2126  0.1286
  136MPD2    H5 2124   4.623   2.594   9.737  0.7220  0.8271 -1.9976
  136MPD2    N1 2125   4.156   2.881   9.884  0.3659 -0.6071 -0.0580
  136MPD2    H7 2126   4.092   2.815   9.840 -1.4141  0.2681  1.1996
  137TMC2    C1 2127   3.277   0.871   9.719 -0.8946  0.5418  0.1988
  137TMC2    C2 2128   3.314   0.745   9.679 -0.3265  0.7100 -0.1215
  137TMC2    C3 2129   3.353   0.735   9.548  0.2120 -0.0628 -0.2902
  137TMC2    C4 2130   3.293   0.981   9.635  0.0474 -0.4135 -0.5842
  137TMC2    C5 2131   3.336   0.972   9.506  0.3491  0.8580 -0.6218
  137TMC2    C6 2132   3.369   0.847   9.465  0.5646  0.1699 -0.1119
  137TMC2     C 2133   3.320   0.901   9.857  0.3424 -0.0469  0.4257
  137TMC2     O 2134   3.402   0.981   9.887  0.0311 -0.6055  0.2810
  137TMC2     H 2135   3.316   0.662   9.749  1.8556 -0.0181 -1.0325
  137TMC2    H1 2136   3.292   1.082   9.673 -0.4038 -0.2849 -0.9351
  137TMC2    H2 2137   3.402   0.830   9.364 -0.9905  2.4478 -1.0109
  137TMC2    C7 2138   3.359   1.087   9.418 -0.4350 -0.1868  0.8627
  137TMC2    C8 2139   3.364   0.605   9.476 -0.7407 -0.0323  0.8081
  137TMC2    O1 2140   3.449   1.069   9.335  0.1922  0.2473 -0.1918
  137TMC2    O2 2141   3.438   0.586   9.379 -0.3463  0.7363  0.2164
  137TMC2    O5 2142   3.254   0.540   9.502 -0.0680 -0.3995  0.1007
  137TMC2    H5 2143   3.193   0.607   9.539  0.9682  0.9743 -0.6886
  138MPD2     C 2144   3.160   0.742  10.166  0.4314 -0.0929  0.6142
  138MPD2    C1 2145   3.240   0.828  10.087 -0.2516 -0.2441 -0.4411
  138MPD2    C2 2146   3.298   0.928  10.158 -0.5066  0.1414  0.1189
  138MPD2    C3 2147   3.301   0.939  10.295  0.2538  0.0092  0.0703
  138MPD2    C4 2148   3.254   0.831  10.373 -0.9666  0.4022  0.1113
  138MPD2    C5 2149   3.172   0.739  10.302  0.2416  0.1155 -0.0124
  138MPD2     H 2150   3.337   1.011  10.101  1.2295 -0.7285  0.0664
  138MPD2    H1 2151   3.249   0.835  10.481 -2.7907 -2.2232  0.1012
  138MPD2    H2 2152   3.091   0.681  10.109  0.4746 -0.2889  0.7750
  138MPD2    H3 2153   3.116   0.668  10.360 -1.7315 -0.3341 -2.4941
  138MPD2     N 2154   3.357   1.059  10.348  0.6469 -0.2250  0.2387
  138MPD2    H5 2155   3.384   1.133  10.285 -1.0712  0.2727  0.0809
  138MPD2    N1 2156   3.238   0.826   9.943  0.7465 -0.8547 -0.5401
  138MPD2    H7 2157   3.184   0.749   9.906  0.3718 -0.9413  0.1970
  139TMC2    C1 2158   4.387   3.943  13.535 -0.1558  0.4974 -0.0266
  139TMC2    C2 2159   4.321   3.904  13.420 -0.4530  0.3482  0.0351
  139TMC2    C3 2160   4.204   3.958  13.391  0.3816  0.0438 -0.2073
  139TMC2    C4 2161   4.325   4.042  13.613  0.0710 -0.3151 -0.8100
  139TMC2    C5 2162   4.202   4.084  13.583 -0.3849  0.9005  1.0741
  139TMC2    C6 2163   4.140   4.044  13.472 -0.0132 -0.2876 -0.2422
  139TMC2     C 2164   4.464   3.833  13.595 -0.1478  0.0289 -0.0648
  139TMC2     O 2165   4.489   3.742  13.519  0.0438 -0.6357  0.1762
  139TMC2     H 2166   4.368   3.835  13.351 -2.0954 -0.6667 -0.0725
  139TMC2    H1 2167   4.372   4.090  13.698  0.2921 -0.5361 -0.8094
  139TMC2    H2 2168   4.060   4.102  13.428 -0.2257 -0.2307  0.2193
  139TMC2    C7 2169   4.139   4.194  13.655  0.4442  1.1414  0.2434
  139TMC2    C8 2170   4.155   3.945  13.250 -0.1043 -0.6283 -0.0003
  139TMC2    O1 2171   4.031   4.223  13.610  0.1057 -0.3633  0.2464
  139TMC2    O2 2172   4.093   4.038  13.194  0.3485  0.0616 -0.1967
  139TMC2    O5 2173   4.135   3.815  13.228  0.2629  0.8678  0.3975
  139TMC2    H5 2174   4.182   3.747  13.279 -1.1664  0.8382  1.6705
  140MPD2     C 2175   4.551   3.756  13.938 -0.0132 -0.6670  0.9498
  140MPD2    C1 2176   4.568   3.760  13.801  0.0476 -0.2721  1.1408
  140MPD2    C2 2177   4.666   3.679  13.743 -0.8270 -0.0381  0.4231
  140MPD2    C3 2178   4.735   3.585  13.818  0.4320  0.1279  0.1924
  140MPD2    C4 2179   4.718   3.588  13.952  0.0723 -0.0901  0.4337
  140MPD2    C5 2180   4.630   3.672  14.013 -0.1488  0.3206  0.2803
  140MPD2     H 2181   4.687   3.686  13.637  1.1840  0.9631  0.8843
  140MPD2    H1 2182   0.044   3.538  14.021 -1.9627 -3.4677 -0.0742
  140MPD2    H2 2183   4.474   3.815  13.986  0.2261  0.9247 -0.6491
  140MPD2    H3 2184   4.608   3.665  14.118  0.3137 -2.0398  0.2116
  140MPD2     N 2185   0.092   3.502  13.761 -0.2711 -0.5498 -0.3977
  140MPD2    H5 2186   0.121   3.524  13.666  0.4327  1.2145  0.2268
  140MPD2    N1 2187   4.481   3.845  13.730  0.1681 -0.8185  0.3459
  140MPD2    H7 2188   4.416   3.908  13.776  0.3019 -0.1938 -0.3336
  141TMC2    C1 2189   0.338   0.401  14.390 -0.2662 -0.0555 -0.3655
  141TMC2    C2 2190   0.304   0.298  14.470 -0.1308 -0.3904 -0.2140
  141TMC2    C3 2191   0.397   0.258  14.566 -0.2726  0.3959  0.5329
  141TMC2    C4 2192   0.465   0.462  14.385  0.1619  0.8379 -0.5639
  141TMC2    C5 2193   0.553   0.405  14.470 -0.4509  0.2735  0.5238
  141TMC2    C6 2194   0.520   0.315  14.563  0.0575  0.9628  0.1731
  141TMC2     C 2195   0.249   0.429  14.273  0.4806  0.2034 -0.3659
  141TMC2     O 2196   0.186   0.330  14.233  0.5198  0.2138  0.1742
  141TMC2     H 2197   0.209   0.247  14.468 -0.6005  0.5152 -0.9589
  141TMC2    H1 2198   0.489   0.532  14.307 -1.7966  1.4548 -0.5925
  141TMC2    H2 2199   0.601   0.290  14.630 -1.2321 -0.4403  1.1978
  141TMC2    C7 2200   0.691   0.455  14.476  0.2509  0.0358 -0.0350
  141TMC2    C8 2201   0.361   0.202  14.691  0.5866  0.6007 -0.2296
  141TMC2    O1 2202   0.781   0.381  14.510  0.3160 -0.5378 -0.2865
  141TMC2    O2 2203   0.435   0.226  14.785  0.0137  0.0168  0.4736
  141TMC2    O5 2204   0.283   0.093  14.663  0.2616 -0.1365  0.3892
  141TMC2    H5 2205   0.251   0.077  14.572 -0.3814  0.3514  0.5266
  142TMC2    C1 2206   2.246   4.078   9.276 -0.9316 -0.5950  0.1362
  142TMC2    C2 2207   2.266   3.965   9.203 -0.0665 -0.8246 -0.7935
  142TMC2    C3 2208   2.398   3.950   9.154  0.7576 -0.0250  0.2949
  142TMC2    C4 2209   2.336   4.180   9.302 -0.1466 -0.3478  0.3241
  142TMC2    C5 2210   2.463   4.155   9.253  0.2212 -0.9029 -0.4060
  142TMC2    C6 2211   2.493   4.040   9.186 -0.4833 -0.7064 -0.0263
  142TMC2     C 2212   2.106   4.097   9.310 -0.5823 -0.1912 -0.0623
  142TMC2     O 2213   2.086   4.160   9.415 -0.0988  0.1584 -0.1286
  142TMC2     H 2214   2.204   3.877   9.210  2.7423 -2.6895  0.8762
  142TMC2    H1 2215   2.312   4.264   9.367 -1.4651  0.0093 -0.6285
  142TMC2    H2 2216   2.595   4.007   9.167  0.1330  1.3148 -0.2918
  142TMC2    C7 2217   2.571   4.247   9.281  0.1378 -0.1775 -0.1171
  142TMC2    C8 2218   2.427   3.814   9.101 -0.5293 -0.7268 -0.0244
  142TMC2    O1 2219   2.556   4.334   9.360 -0.1634 -0.7535 -0.3098
  142TMC2    O2 2220   2.533   3.754   9.119  0.0195 -0.2260  0.4122
  142TMC2    O5 2221   2.313   3.759   9.048 -0.0798  0.4169  0.3445
  142TMC2    H5 2222   2.235   3.815   9.030 -1.3967 -2.2612 -2.3166
  143MPD2     C 2223   1.588   4.020   9.248  0.7407 -0.5991 -1.1238
  143MPD2    C1 2224   1.662   4.054   9.365 -0.0447 -0.3063 -0.0899
  143MPD2    C2 2225   1.806   4.059   9.362  0.2187  0.1375 -0.0496
  143MPD2    C3 2226   1.872   4.049   9.238 -0.6543 -0.1543 -0.6065
  143MPD2    C4 2227   1.793   4.025   9.127 -0.1182  0.4113 -0.3187
  143MPD2    C5 2228   1.654   4.008   9.130  0.8483  0.0812  0.1233
  143MPD2     H 2229   1.865   4.075   9.451 -1.1769 -1.3900  1.1472
  143MPD2    H1 2230   1.836   4.015   9.028 -2.2471 -1.1930 -1.1011
  143MPD2    H2 2231   1.482   4.000   9.257  0.6416  0.7454  0.5899
  143MPD2    H3 2232   1.600   4.000   9.036  1.0949 -0.9893  0.0743
  143MPD2     N 2233   2.012   4.053   9.217  0.1010 -0.0926 -0.3299
  143MPD2    H5 2234   2.051   4.029   9.127 -1.3585 -0.2145 -0.9182
  143MPD2    N1 2235   1.589   4.052   9.487  1.0890 -0.4792  0.0730
  143MPD2    H7 2236   1.493   4.026   9.469  0.7685  1.4141 -0.8796
  144TMC2    C1 2237   0.657   2.356   1.054  0.1371  0.0245 -0.5622
  144TMC2    C2 2238   0.721   2.236   1.056  0.6482 -0.2217 -0.6145
  144TMC2    C3 2239   0.845   2.230   1.122 -0.0003  0.6362  0.1914
  144TMC2    C4 2240   0.709   2.470   1.115  0.3818  0.4055 -0.9235
  144TMC2    C5 2241   0.836   2.455   1.167  0.0572 -0.2822 -0.0197
  144TMC2    C6 2242   0.904   2.343   1.172  0.7933  0.3116 -0.1308
  144TMC2     C 2243   0.543   2.365   0.964 -0.1469 -0.1702  0.8868
  144TMC2     O 2244   0.552   2.302   0.858 -0.3201  0.1975 -0.3352
  144TMC2     H 2245   0.673   2.143   1.027  1.5279 -0.0503 -2.5803
  144TMC2    H1 2246   0.659   2.566   1.122  1.4582  0.7873  1.3970
  144TMC2    H2 2247   1.001   2.336   1.221  0.8418  1.0276 -0.1270
  144TMC2    C7 2248   0.892   2.567   1.240  0.1306  0.9380 -0.3778
  144TMC2    C8 2249   0.926   2.110   1.097 -0.0878 -0.1129 -0.0015
  144TMC2    O1 2250   0.987   2.535   1.311 -0.1935 -0.1361 -0.4312
  144TMC2    O2 2251   0.868   2.007   1.067 -0.7494  0.5068 -0.0046
  144TMC2    O5 2252   1.058   2.129   1.077 -0.3722  0.8515 -0.4543
  144TMC2    H5 2253   1.084   2.223   1.077  0.0673  0.7294 -1.4303
  145MPD2     C 2254   0.086   2.555   0.823  0.1421 -0.3549 -0.2788
  145MPD2    C1 2255   0.159   2.447   0.777  0.5698 -0.3367  0.2510
  145MPD2    C2 2256   0.270   2.402   0.846  0.3726  0.2819 -0.5608
  145MPD2    C3 2257   0.321   2.477   0.950  0.1519 -0.1063 -0.0343
  145MPD2    C4 2258   0.246   2.583   0.999  0.0067  0.0109  0.1122
  145MPD2    C5 2259   0.134   2.619   0.931 -0.1158 -0.1982  0.3243
  145MPD2     H 2260   0.323   2.313   0.814  0.7852  0.4166 -0.2514
  145MPD2    H1 2261   0.282   2.650   1.077 -0.4433 -0.6138  0.8573
  145MPD2    H2 2262   0.002   2.605   0.776  0.3628  1.6900  1.4671
  145MPD2    H3 2263   0.084   2.701   0.982  1.3426  0.4321  0.7373
  145MPD2     N 2264   0.443   2.445   1.014 -0.3540  0.0474  0.3097
  145MPD2    H5 2265   0.452   2.492   1.103 -0.7942  0.3828  0.1781
  145MPD2    N1 2266   0.125   2.386   0.657 -0.6749 -0.1575 -0.0235
  145MPD2    H7 2267   0.189   2.315   0.623 -1.4175  0.2240 -2.2036
  146TMC2    C1 2268   2.488   1.445  12.177  0.2046  0.9374  0.0012
  146TMC2    C2 2269   2.516   1.543  12.091  0.5550  0.1833  0.5191
  146TMC2    C3 2270   2.652   1.587  12.082  0.9099 -0.5688  0.5052
  146TMC2    C4 2271   2.584   1.385  12.254 -0.3831  0.1433 -0.4091
  146TMC2    C5 2272   2.714   1.416  12.220  0.2105  0.3324  0.1853
  146TMC2    C6 2273   2.753   1.517  12.133 -0.4950  0.2899  0.0352
  146TMC2     C 2274   2.346   1.435  12.213  0.4341  0.0379 -0.1379
  146TMC2     O 2275   2.261   1.471  12.131 -0.0953 -0.0162  0.2523
  146TMC2     H 2276   2.445   1.614  12.050  0.4074  0.3345  1.0440
  146TMC2    H1 2277   2.562   1.309  12.328 -1.6833  0.1181 -0.8227
  146TMC2    H2 2278   2.853   1.558  12.125 -0.8225  0.9707 -0.6218
  146TMC2    C7 2279   2.820   1.348  12.291 -0.0566 -0.3422  0.1419
  146TMC2    C8 2280   2.677   1.730  12.100 -0.8335 -0.3712  0.2684
  146TMC2    O1 2281   2.931   1.385  12.253  0.6010 -0.0392  0.2808
  146TMC2    O2 2282   2.774   1.789  12.052 -0.6784  0.1749 -0.2007
  146TMC2    O5 2283   2.579   1.797  12.166 -0.4572  0.1780  0.1069
  146TMC2    H5 2284   2.513   1.735  12.203 -0.9694  0.4821 -0.3026
  147MPD2     C 2285   3.051   1.068  12.652  1.1109 -0.1935 -0.1537
  147MPD2    C1 2286   2.920   1.080  12.695 -0.4056  0.4094 -0.2744
  147MPD2    C2 2287   2.827   1.133  12.603 -0.0694  0.4094  0.1502
  147MPD2    C3 2288   2.869   1.194  12.482  0.8001  0.2028  0.2343
  147MPD2    C4 2289   2.997   1.168  12.444 -0.1816 -0.6763  0.1129
  147MPD2    C5 2290   3.085   1.113  12.532  0.5122  0.9149  0.0993
  147MPD2     H 2291   2.722   1.138  12.631 -0.2606 -0.1791 -0.4617
  147MPD2    H1 2292   3.042   1.220  12.361 -1.1990  1.5367  0.9329
  147MPD2    H2 2293   3.129   1.034  12.719 -0.2430  1.4421  2.2657
  147MPD2    H3 2294   3.191   1.115  12.513  0.3145  3.2459 -0.7283
  147MPD2     N 2295   2.784   1.275  12.402  0.4714 -0.5057 -0.1629
  147MPD2    H5 2296   2.690   1.298  12.432  1.0238 -2.1680  2.8358
  147MPD2    N1 2297   2.892   1.042  12.828  0.0131 -0.2787 -0.1365
  147MPD2    H7 2298   2.971   0.993  12.869  0.0471 -0.1015  0.0111
  148TMC2    C1 2299   1.858   1.503  10.782 -0.8579  0.0846  0.5968
  148TMC2    C2 2300   1.939   1.591  10.848  0.1800  0.5387 -0.0545
  148TMC2    C3 2301   2.052   1.543  10.903 -0.2597  0.3101 -0.1445
  148TMC2    C4 2302   1.890   1.365  10.768  0.4081 -0.1153  0.3327
  148TMC2    C5 2303   2.005   1.319  10.826  0.2688 -0.4383 -0.3859
  148TMC2    C6 2304   2.084   1.406  10.894 -0.3761  0.3569 -0.3780
  148TMC2     C 2305   1.755   1.564  10.697  0.4466  0.4620 -0.5102
  148TMC2     O 2306   1.760   1.685  10.671 -0.8690  0.0268 -0.0217
  148TMC2     H 2307   1.922   1.696  10.868  0.4075  0.2927  1.4166
  148TMC2    H1 2308   1.826   1.297  10.714  2.4806 -1.0943 -0.8996
  148TMC2    H2 2309   2.173   1.379  10.949  0.6336  3.2553 -0.5599
  148TMC2    C7 2310   2.018   1.174  10.838 -0.2857 -0.0046 -0.6825
  148TMC2    C8 2311   2.154   1.634  10.931 -0.5129 -0.4819  0.5703
  148TMC2    O1 2312   1.919   1.119  10.788  0.4500  0.0459  0.2031
  148TMC2    O2 2313   2.124   1.750  10.943 -0.8357  0.3681 -0.2460
  148TMC2    O5 2314   2.261   1.586  10.859 -0.4068 -0.6945  0.0259
  148TMC2    H5 2315   2.252   1.491  10.835  0.1536 -1.0607  1.2651
  149MPD2     C 2316   1.553   1.607  10.478 -0.5778  0.0423  0.3341
  149MPD2    C1 2317   1.567   1.497  10.567 -0.2734 -0.0380 -0.6190
  149MPD2    C2 2318   1.475   1.399  10.563  0.1746  0.0524  0.7773
  149MPD2    C3 2319   1.381   1.389  10.471 -0.5509  0.1589 -0.1778
  149MPD2    C4 2320   1.382   1.480  10.367 -0.2446  0.3791 -0.4456
  149MPD2    C5 2321   1.470   1.588  10.369 -0.3407 -0.1532 -0.0132
  149MPD2     H 2322   1.476   1.336  10.651 -2.3574  0.1887  0.8980
  149MPD2    H1 2323   1.320   1.464  10.279 -0.9501 -0.4597  0.2028
  149MPD2    H2 2324   1.619   1.693  10.481 -1.4662  0.7673 -0.7190
  149MPD2    H3 2325   1.474   1.654  10.283  2.9239  1.1311  1.1445
  149MPD2     N 2326   1.288   1.280  10.464  0.1930 -0.5571  0.0387
  149MPD2    H5 2327   1.230   1.279  10.382  0.5258  1.4436 -0.2296
  149MPD2    N1 2328   1.665   1.472  10.666  0.1372 -0.3587 -0.1248
  149MPD2    H7 2329   1.675   1.383  10.713 -1.6250 -1.1874 -1.3221
  150TMC2    C1 2330   4.260   4.249  12.038 -0.1963 -0.1379  0.9578
  150TMC2    C2 2331   4.170   4.253  12.143  0.2341 -0.5065 -0.6763
  150TMC2    C3 2332   4.216   4.244  12.268  0.1644 -0.7607  0.4035
  150TMC2    C4 2333   4.390   4.244  12.063  0.1905 -0.0776  0.2466
  150TMC2    C5 2334   4.433   4.251  12.192  0.1215 -0.1258  0.6257
  150TMC2    C6 2335   4.349   4.245  12.293  0.0116 -0.0475  0.0042
  150TMC2     C 2336   4.206   4.231  11.908 -0.3066 -0.1449  0.3331
  150TMC2     O 2337   4.278   4.214  11.811 -0.3978  0.6444 -0.6870
  150TMC2     H 2338   4.068   4.290  12.138  1.0041  1.7831  0.8476
  150TMC2    H1 2339   4.462   4.228  11.984 -1.2197  2.2493 -1.4832
  150TMC2    H2 2340   4.374   4.284  12.392  0.9442  1.6419 -0.8930
  150TMC2    C7 2341   4.563   4.284  12.228  0.5789 -0.0282  0.8178
  150TMC2    C8 2342   4.122   4.225  12.374  0.0964 -0.1114  0.2178
  150TMC2    O1 2343   4.628   4.341  12.145  0.7169 -0.1169  0.0671
  150TMC2    O2 2344   4.016   4.289  12.377 -0.2294  0.2132 -0.2606
  150TMC2    O5 2345   4.169   4.117  12.443 -0.0468 -0.2960  0.8603
  150TMC2    H5 2346   4.256   4.084  12.410 -1.1975 -2.7036  0.2082
  151MPD2     C 2347   3.797   4.230  11.605  0.7015  1.7733  0.0297
  151MPD2    C1 2348   3.751   4.181  11.723 -0.0924 -0.0682  0.5041
  151MPD2    C2 2349   3.848   4.171  11.821 -0.0694  0.5821 -0.5184
  151MPD2    C3 2350   3.983   4.206  11.803 -0.2548 -0.1804 -0.2229
  151MPD2    C4 2351   4.021   4.241  11.672  0.5193 -0.4323  0.4619
  151MPD2    C5 2352   3.930   4.263  11.579 -0.5983  0.1600  0.3479
  151MPD2     H 2353   3.832   4.148  11.925  2.3813  0.9513 -0.0588
  151MPD2    H1 2354   4.126   4.261  11.652 -0.2760  0.8639 -2.3417
  151MPD2    H2 2355   3.732   4.262  11.525 -1.4972  0.2798  1.2204
  151MPD2    H3 2356   3.959   4.307  11.484  0.2874 -0.7059  0.2227
  151MPD2     N 2357   4.071   4.212  11.915  0.6534  0.3241  0.1791
  151MPD2    H5 2358   4.029   4.182  12.002 -1.9042 -0.2695 -1.2407
  151MPD2    N1 2359   3.615   4.169  11.750  0.2118 -0.0554  0.1089
  151MPD2    H7 2360   3.546   4.211  11.689 -1.1022  0.6398  2.0686
  152TMC2    C1 2361   4.126   4.162  12.847  0.3312 -0.2830 -0.0538
  152TMC2    C2 2362   4.205   4.068  12.901  0.4331 -0.6680 -0.2249
  152TMC2    C3 2363   4.339   4.073  12.870 -0.1305 -0.5084  0.0765
  152TMC2    C4 2364   4.181   4.260  12.766  0.5468 -0.8839  0.7511
  152TMC2    C5 2365   4.312   4.265  12.743 -0.3520  0.2435  0.0932
  152TMC2    C6 2366   4.398   4.175  12.798  0.3218 -1.1820 -0.1328
  152TMC2     C 2367   3.987   4.150  12.855  0.1428 -0.4296 -0.4223
  152TMC2     O 2368   3.926   4.197  12.763 -0.4014  0.1966 -0.1686
  152TMC2     H 2369   4.163   3.982  12.952 -1.5724  0.8221  0.6597
  152TMC2    H1 2370   4.112   4.336  12.731  2.3308  0.1317 -0.5664
  152TMC2    H2 2371   4.502   4.170  12.771  0.1719 -1.2455 -0.6882
  152TMC2    C7 2372   4.353   4.381  12.674 -0.2388  0.1636  0.2131
  152TMC2    C8 2373   4.430   3.984  12.933  0.0589 -0.8663 -0.4439
  152TMC2    O1 2374   4.266   4.452  12.625  0.4074  0.8643 -0.0172
  152TMC2    O2 2375   4.533   4.024  12.989 -0.4225 -0.4641  0.3588
  152TMC2    O5 2376   4.385   3.856  12.926  0.0588  0.0590  0.7173
  152TMC2    H5 2377   4.302   3.843  12.875  1.0832 -0.1302 -0.8999
  153MPD2     C 2378   3.774   3.955  13.083  0.0209 -1.0552 -0.7340
  153MPD2    C1 2379   3.809   4.025  12.969 -0.0226  0.0483  0.2324
  153MPD2    C2 2380   3.714   4.039  12.865  0.6216 -0.4368 -0.5105
  153MPD2    C3 2381   3.584   3.999  12.879 -0.4502 -0.1891 -0.1060
  153MPD2    C4 2382   3.553   3.920  12.997 -0.1789 -0.8316  0.0340
  153MPD2    C5 2383   3.647   3.907  13.091  0.2732  0.9771  0.4604
  153MPD2     H 2384   3.740   4.076  12.766 -0.8603  1.1750 -0.2964
  153MPD2    H1 2385   3.456   3.876  13.015 -0.4105  0.3260  1.6061
  153MPD2    H2 2386   3.841   3.955  13.168  0.8291  2.0878 -1.3710
  153MPD2    H3 2387   3.606   3.858  13.179 -1.0723 -0.3340 -0.9212
  153MPD2     N 2388   3.496   4.026  12.768 -0.1226 -0.0660 -0.8161
  153MPD2    H5 2389   3.523   4.099  12.703  1.2856  0.0831 -0.0650
  153MPD2    N1 2390   3.942   4.071  12.956 -0.4337  0.4528  0.4105
  153MPD2    H7 2391   4.005   4.033  13.026  2.2032  1.1623 -1.5995
  154TMC2    C1 2392   4.645   4.124   0.013  0.1037 -0.4444  0.0272
  154TMC2    C2 2393   4.697   4.006   0.045  0.1132  0.1225  0.3558
  154TMC2    C3 2394   0.029   3.926  17.718  0.1602 -0.4823  0.5896
  154TMC2    C4 2395   4.652   4.163  17.641  0.5399 -0.2716  0.2417
  154TMC2    C5 2396   4.732   4.088  17.554 -0.0786 -1.0991  0.1789
  154TMC2    C6 2397   0.057   3.969  17.587 -0.2378  0.7548 -0.0679
  154TMC2     C 2398   4.582   4.210   0.112 -0.0932 -0.0923  0.0275
  154TMC2     O 2399   4.543   4.156   0.213  0.2465 -0.0028 -0.1977
  154TMC2     H 2400   4.676   3.964   0.143  1.9566 -2.0838 -0.1871
  154TMC2    H1 2401   4.621   4.263  17.613  0.3477 -0.3714  0.0995
  154TMC2    H2 2402   0.129   3.923  17.520 -0.9960 -0.3549 -0.1234
  154TMC2    C7 2403   4.720   4.123  17.409  0.3502  0.7880  0.4389
  154TMC2    C8 2404   0.096   3.811   0.012 -0.4161  0.2096 -0.2289
  154TMC2    O1 2405   4.651   4.223  17.381  0.3192  0.0763  0.3568
  154TMC2    O2 2406   0.108   3.801   0.131 -0.1764  0.8798  0.1269
  154TMC2    O5 2407   0.126   3.715  17.673  0.6924 -0.8870 -0.8368
  154TMC2    H5 2408   0.107   3.744  17.581 -0.2337 -0.8800 -0.6400
  155MPD2     C 2409   4.413   4.524   0.052 -0.3684 -0.2297  0.1578
  155MPD2    C1 2410   4.472   4.427   0.130  0.5528  0.1781  0.0716
  155MPD2    C2 2411   4.465   4.436   0.266  0.1586  0.4728 -0.1349
  155MPD2    C3 2412   4.423   4.552   0.333 -0.1622  0.5914 -0.0885
  155MPD2    C4 2413   4.374   4.654   0.250 -0.0038  0.4574  0.1850
  155MPD2    C5 2414   4.361   4.634   0.115  0.4751  0.0882  0.2049
  155MPD2     H 2415   4.504   4.357   0.329 -0.9016  0.4596  0.4949
  155MPD2    H1 2416   4.328   0.003   0.292 -0.7137  0.2993 -0.2557
  155MPD2    H2 2417   4.413   4.515  17.703 -1.6513 -0.5368  0.1851
  155MPD2    H3 2418   4.328   4.717   0.053  1.0389 -0.0335 -0.2691
  155MPD2     N 2419   4.438   4.563   0.483 -0.8794  0.3004  0.5614
  155MPD2    H5 2420   4.477   4.488   0.538 -1.2627  0.2396  0.7493
  155MPD2    N1 2421   4.538   4.324   0.060  0.8126 -0.0281  0.3216
  155MPD2    H7 2422   4.562   4.353  17.725  1.2794 -0.8041  0.1986
  156TMC2    C1 2423   4.236   1.778  11.967  0.8993  0.4994 -0.0316
  156TMC2    C2 2424   4.191   1.692  11.871  0.4684  0.2806 -0.7269
  156TMC2    C3 2425   4.104   1.745  11.778  0.0328  0.3048  0.5672
  156TMC2    C4 2426   4.189   1.898  11.990  0.4077 -0.3987 -0.0680
  156TMC2    C5 2427   4.096   1.950  11.901  0.0416  0.0885 -1.1585
  156TMC2    C6 2428   4.050   1.873  11.792 -0.3301 -0.0443 -0.1901
  156TMC2     C 2429   4.347   1.730  12.049 -0.1781 -0.0751  0.7959
  156TMC2     O 2430   4.410   1.816  12.110  0.5733 -0.0086 -0.3882
  156TMC2     H 2431   4.237   1.598  11.841 -0.4491 -0.2853 -0.3668
  156TMC2    H1 2432   4.235   1.958  12.068 -0.1118  0.4851 -0.4434
  156TMC2    H2 2433   3.973   1.912  11.726 -1.6238 -0.9472  0.7746
  156TMC2    C7 2434   4.053   2.089  11.914  0.4266  0.1159  0.3052
  156TMC2    C8 2435   4.064   1.666  11.657 -0.4579 -0.0905 -1.4391
  156TMC2    O1 2436   4.116   2.154  11.998 -0.7308 -0.4744 -0.6978
  156TMC2    O2 2437   4.041   1.715  11.548  0.2393  0.2364 -0.6836
  156TMC2    O5 2438   4.037   1.540  11.696  0.3970 -0.2687 -0.7059
  156TMC2    H5 2439   4.064   1.525  11.789 -1.1156 -2.3422 -0.5838
  157MPD2     C 2440   4.357   1.406  12.203 -0.0800 -0.3214  0.1446
  157MPD2    C1 2441   4.403   1.531  12.184 -0.3734 -0.2231  0.5164
  157MPD2    C2 2442   4.499   1.587  12.276 -0.2018 -0.4910 -0.5199
  157MPD2    C3 2443   4.524   1.514  12.397  0.0106  0.4548  0.5642
  157MPD2    C4 2444   4.462   1.397  12.419 -0.7828  0.4311 -0.0614
  157MPD2    C5 2445   4.387   1.344  12.317 -0.8442  1.0258  0.0282
  157MPD2     H 2446   4.539   1.686  12.261 -1.3082 -0.0676 -0.6734
  157MPD2    H1 2447   4.487   1.329  12.499 -3.0576 -1.5948 -1.0772
  157MPD2    H2 2448   4.299   1.354  12.127  0.6466 -1.0519  0.0789
  157MPD2    H3 2449   4.349   1.243  12.330 -0.7365  0.9056 -0.5936
  157MPD2     N 2450   4.608   1.576  12.490 -0.2444 -0.8974 -0.1634
  157MPD2    H5 2451   4.648   1.664  12.460 -0.3538 -0.5130  0.8046
  157MPD2    N1 2452   4.345   1.594  12.070 -0.2086  0.1411 -0.0297
  157MPD2    H7 2453   4.281   1.533  12.023 -0.9236  1.3354 -0.6103
  158TMC2    C1 2454   0.088   4.526  13.424  0.9962  0.7267 -0.1620
  158TMC2    C2 2455   0.175   4.441  13.361 -0.8892  0.2967 -0.6271
  158TMC2    C3 2456   0.178   4.444  13.224 -0.7588 -0.5422  0.8989
  158TMC2    C4 2457   4.732   4.601  13.359 -0.0972 -0.1339  0.1174
  158TMC2    C5 2458   0.008   4.598  13.218  0.0019  0.2440  0.3836
  158TMC2    C6 2459   0.097   4.522  13.150 -0.2091  0.4964 -1.1866
  158TMC2     C 2460   0.112   4.520  13.571  0.1118  0.3250  0.4042
  158TMC2     O 2461   0.161   4.418  13.617  0.4681  0.0349 -0.1844
  158TMC2     H 2462   0.255   4.386  13.410 -0.8001  0.3773 -0.6837
  158TMC2    H1 2463   4.672   4.683  13.397 -0.7051 -0.3425 -0.4058
  158TMC2    H2 2464   0.107   4.527  13.042  1.8874  0.0199 -1.0226
  158TMC2    C7 2465   4.643   4.659  13.133  1.0725 -0.2758  0.0565
  158TMC2    C8 2466   0.306   4.405  13.171  0.2298 -0.0724 -1.0849
  158TMC2    O1 2467   4.671   4.702  13.025  0.5242 -0.1551 -0.1587
  158TMC2    O2 2468   0.374   4.485  13.109 -0.3558  0.4572 -0.6941
  158TMC2    O5 2469   0.290   4.274  13.148  0.1474 -0.2857 -0.3446
  158TMC2    H5 2470   0.204   4.237  13.179  0.3621 -0.7788 -0.3478
  159MPD2     C 2471   0.153   4.738  14.041  0.2253 -0.2628  0.4980
  159MPD2    C1 2472   0.061   0.068  13.968  0.6814 -0.0826  0.0165
  159MPD2    C2 2473   0.031   0.029  13.837 -0.6164 -0.0493 -0.1541
  159MPD2    C3 2474   0.085   4.656  13.775 -0.2545  0.2102 -0.5626
  159MPD2    C4 2475   0.174   4.586  13.855  0.3077 -0.6087  0.2858
  159MPD2    C5 2476   0.197   4.621  13.987 -0.2505  0.1442  0.4753
  159MPD2     H 2477   4.705   0.092  13.778 -0.3305  0.3445 -0.0542
  159MPD2    H1 2478   0.222   4.496  13.819 -1.4833 -0.9815 -1.1592
  159MPD2    H2 2479   0.190   0.031  14.137  0.8411  0.9244 -0.1505
  159MPD2    H3 2480   0.261   4.570  14.057  0.6058 -1.1491 -1.2606
  159MPD2     N 2481   0.062   4.633  13.638 -0.1950 -0.3264  0.1403
  159MPD2    H5 2482   0.016   4.709  13.588  0.6303 -0.4430 -0.8014
  159MPD2    N1 2483   0.023   0.189  14.036 -0.0935  0.1116 -0.3850
  159MPD2    H7 2484   0.050   0.202  14.133  0.4651 -3.6692 -0.0124
  160TMC2    C1 2485   3.740   3.326   1.317 -0.6474 -0.6550  0.4347
  160TMC2    C2 2486   3.787   3.332   1.441  0.0753 -0.0425  0.5345
  160TMC2    C3 2487   3.920   3.353   1.459  0.2739 -0.0155  0.0491
  160TMC2    C4 2488   3.819   3.346   1.211 -0.8300  1.1307  0.3610
  160TMC2    C5 2489   3.955   3.366   1.231  0.8385 -0.9435  1.1667
  160TMC2    C6 2490   4.012   3.364   1.351 -0.4513  0.0295  0.0889
  160TMC2     C 2491   3.597   3.312   1.291  0.5467  0.2737 -0.1105
  160TMC2     O 2492   3.532   3.253   1.377  0.1419 -0.4783 -0.2151
  160TMC2     H 2493   3.721   3.321   1.526 -1.1902  0.3459 -0.4023
  160TMC2    H1 2494   3.773   3.350   1.113  0.9587 -1.7154 -0.6166
  160TMC2    H2 2495   4.120   3.358   1.361 -0.2487  0.5062 -1.8250
  160TMC2    C7 2496   4.021   3.393   1.103  0.0468 -0.8419  0.0210
  160TMC2    C8 2497   3.966   3.333   1.591 -0.1662  0.3453 -0.2098
  160TMC2    O1 2498   3.952   3.401   1.003  0.7889 -0.2229 -0.2074
  160TMC2    O2 2499   3.881   3.343   1.678 -0.0418  1.2043 -0.2677
  160TMC2    O5 2500   4.076   3.260   1.598 -0.4215  0.1474  0.0900
  160TMC2    H5 2501   4.128   3.252   1.514  1.8845  1.9037  1.3644
  161MPD2     C 2502   3.316   3.348   1.210  0.8182  0.3152  0.3132
  161MPD2    C1 2503   3.419   3.412   1.146  1.0132  0.1159 -0.4543
  161MPD2    C2 2504   3.398   3.494   1.036 -0.0689  0.1314  0.7534
  161MPD2    C3 2505   3.275   3.511   0.986 -0.5068 -0.3777  0.3960
  161MPD2    C4 2506   3.171   3.448   1.051 -0.1269 -0.2227 -0.4499
  161MPD2    C5 2507   3.192   3.370   1.165  0.2267 -0.1740 -0.6642
  161MPD2     H 2508   3.483   3.548   0.996  0.1892 -0.9029 -0.0989
  161MPD2    H1 2509   3.066   3.455   1.026 -0.1318  0.0436 -0.3549
  161MPD2    H2 2510   3.323   3.290   1.302  1.4574  0.1557  0.1643
  161MPD2    H3 2511   3.111   3.330   1.226 -0.8413  0.6911 -1.5191
  161MPD2     N 2512   3.250   3.601   0.879 -0.2210  0.2395 -0.1189
  161MPD2    H5 2513   3.163   3.600   0.826 -0.8688  0.4768  0.9444
  161MPD2    N1 2514   3.554   3.394   1.189  0.6202  0.0479 -0.3875
  161MPD2    H7 2515   3.624   3.452   1.144  0.2448  0.3306 -0.6023
  162TMC2    C1 2516   2.065   1.081   0.613 -0.9674 -0.2504  0.2776
  162TMC2    C2 2517   2.074   1.213   0.605 -0.3334 -0.2202 -0.5892
  162TMC2    C3 2518   2.195   1.270   0.646 -0.1490  0.0653 -0.2605
  162TMC2    C4 2519   2.155   0.999   0.683  0.3453  0.0453 -1.0646
  162TMC2    C5 2520   2.272   1.062   0.731 -1.0650  0.0041 -0.4064
  162TMC2    C6 2521   2.284   1.196   0.711  0.1119  0.2897  0.0587
  162TMC2     C 2522   1.962   1.005   0.538 -0.3890 -0.0480  0.7078
  162TMC2     O 2523   1.977   0.884   0.521  0.2849 -0.1971 -0.0173
  162TMC2     H 2524   2.007   1.271   0.543 -0.1720  0.3607 -0.2229
  162TMC2    H1 2525   2.127   0.897   0.707 -1.9690  0.8968 -0.0865
  162TMC2    H2 2526   2.379   1.228   0.753  0.7175 -0.3204 -0.8405
  162TMC2    C7 2527   2.357   1.000   0.830 -0.2251 -0.3937 -0.0671
  162TMC2    C8 2528   2.226   1.412   0.619 -0.2675 -0.3487 -0.4293
  162TMC2    O1 2529   2.399   1.070   0.925  0.3843  0.4052 -0.0805
  162TMC2    O2 2530   2.288   1.442   0.522  0.6013 -0.3448 -0.2670
  162TMC2    O5 2531   2.105   1.473   0.627 -0.1986  0.0016 -0.2935
  162TMC2    H5 2532   2.075   1.451   0.718 -0.0203 -0.1463 -0.2678
  163MPD2     C 2533   1.548   1.045   0.243  0.0673  0.8949  0.1927
  163MPD2    C1 2534   1.632   0.941   0.269  1.4513 -0.6384  0.4987
  163MPD2    C2 2535   1.738   0.963   0.355  0.3437  0.7864  0.3915
  163MPD2    C3 2536   1.750   1.078   0.423  0.6893 -0.2061  0.5532
  163MPD2    C4 2537   1.662   1.184   0.397  0.3510 -0.2091 -0.0803
  163MPD2    C5 2538   1.554   1.162   0.314  0.0727 -0.9015  0.2458
  163MPD2     H 2539   1.814   0.886   0.365  1.0637  1.0803 -2.9046
  163MPD2    H1 2540   1.660   1.277   0.453  0.3009  0.7968 -1.7507
  163MPD2    H2 2541   1.474   1.023   0.167  1.4057  1.1982 -1.1979
  163MPD2    H3 2542   1.479   1.240   0.302  0.0442 -1.2862 -2.2024
  163MPD2     N 2543   1.853   1.091   0.520 -0.1220  0.6397 -0.4663
  163MPD2    H5 2544   1.860   1.183   0.563  0.0065  0.3037  0.2333
  163MPD2    N1 2545   1.620   0.832   0.191  0.1891 -0.4373  0.1619
  163MPD2    H7 2546   1.552   0.830   0.115  2.0076  0.3113 -1.4704
  164TMC2    C1 2547   2.650   1.321  10.935  0.1138 -0.4211 -0.1799
  164TMC2    C2 2548   2.683   1.455  10.948 -0.5519  0.0067  0.2852
  164TMC2    C3 2549   2.620   1.536  11.035  0.0136  0.0725  0.2679
  164TMC2    C4 2550   2.556   1.264  11.008  0.3243 -0.4099  0.5920
  164TMC2    C5 2551   2.502   1.341  11.106  0.2661  0.0144  0.8604
  164TMC2    C6 2552   2.521   1.481  11.118 -0.3105 -0.1686 -0.1439
  164TMC2     C 2553   2.725   1.239  10.835 -0.6046 -0.4561  0.2473
  164TMC2     O 2554   2.680   1.130  10.810 -0.3629 -0.4687  0.0818
  164TMC2     H 2555   2.759   1.504  10.888  0.2177 -1.6981 -0.1406
  164TMC2    H1 2556   2.525   1.161  10.997  1.3090 -0.6777  0.3109
  164TMC2    H2 2557   2.473   1.527  11.203  0.4545 -0.8225  0.6354
  164TMC2    C7 2558   2.371   1.299  11.156  0.1145  0.1290  0.3041
  164TMC2    C8 2559   2.661   1.678  11.058  0.3205  0.1959 -1.2430
  164TMC2    O1 2560   2.282   1.380  11.153 -0.5629 -0.5474 -0.3186
  164TMC2    O2 2561   2.757   1.724  10.996  0.1665 -0.0292  0.5096
  164TMC2    O5 2562   2.552   1.756  11.092  0.0155  0.0260  0.2446
  164TMC2    H5 2563   2.479   1.703  11.129 -1.4407  1.1563 -0.9819
  165TMC2    C1 2564   3.961   2.879   2.009  0.2738  0.0182 -1.0604
  165TMC2    C2 2565   3.844   2.942   2.051  0.5272 -0.2317  0.1644
  165TMC2    C3 2566   3.780   3.016   1.957 -0.0121 -0.2524 -0.2419
  165TMC2    C4 2567   3.984   2.855   1.873  0.5460 -0.5343  0.6496
  165TMC2    C5 2568   3.919   2.939   1.790  0.9897 -0.3992  0.3529
  165TMC2    C6 2569   3.815   3.028   1.824  0.6869  0.0555 -0.3129
  165TMC2     C 2570   4.030   2.785   2.093 -0.4848  0.7768  0.4981
  165TMC2     O 2571   4.086   2.692   2.040  0.5406 -0.7771 -0.1470
  165TMC2     H 2572   3.813   2.932   2.154 -0.9023  1.4686 -0.0964
  165TMC2    H1 2573   4.051   2.779   1.836 -0.5833 -0.4597 -1.5384
  165TMC2    H2 2574   3.759   3.083   1.750 -0.6009  0.6669  1.1075
  165TMC2    C7 2575   3.974   2.952   1.658 -0.2118 -0.1571 -0.3411
  165TMC2    C8 2576   3.675   3.104   2.002  0.6286  0.1143 -0.1972
  165TMC2    O1 2577   4.086   2.908   1.645  0.2191  0.4747  0.4581
  165TMC2    O2 2578   3.622   3.087   2.110  0.1614 -0.4419 -0.4153
  165TMC2    O5 2579   3.716   3.218   1.952 -0.2248  0.2096 -0.3856
  165TMC2    H5 2580   3.759   3.202   1.865 -1.1433  0.6942 -0.9252
  166MPD2     C 2581   4.210   2.672   2.564 -0.5942 -0.5580  0.2102
  166MPD2    C1 2582   4.204   2.586   2.450 -0.2799 -0.9780  0.2040
  166MPD2    C2 2583   4.138   2.636   2.333 -0.0157 -0.0910  0.0042
  166MPD2    C3 2584   4.081   2.762   2.343 -0.3208 -0.5695 -0.1525
  166MPD2    C4 2585   4.082   2.836   2.453  0.0758 -0.2609  0.2464
  166MPD2    C5 2586   4.135   2.791   2.568 -0.0283 -0.4639  0.2267
  166MPD2     H 2587   4.142   2.573   2.245 -1.0103 -0.9571  0.5847
  166MPD2    H1 2588   4.036   2.934   2.460  1.8363  0.4969  1.3429
  166MPD2    H2 2589   4.263   2.639   2.652  0.4396 -2.2772 -1.0576
  166MPD2    H3 2590   4.115   2.849   2.658 -1.1632  0.9621 -0.9524
  166MPD2     N 2591   4.025   2.824   2.226  0.2112  0.4893  0.2400
  166MPD2    H5 2592   3.971   2.909   2.234  0.6769  0.6050  2.2533
  166MPD2    N1 2593   4.267   2.455   2.455  0.4666  0.0832 -0.4915
  166MPD2    H7 2594   4.326   2.435   2.536  1.3184 -1.2163 -1.4469
  167TMC2    C1 2595   1.921   0.678  13.021  0.0202 -0.3455 -0.3353
  167TMC2    C2 2596   1.875   0.659  13.148 -1.0811 -0.2262  0.9056
  167TMC2    C3 2597   1.755   0.597  13.171  0.4410  0.4042 -0.0831
  167TMC2    C4 2598   1.868   0.599  12.922  0.0144  0.0387  0.5464
  167TMC2    C5 2599   1.749   0.536  12.947 -1.5071  1.1087  0.0786
  167TMC2    C6 2600   1.697   0.528  13.073  0.1461  0.3421 -0.3247
  167TMC2     C 2601   2.035   0.760  13.001  0.4217 -0.4052 -0.1085
  167TMC2     O 2602   2.105   0.779  13.101  0.4511 -0.0537 -0.3119
  167TMC2     H 2603   1.920   0.731  13.217 -0.3602  0.4550 -0.2723
  167TMC2    H1 2604   1.896   0.614  12.818  0.6168  0.9063  0.8314
  167TMC2    H2 2605   1.609   0.466  13.088  0.4868 -0.1938 -0.5770
  167TMC2    C7 2606   1.688   0.445  12.849 -0.1495  0.1735 -0.6075
  167TMC2    C8 2607   1.714   0.568  13.300 -0.7747  0.6797  0.0252
  167TMC2    O1 2608   1.573   0.404  12.872 -0.5293 -0.7020 -0.0925
  167TMC2    O2 2609   1.598   0.564  13.325 -0.4277  0.0078  0.1851
  167TMC2    O5 2610   1.808   0.495  13.348 -0.0739  0.0076 -0.3254
  167TMC2    H5 2611   1.885   0.486  13.289  0.1966  1.4727 -0.1941
  168MPD2     C 2612   2.265   0.900  12.886  0.5464  0.0262 -0.1871
  168MPD2    C1 2613   2.155   0.865  12.812 -0.8095 -1.0975  0.6884
  168MPD2    C2 2614   2.146   0.895  12.676 -0.2567  0.1629 -0.2895
  168MPD2    C3 2615   2.256   0.956  12.615  0.5272  0.5504  0.1556
  168MPD2    C4 2616   2.372   0.977  12.689  0.1398  0.1796 -0.8255
  168MPD2    C5 2617   2.370   0.943  12.818  0.1705  0.6427  0.1260
  168MPD2     H 2618   2.056   0.873  12.619  0.0447  0.2048 -0.7787
  168MPD2    H1 2619   2.468   1.007  12.647  1.6744 -2.2963  0.9332
  168MPD2    H2 2620   2.274   0.866  12.988 -0.0517 -1.2969 -0.5751
  168MPD2    H3 2621   2.468   0.939  12.865 -0.4757 -0.5213  1.3916
  168MPD2     N 2622   2.261   0.994  12.480 -0.3070  0.0490 -0.1616
  168MPD2    H5 2623   2.353   1.021  12.447  0.7178 -1.8740  1.1107
  168MPD2    N1 2624   2.052   0.793  12.870  0.7220  0.1716 -0.2419
  168MPD2    H7 2625   1.972   0.782  12.808 -0.1762  0.0746  0.9333
  169MPD1     C 2626   3.898   1.075   9.148 -0.0219  0.1337 -0.0209
  169MPD1    C1 2627   4.014   1.020   9.100 -0.4053  0.1660 -0.1006
  169MPD1    C2 2628   4.041   0.887   9.148  0.3369 -0.6178  0.0820
  169MPD1    C3 2629   3.969   0.826   9.249 -0.3059  0.0830  0.2351
  169MPD1    C4 2630   3.856   0.891   9.291  0.3987  0.2229 -0.3133
  169MPD1    C5 2631   3.822   1.011   9.239 -0.1294  0.3668 -0.0781
  169MPD1     H 2632   4.127   0.841   9.103  0.5596 -1.5623  1.4786
  169MPD1    H1 2633   3.795   0.841   9.366 -0.7977  1.8145 -0.2391
  169MPD1    H2 2634   3.872   1.175   9.116 -0.7337  0.8081  2.6937
  169MPD1    H3 2635   3.727   1.058   9.261  0.0903  0.4212  0.7358
  169MPD1     N 2636   4.015   0.703   9.307 -0.2594 -0.9180 -0.2032
  169MPD1    H5 2637   4.094   0.657   9.264  1.0863 -0.3733  1.6895
  169MPD1    N1 2638   4.078   1.075   8.991 -0.3662  0.2967  0.4068
  169MPD1    H6 2639   4.178   1.061   8.988 -0.3338  0.3843  0.9944
  169MPD1    H7 2640   4.059   1.174   8.984  0.5188  0.5422  1.4441
  170MPD1     C 2641   3.498   2.625  12.918  0.5296 -0.2164  0.2818
  170MPD1    C1 2642   3.386   2.658  12.850 -0.6376 -0.0930 -0.1995
  170MPD1    C2 2643   3.264   2.676  12.918  0.1209 -0.0070 -0.3663
  170MPD1    C3 2644   3.259   2.642  13.048  0.5853 -0.0725  0.2369
  170MPD1    C4 2645   3.373   2.598  13.114 -0.1315  0.3299  0.0286
  170MPD1    C5 2646   3.493   2.595  13.048  0.1937 -0.1652 -0.2259
  170MPD1     H 2647   3.180   2.723  12.868 -1.0692 -0.9220  0.7506
  170MPD1    H1 2648   3.383   2.570  13.218 -2.5807 -0.1451  0.1378
  170MPD1    H2 2649   3.600   2.614  12.881  0.2810  1.5245 -0.9304
  170MPD1    H3 2650   3.582   2.560  13.099 -1.1668 -0.9325  1.6170
  170MPD1     N 2651   3.129   2.656  13.112  0.2602  0.7689  0.2612
  170MPD1    H5 2652   3.048   2.672  13.054  0.3424 -0.6458 -0.2335
  170MPD1    N1 2653   3.399   2.708  12.720 -0.1483  0.2676  0.4700
  170MPD1    H6 2654   3.472   2.665  12.663 -0.3810 -2.3080  2.1375
  170MPD1    H7 2655   3.317   2.691  12.662  1.1119 -1.9826 -0.6428
  171MPD1     C 2656   1.501   3.836  15.657  0.7523 -0.3873 -0.8913
  171MPD1    C1 2657   1.405   3.739  15.682 -0.0783  0.0974 -0.2416
  171MPD1    C2 2658   1.450   3.616  15.715  0.1113 -0.4195 -0.6724
  171MPD1    C3 2659   1.583   3.582  15.710  0.4202  0.7650  0.0742
  171MPD1    C4 2660   1.676   3.677  15.678  0.1821 -0.4360  1.2799
  171MPD1    C5 2661   1.635   3.805  15.654  0.6111  0.6056 -0.0665
  171MPD1     H 2662   1.382   3.540  15.752 -0.6872 -0.1862 -1.6616
  171MPD1    H1 2663   1.779   3.649  15.664  0.0778 -0.1325 -0.0879
  171MPD1    H2 2664   1.474   3.941  15.655 -1.4134 -0.9008  2.5785
  171MPD1    H3 2665   1.709   3.880  15.628  0.6841  0.4908 -0.1951
  171MPD1     N 2666   1.626   3.452  15.753 -0.3488 -0.6698 -0.1069
  171MPD1    H5 2667   1.725   3.438  15.769 -0.1194 -0.7176 -1.5295
  171MPD1    N1 2668   1.267   3.765  15.707 -0.7147  0.2854 -0.5209
  171MPD1    H6 2669   1.238   3.851  15.661 -4.4496 -1.6494 -1.7710
  171MPD1    H7 2670   1.218   3.685  15.668 -0.5041  0.3508 -0.9224
  172MPD1     C 2671   0.231   3.021   0.031  0.0270 -0.0873  0.1944
  172MPD1    C1 2672   0.185   2.894   0.037  0.0553  0.1751 -0.2092
  172MPD1    C2 2673   0.208   2.814   0.144 -0.5173  0.0706 -0.2868
  172MPD1    C3 2674   0.262   2.870   0.266 -0.0039 -0.1947  0.3081
  172MPD1    C4 2675   0.307   3.001   0.257 -0.1217  0.1007  0.0958
  172MPD1    C5 2676   0.294   3.072   0.144 -0.5436  0.3913 -0.3501
  172MPD1     H 2677   0.184   2.708   0.139 -0.5843  0.0408  0.7047
  172MPD1    H1 2678   0.356   3.054   0.338  1.4967 -0.6162 -0.4186
  172MPD1    H2 2679   0.227   3.082  17.700  0.3809 -3.9349 -2.4728
  172MPD1    H3 2680   0.318   3.178   0.151 -0.7572  0.5913 -2.7667
  172MPD1     N 2681   0.293   2.791   0.378  0.1627  0.3724 -0.3517
  172MPD1    H5 2682   0.346   2.834   0.453  0.9543 -0.9865 -0.1397
  172MPD1    N1 2683   0.139   2.831  17.674  0.8639 -1.0209 -0.1516
  172MPD1    H6 2684   0.075   2.896  17.627  1.8400 -0.8443 -1.2330
  172MPD1    H7 2685   0.079   2.751  17.689 -0.0469  0.0075  1.7331
  173MPD1     C 2686   1.638   3.475  13.826 -0.1820  0.1203 -0.2736
  173MPD1    C1 2687   1.554   3.390  13.894  0.5529 -0.2067  0.4547
  173MPD1    C2 2688   1.616   3.304  13.980 -0.0978 -0.4042 -1.0958
  173MPD1    C3 2689   1.756   3.289  13.981 -0.6538 -0.2206 -0.3248
  173MPD1    C4 2690   1.835   3.359  13.892 -0.3768 -0.0187 -0.6841
  173MPD1    C5 2691   1.774   3.459  13.814 -0.1023  0.7626 -0.0108
  173MPD1     H 2692   1.550   3.242  14.040 -0.3336 -0.5860 -1.5476
  173MPD1    H1 2693   1.938   3.329  13.879  0.4652  2.5331  0.1604
  173MPD1    H2 2694   1.598   3.562  13.775  0.0919 -0.7605 -1.9819
  173MPD1    H3 2695   1.833   3.523  13.750  0.4263  1.8309  1.5426
  173MPD1     N 2696   1.814   3.200  14.083 -0.9686  0.8405  0.2037
  173MPD1    H5 2697   1.746   3.149  14.139  1.4225  1.2150  3.4147
  173MPD1    N1 2698   1.413   3.424  13.914  0.1733  0.0559  0.1326
  173MPD1    H6 2699   1.377   3.434  13.819  2.4816  0.0969 -0.7159
  173MPD1    H7 2700   1.352   3.362  13.967  2.2538  0.0172  2.4969
  174MPD1     C 2701   2.586   2.578  14.120 -0.2809  0.1939 -0.0360
  174MPD1    C1 2702   2.539   2.582  14.249 -0.7621 -0.0340  0.7777
  174MPD1    C2 2703   2.427   2.650  14.272 -0.0120 -0.2424  0.0764
  174MPD1    C3 2704   2.362   2.731  14.172 -0.0409 -0.0715  0.8607
  174MPD1    C4 2705   2.420   2.740  14.050 -0.0993 -0.5768 -0.1711
  174MPD1    C5 2706   2.525   2.657  14.022  0.1579  0.2036 -0.2608
  174MPD1     H 2707   2.379   2.632  14.368 -1.6650 -2.6172 -1.1790
  174MPD1    H1 2708   2.371   2.797  13.972 -1.7813  1.3290  2.2859
  174MPD1    H2 2709   2.677   2.522  14.099 -1.9106 -1.7135 -1.9677
  174MPD1    H3 2710   2.569   2.672  13.924 -0.0856 -1.1488 -0.5853
  174MPD1     N 2711   2.234   2.795  14.191 -0.3788 -0.2474  0.3243
  174MPD1    H5 2712   2.180   2.822  14.110 -3.8725 -0.9119  2.4727
  174MPD1    N1 2713   2.595   2.500  14.345  0.1317  0.0031 -0.1942
  174MPD1    H6 2714   2.696   2.500  14.349  0.1345  1.7056 -0.1963
  174MPD1    H7 2715   2.572   2.532  14.439  1.3161 -1.5197  0.6018
  175MPD1     C 2716   0.511   3.723  15.592 -0.1083  0.9711 -0.5623
  175MPD1    C1 2717   0.398   3.728  15.661  0.1772  0.7658 -0.1330
  175MPD1    C2 2718   0.384   3.662  15.785  0.5367  1.2130 -0.1736
  175MPD1    C3 2719   0.498   3.603  15.844 -0.0595  0.9151 -0.9664
  175MPD1    C4 2720   0.615   3.619  15.776  0.5050  0.6600 -0.2030
  175MPD1    C5 2721   0.623   3.677  15.652 -0.2758 -0.0263 -0.1224
  175MPD1     H 2722   0.284   3.666  15.828  0.0554  2.0628 -1.3640
  175MPD1    H1 2723   0.708   3.596  15.826  0.1139 -0.7945 -0.1495
  175MPD1    H2 2724   0.522   3.777  15.499 -0.3582  2.2347  0.1293
  175MPD1    H3 2725   0.718   3.689  15.600 -1.6607 -3.2618 -3.4101
  175MPD1     N 2726   0.501   3.541  15.976  0.0034  0.1127 -0.0139
  175MPD1    H5 2727   0.591   3.507  16.008  0.6353  0.9040 -0.9557
  175MPD1    N1 2728   0.283   3.786  15.599 -0.4584 -0.3063 -0.4503
  175MPD1    H6 2729   0.214   3.816  15.669  1.8481  3.0158  0.4059
  175MPD1    H7 2730   0.297   3.858  15.528  2.6325 -2.7085 -2.2226
  176MPD1     C 2731   2.185   0.634   0.062 -0.1091 -0.3151  0.4676
  176MPD1    C1 2732   2.080   0.701   0.122 -0.2371  0.0184  0.0125
  176MPD1    C2 2733   2.041   0.825   0.076 -0.3420 -0.6751  0.5081
  176MPD1    C3 2734   2.094   0.874  17.716 -0.5000  0.8516 -0.1830
  176MPD1    C4 2735   2.182   0.797  17.643 -0.3375 -0.3960 -0.0358
  176MPD1    C5 2736   2.228   0.686  17.702  0.8854  0.5825 -0.0308
  176MPD1     H 2737   1.972   0.890   0.127 -3.5616 -2.8071 -1.0740
  176MPD1    H1 2738   2.221   0.829  17.547 -0.5306  2.4201  0.8087
  176MPD1    H2 2739   2.239   0.547   0.098 -0.2988 -1.6828 -2.6103
  176MPD1    H3 2740   2.315   0.640  17.657  0.6770  0.0661  0.0940
  176MPD1     N 2741   2.056   1.008  17.691  0.9992 -0.2471 -0.3778
  176MPD1    H5 2742   1.993   1.063  17.748  0.2981 -0.0688 -1.3232
  176MPD1    N1 2743   2.053   0.675   0.258 -0.0965  0.2217  0.2547
  176MPD1    H6 2744   1.953   0.690   0.268 -0.1181 -1.0222  1.7974
  176MPD1    H7 2745   2.073   0.576   0.270 -1.5662 -0.0208  0.6015
  177MPD1     C 2746   0.627   2.467  10.524 -0.3037 -0.4088 -0.1381
  177MPD1    C1 2747   0.637   2.344  10.587 -0.3090  0.3452  0.0126
  177MPD1    C2 2748   0.543   2.252  10.549 -0.3610  0.6168 -0.3819
  177MPD1    C3 2749   0.419   2.287  10.487  0.7738 -0.2941  0.4350
  177MPD1    C4 2750   0.409   2.418  10.434 -0.1330 -0.1869 -0.1500
  177MPD1    C5 2751   0.520   2.503  10.454  0.1038  0.3832 -0.4380
  177MPD1     H 2752   0.550   2.150  10.584 -0.8850 -0.3148 -2.9844
  177MPD1    H1 2753   0.326   2.453  10.374 -1.2063  1.5842  2.3774
  177MPD1    H2 2754   0.700   2.546  10.539  0.8990 -1.5846  0.1746
  177MPD1    H3 2755   0.517   2.605  10.419  0.5890  0.6155  0.1945
  177MPD1     N 2756   0.316   2.192  10.468  0.5982 -0.4144  0.1910
  177MPD1    H5 2757   0.329   2.098  10.506  0.7508 -1.1550 -1.6992
  177MPD1    N1 2758   0.751   2.308  10.658 -0.1127 -0.2015 -0.0893
  177MPD1    H6 2759   0.740   2.225  10.715  1.1062  0.3911  1.0170
  177MPD1    H7 2760   0.790   2.387  10.709 -1.3941 -0.4964  1.3502
  178MPD1     C 2761   2.683   2.233  17.348 -0.4100 -0.3771  0.2504
  178MPD1    C1 2762   2.626   2.117  17.295  0.9089 -0.4942 -0.7287
  178MPD1    C2 2763   2.702   2.039  17.209 -0.3450 -0.2476  0.4852
  178MPD1    C3 2764   2.829   2.079  17.183 -0.0428 -0.6255 -1.0351
  178MPD1    C4 2765   2.878   2.196  17.225 -0.3940  0.2315  0.9048
  178MPD1    C5 2766   2.810   2.272  17.310  0.1550 -0.1283  0.1666
  178MPD1     H 2767   2.659   1.950  17.163 -1.4558  0.6473 -0.2079
  178MPD1    H1 2768   2.975   2.229  17.188 -0.0306 -0.8357  0.8914
  178MPD1    H2 2769   2.625   2.309  17.399  0.4444 -0.4529  1.3487
  178MPD1    H3 2770   2.831   2.376  17.331  1.8946  0.0792 -2.6594
  178MPD1     N 2771   2.925   2.002  17.112 -0.6720  0.5558  0.1693
  178MPD1    H5 2772   3.012   2.051  17.093 -0.8008  0.7365  0.0471
  178MPD1    N1 2773   2.486   2.098  17.295  0.1267 -0.3255 -0.0243
  178MPD1    H6 2774   2.441   2.142  17.375 -3.5941 -0.2085 -2.1973
  178MPD1    H7 2775   2.472   1.997  17.290  0.7461 -0.5036  1.7098
  179MPD1     C 2776   2.183   0.163  15.255  0.3371  0.5177 -0.2120
  179MPD1    C1 2777   2.303   0.175  15.330 -0.3263  0.5562 -0.1074
  179MPD1    C2 2778   2.312   0.114  15.460 -0.0534 -0.1953 -0.3617
  179MPD1    C3 2779   2.214   0.021  15.493 -0.0154  0.3463  0.1738
  179MPD1    C4 2780   2.101   0.005  15.415  0.0547  0.0143  0.3085
  179MPD1    C5 2781   2.088   0.084  15.307  0.8772  0.2477 -0.4298
  179MPD1     H 2782   2.393   0.141  15.527 -0.4204  0.6557 -0.2635
  179MPD1    H1 2783   2.011   4.692  15.445 -1.1184  1.0770 -1.3295
  179MPD1    H2 2784   2.162   0.220  15.165  1.1323  0.6667 -0.3076
  179MPD1    H3 2785   1.997   0.085  15.248  0.3754 -0.9629  0.3246
  179MPD1     N 2786   2.223   4.676  15.604  0.3047 -0.4463  0.1610
  179MPD1    H5 2787   2.158   4.599  15.616 -1.2576  0.7387 -0.5804
  179MPD1    N1 2788   2.393   0.271  15.293  0.2127 -0.2061 -0.2892
  179MPD1    H6 2789   2.484   0.250  15.333  0.9518  1.0894 -1.2745
  179MPD1    H7 2790   2.403   0.279  15.192 -3.5299 -3.2306 -0.8737
  180MPD1     C 2791   2.334   1.163  15.271 -0.0007 -0.2031  0.1162
  180MPD1    C1 2792   2.407   1.258  15.205  0.3768  0.6310 -0.5296
  180MPD1    C2 2793   2.361   1.303  15.080  0.4159  0.1221 -0.0857
  180MPD1    C3 2794   2.241   1.254  15.027 -0.3287 -0.6977  0.2896
  180MPD1    C4 2795   2.171   1.151  15.096 -0.4464 -0.4637  0.4863
  180MPD1    C5 2796   2.221   1.112  15.215  0.3572 -0.3240 -0.7640
  180MPD1     H 2797   2.419   1.375  15.024 -0.6502  1.8251  0.9936
  180MPD1    H1 2798   2.079   1.106  15.062  0.1244 -0.5138 -0.9967
  180MPD1    H2 2799   2.375   1.108  15.356 -1.7533 -0.5382  0.7497
  180MPD1    H3 2800   2.167   1.045  15.280 -2.2005  2.1145 -0.3636
  180MPD1     N 2801   2.197   1.320  14.910 -1.0964  0.3356 -1.0021
  180MPD1    H5 2802   2.260   1.393  14.880  0.8668 -0.1553  1.8187
  180MPD1    N1 2803   2.525   1.308  15.260 -0.8782  0.1402  0.5559
  180MPD1    H6 2804   2.504   1.330  15.357 -2.3298 -0.6368  0.4152
  180MPD1    H7 2805   2.558   1.394  15.216 -4.4009  1.2334  0.0504
  181MPD1     C 2806   2.909   3.551  10.143  0.4224  0.5231  0.4519
  181MPD1    C1 2807   2.966   3.536  10.015  0.7249 -0.3145  0.3763
  181MPD1    C2 2808   3.107   3.538  10.008 -0.1274 -0.6365  0.0117
  181MPD1    C3 2809   3.184   3.574  10.119 -0.2941 -0.2387  0.1217
  181MPD1    C4 2810   3.124   3.599  10.240  0.3388  0.6627  0.6441
  181MPD1    C5 2811   2.989   3.581  10.251  0.2410  0.0950 -0.1614
  181MPD1     H 2812   3.145   3.533   9.906 -1.1561  2.1580 -0.5201
  181MPD1    H1 2813   3.181   3.632  10.326  2.1266  0.7722 -0.5855
  181MPD1    H2 2814   2.801   3.549  10.157  0.3881  0.4466  0.1796
  181MPD1    H3 2815   2.938   3.592  10.346 -1.3479 -1.5223 -0.8298
  181MPD1     N 2816   3.327   3.569  10.110 -0.2046 -0.3663  0.8251
  181MPD1    H5 2817   3.383   3.600  10.190  1.5988 -0.8519 -0.2579
  181MPD1    N1 2818   2.897   3.492   9.897  0.1960 -0.1421  0.7600
  181MPD1    H6 2819   2.949   3.505   9.810 -0.1172  3.1168  1.0785
  181MPD1    H7 2820   2.799   3.519   9.893  0.4909  0.7901 -0.2454
  182MPD1     C 2821   0.474   1.465   0.923 -0.6824  0.3565 -0.0191
  182MPD1    C1 2822   0.396   1.362   0.884  0.5190  0.2613  0.3218
  182MPD1    C2 2823   0.261   1.384   0.900 -0.2528 -0.0348  0.3201
  182MPD1    C3 2824   0.199   1.502   0.937 -0.5040  0.2162 -0.0196
  182MPD1    C4 2825   0.286   1.603   0.960  0.6962  0.0793 -0.2169
  182MPD1    C5 2826   0.419   1.585   0.963  0.5238 -0.1163  0.7388
  182MPD1     H 2827   0.196   1.298   0.888 -0.8140  0.7615 -2.2506
  182MPD1    H1 2828   0.233   1.695   0.986 -0.8490 -0.7352 -0.4958
  182MPD1    H2 2829   0.581   1.455   0.940 -0.5595 -1.6355 -1.9620
  182MPD1    H3 2830   0.484   1.665   0.994 -1.3210  1.4372  0.6044
  182MPD1     N 2831   0.062   1.513   0.965  0.2311  0.3675 -0.0248
  182MPD1    H5 2832   0.039   1.600   1.011  0.7344  0.9592 -0.8836
  182MPD1    N1 2833   0.444   1.237   0.875 -0.3701 -0.3025  0.0125
  182MPD1    H6 2834   0.376   1.171   0.838 -0.4568  1.1873 -2.4986
  182MPD1    H7 2835   0.531   1.233   0.822 -1.9815  0.9571 -2.7304
  183MPD1     C 2836   4.292   2.921   9.112  0.3483  0.2391 -0.4891
  183MPD1    C1 2837   4.224   3.019   9.180  1.1560  0.1822 -0.1789
  183MPD1    C2 2838   4.291   3.137   9.214  0.0203 -0.1511  0.1865
  183MPD1    C3 2839   4.423   3.148   9.184  0.3482  0.2208  0.0499
  183MPD1    C4 2840   4.485   3.048   9.107 -0.1285  0.6966  0.0735
  183MPD1    C5 2841   4.417   2.941   9.070 -0.1585  0.4654 -0.1981
  183MPD1     H 2842   4.251   3.210   9.284 -1.6071 -0.7432 -0.1167
  183MPD1    H1 2843   4.584   3.041   9.063  0.1777  1.0742  0.6975
  183MPD1    H2 2844   4.241   2.826   9.096 -1.2098  1.0058  0.0022
  183MPD1    H3 2845   4.464   2.865   9.009 -2.2654 -1.0035  0.0197
  183MPD1     N 2846   4.500   3.249   9.254  0.1001 -0.0408 -0.3896
  183MPD1    H5 2847   4.446   3.303   9.320  1.9476 -0.4846  1.4760
  183MPD1    N1 2848   4.096   2.998   9.229 -0.3236 -0.0573  0.7477
  183MPD1    H6 2849   4.048   2.929   9.171 -0.5443  1.6170 -1.0596
  183MPD1    H7 2850   4.048   3.088   9.236  1.1236  1.0037 -3.2712
  184MPD1     C 2851   3.909   0.503  10.332  1.3193 -0.1819  0.1224
  184MPD1    C1 2852   3.989   0.583  10.417  0.0729  0.5517 -0.1524
  184MPD1    C2 2853   4.040   0.701  10.368  0.2987 -1.1154 -0.1389
  184MPD1    C3 2854   4.006   0.750  10.245  0.6542  0.0821  0.0340
  184MPD1    C4 2855   3.928   0.673  10.164 -0.0942  0.3050 -0.3419
  184MPD1    C5 2856   3.880   0.555  10.206 -0.8702  0.3603  0.4971
  184MPD1     H 2857   4.101   0.768  10.428 -0.0375  0.6435 -1.7552
  184MPD1    H1 2858   3.919   0.709  10.062 -0.3798  0.8492 -0.1253
  184MPD1    H2 2859   3.868   0.405  10.355  0.7743  0.3754  1.4923
  184MPD1    H3 2860   3.824   0.493  10.136  1.3386 -0.7482 -0.2660
  184MPD1     N 2861   4.044   0.878  10.203 -0.0548 -0.4606 -0.3830
  184MPD1    H5 2862   4.004   0.905  10.113 -0.9708 -3.3704 -0.8657
  184MPD1    N1 2863   4.058   0.516  10.520 -0.1785 -0.2088 -0.4312
  184MPD1    H6 2864   3.998   0.454  10.573  0.4382 -1.2592 -0.9614
  184MPD1    H7 2865   4.094   0.579  10.592  1.0499 -1.3640 -0.0212
  185MPD1     C 2866   4.241   1.016   9.376  0.7796  0.2034 -0.0252
  185MPD1    C1 2867   4.172   1.128   9.418  0.3350  0.0043 -0.3082
  185MPD1    C2 2868   4.163   1.152   9.549 -0.2732 -1.0242 -0.3096
  185MPD1    C3 2869   4.221   1.068   9.641 -0.1245 -0.1642 -0.3271
  185MPD1    C4 2870   4.283   0.951   9.598  0.3310 -0.0064  0.7654
  185MPD1    C5 2871   4.284   0.922   9.470  0.0804 -0.0916 -0.8557
  185MPD1     H 2872   4.110   1.241   9.582  0.4466 -0.0383 -1.8112
  185MPD1    H1 2873   4.328   0.883   9.669 -0.5480 -0.8449  0.5099
  185MPD1    H2 2874   4.248   1.002   9.268 -0.7597  0.8915 -0.2162
  185MPD1    H3 2875   4.331   0.825   9.453 -1.2946 -0.5645 -1.9628
  185MPD1     N 2876   4.212   1.090   9.783 -0.0791 -0.1917 -0.3031
  185MPD1    H5 2877   4.244   1.021   9.850 -3.0319 -1.2510  0.0462
  185MPD1    N1 2878   4.117   1.226   9.332  0.2979  0.5177  0.4899
  185MPD1    H6 2879   4.098   1.199   9.235  0.2266 -1.9147  1.1832
  185MPD1    H7 2880   4.035   1.272   9.369  0.0913 -0.2750  1.0312
  186MPD1     C 2881   3.061   4.698  15.662  0.8792 -0.6427 -0.3208
  186MPD1    C1 2882   3.004   4.657  15.778 -0.0611  0.1330  0.4606
  186MPD1    C2 2883   3.041   4.727  15.892 -0.2397 -0.0735 -0.3301
  186MPD1    C3 2884   3.150   0.073  15.893 -1.2550  0.2863 -0.8934
  186MPD1    C4 2885   3.224   0.085  15.775 -0.0152 -0.0586 -0.0427
  186MPD1    C5 2886   3.181   0.025  15.661  0.1700  0.4442  0.2241
  186MPD1     H 2887   2.982   4.716  15.982  2.4638 -0.1964  1.4465
  186MPD1    H1 2888   3.319   0.137  15.774  0.7133 -1.3854 -0.3588
  186MPD1    H2 2889   3.026   4.675  15.562  0.6157  0.4935 -0.4869
  186MPD1    H3 2890   3.245   0.029  15.574 -0.9635 -0.6127 -0.6626
  186MPD1     N 2891   3.190   0.138  16.011 -1.0283  0.6136 -0.5179
  186MPD1    H5 2892   3.274   0.194  16.002 -1.2760  0.5475 -3.1525
  186MPD1    N1 2893   2.880   4.594  15.773  0.5872  0.6594  0.0696
  186MPD1    H6 2894   2.851   4.547  15.688  0.2095  0.4198  0.3352
  186MPD1    H7 2895   2.849   4.531  15.846 -0.8353  0.1270 -1.0136
  187MPD1     C 2896   2.406   1.842   0.067 -0.0572  0.0131  0.0883
  187MPD1    C1 2897   2.459   1.914  17.718  0.5329  0.3653 -0.4585
  187MPD1    C2 2898   2.372   1.980  17.634 -0.1300 -0.0578  0.0446
  187MPD1    C3 2899   2.237   1.960  17.646  0.4478  0.0687  0.3946
  187MPD1    C4 2900   2.181   1.878  17.746 -0.1355 -0.1119 -0.6348
  187MPD1    C5 2901   2.270   1.815   0.069  0.2785 -0.3631 -0.1414
  187MPD1     H 2902   2.416   2.041  17.556 -2.4899  0.9854 -0.4537
  187MPD1    H1 2903   2.075   1.867   0.008  0.3514 -2.7269  0.5236
  187MPD1    H2 2904   2.473   1.789   0.134  1.7605  2.8998  0.5518
  187MPD1    H3 2905   2.226   1.761   0.152  0.2668  0.0351  0.1131
  187MPD1     N 2906   2.140   2.034  17.580 -0.2124 -0.1892  0.2660
  187MPD1    H5 2907   2.042   2.012  17.595  0.1101 -3.1501 -2.0273
  187MPD1    N1 2908   2.601   1.935  17.715  0.0461 -0.6608  0.6063
  187MPD1    H6 2909   2.645   1.844  17.726  2.3771  0.3455 -0.4630
  187MPD1    H7 2910   2.641   1.963  17.626  2.5228 -2.4626  1.1465
  188MPD1     C 2911   2.260   2.921  10.196  0.3373  0.7366 -0.0615
  188MPD1    C1 2912   2.293   2.868  10.072 -0.1337  0.4894  0.1662
  188MPD1    C2 2913   2.261   2.738  10.045 -0.5694 -0.2972  0.2125
  188MPD1    C3 2914   2.213   2.647  10.141 -0.7754 -0.0209 -0.7223
  188MPD1    C4 2915   2.183   2.707  10.267  0.0984  0.2057 -0.6976
  188MPD1    C5 2916   2.204   2.839  10.288  0.6225 -0.2127  0.0637
  188MPD1     H 2917   2.287   2.702   9.946  1.4145  0.5506  0.4248
  188MPD1    H1 2918   2.140   2.644  10.343  1.1705  1.8449  1.2771
  188MPD1    H2 2919   2.261   3.029  10.211  1.1037  0.5266  1.3369
  188MPD1    H3 2920   2.177   2.883  10.383  0.3671 -2.1119  0.8751
  188MPD1     N 2921   2.192   2.515  10.119 -0.3058  0.0840 -0.3400
  188MPD1    H5 2922   2.146   2.452  10.184 -1.2737 -0.8115 -1.8637
  188MPD1    N1 2923   2.320   2.953   9.966  0.3991  0.0395  0.2321
  188MPD1    H6 2924   2.370   2.905   9.891 -0.3107 -1.7132  0.8880
  188MPD1    H7 2925   2.357   3.044   9.993 -0.6916  0.7857 -0.8061
  189MPD1     C 2926   3.191   2.876   0.482  0.4344 -0.4204 -0.0418
  189MPD1    C1 2927   3.062   2.875   0.425  0.0170  0.2576 -0.4619
  189MPD1    C2 2928   3.031   2.970   0.333  1.2389  0.0566 -0.7700
  189MPD1    C3 2929   3.122   3.065   0.296 -0.6064 -0.8802 -0.1058
  189MPD1    C4 2930   3.245   3.074   0.360 -1.0675  0.6434  0.3459
  189MPD1    C5 2931   3.270   2.984   0.455  0.2069  0.0955 -0.5226
  189MPD1     H 2932   2.936   2.968   0.282  0.3687 -2.6679  0.9556
  189MPD1    H1 2933   3.314   3.153   0.332  0.5448 -0.3546  1.5210
  189MPD1    H2 2934   3.219   2.798   0.553 -1.5296  0.9185  2.1857
  189MPD1    H3 2935   3.366   2.993   0.505 -1.2231 -0.6801  2.3647
  189MPD1     N 2936   3.088   3.157   0.194  0.2159 -0.2737  0.9628
  189MPD1    H5 2937   2.998   3.148   0.149  0.9507  0.0436 -0.5873
  189MPD1    N1 2938   2.981   2.758   0.444 -0.2784 -0.1548  0.2328
  189MPD1    H6 2939   3.012   2.681   0.502 -2.5021 -2.0012 -1.0423
  189MPD1    H7 2940   2.881   2.772   0.436 -0.4062 -1.3828 -0.2378
  190MPD1     C 2941   2.267   1.710  15.591 -0.0207  0.2782 -0.2660
  190MPD1    C1 2942   2.309   1.675  15.716 -0.5271  0.7185  0.2466
  190MPD1    C2 2943   2.430   1.611  15.739  0.4157  0.1838 -0.6442
  190MPD1    C3 2944   2.515   1.591  15.637 -0.2929 -0.1307 -0.4760
  190MPD1    C4 2945   2.479   1.631  15.514 -0.5235 -0.0844  0.0358
  190MPD1    C5 2946   2.354   1.690  15.489  0.1811 -0.2949 -0.5376
  190MPD1     H 2947   2.459   1.589  15.841  1.3990 -0.1351 -0.9921
  190MPD1    H1 2948   2.547   1.619  15.431  0.4651  2.8614  0.4385
  190MPD1    H2 2949   2.169   1.758  15.587  0.5993  1.6067  0.4104
  190MPD1    H3 2950   2.325   1.709  15.386  0.1494 -0.6085 -0.5870
  190MPD1     N 2951   2.635   1.517  15.669 -0.0176 -0.1220 -0.2691
  190MPD1    H5 2952   2.650   1.500  15.768 -1.0336 -0.8536 -0.2484
  190MPD1    N1 2953   2.221   1.683  15.826 -0.3995  0.6917  0.1368
  190MPD1    H6 2954   2.152   1.758  15.814 -2.1146 -0.9429 -0.1906
  190MPD1    H7 2955   2.274   1.699  15.911 -0.6577  2.2749  0.0136
  191MPD1     C 2956   1.614   3.540  12.516 -0.2649 -0.2426  0.0463
  191MPD1    C1 2957   1.572   3.665  12.477  0.8194  0.4385 -0.6268
  191MPD1    C2 2958   1.652   3.758  12.419 -0.1534  0.1845 -0.6133
  191MPD1    C3 2959   1.784   3.717  12.405 -0.3775  0.3501 -0.0071
  191MPD1    C4 2960   1.831   3.604  12.463 -0.0717  0.5063 -0.0235
  191MPD1    C5 2961   1.751   3.510  12.517  0.0730 -0.3827 -0.3925
  191MPD1     H 2962   1.620   3.853  12.380  1.5934  0.3925 -1.5605
  191MPD1    H1 2963   1.937   3.585  12.472  0.5408  3.0703 -1.9590
  191MPD1    H2 2964   1.540   3.476  12.564 -0.9649  0.1207 -0.5453
  191MPD1    H3 2965   1.798   3.421  12.558 -0.5997 -1.3648 -1.7542
  191MPD1     N 2966   1.867   3.814  12.346 -0.0077  0.6395 -0.6335
  191MPD1    H5 2967   1.816   3.894  12.310  1.6543  1.4641 -1.1572
  191MPD1    N1 2968   1.435   3.688  12.486 -0.0274  0.0694  0.0853
  191MPD1    H6 2969   1.402   3.784  12.490 -0.1336 -0.0562  2.2750
  191MPD1    H7 2970   1.394   3.632  12.561  2.3619 -2.0576 -0.2095
  192MPD1     C 2971   1.936   4.069  11.415 -0.2148 -1.0224 -0.3861
  192MPD1    C1 2972   1.865   3.983  11.492 -0.0964 -0.1548  0.1844
  192MPD1    C2 2973   1.891   3.979  11.630 -1.0246  0.3342  0.4049
  192MPD1    C3 2974   1.988   4.053  11.681 -0.3728 -0.6448 -0.2296
  192MPD1    C4 2975   2.055   4.137  11.595 -0.7107 -0.7680  0.1059
  192MPD1    C5 2976   2.030   4.146  11.466  0.1976  0.1694  0.1379
  192MPD1     H 2977   1.839   3.907  11.692  2.2433 -1.6508  0.8288
  192MPD1    H1 2978   2.137   4.199  11.628 -0.2994 -1.3245  0.1306
  192MPD1    H2 2979   1.928   4.069  11.307 -1.8756  2.0797 -0.2475
  192MPD1    H3 2980   2.075   4.222  11.404  0.5694  0.1223  0.3477
  192MPD1     N 2981   2.022   4.052  11.818 -0.2294  0.5672 -0.1952
  192MPD1    H5 2982   2.095   4.121  11.832  0.2240 -0.2038  1.2540
  192MPD1    N1 2983   1.774   3.893  11.427 -0.7742  0.0304 -0.3464
  192MPD1    H6 2984   1.697   3.879  11.492  0.2897 -1.9251  0.5065
  192MPD1    H7 2985   1.741   3.930  11.338  0.5279  1.3295 -0.2871
  193MPD1     C 2986   1.718   3.198  16.409  0.2082 -0.0217 -0.2576
  193MPD1    C1 2987   1.785   3.136  16.516 -0.3587  0.6497  0.3386
  193MPD1    C2 2988   1.831   3.209  16.624  0.4733 -0.7204  0.3638
  193MPD1    C3 2989   1.790   3.342  16.633  0.1940 -0.0685  0.7893
  193MPD1    C4 2990   1.723   3.399  16.527 -0.8506 -0.1763 -0.4327
  193MPD1    C5 2991   1.686   3.330  16.417  0.4457  0.5360 -0.3282
  193MPD1     H 2992   1.903   3.161  16.689  1.1085  0.1910  0.3324
  193MPD1    H1 2993   1.687   3.502  16.526  0.2094  0.1999  0.7587
  193MPD1    H2 2994   1.678   3.143  16.325 -0.4337 -2.6524  1.7408
  193MPD1    H3 2995   1.642   3.382  16.333 -0.5522  0.7738  0.3531
  193MPD1     N 2996   1.828   3.424  16.740 -0.1435  0.0070  0.4042
  193MPD1    H5 2997   1.784   3.516  16.740 -2.2399 -0.9997 -0.5706
  193MPD1    N1 2998   1.827   3.002  16.493 -0.7702  0.2310  0.2489
  193MPD1    H6 2999   1.777   2.958  16.416  2.2297 -0.2861 -1.4045
  193MPD1    H7 3000   1.820   2.949  16.580 -0.7732 -0.5549 -0.2278
  194MPD1     C 3001   4.221   0.350  16.217 -0.1649  0.7348  0.5058
  194MPD1    C1 3002   4.191   0.430  16.326  1.2011  0.4401 -0.2076
  194MPD1    C2 3003   4.172   0.363  16.451 -0.3037  0.2003  0.4338
  194MPD1    C3 3004   4.189   0.223  16.463 -0.4004  0.4570 -0.0643
  194MPD1    C4 3005   4.240   0.159  16.351 -0.0292 -0.1671  0.0208
  194MPD1    C5 3006   4.244   0.222  16.229 -0.4720  0.8305  0.1519
  194MPD1     H 3007   4.152   0.417  16.543  1.3114  2.3669 -0.4817
  194MPD1    H1 3008   4.264   0.053  16.349 -1.9798 -0.6388  1.5143
  194MPD1    H2 3009   4.233   0.398  16.121  1.4078 -2.1750 -0.7588
  194MPD1    H3 3010   4.272   0.156  16.147 -0.4048  2.0188 -0.7731
  194MPD1     N 3011   4.187   0.147  16.579 -0.1474  0.4049  0.0908
  194MPD1    H5 3012   4.210   0.049  16.570  0.0881  0.1332  3.5516
  194MPD1    N1 3013   4.140   0.561  16.307 -0.4117 -0.4131 -0.0690
  194MPD1    H6 3014   4.152   0.621  16.389 -1.4975  0.2209 -0.3641
  194MPD1    H7 3015   4.152   0.604  16.216  0.5573  1.3627  0.8992
  195MPD1     C 3016   1.502   2.727   0.061  0.5986 -0.0505 -0.7991
  195MPD1    C1 3017   1.416   2.650  17.744 -0.5931  0.2249 -0.2036
  195MPD1    C2 3018   1.361   2.535   0.039  0.5856 -0.5748  0.4041
  195MPD1    C3 3019   1.402   2.498   0.167 -0.7749  0.5102 -0.6755
  195MPD1    C4 3020   1.486   2.577   0.242  0.0421  0.2350  0.6080
  195MPD1    C5 3021   1.536   2.687   0.186  0.2631 -0.7345 -0.3607
  195MPD1     H 3022   1.275   2.487  17.752  0.1155  0.0607  0.6215
  195MPD1    H1 3023   1.521   2.544   0.339 -0.8714 -0.7200  0.6194
  195MPD1    H2 3024   1.559   2.814   0.030 -0.3391  0.3698 -1.3467
  195MPD1    H3 3025   1.615   2.741   0.237  1.5933 -2.0503 -1.0386
  195MPD1     N 3026   1.353   2.380   0.228 -0.4015 -0.7802 -0.1716
  195MPD1    H5 3027   1.378   2.360   0.324 -0.7468  2.0379  0.5037
  195MPD1    N1 3028   1.373   2.702  17.622 -0.1768  0.2148  0.7756
  195MPD1    H6 3029   1.329   2.638  17.557  3.1428 -1.0885 -0.1718
  195MPD1    H7 3030   1.426   2.781  17.584 -0.5644 -1.8057 -3.9882
  196MPD1     C 3031   4.432   2.072   0.256  0.0419  0.4636 -0.0013
  196MPD1    C1 3032   4.544   2.054   0.180  0.5655 -0.4175 -0.0326
  196MPD1    C2 3033   4.658   2.013   0.245  0.3722 -0.6799 -0.7654
  196MPD1    C3 3034   4.668   2.007   0.381 -0.7292 -0.1685 -0.2062
  196MPD1    C4 3035   4.558   2.037   0.460 -0.0415 -0.7507  0.5363
  196MPD1    C5 3036   4.447   2.076   0.395 -0.4231  1.0748 -0.0516
  196MPD1     H 3037   0.004   1.996   0.181  0.0715 -1.0101 -1.0792
  196MPD1    H1 3038   4.547   2.021   0.567 -0.0356  2.2686  1.0098
  196MPD1    H2 3039   4.334   2.102   0.220 -0.8510 -1.5406  0.7618
  196MPD1    H3 3040   4.359   2.095   0.456 -0.0621 -0.4412  0.9489
  196MPD1     N 3041   0.044   1.967   0.456 -0.5590 -0.1757 -0.2852
  196MPD1    H5 3042   0.042   1.961   0.558  1.0911  1.0050 -0.1709
  196MPD1    N1 3043   4.525   2.033   0.047  0.5442  0.2039 -0.2444
  196MPD1    H6 3044   4.446   2.082   0.005 -0.5604 -2.4401 -1.2544
  196MPD1    H7 3045   4.605   2.051  17.745  1.3396  1.5033  1.2010
  197MPD1     C 3046   4.487   3.999  16.496  0.0851 -0.3726 -0.0973
  197MPD1    C1 3047   4.553   3.930  16.394  0.2522 -0.0232  0.3408
  197MPD1    C2 3048   4.694   3.919  16.411  0.2899  0.6656 -0.2376
  197MPD1    C3 3049   0.026   3.968  16.524  0.3053 -0.0844  0.2435
  197MPD1    C4 3050   4.691   4.023  16.623  0.7863 -0.4429  0.0234
  197MPD1    C5 3051   4.556   4.046  16.605 -0.4896  0.1352 -0.0314
  197MPD1     H 3052   4.737   3.846  16.343 -0.9494  0.0466 -0.3547
  197MPD1    H1 3053   0.000   4.068  16.709  2.5505 -1.2038 -0.6064
  197MPD1    H2 3054   4.384   4.030  16.483  0.0410 -1.1433 -1.4973
  197MPD1    H3 3055   4.497   4.105  16.674 -0.3434  0.8822 -0.5437
  197MPD1     N 3056   0.171   3.958  16.527 -0.7230  0.5958  0.2728
  197MPD1    H5 3057   0.223   3.986  16.609 -1.5064  5.4410 -0.8809
  197MPD1    N1 3058   4.486   3.902  16.277 -0.3466  0.5665 -0.1403
  197MPD1    H6 3059   4.532   3.820  16.238 -0.2719 -0.3113  1.8104
  197MPD1    H7 3060   4.386   3.888  16.291 -0.0939 -1.4293 -0.2712
  198MPD1     C 3061   2.128   2.782  15.318  0.4810  0.0320 -0.8604
  198MPD1    C1 3062   2.254   2.743  15.283 -0.7299 -0.1573  0.0243
  198MPD1    C2 3063   2.352   2.766  15.375  0.5584 -0.3385 -0.5075
  198MPD1    C3 3064   2.320   2.799  15.505  0.4766 -0.2548  0.2560
  198MPD1    C4 3065   2.190   2.816  15.545 -0.4892  1.0095 -0.2023
  198MPD1    C5 3066   2.089   2.803  15.450  0.2611  0.2303 -0.3176
  198MPD1     H 3067   2.459   2.762  15.359  0.6860  1.4576 -0.1756
  198MPD1    H1 3068   2.167   2.850  15.645 -2.1923  0.5230 -0.4394
  198MPD1    H2 3069   2.041   2.784  15.253 -0.1383 -0.5072 -0.0632
  198MPD1    H3 3070   1.986   2.812  15.484 -0.1267 -0.9160 -1.1897
  198MPD1     N 3071   2.428   2.806  15.597 -0.1482 -0.1753 -0.2355
  198MPD1    H5 3072   2.518   2.770  15.567  1.8396  3.7971  0.9619
  198MPD1    N1 3073   2.296   2.730  15.154  0.0901  0.8899  0.1124
  198MPD1    H6 3074   2.381   2.674  15.148  0.2938  1.0368  1.7554
  198MPD1    H7 3075   2.228   2.697  15.086 -1.1466  1.7039  0.9436
  199MPD1     C 3076   0.113   3.705   9.996 -0.1729  0.1932  0.1128
  199MPD1    C1 3077   0.106   3.843   9.992 -0.7070 -0.2012  0.2037
  199MPD1    C2 3078   4.737   3.904   9.935 -0.1961 -0.7403 -0.2871
  199MPD1    C3 3079   4.628   3.829   9.898  0.0279  0.1726  0.7165
  199MPD1    C4 3080   4.631   3.693   9.916  0.6309 -0.3786  0.4105
  199MPD1    C5 3081   0.005   3.630   9.963  0.6479  0.0549  0.4702
  199MPD1     H 3082   4.736   4.012   9.936  2.4100 -0.7332  1.8168
  199MPD1    H1 3083   4.542   3.636   9.891  1.2532 -1.1695 -0.0237
  199MPD1    H2 3084   0.207   3.657  10.020 -0.1153  0.6116  0.7217
  199MPD1    H3 3085   4.736   3.523   9.973  1.1263 -0.2672 -2.3569
  199MPD1     N 3086   4.498   3.881   9.859 -0.8197 -1.0405  0.3255
  199MPD1    H5 3087   4.435   3.814   9.815  1.6430 -2.5826 -0.8536
  199MPD1    N1 3088   0.219   3.920  10.020  0.2319  0.4545  0.3484
  199MPD1    H6 3089   0.184   4.008  10.056 -1.8286  0.0931 -0.8045
  199MPD1    H7 3090   0.273   3.869  10.090  0.4228  1.1987  0.7461
  200MPD1     C 3091   3.048   3.739  15.189 -0.0151 -0.0111  0.2769
  200MPD1    C1 3092   2.982   3.663  15.089 -0.8165  0.4068 -0.1957
  200MPD1    C2 3093   3.057   3.563  15.023  0.0704 -0.1068  0.6685
  200MPD1    C3 3094   3.183   3.516  15.066 -0.4933  0.1568 -0.3702
  200MPD1    C4 3095   3.245   3.597  15.166  0.0546  0.5959 -0.3527
  200MPD1    C5 3096   3.176   3.703  15.222  0.0788 -0.4468  0.5065
  200MPD1     H 3097   3.012   3.518  14.936  1.5503  0.1073 -0.2186
  200MPD1    H1 3098   3.348   3.575  15.192 -1.0822 -0.5823  3.2225
  200MPD1    H2 3099   3.017   3.838  15.220  1.7397  0.2534  1.1691
  200MPD1    H3 3100   3.225   3.763  15.298  2.0541 -0.2320 -0.9378
  200MPD1     N 3101   3.246   3.415  14.987 -0.9111  0.1449 -0.0079
  200MPD1    H5 3102   3.188   3.368  14.918 -0.3557  1.4529 -1.3924
  200MPD1    N1 3103   2.853   3.702  15.052  0.0431 -0.3178  0.2115
  200MPD1    H6 3104   2.805   3.629  14.999 -0.7385  0.5527 -0.2752
  200MPD1    H7 3105   2.794   3.735  15.128  0.5166 -2.1840  1.3827
  201MPD1     C 3106   0.588   2.568  13.760 -0.3186 -0.4628  0.1487
  201MPD1    C1 3107   0.569   2.438  13.739  0.1362  0.7798 -0.1586
  201MPD1    C2 3108   0.679   2.371  13.691 -0.1284  0.0787 -0.7661
  201MPD1    C3 3109   0.801   2.424  13.662  0.6978 -0.5728  0.1304
  201MPD1    C4 3110   0.815   2.561  13.671  0.4007 -0.4537  0.4447
  201MPD1    C5 3111   0.704   2.625  13.718 -0.1003 -0.3248  0.3999
  201MPD1     H 3112   0.667   2.264  13.685  0.0025  0.0754 -0.9888
  201MPD1    H1 3113   0.897   2.627  13.647 -0.2842  0.1459 -0.2301
  201MPD1    H2 3114   0.509   2.635  13.794 -1.3102 -1.3160 -0.4481
  201MPD1    H3 3115   0.707   2.734  13.723 -2.1643 -0.3568  2.1845
  201MPD1     N 3116   0.915   2.348  13.641  0.2045  0.7018  0.6912
  201MPD1    H5 3117   0.899   2.248  13.651 -1.0211  0.7806 -0.3894
  201MPD1    N1 3118   0.443   2.378  13.757 -0.0532  0.0896 -0.2495
  201MPD1    H6 3119   0.448   2.283  13.794 -2.2841  0.2380  0.4262
  201MPD1    H7 3120   0.386   2.436  13.817 -0.1945  0.8765 -1.1581
  202MPD1     C 3121   4.642   2.302   9.285  0.2117  0.6300  0.3745
  202MPD1    C1 3122   0.007   2.210   9.296  0.3087  0.7134  0.1155
  202MPD1    C2 3123   0.118   2.261   9.356  0.4093 -0.6743 -0.3445
  202MPD1    C3 3124   0.107   2.369   9.434  0.6190 -0.2436  0.4822
  202MPD1    C4 3125   4.738   2.458   9.430  0.3385 -0.1338  0.5141
  202MPD1    C5 3126   4.640   2.425   9.351 -0.2871  0.5172 -0.1463
  202MPD1     H 3127   0.208   2.204   9.338  1.2803  0.6233 -0.1028
  202MPD1    H1 3128   0.002   2.554   9.480 -0.4035  0.6675 -0.9401
  202MPD1    H2 3129   4.553   2.268   9.234  1.0719 -0.3506 -0.4721
  202MPD1    H3 3130   4.557   2.492   9.331  1.4986  2.3736 -1.3057
  202MPD1     N 3131   0.216   2.402   9.518 -0.1287 -0.2176  0.2352
  202MPD1    H5 3132   0.212   2.497   9.555 -1.8381 -1.4892  3.3399
  202MPD1    N1 3133   0.033   2.101   9.205 -0.2507 -0.3771  0.1815
  202MPD1    H6 3134   0.098   2.030   9.240 -0.2398 -0.7327 -0.5429
  202MPD1    H7 3135   4.692   2.047   9.176 -0.7074 -0.2010  1.1326
  203MPD1     C 3136   0.230   3.185  12.662 -0.1613 -0.0752  0.1745
  203MPD1    C1 3137   0.336   3.124  12.598  0.3523 -0.3704  0.1243
  203MPD1    C2 3138   0.394   3.016  12.670  0.6325 -0.3060 -0.3736
  203MPD1    C3 3139   0.337   2.956  12.779 -0.5365  1.1780  0.3161
  203MPD1    C4 3140   0.224   3.012  12.831  0.0769 -0.7496  0.3235
  203MPD1    C5 3141   0.180   3.131  12.772  0.9514  1.0069  0.1926
  203MPD1     H 3142   0.484   2.973  12.629  0.3987  0.9362 -2.2057
  203MPD1    H1 3143   0.161   2.968  12.908 -1.9253 -0.1107 -0.9502
  203MPD1    H2 3144   0.184   3.274  12.618  1.0373  0.1907 -0.5410
  203MPD1    H3 3145   0.097   3.182  12.819  0.6761  1.6435 -0.9868
  203MPD1     N 3146   0.389   2.832  12.830 -0.2880 -0.0419 -0.0166
  203MPD1    H5 3147   0.454   2.786  12.767 -0.4233  1.9898 -1.6164
  203MPD1    N1 3148   0.399   3.179  12.492 -0.7021 -0.4647 -0.2941
  203MPD1    H6 3149   0.436   3.110  12.428 -2.5387 -2.4150  0.7520
  203MPD1    H7 3150   0.342   3.242  12.436  2.3346  2.5934  0.0792
  204MPD1     C 3151   3.505   4.163  17.432  0.8862  0.2127 -0.4213
  204MPD1    C1 3152   3.617   4.131  17.368 -0.0913 -0.1985  0.0879
  204MPD1    C2 3153   3.689   4.021  17.405 -0.4944 -0.1584  0.0202
  204MPD1    C3 3154   3.646   3.945  17.510  0.7239  0.2643  0.5825
  204MPD1    C4 3155   3.541   3.988  17.584  0.2749 -0.3027 -0.5226
  204MPD1    C5 3156   3.474   4.096  17.547  1.1437  0.0910 -0.3000
  204MPD1     H 3157   3.769   3.989  17.338 -0.7600 -0.3573 -0.2026
  204MPD1    H1 3158   3.510   3.928  17.669  0.3378  3.2600  2.0197
  204MPD1    H2 3159   3.440   4.247  17.410 -0.4045 -0.4192  0.9792
  204MPD1    H3 3160   3.395   4.131  17.613  0.8008  0.6581 -1.0092
  204MPD1     N 3161   3.716   3.827  17.534  0.2390  0.4486 -0.1531
  204MPD1    H5 3162   3.787   3.817  17.462 -0.4050 -0.3497 -0.6717
  204MPD1    N1 3163   3.666   4.205  17.263 -0.3564  0.6988  0.1154
  204MPD1    H6 3164   3.584   4.247  17.219 -0.2477 -0.9451 -1.7021
  204MPD1    H7 3165   3.718   4.148  17.196 -0.2053  3.0494 -1.7396
  205MPD1     C 3166   2.956   2.229  17.658 -0.0514 -1.0109  0.3656
  205MPD1    C1 3167   3.010   2.351  17.614 -0.4381 -0.0224 -1.3328
  205MPD1    C2 3168   3.140   2.381  17.652  0.8985 -0.4297 -0.4734
  205MPD1    C3 3169   3.217   2.294  17.723  0.6280  0.9769 -0.0442
  205MPD1    C4 3170   3.165   2.170  17.758 -0.0987 -0.9626 -0.4863
  205MPD1    C5 3171   3.037   2.142  17.729  0.2528  0.2664 -0.2169
  205MPD1     H 3172   3.166   2.484  17.631  2.2409 -0.4667  0.9381
  205MPD1    H1 3173   3.222   2.098   0.056  1.1901 -0.6710 -1.4019
  205MPD1    H2 3174   2.851   2.204  17.654 -0.1646 -0.5557  0.4300
  205MPD1    H3 3175   2.991   2.046  17.749  1.0856 -0.4997 -1.9880
  205MPD1     N 3176   3.340   2.336   0.035 -0.0987 -0.1583  0.2592
  205MPD1    H5 3177   3.373   2.271   0.105  0.8358 -0.9213 -0.8772
  205MPD1    N1 3178   2.931   2.459  17.569  0.1687  0.6667  0.0749
  205MPD1    H6 3179   2.991   2.527  17.523 -0.1063  0.4414 -0.6222
  205MPD1    H7 3180   2.849   2.433  17.515  0.1244  1.1017 -0.0624
  206MPD1     C 3181   4.508   0.400  17.094  0.1046  0.5419  0.3621
  206MPD1    C1 3182   4.478   0.525  17.049  0.7126 -0.4334  0.5134
  206MPD1    C2 3183   4.465   0.550  16.913  0.1319  0.3337 -0.5010
  206MPD1    C3 3184   4.496   0.448  16.826  0.2088 -0.6128 -0.1272
  206MPD1    C4 3185   4.512   0.320  16.878  0.4016  0.4295 -0.3512
  206MPD1    C5 3186   4.510   0.293  17.010 -0.1894  0.2760 -0.0935
  206MPD1     H 3187   4.435   0.651  16.886  0.3294  0.0067 -1.9732
  206MPD1    H1 3188   4.528   0.236  16.811 -0.2630  1.0741 -1.3150
  206MPD1    H2 3189   4.515   0.382  17.201 -3.9708 -2.8777  0.0703
  206MPD1    H3 3190   4.536   0.193  17.043  3.7237  1.7442  1.2466
  206MPD1     N 3191   4.498   0.463  16.684  0.1680 -0.3806  0.1674
  206MPD1    H5 3192   4.511   0.377  16.632  0.8021  0.5942 -1.2863
  206MPD1    N1 3193   4.444   0.628  17.138  0.0897 -0.1717  0.2331
  206MPD1    H6 3194   4.465   0.719  17.098 -0.8520  0.7131  1.7696
  206MPD1    H7 3195   4.478   0.626  17.233  1.7860  0.0901 -0.3699
  207MPD1     C 3196   0.665   4.011   9.655  0.4734 -0.2441 -0.7792
  207MPD1    C1 3197   0.740   4.127   9.624 -0.5089 -0.4943  0.2858
  207MPD1    C2 3198   0.875   4.127   9.654  0.3094  0.1430  0.3419
  207MPD1    C3 3199   0.932   4.033   9.738 -0.0049  0.1435  0.1933
  207MPD1    C4 3200   0.862   3.917   9.760  0.3049  0.4148 -0.1724
  207MPD1    C5 3201   0.726   3.906   9.718  0.4102 -0.1150 -0.3482
  207MPD1     H 3202   0.930   4.214   9.620 -0.4412  0.4544 -0.0778
  207MPD1    H1 3203   0.907   3.830   9.804  0.0092  0.6475  0.5887
  207MPD1    H2 3204   0.562   3.999   9.622 -0.4280  1.9724  1.2571
  207MPD1    H3 3205   0.680   3.810   9.738  3.6459 -1.5387  0.2411
  207MPD1     N 3206   1.072   4.012   9.753  0.6515 -0.4063  0.0110
  207MPD1    H5 3207   1.105   3.939   9.816  1.9610 -0.4516 -0.7478
  207MPD1    N1 3208   0.689   4.237   9.548 -0.4125 -0.5586  0.3003
  207MPD1    H6 3209   0.751   4.318   9.558  1.8320 -2.0829 -1.3438
  207MPD1    H7 3210   0.595   4.270   9.572 -0.7252 -1.0298 -0.2878
  208MPD1     C 3211   3.077   1.173   0.170 -0.4712  0.3012 -0.0221
  208MPD1    C1 3212   3.210   1.140   0.171 -0.6552 -1.0005  0.2304
  208MPD1    C2 3213   3.291   1.209   0.266  0.1030  0.2445 -0.5404
  208MPD1    C3 3214   3.237   1.294   0.354 -0.0643  0.4540  0.4081
  208MPD1    C4 3215   3.098   1.316   0.363  0.1986  0.6084  0.3664
  208MPD1    C5 3216   3.022   1.254   0.268 -0.0271  0.0811  0.3247
  208MPD1     H 3217   3.397   1.190   0.279 -0.0546  0.1975  0.6284
  208MPD1    H1 3218   3.051   1.360   0.451 -0.9725  0.6358 -0.2762
  208MPD1    H2 3219   3.003   1.127   0.105  2.2346 -2.4409 -1.2329
  208MPD1    H3 3220   2.915   1.274   0.270 -0.1839 -0.4009 -3.4487
  208MPD1     N 3221   3.326   1.349   0.444  0.2065  0.4483  0.2682
  208MPD1    H5 3222   3.419   1.311   0.429 -0.0467  0.7246 -2.0198
  208MPD1    N1 3223   3.267   1.031   0.104 -0.7390 -0.4600  0.2923
  208MPD1    H6 3224   3.223   1.002   0.017  2.3939 -0.9202 -1.1414
  208MPD1    H7 3225   3.368   1.027   0.088 -1.5588 -3.5688 -3.8422
  209MPD1     C 3226   1.969   2.890  10.669  0.3911  0.1800  0.5452
  209MPD1    C1 3227   1.936   2.946  10.551 -0.0682 -0.0589  0.1938
  209MPD1    C2 3228   1.914   3.080  10.541 -0.0805  0.1301  0.1073
  209MPD1    C3 3229   1.935   3.161  10.651  0.3528  0.1477 -0.5045
  209MPD1    C4 3230   1.984   3.106  10.764  0.1748 -0.2677 -0.6641
  209MPD1    C5 3231   1.998   2.970  10.780 -0.4777 -0.3978  0.4669
  209MPD1     H 3232   1.895   3.117  10.440 -1.8971 -1.4447 -0.1293
  209MPD1    H1 3233   2.004   3.171  10.848  1.9961 -0.3841 -1.0139
  209MPD1    H2 3234   1.968   2.783  10.691 -0.2422 -0.9345 -4.8948
  209MPD1    H3 3235   2.037   2.922  10.869 -2.4372  1.0529  2.1021
  209MPD1     N 3236   1.906   3.298  10.633 -0.4476 -0.1672 -0.2319
  209MPD1    H5 3237   1.855   3.330  10.551  1.6215 -0.2443 -1.5219
  209MPD1    N1 3238   1.893   2.862  10.437  0.2171  0.2833 -0.1973
  209MPD1    H6 3239   1.927   2.765  10.440 -0.3579  0.0531 -1.0967
  209MPD1    H7 3240   1.911   2.900  10.344 -0.3784  2.1381  0.4487
  210MPD1     C 3241   2.210   4.088  11.182  0.5503 -0.4409 -0.2153
  210MPD1    C1 3242   2.149   4.142  11.068  0.2327 -0.6073  0.0997
  210MPD1    C2 3243   2.069   4.064  10.989 -0.3219  0.4994  0.2583
  210MPD1    C3 3244   2.055   3.932  11.016 -0.1853  0.0774  0.1187
  210MPD1    C4 3245   2.123   3.874  11.114 -0.5247  0.0639  0.1860
  210MPD1    C5 3246   2.196   3.954  11.197 -0.4103 -0.1627  0.3898
  210MPD1     H 3247   2.016   4.108  10.904 -1.8172  0.7948  1.3388
  210MPD1    H1 3248   2.115   3.768  11.134  1.3674 -0.3582 -1.3455
  210MPD1    H2 3249   2.255   4.161  11.248  1.0312 -0.6137 -0.3545
  210MPD1    H3 3250   2.241   3.905  11.282 -1.2661 -0.8583  0.4488
  210MPD1     N 3251   1.981   3.842  10.930  0.1527 -0.3179 -0.1396
  210MPD1    H5 3252   1.966   3.746  10.961 -1.6685 -0.8428 -2.6156
  210MPD1    N1 3253   2.161   4.282  11.053  0.4215  0.0568  0.0620
  210MPD1    H6 3254   2.180   4.315  10.958 -2.0802  0.4768 -0.2825
  210MPD1    H7 3255   2.242   4.326  11.097  1.5631 -2.0503  0.0585
  211MPD1     C 3256   0.328   2.613  17.354 -0.5381 -0.8312  0.6549
  211MPD1    C1 3257   0.291   2.635  17.223 -0.3205 -1.0451 -0.6734
  211MPD1    C2 3258   0.153   2.642  17.199 -0.0260  1.1008  0.5282
  211MPD1    C3 3259   0.058   2.617  17.293  0.5173  0.8257 -0.1728
  211MPD1    C4 3260   0.099   2.575  17.418 -0.2064  0.0969  0.5585
  211MPD1    C5 3261   0.233   2.581  17.449 -0.1444  0.2879  0.6088
  211MPD1     H 3262   0.129   2.685  17.102  1.0480 -3.2772 -1.6837
  211MPD1    H1 3263   0.028   2.567  17.500  0.6700 -1.0973  1.2114
  211MPD1    H2 3264   0.433   2.610  17.381 -0.3045  2.6640  0.0400
  211MPD1    H3 3265   0.262   2.561  17.552 -0.0143 -2.7187 -0.0122
  211MPD1     N 3266   4.663   2.608  17.249 -0.4114 -0.8584 -0.3352
  211MPD1    H5 3267   4.649   2.629  17.150 -0.1808 -0.1578 -0.2166
  211MPD1    N1 3268   0.385   2.679  17.126  0.2968 -0.0613  1.0505
  211MPD1    H6 3269   0.471   2.625  17.130  0.7655  0.7518  2.0467
  211MPD1    H7 3270   0.350   2.667  17.032  0.7833  1.1444  0.7078
  212MPD1     C 3271   3.946   1.115  16.528 -0.2326 -0.3772 -0.2361
  212MPD1    C1 3272   3.923   1.174  16.654 -0.0379 -0.1895 -0.0896
  212MPD1    C2 3273   3.823   1.125  16.739  0.0301  0.2961 -0.3709
  212MPD1    C3 3274   3.761   1.002  16.703  0.2115 -0.0892 -0.3211
  212MPD1    C4 3275   3.793   0.944  16.583  0.3835 -0.6592  0.5871
  212MPD1    C5 3276   3.882   1.000  16.499 -0.0916  0.2529  0.3684
  212MPD1     H 3277   3.811   1.175  16.835  1.0396 -0.4224  0.1379
  212MPD1    H1 3278   3.738   0.853  16.558 -0.6376  0.2564 -0.5080
  212MPD1    H2 3279   4.016   1.158  16.457  0.0401  1.4684  1.1570
  212MPD1    H3 3280   3.906   0.953  16.404  0.8927  0.2886  0.5977
  212MPD1     N 3281   3.670   0.927  16.789 -0.4116 -0.5161 -0.0515
  212MPD1    H5 3282   3.629   0.838  16.761 -1.9123  1.1094 -3.0061
  212MPD1    N1 3283   3.989   1.297  16.693 -0.4790  0.0303  0.2772
  212MPD1    H6 3284   4.010   1.291  16.793 -0.1175  2.8330  0.3773
  212MPD1    H7 3285   4.077   1.305  16.643 -1.2056 -1.9352 -1.2786
  213MPD1     C 3286   1.822   1.681  15.937 -0.1536 -0.5253 -0.1764
  213MPD1    C1 3287   1.762   1.559  15.904  0.3082  0.1230  0.2339
  213MPD1    C2 3288   1.691   1.564  15.777 -0.7603  0.3885  0.4062
  213MPD1    C3 3289   1.706   1.663  15.687  0.7577 -0.1683 -0.3992
  213MPD1    C4 3290   1.796   1.767  15.717 -0.2377 -0.3295  0.2250
  213MPD1    C5 3291   1.850   1.773  15.842  0.8346 -0.1984  0.4545
  213MPD1     H 3292   1.623   1.482  15.757 -0.4137  0.1300  0.2959
  213MPD1    H1 3293   1.820   1.843  15.645 -1.3149  0.2493  0.4821
  213MPD1    H2 3294   1.866   1.698  16.035 -2.2117 -1.4129  0.9070
  213MPD1    H3 3295   1.915   1.857  15.863  0.4232  0.4904 -0.9571
  213MPD1     N 3296   1.636   1.638  15.562  0.1778 -0.8304 -0.1304
  213MPD1    H5 3297   1.581   1.553  15.554  0.4099 -1.1788  1.9233
  213MPD1    N1 3298   1.720   1.474  16.016 -0.0195  0.1546 -0.1276
  213MPD1    H6 3299   1.798   1.468  16.081 -0.1175 -0.3242 -0.0576
  213MPD1    H7 3300   1.707   1.378  15.986  0.0757  0.3724 -0.8845
  214MPD1     C 3301   1.407   0.874  15.214  0.5464  0.5966 -0.3233
  214MPD1    C1 3302   1.372   0.952  15.111 -0.2410  0.3008  0.8202
  214MPD1    C2 3303   1.385   1.090  15.121 -0.3141  0.3053 -0.2726
  214MPD1    C3 3304   1.433   1.142  15.244 -0.6710 -0.3576 -0.2906
  214MPD1    C4 3305   1.478   1.053  15.345  0.2682  0.5174 -0.3656
  214MPD1    C5 3306   1.449   0.923  15.331  0.3878  0.3905  0.2366
  214MPD1     H 3307   1.335   1.150  15.046  0.1782  0.6673 -0.3047
  214MPD1    H1 3308   1.512   1.091  15.440  1.1150 -0.5054 -0.2607
  214MPD1    H2 3309   1.383   0.768  15.205  2.8817  0.1659 -1.3779
  214MPD1    H3 3310   1.473   0.844  15.401 -0.2432 -0.4043 -0.4395
  214MPD1     N 3311   1.435   1.280  15.274 -0.1126  0.2764 -0.7278
  214MPD1    H5 3312   1.478   1.302  15.363 -0.8423 -0.6293 -0.1478
  214MPD1    N1 3313   1.339   0.887  14.992 -0.1873 -0.4196  0.3050
  214MPD1    H6 3314   1.291   0.799  15.003  0.4004 -0.9618 -1.4538
  214MPD1    H7 3315   1.283   0.934  14.921 -1.1663  1.5810  2.3861
  215MPD1     C 3316   0.818   2.966  11.373 -0.5176 -0.7730  0.4573
  215MPD1    C1 3317   0.913   2.953  11.471 -0.8039  0.3767  0.4842
  215MPD1    C2 3318   1.032   3.015  11.452 -0.2961  0.1707 -0.3630
  215MPD1    C3 3319   1.068   3.070  11.330 -0.8255  0.1907 -0.4208
  215MPD1    C4 3320   0.973   3.081  11.235 -0.4417  0.7493  0.0141
  215MPD1    C5 3321   0.850   3.029  11.259 -0.0945 -0.5957 -0.1558
  215MPD1     H 3322   1.108   3.020  11.529 -1.0995  0.7358  0.3913
  215MPD1    H1 3323   0.998   3.129  11.141  2.7282 -0.7545  0.0810
  215MPD1    H2 3324   0.722   2.916  11.389  0.0010 -1.8166  0.3197
  215MPD1    H3 3325   0.780   3.028  11.176  0.4864 -2.9756 -0.6175
  215MPD1     N 3326   1.196   3.139  11.319  0.1762 -0.0463  0.7950
  215MPD1    H5 3327   1.259   3.134  11.398  1.4997  1.7878 -0.1304
  215MPD1    N1 3328   0.890   2.888  11.596  0.1879 -0.5442  0.6153
  215MPD1    H6 3329   0.802   2.911  11.642 -0.3682 -1.3297 -0.0825
  215MPD1    H7 3330   0.964   2.911  11.663  0.0855  1.5784  0.0005
  216MPD1     C 3331   3.797   0.803  17.261  0.6214 -0.4785  0.9063
  216MPD1    C1 3332   3.861   0.689  17.218  0.6037  0.2572 -0.0718
  216MPD1    C2 3333   3.808   0.571  17.262  0.5225 -0.2015 -0.6187
  216MPD1    C3 3334   3.686   0.569  17.331  0.4202 -0.4587  0.2176
  216MPD1    C4 3335   3.620   0.689  17.358 -1.1428  0.0619  0.5026
  216MPD1    C5 3336   3.674   0.801  17.325 -0.6335 -0.8768  0.0567
  216MPD1     H 3337   3.864   0.479  17.252  0.3226 -0.6256  2.3741
  216MPD1    H1 3338   3.517   0.685  17.393 -1.8886  2.0288 -1.4952
  216MPD1    H2 3339   3.839   0.903  17.256  1.1242 -0.7769 -0.8325
  216MPD1    H3 3340   3.616   0.891  17.344 -0.4474 -1.2807  2.6482
  216MPD1     N 3341   3.633   0.441  17.369 -0.7117  0.1228 -0.4559
  216MPD1    H5 3342   3.687   0.355  17.363 -2.3000 -0.8042 -1.3855
  216MPD1    N1 3343   3.984   0.701  17.152  0.0366  0.3638  0.4955
  216MPD1    H6 3344   4.003   0.616  17.100 -0.9434  0.0503  0.6567
  216MPD1    H7 3345   3.997   0.783  17.092  3.0130  0.6918  1.5923
  217MPD1     C 3346   4.689   1.563   9.370 -0.5479  0.3450  0.2529
  217MPD1    C1 3347   4.597   1.656   9.329  0.1596 -0.5577  0.6294
  217MPD1    C2 3348   4.589   1.775   9.395 -0.0508  0.1335  0.4129
  217MPD1    C3 3349   4.658   1.804   9.505  0.4035  0.2410  0.4702
  217MPD1    C4 3350   4.738   1.709   9.553 -0.2693  0.3669  0.2479
  217MPD1    C5 3351   0.017   1.598   9.480 -0.0159  0.0850 -0.0901
  217MPD1     H 3352   4.506   1.836   9.362  1.4709  2.2474  0.5301
  217MPD1    H1 3353   0.058   1.710   9.643 -0.3174 -1.0627  0.2995
  217MPD1    H2 3354   4.709   1.466   9.326  0.0210  0.1273  0.9937
  217MPD1    H3 3355   0.097   1.529   9.505  0.0495  0.1231 -0.1896
  217MPD1     N 3356   4.645   1.921   9.586  0.2278  0.1367  0.4832
  217MPD1    H5 3357   4.681   1.911   9.681 -0.3864  0.2816  0.7322
  217MPD1    N1 3358   4.529   1.642   9.208  0.1922  0.1139  0.4709
  217MPD1    H6 3359   4.510   1.545   9.186  1.8490 -0.1211  0.0699
  217MPD1    H7 3360   4.451   1.708   9.203 -0.7719 -0.9804  1.2196
  218MPD1     C 3361   2.024   2.921  13.174  0.1404 -0.0263  0.5705
  218MPD1    C1 3362   2.088   2.797  13.147  0.0160 -0.2513  0.0889
  218MPD1    C2 3363   2.061   2.743  13.021  0.0866 -0.0147 -0.4880
  218MPD1    C3 3364   1.996   2.814  12.926 -0.0209  0.0092  0.2729
  218MPD1    C4 3365   1.945   2.938  12.953  0.7045 -0.0031 -0.0926
  218MPD1    C5 3366   1.953   2.989  13.080 -0.4309 -0.5159  0.1859
  218MPD1     H 3367   2.102   2.646  12.992 -1.8200 -1.0744  0.3545
  218MPD1    H1 3368   1.893   3.000  12.881  3.6478 -2.2569 -4.1961
  218MPD1    H2 3369   2.015   2.961  13.274 -0.3137  2.2486 -0.3749
  218MPD1    H3 3370   1.903   3.080  13.113 -0.4179  0.4762 -2.4979
  218MPD1     N 3371   1.986   2.761  12.793 -0.5129  0.5971 -0.2493
  218MPD1    H5 3372   2.023   2.668  12.777 -1.5075  0.2246 -0.3540
  218MPD1    N1 3373   2.129   2.716  13.248 -0.3920 -0.4405 -0.1044
  218MPD1    H6 3374   2.204   2.657  13.214  1.3288  0.9571  1.3011
  218MPD1    H7 3375   2.178   2.759  13.325 -0.3299 -2.3523  0.9236
  219MPD1     C 3376   1.627   2.872  11.749 -0.3612  0.1436 -0.2738
  219MPD1    C1 3377   1.703   2.944  11.839 -0.2740 -0.3159  0.1546
  219MPD1    C2 3378   1.736   2.885  11.959  0.3590  0.3902  0.2321
  219MPD1    C3 3379   1.697   2.755  11.998  0.1244 -0.2147  0.3379
  219MPD1    C4 3380   1.642   2.680  11.895  0.2006 -0.0769  0.0651
  219MPD1    C5 3381   1.602   2.738  11.778  0.4908  1.0202  0.0030
  219MPD1     H 3382   1.792   2.955  12.020  1.7575 -0.8521  0.3750
  219MPD1    H1 3383   1.614   2.577  11.918 -0.2836 -0.3991 -1.9618
  219MPD1    H2 3384   1.583   2.907  11.656 -1.4667  1.5116  0.7579
  219MPD1    H3 3385   1.551   2.678  11.704 -0.1557  1.1492  0.3388
  219MPD1     N 3386   1.732   2.703  12.126 -0.1261  0.6995  0.4114
  219MPD1    H5 3387   1.726   2.603  12.140 -0.1329  0.5603 -0.5372
  219MPD1    N1 3388   1.722   3.082  11.832 -1.3168  0.5157  0.0549
  219MPD1    H6 3389   1.792   3.108  11.901 -0.6165  0.4467 -0.6276
  219MPD1    H7 3390   1.743   3.120  11.740  0.5203 -1.4369 -0.3285
  220MPD1     C 3391   1.694   4.386   9.831 -0.6385  0.6911 -0.4314
  220MPD1    C1 3392   1.770   4.349   9.946 -0.6032  0.1520 -0.0189
  220MPD1    C2 3393   1.715   4.275  10.050  0.2478 -0.3757  0.0373
  220MPD1    C3 3394   1.578   4.252  10.046 -0.5555 -0.5120 -0.1144
  220MPD1    C4 3395   1.502   4.300   9.941  0.5234 -0.0648 -0.9259
  220MPD1    C5 3396   1.562   4.356   9.831 -0.3576 -0.2495 -0.3095
  220MPD1     H 3397   1.776   4.225  10.124  1.6658 -0.7926 -1.4180
  220MPD1    H1 3398   1.398   4.277   9.921  0.0923  0.6017  0.5102
  220MPD1    H2 3399   1.734   4.433   9.741 -0.9525  0.6864 -0.5739
  220MPD1    H3 3400   1.497   4.397   9.755 -0.7374  0.3352  0.3254
  220MPD1     N 3401   1.520   4.168  10.145  0.7537  0.6675  0.0062
  220MPD1    H5 3402   1.579   4.130  10.218 -1.0858 -2.1758  0.0166
  220MPD1    N1 3403   1.912   4.354   9.939 -0.1924 -0.1918 -0.0095
  220MPD1    H6 3404   1.947   4.430   9.881  1.0677 -0.6332  0.1757
  220MPD1    H7 3405   1.957   4.355  10.031  0.7700  0.0351 -0.4817
  221MPD1     C 3406   3.603   1.706  16.701  1.0960  0.2824  0.2155
  221MPD1    C1 3407   3.700   1.614  16.717 -0.6914  0.2860 -0.1920
  221MPD1    C2 3408   3.834   1.652  16.713 -0.4370  0.1251 -0.6379
  221MPD1    C3 3409   3.868   1.785  16.711  0.1857 -0.3514 -0.6532
  221MPD1    C4 3410   3.770   1.885  16.699  0.4281  0.2192  0.5387
  221MPD1    C5 3411   3.640   1.837  16.687 -0.4314 -0.3330  0.1126
  221MPD1     H 3412   3.910   1.575  16.711 -0.0107  0.4660  2.1020
  221MPD1    H1 3413   3.784   1.992  16.691 -0.0108  0.3555  1.5753
  221MPD1    H2 3414   3.495   1.694  16.696  1.8007 -5.3520 -0.7066
  221MPD1    H3 3415   3.560   1.907  16.673  0.3466  0.8114  1.3836
  221MPD1     N 3416   3.997   1.821  16.706 -0.0858 -0.2653 -0.3387
  221MPD1    H5 3417   4.058   1.741  16.704  1.9472  1.2210  2.1014
  221MPD1    N1 3418   3.682   1.475  16.705  0.0148 -0.0871  0.4142
  221MPD1    H6 3419   3.761   1.412  16.715 -0.7509 -1.1570 -0.3065
  221MPD1    H7 3420   3.594   1.444  16.744 -0.1703 -1.2917 -0.9666
  222MPD1     C 3421   3.434   0.611   0.047 -0.6045  0.0136 -0.5582
  222MPD1    C1 3422   3.552   0.556   0.086  0.1290 -0.3833  0.0427
  222MPD1    C2 3423   3.612   0.600   0.206  0.3998 -0.3691 -0.1232
  222MPD1    C3 3424   3.540   0.671   0.295  0.0111 -0.8885  0.1709
  222MPD1    C4 3425   3.417   0.727   0.261  0.4792 -1.0890  0.2039
  222MPD1    C5 3426   3.370   0.694   0.138  0.1063 -0.2235 -1.1961
  222MPD1     H 3427   3.710   0.557   0.223  0.5323 -0.0403 -0.0674
  222MPD1    H1 3428   3.364   0.801   0.320  0.3271 -0.4898 -0.6892
  222MPD1    H2 3429   3.399   0.597  17.704  0.9121 -0.3732 -1.0202
  222MPD1    H3 3430   3.275   0.736   0.105 -0.3614  1.9049  2.9362
  222MPD1     N 3431   3.592   0.717   0.421  0.4789  0.0854  0.3201
  222MPD1    H5 3432   3.537   0.785   0.472 -2.2815 -0.4971 -1.9303
  222MPD1    N1 3433   3.633   0.479  17.749 -0.4545 -0.1238 -0.2221
  222MPD1    H6 3434   3.581   0.425  17.680 -0.4504 -1.4307  0.8104
  222MPD1    H7 3435   3.701   0.424   0.041 -1.2161 -1.1982 -0.3617
  223MPD1     C 3436   4.476   1.001   0.995  0.1034  1.2629  0.9573
  223MPD1    C1 3437   4.369   1.034   1.075 -0.2642 -0.0931  0.0776
  223MPD1    C2 3438   4.243   0.993   1.034 -0.1692 -0.4242  0.5015
  223MPD1    C3 3439   4.222   0.950   0.904  1.0250  0.3789 -1.3267
  223MPD1    C4 3440   4.329   0.929   0.818 -0.1763 -0.0531  0.0822
  223MPD1    C5 3441   4.456   0.954   0.865 -0.2243  0.0045  0.9452
  223MPD1     H 3442   4.165   1.005   1.108  1.1243 -0.5749  1.9119
  223MPD1    H1 3443   4.328   0.888   0.718  1.3270  1.1736 -0.4405
  223MPD1    H2 3444   4.578   1.018   1.028  0.2022  1.5179  0.5152
  223MPD1    H3 3445   4.547   0.956   0.806  0.3128  0.3466  1.8008
  223MPD1     N 3446   4.086   0.915   0.870  0.3351 -0.8688  0.3811
  223MPD1    H5 3447   4.008   0.930   0.934  0.5676 -1.5316  0.8107
  223MPD1    N1 3448   4.395   1.068   1.206  0.3301  0.2099 -0.0729
  223MPD1    H6 3449   4.479   1.127   1.210  1.3619 -1.1899 -0.9644
  223MPD1    H7 3450   4.319   1.118   1.252  1.4231  1.1028  0.7611
  224MPD1     C 3451   4.237   2.384   9.035 -0.1803 -0.0453 -0.5666
  224MPD1    C1 3452   4.354   2.461   9.021  0.4295  0.2085  0.3292
  224MPD1    C2 3453   4.389   2.558   9.113 -0.1778 -0.7324  0.2593
  224MPD1    C3 3454   4.312   2.573   9.225  0.6028  0.1181  0.7401
  224MPD1    C4 3455   4.200   2.497   9.247 -0.1912 -0.0300  0.1973
  224MPD1    C5 3456   4.161   2.406   9.150 -0.5043  0.1993  0.5344
  224MPD1     H 3457   4.476   2.618   9.093 -0.3838 -0.8880 -1.1063
  224MPD1    H1 3458   4.142   2.515   9.337 -1.9703 -2.1347 -0.5076
  224MPD1    H2 3459   4.193   2.315   8.965  0.3012 -0.1578 -0.7576
  224MPD1    H3 3460   4.070   2.351   9.168  0.0021 -0.0329  2.3384
  224MPD1     N 3461   4.338   2.675   9.315  0.5171 -1.0663  0.7121
  224MPD1    H5 3462   4.274   2.688   9.392 -0.1582  2.5192 -0.4726
  224MPD1    N1 3463   4.418   2.452   8.896  0.1001  0.0170  0.3830
  224MPD1    H6 3464   4.437   2.358   8.862  0.2619 -0.3545  1.5144
  224MPD1    H7 3465   4.508   2.499   8.893 -0.4806  1.0192 -1.1176
  225MPD1     C 3466   1.713   4.450  12.991 -0.9181 -0.5194  0.0193
  225MPD1    C1 3467   1.742   4.367  12.881 -0.4129 -0.0317  0.1102
  225MPD1    C2 3468   1.655   4.260  12.859 -0.1687 -0.4305  0.1954
  225MPD1    C3 3469   1.532   4.258  12.915  0.8384 -0.9090 -0.5323
  225MPD1    C4 3470   1.504   4.345  13.020  0.1176 -0.3188 -0.2076
  225MPD1    C5 3471   1.592   4.432  13.058  0.1020  0.2845 -0.7729
  225MPD1     H 3472   1.681   4.184  12.787  1.4697  0.4736 -0.1647
  225MPD1    H1 3473   1.411   4.344  13.076 -0.5559  0.4896 -1.3053
  225MPD1    H2 3474   1.783   4.529  13.015  1.8399 -3.7165  2.5193
  225MPD1    H3 3475   1.568   4.502  13.138  1.3637  1.1548 -1.1571
  225MPD1     N 3476   1.430   4.167  12.910  0.3203 -0.1452 -0.4559
  225MPD1    H5 3477   1.373   4.160  12.993  0.3574 -0.9253 -0.4940
  225MPD1    N1 3478   1.863   4.370  12.806  0.2026  0.2366 -0.0072
  225MPD1    H6 3479   1.925   4.449  12.820  2.4448 -1.5467  0.0518
  225MPD1    H7 3480   1.864   4.334  12.711 -0.8912 -0.7951  0.3576
  226MPD1     C 3481   3.923   0.290   9.105 -1.0345 -0.0004 -0.0913
  226MPD1    C1 3482   3.840   0.230   9.190  0.7359  0.6118 -0.0496
  226MPD1    C2 3483   3.888   0.116   9.246  0.2036 -0.3512  0.0923
  226MPD1    C3 3484   4.018   0.071   9.234  0.0745 -0.0547  0.4368
  226MPD1    C4 3485   4.100   0.140   9.153 -0.0249  0.0917 -0.3658
  226MPD1    C5 3486   4.051   0.247   9.082  0.3165  0.0382  0.6301
  226MPD1     H 3487   3.817   0.059   9.305 -0.8685  0.3576 -0.5174
  226MPD1    H1 3488   4.206   0.124   9.139 -0.0603  0.1959 -0.7716
  226MPD1    H2 3489   3.894   0.375   9.044 -2.0988 -0.0079  0.4052
  226MPD1    H3 3490   4.118   0.305   9.019 -3.0941  1.7636 -1.4251
  226MPD1     N 3491   4.067   4.699   9.299  0.4698 -0.4978 -0.0100
  226MPD1    H5 3492   4.009   4.646   9.363  0.4331 -1.7223 -1.0499
  226MPD1    N1 3493   3.706   0.272   9.210 -0.5452 -0.1704  0.0269
  226MPD1    H6 3494   3.690   0.365   9.172 -0.7478 -0.4140 -0.4742
  226MPD1    H7 3495   3.684   0.286   9.309 -0.8747  0.6454 -0.1616
  227MPD1     C 3496   3.519   4.090   9.513  0.4700  0.5777  0.9242
  227MPD1    C1 3497   3.528   4.227   9.532 -0.0144  0.3033 -0.7205
  227MPD1    C2 3498   3.658   4.283   9.533  0.2329  0.1743 -0.0790
  227MPD1    C3 3499   3.774   4.213   9.504  0.4813  0.6269  0.2990
  227MPD1    C4 3500   3.757   4.079   9.493 -0.3535 -0.5103  0.5557
  227MPD1    C5 3501   3.632   4.022   9.498  0.5892  0.2473 -0.0189
  227MPD1     H 3502   3.681   4.387   9.552  1.2287 -0.0319 -0.1400
  227MPD1    H1 3503   3.843   4.015   9.477 -0.7365 -1.1101  0.9168
  227MPD1    H2 3504   3.421   4.043   9.525 -0.0400  0.8915 -2.0792
  227MPD1    H3 3505   3.631   3.914   9.490  1.2821  0.2048  0.4334
  227MPD1     N 3506   3.893   4.282   9.504  0.3792 -0.1886  0.0603
  227MPD1    H5 3507   3.888   4.383   9.513  0.6214 -0.2038  0.3539
  227MPD1    N1 3508   3.420   4.298   9.585 -0.3489  0.9629 -0.0920
  227MPD1    H6 3509   3.447   4.392   9.559 -2.8083  1.8430  0.5734
  227MPD1    H7 3510   3.332   4.272   9.541  0.0263 -0.5458  0.0291
  228MPD1     C 3511   3.483   0.832  13.453  0.1650 -0.1683  0.8034
  228MPD1    C1 3512   3.475   0.940  13.370  0.3931 -0.2191 -0.0276
  228MPD1    C2 3513   3.349   0.970  13.316 -0.0683  0.0146 -0.7300
  228MPD1    C3 3514   3.243   0.884  13.317  0.1417 -0.4220 -0.3260
  228MPD1    C4 3515   3.264   0.769  13.393  0.5762 -0.1596 -0.0261
  228MPD1    C5 3516   3.373   0.751  13.469  0.6602  0.2465  0.0264
  228MPD1     H 3517   3.336   1.060  13.256 -2.3685  1.7344  2.3507
  228MPD1    H1 3518   3.192   0.688  13.394 -0.4706  0.8158  2.9565
  228MPD1    H2 3519   3.568   0.804  13.515 -0.0646 -1.3036  0.6059
  228MPD1    H3 3520   3.383   0.660  13.527 -1.4779 -1.0067 -1.5727
  228MPD1     N 3521   3.118   0.922  13.262 -0.0379 -0.4584 -0.3275
  228MPD1    H5 3522   3.098   1.018  13.236  0.7928 -0.6010 -1.4885
  228MPD1    N1 3523   3.584   1.031  13.354  0.1632  0.0339 -0.7712
  228MPD1    H6 3524   3.587   1.078  13.264  0.3768  1.4457 -0.0411
  228MPD1    H7 3525   3.577   1.103  13.426  0.1930 -1.5123  0.7678
  229MPD1     C 3526   2.770   0.347  14.861  0.4338  0.0106  0.5439
  229MPD1    C1 3527   2.740   0.229  14.793  0.3688 -0.6271 -0.4407
  229MPD1    C2 3528   2.813   0.116  14.825  0.0472  0.6639 -0.1214
  229MPD1    C3 3529   2.909   0.117  14.926  0.0613  0.2021 -0.4543
  229MPD1    C4 3530   2.930   0.238  14.985  0.6150  0.0383 -0.5862
  229MPD1    C5 3531   2.859   0.348  14.959  0.0736 -0.3860  0.2687
  229MPD1     H 3532   2.792   0.031  14.762  0.2425 -0.2817  1.0790
  229MPD1    H1 3533   3.000   0.251  15.067 -1.7564  0.4054  1.3752
  229MPD1    H2 3534   2.727   0.442  14.831 -0.6897 -1.3687 -2.2832
  229MPD1    H3 3535   2.866   0.445  15.007  0.7417  0.0472 -0.6921
  229MPD1     N 3536   2.979   0.010  14.972 -0.2604  0.8022 -0.9334
  229MPD1    H5 3537   3.066   0.028  15.020  0.4814 -2.8533 -0.8567
  229MPD1    N1 3538   2.669   0.237  14.671 -0.0379 -0.0020  0.0030
  229MPD1    H6 3539   2.594   0.306  14.678 -1.0169 -0.9522 -1.3465
  229MPD1    H7 3540   2.620   0.148  14.660  1.7618 -0.4117 -4.7403
  230MPD1     C 3541   3.318   4.318  15.760 -0.0689 -0.4576  0.0265
  230MPD1    C1 3542   3.299   4.212  15.673 -0.0136 -0.4698 -0.1304
  230MPD1    C2 3543   3.285   4.235  15.537 -0.0368  0.1626  0.0484
  230MPD1    C3 3544   3.306   4.364  15.483 -0.2026 -0.5438 -0.7035
  230MPD1    C4 3545   3.338   4.467  15.567 -0.2354  0.0240  0.0684
  230MPD1    C5 3546   3.336   4.439  15.707 -0.3231  0.1789  0.6082
  230MPD1     H 3547   3.264   4.148  15.476  5.3870 -2.0511  1.3434
  230MPD1    H1 3548   3.358   4.569  15.534 -0.4440 -0.8894 -2.8925
  230MPD1    H2 3549   3.331   4.317  15.868 -2.5514  1.9963  0.3443
  230MPD1    H3 3550   3.354   4.520  15.777 -3.2112 -0.9589  2.6437
  230MPD1     N 3551   3.291   4.376  15.343 -0.1444  0.3050  0.5856
  230MPD1    H5 3552   3.282   4.289  15.290 -1.2031  0.2845  0.8164
  230MPD1    N1 3553   3.321   4.079  15.727 -0.3282 -0.0096 -0.0944
  230MPD1    H6 3554   3.292   4.085  15.824 -2.1377  2.3415 -0.7598
  230MPD1    H7 3555   3.261   4.016  15.675 -0.4976  0.5135 -0.5404
  231MPD1     C 3556   0.773   1.818  15.300  0.4829 -0.0284 -0.1824
  231MPD1    C1 3557   0.747   1.829  15.167 -0.3847 -0.5120  0.3999
  231MPD1    C2 3558   0.832   1.920  15.096  0.4329  0.4484  0.6977
  231MPD1    C3 3559   0.920   2.001  15.155 -0.0609  0.2421  0.5932
  231MPD1    C4 3560   0.933   1.995  15.293  0.1634 -0.0963  0.0728
  231MPD1    C5 3561   0.863   1.900  15.360 -0.8144 -0.2995 -0.0564
  231MPD1     H 3562   0.834   1.909  14.988 -0.2544 -1.5688  0.8861
  231MPD1    H1 3563   1.000   2.062  15.344  0.1491  0.0894 -0.1508
  231MPD1    H2 3564   0.728   1.741  15.362  0.1917  0.6037  0.3838
  231MPD1    H3 3565   0.874   1.884  15.466 -1.0090  0.9207  0.1395
  231MPD1     N 3566   0.994   2.079  15.067 -0.0661 -0.1102  0.1069
  231MPD1    H5 3567   0.963   2.091  14.971  1.2202 -0.1673 -0.3157
  231MPD1    N1 3568   0.673   1.724  15.104  0.0323 -0.2170 -0.7113
  231MPD1    H6 3569   0.621   1.764  15.025  0.1282  1.0100 -0.1552
  231MPD1    H7 3570   0.607   1.688  15.173 -0.6150  2.3893  0.0328
  232MPD1     C 3571   2.558   4.295  17.724  0.2020 -0.3496 -0.7613
  232MPD1    C1 3572   2.509   4.426  17.723  0.1197 -0.0025  0.1489
  232MPD1    C2 3573   2.375   4.453  17.733  0.4958 -0.0213  0.0062
  232MPD1    C3 3574   2.278   4.353  17.751  0.1440 -0.3601 -0.5762
  232MPD1    C4 3575   2.328   4.225  17.750 -0.5951  0.3663  0.1487
  232MPD1    C5 3576   2.462   4.197  17.739 -0.1877  1.1185 -0.0281
  232MPD1     H 3577   2.346   4.557  17.735 -0.5093 -0.3234  1.1063
  232MPD1    H1 3578   2.273   4.133   0.011 -0.4130 -0.0228 -1.1477
  232MPD1    H2 3579   2.660   4.266  17.704  0.2284  0.4446 -1.7978
  232MPD1    H3 3580   2.499   4.096  17.735 -0.4816  1.0786 -2.2405
  232MPD1     N 3581   2.139   4.381  17.753 -0.0661  0.0865 -0.1091
  232MPD1    H5 3582   2.109   4.479  17.753 -0.3038  0.0160  0.5007
  232MPD1    N1 3583   2.593   4.532  17.693  0.4920  0.0999 -0.2166
  232MPD1    H6 3584   2.691   4.508  17.711  0.9248  0.6354 -1.8570
  232MPD1    H7 3585   2.561   4.619  17.736 -0.3269 -0.2240 -0.1729
  233MPD1     C 3586   4.567   2.550   2.338 -1.0163 -0.1617 -0.1600
  233MPD1    C1 3587   4.651   2.458   2.399  0.4797  0.4430 -0.3532
  233MPD1    C2 3588   4.702   2.356   2.318  0.8647  0.0343  0.6889
  233MPD1    C3 3589   4.669   2.341   2.187  0.3483  0.1394 -0.2117
  233MPD1    C4 3590   4.585   2.434   2.127  0.1786 -0.1893  0.5342
  233MPD1    C5 3591   4.525   2.530   2.205  0.2131  0.6536  0.1629
  233MPD1     H 3592   0.023   2.276   2.358  2.0741  0.8497  0.4929
  233MPD1    H1 3593   4.563   2.439   2.021 -3.9443  0.2836  1.4255
  233MPD1    H2 3594   4.531   2.641   2.385 -0.9439 -0.4660  0.4851
  233MPD1    H3 3595   4.456   2.593   2.150 -1.7206 -1.2438  0.4102
  233MPD1     N 3596   4.709   2.231   2.109  0.9215  0.0602  0.1393
  233MPD1    H5 3597   4.690   2.245   2.010 -1.2984 -0.7590  0.4431
  233MPD1    N1 3598   4.655   2.455   2.541 -1.3091 -0.2422 -0.1484
  233MPD1    H6 3599   4.638   2.546   2.584 -0.7726 -0.0083 -0.4323
  233MPD1    H7 3600   0.003   2.423   2.580 -1.3564  1.3306  1.2676
  234MPD1     C 3601   1.220   2.953  10.565  0.2890  0.4639  0.1405
  234MPD1    C1 3602   1.196   3.057  10.475  0.1437  0.4925  0.1266
  234MPD1    C2 3603   1.066   3.055  10.410 -0.6634  0.2473  0.3352
  234MPD1    C3 3604   0.977   2.954  10.427  0.5258  0.0975 -0.8037
  234MPD1    C4 3605   1.006   2.854  10.529  0.2470 -0.0344  0.2768
  234MPD1    C5 3606   1.127   2.853  10.599 -0.3402 -0.1889  0.3497
  234MPD1     H 3607   1.044   3.135  10.341  2.5187  0.1819 -0.7625
  234MPD1    H1 3608   0.932   2.776  10.542  0.4693 -0.5467 -1.5058
  234MPD1    H2 3609   1.316   2.949  10.614 -0.6508  0.2021  1.9664
  234MPD1    H3 3610   1.143   2.782  10.679  3.8057 -0.7494 -0.9900
  234MPD1     N 3611   0.867   2.952  10.335 -0.4147 -0.1044  0.4890
  234MPD1    H5 3612   0.866   3.019  10.259 -1.2945  0.1891  0.7671
  234MPD1    N1 3613   1.272   3.178  10.472  0.1171 -0.2197 -0.1344
  234MPD1    H6 3614   1.369   3.167  10.502  0.9582  2.4993 -1.8690
  234MPD1    H7 3615   1.279   3.210  10.376 -1.7376 -1.1645 -0.5826
  235MPD1     C 3616   1.244   4.514  10.238 -0.2311 -0.1202  0.5727
  235MPD1    C1 3617   1.269   4.582  10.120 -0.1492  0.3432 -0.2501
  235MPD1    C2 3618   1.402   4.594  10.092 -0.1999  0.8089 -0.0553
  235MPD1    C3 3619   1.508   4.569  10.177 -0.0810  0.0138  0.4971
  235MPD1    C4 3620   1.481   4.508  10.299 -0.1903  0.2772 -1.3062
  235MPD1    C5 3621   1.346   4.487  10.321  0.2424 -1.1226 -0.0391
  235MPD1     H 3622   1.433   4.634   9.996  1.6818  0.7975  0.5392
  235MPD1    H1 3623   1.552   4.485  10.378 -1.1987  1.9630  0.0877
  235MPD1    H2 3624   1.145   4.502  10.281 -1.3482 -1.8086 -2.4827
  235MPD1    H3 3625   1.319   4.438  10.414 -3.0785 -0.1864 -0.4920
  235MPD1     N 3626   1.635   4.616  10.145  0.2118 -0.3039 -0.2865
  235MPD1    H5 3627   1.649   4.662  10.055 -0.0426  0.8339  0.2503
  235MPD1    N1 3628   1.162   4.601  10.031 -0.0001  1.2241  0.2071
  235MPD1    H6 3629   1.073   4.612  10.078  0.0444  0.2377  0.5114
  235MPD1    H7 3630   1.172   4.675   9.961  1.5337  1.1484  0.3608
  236MPD1     C 3631   0.539   1.088   9.975 -0.8797  0.3540 -0.4009
  236MPD1    C1 3632   0.619   0.976   9.972 -0.0861 -1.0187 -0.2367
  236MPD1    C2 3633   0.730   0.978  10.058  0.0722  0.1238 -0.1883
  236MPD1    C3 3634   0.743   1.068  10.162 -0.7616 -0.1569  0.1202
  236MPD1    C4 3635   0.649   1.170  10.173 -0.7571  0.1937  0.0148
  236MPD1    C5 3636   0.546   1.174  10.077  0.6322 -0.3284  0.0506
  236MPD1     H 3637   0.806   0.902  10.050  1.0844  1.4258 -2.8062
  236MPD1    H1 3638   0.663   1.249  10.245 -0.6985  0.0123  0.2020
  236MPD1    H2 3639   0.470   1.103   9.893 -1.3776  0.7723  0.0941
  236MPD1    H3 3640   0.475   1.256  10.077 -0.0015 -0.8552  2.3215
  236MPD1     N 3641   0.854   1.057  10.254  0.2582 -0.0470 -0.0829
  236MPD1    H5 3642   0.860   1.128  10.327  0.2010 -1.4665  1.3111
  236MPD1    N1 3643   0.624   0.895   9.857 -0.1027  0.0833 -0.4749
  236MPD1    H6 3644   0.662   0.804   9.880 -2.4853 -1.2320 -1.7758
  236MPD1    H7 3645   0.531   0.883   9.818 -0.1976 -1.1771  0.1428
  237MPD1     C 3646   1.340   2.971  15.498  0.0245 -1.0823  0.0126
  237MPD1    C1 3647   1.250   2.932  15.593  0.5404 -0.0698  0.0057
  237MPD1    C2 3648   1.121   2.946  15.553 -0.3865 -0.2232  0.0691
  237MPD1    C3 3649   1.084   2.992  15.428  0.7371 -0.2883  0.1047
  237MPD1    C4 3650   1.177   3.029  15.338 -0.2516  0.0324  0.4413
  237MPD1    C5 3651   1.307   3.011  15.369 -0.1019  1.2057  0.3700
  237MPD1     H 3652   1.049   2.925  15.631 -1.8105 -0.1239 -1.2282
  237MPD1    H1 3653   1.144   3.068  15.242 -1.3775  2.8672  1.9861
  237MPD1    H2 3654   1.447   2.986  15.513 -0.0439 -1.1215  0.5268
  237MPD1    H3 3655   1.382   3.049  15.301 -0.2039 -0.7988 -0.8593
  237MPD1     N 3656   0.950   3.035  15.400  0.5769 -0.4050 -0.7186
  237MPD1    H5 3657   0.939   3.081  15.310  0.0316  0.9094  0.0236
  237MPD1    N1 3658   1.284   2.904  15.726  0.1177  0.3299  0.7183
  237MPD1    H6 3659   1.382   2.882  15.745  0.1154 -1.2859 -1.2200
  237MPD1    H7 3660   1.229   2.838  15.781  0.3486 -0.1142  0.4148
  238MPD1     C 3661   3.065   1.316  15.174  0.6937  0.3814  0.0402
  238MPD1    C1 3662   3.118   1.404  15.076 -0.2557 -0.6779  0.0790
  238MPD1    C2 3663   3.027   1.469  14.993  0.1258 -0.0687  0.2755
  238MPD1    C3 3664   2.886   1.461  15.014  0.3737  0.6675  0.2079
  238MPD1    C4 3665   2.841   1.371  15.108  0.0030 -0.6378  0.4575
  238MPD1    C5 3666   2.926   1.302  15.186 -0.3052 -0.0386  0.8710
  238MPD1     H 3667   3.067   1.524  14.908 -0.5419 -0.2687 -0.1765
  238MPD1    H1 3668   2.739   1.342  15.131 -0.7085  2.7601  1.5640
  238MPD1    H2 3669   3.130   1.258  15.239 -0.2833  0.1988  0.8558
  238MPD1    H3 3670   2.879   1.227  15.249 -0.3936 -0.5952  0.1424
  238MPD1     N 3671   2.791   1.539  14.937  0.1029 -0.3342 -0.1559
  238MPD1    H5 3672   2.691   1.527  14.948  0.0504  0.2927  0.0297
  238MPD1    N1 3673   3.255   1.398  15.044  0.3734 -1.2251 -0.8973
  238MPD1    H6 3674   3.283   1.492  15.015  0.5701 -0.9452  0.1963
  238MPD1    H7 3675   3.304   1.370  15.129  1.2384  1.7690 -0.3793
  239MPD1     C 3676   2.900   2.584  14.729  0.5090  0.2190 -0.2608
  239MPD1    C1 3677   2.951   2.633  14.615 -0.0131  0.7700  0.0665
  239MPD1    C2 3678   2.882   2.726  14.531 -0.2247 -0.3468  0.4187
  239MPD1    C3 3679   2.761   2.783  14.576  0.3735 -0.5151 -0.2997
  239MPD1    C4 3680   2.712   2.731  14.699 -0.2569  0.2829  0.2434
  239MPD1    C5 3681   2.783   2.640  14.776  0.7594  0.2229  0.1544
  239MPD1     H 3682   2.919   2.748  14.431  2.9137 -5.4671  0.4538
  239MPD1    H1 3683   2.622   2.776  14.738 -0.2798  0.9037 -0.5187
  239MPD1    H2 3684   2.955   2.511  14.788  0.9445  1.5969  1.0522
  239MPD1    H3 3685   2.746   2.612  14.874 -0.3449 -1.2463 -0.6761
  239MPD1     N 3686   2.677   2.868  14.498  0.3371 -0.7879  0.5360
  239MPD1    H5 3687   2.586   2.892  14.535 -0.2862  3.7395 -3.8869
  239MPD1    N1 3688   3.075   2.587  14.567  0.3457 -0.1811  0.0785
  239MPD1    H6 3689   3.115   2.647  14.496 -0.1288  2.1140  1.7223
  239MPD1    H7 3690   3.142   2.584  14.643  1.4993 -0.3335 -0.9548
  240MPD1     C 3691   2.753   2.310  13.682  0.1702  0.3981  0.2930
  240MPD1    C1 3692   2.812   2.305  13.806 -0.4729  0.0709  0.0208
  240MPD1    C2 3693   2.736   2.273  13.915 -0.0837 -0.0853  0.1879
  240MPD1    C3 3694   2.600   2.244  13.904  0.2080 -0.6546  0.0341
  240MPD1    C4 3695   2.542   2.267  13.782 -0.2809 -0.3637 -0.0495
  240MPD1    C5 3696   2.617   2.311  13.676 -0.1863 -0.8058  0.1625
  240MPD1     H 3697   2.786   2.279  14.011  1.3184 -0.8524 -0.4923
  240MPD1    H1 3698   2.437   2.252  13.758 -0.0064 -2.5394  0.1241
  240MPD1    H2 3699   2.816   2.315  13.593  1.2168 -0.0322  1.0129
  240MPD1    H3 3700   2.571   2.314  13.578  0.3537 -2.6099 -0.1492
  240MPD1     N 3701   2.534   2.210  14.023  0.0570 -0.0526 -0.0833
  240MPD1    H5 3702   2.594   2.216  14.104 -1.0246  1.4288  0.6117
  240MPD1    N1 3703   2.950   2.311  13.819  0.5019  0.3115 -0.0207
  240MPD1    H6 3704   2.977   2.352  13.909 -0.1651 -1.2227  0.8775
  240MPD1    H7 3705   3.000   2.357  13.743  2.5825  1.6744  2.1575
  241MPD1     C 3706   2.812   2.091  14.834 -0.5490  0.2210  0.8717
  241MPD1    C1 3707   2.677   2.053  14.847  0.3490  0.5485  0.4288
  241MPD1    C2 3708   2.584   2.088  14.753  0.2598 -0.3711  0.3008
  241MPD1    C3 3709   2.619   2.155  14.639  0.1778  0.4430  0.4455
  241MPD1    C4 3710   2.756   2.194  14.626 -0.4106 -0.1039 -0.2271
  241MPD1    C5 3711   2.847   2.174  14.729  0.2575 -0.4043  0.1737
  241MPD1     H 3712   2.480   2.073  14.779  0.3139 -1.5855 -0.1289
  241MPD1    H1 3713   2.774   2.265  14.546 -0.1355  0.7800  0.6194
  241MPD1    H2 3714   2.893   2.063  14.901  0.0633  0.1931  0.1191
  241MPD1    H3 3715   2.949   2.205  14.713  1.0433 -2.6692  0.8051
  241MPD1     N 3716   2.538   2.182  14.526 -0.5052 -0.6468  0.1127
  241MPD1    H5 3717   2.583   2.230  14.449  0.3650 -2.5295 -0.5344
  241MPD1    N1 3718   2.641   1.988  14.963 -0.8749  0.3429 -0.3771
  241MPD1    H6 3719   2.730   1.953  14.999 -0.8908  0.8844  0.1811
  241MPD1    H7 3720   2.602   1.896  14.945  2.6677 -0.9559 -1.4019
  242MPD1     C 3721   2.177   1.099  15.690 -0.6313 -0.3797 -0.6226
  242MPD1    C1 3722   2.305   1.130  15.653  0.7131 -0.5106 -0.3456
  242MPD1    C2 3723   2.386   1.033  15.604 -0.4390  0.0798 -0.8027
  242MPD1    C3 3724   2.326   0.913  15.570  0.6595  0.1343 -0.4176
  242MPD1    C4 3725   2.200   0.879  15.611  0.5744  0.6935 -0.0285
  242MPD1    C5 3726   2.132   0.969  15.687 -0.2121 -0.8832 -0.0542
  242MPD1     H 3727   2.489   1.056  15.577 -0.6911  1.2064 -0.8009
  242MPD1    H1 3728   2.164   0.777  15.604 -3.2786  1.9508  1.3014
  242MPD1    H2 3729   2.104   1.168  15.731 -1.1140 -1.3199  0.1078
  242MPD1    H3 3730   2.039   0.949  15.738  0.0772 -0.6817  0.5449
  242MPD1     N 3731   2.397   0.814  15.507  0.5506 -0.2888 -0.7934
  242MPD1    H5 3732   2.343   0.737  15.471 -2.2760  1.9344 -1.3632
  242MPD1    N1 3733   2.346   1.254  15.689  0.0139  0.0463 -0.3379
  242MPD1    H6 3734   2.422   1.292  15.634 -1.1852 -1.2745 -2.9119
  242MPD1    H7 3735   2.265   1.315  15.694  0.3610  0.5605 -0.9365
  243MPD1     C 3736   2.938   4.295  17.561 -0.1590  0.0572 -0.0377
  243MPD1    C1 3737   3.067   4.326  17.529  0.2220 -0.1655 -0.7579
  243MPD1    C2 3738   3.131   4.225  17.467 -0.3008 -0.2054 -0.4095
  243MPD1    C3 3739   3.080   4.095  17.462 -0.5442  0.5454 -0.6067
  243MPD1    C4 3740   2.951   4.068  17.506 -0.0875  0.3833  0.2577
  243MPD1    C5 3741   2.875   4.169  17.551  0.8426 -0.2779  0.2498
  243MPD1     H 3742   3.232   4.251  17.436 -0.8720  2.0725 -0.3527
  243MPD1    H1 3743   2.908   3.968  17.502  1.1753 -0.1303 -0.4325
  243MPD1    H2 3744   2.882   4.373  17.611 -2.7380 -1.1146 -1.0940
  243MPD1    H3 3745   2.770   4.151  17.572  0.6600 -0.3273 -0.6768
  243MPD1     N 3746   3.169   3.998  17.411  0.1667 -0.6640 -0.1651
  243MPD1    H5 3747   3.261   4.020  17.375 -1.5221  3.3075 -2.0795
  243MPD1    N1 3748   3.113   4.458  17.528  0.0300 -0.2291 -0.2574
  243MPD1    H6 3749   3.054   4.503  17.598  0.1556  1.4001 -1.2193
  243MPD1    H7 3750   3.212   4.462  17.551  0.3398 -1.2632 -1.3913
  244MPD1     C 3751   3.580   2.997  17.622 -0.1008  0.7682  0.4208
  244MPD1    C1 3752   3.606   3.030  17.495 -0.0759  0.5868 -0.0281
  244MPD1    C2 3753   3.571   3.148  17.440 -0.0899 -0.0883 -0.3741
  244MPD1    C3 3754   3.499   3.238  17.525 -0.6618  0.4683 -0.8035
  244MPD1    C4 3755   3.473   3.209  17.654 -0.3964  0.6223  0.1726
  244MPD1    C5 3756   3.504   3.085  17.696 -0.1367  0.3365  0.2533
  244MPD1     H 3757   3.570   3.167  17.333 -0.3254  0.9513 -0.1901
  244MPD1    H1 3758   3.421   3.275  17.721 -0.2345 -0.7365  1.6338
  244MPD1    H2 3759   3.594   2.900  17.669  0.4584  1.7947  2.3657
  244MPD1    H3 3760   3.494   3.062   0.043 -0.7497 -0.2105  0.0698
  244MPD1     N 3761   3.473   3.364  17.467  0.3639  0.3984  0.2853
  244MPD1    H5 3762   3.513   3.372  17.374  1.1606  0.7308  0.6487
  244MPD1    N1 3763   3.649   2.929  17.406  0.3105  0.2821 -0.8331
  244MPD1    H6 3764   3.705   2.968  17.329  1.9199 -1.0277 -0.3274
  244MPD1    H7 3765   3.715   2.865  17.450  0.3662  0.0240 -1.2902
  245MPD1     C 3766   0.880   4.462  12.932 -0.3010  0.0498 -0.9837
  245MPD1    C1 3767   1.003   4.458  12.986  0.2307 -0.9935  0.3000
  245MPD1    C2 3768   1.029   4.558  13.078  0.6920  0.9262 -0.3548
  245MPD1    C3 3769   0.938   4.663  13.107  0.1103  0.6020 -0.5620
  245MPD1    C4 3770   0.812   4.648  13.059 -0.4281 -0.5077  0.4716
  245MPD1    C5 3771   0.783   4.546  12.975  0.0765  0.2762  0.2838
  245MPD1     H 3772   1.133   4.569  13.106  0.3039  0.9281  1.0945
  245MPD1    H1 3773   0.726   4.697  13.102 -0.9319 -0.2370 -0.8616
  245MPD1    H2 3774   0.853   4.382  12.863 -2.2184 -0.4468  0.3409
  245MPD1    H3 3775   0.681   4.527  12.942  0.0117 -0.4266  0.8647
  245MPD1     N 3776   0.977   0.025  13.197 -0.4383  0.2509 -0.1307
  245MPD1    H5 3777   1.062   0.020  13.253 -1.0353  0.5829  0.7922
  245MPD1    N1 3778   1.103   4.368  12.939 -0.1022  0.1141 -0.3285
  245MPD1    H6 3779   1.054   4.284  12.910  1.2918 -1.8033  2.8618
  245MPD1    H7 3780   1.182   4.353  13.002 -0.1001 -0.6424 -0.5171
  246MPD1     C 3781   0.532   0.147  10.291  0.4880 -0.0320 -0.6342
  246MPD1    C1 3782   0.638   0.233  10.263 -0.2346 -0.0779 -0.5985
  246MPD1    C2 3783   0.765   0.211  10.314  0.0189 -0.8540 -0.5742
  246MPD1    C3 3784   0.794   0.098  10.385 -0.0611  0.2511 -0.2014
  246MPD1    C4 3785   0.691   0.013  10.409  0.6828  1.1902 -0.5003
  246MPD1    C5 3786   0.566   0.036  10.360 -0.1062  0.3571 -0.4333
  246MPD1     H 3787   0.840   0.283  10.282 -1.3739  1.6122  1.7053
  246MPD1    H1 3788   0.703   4.671  10.478  3.3024  1.3728 -0.7283
  246MPD1    H2 3789   0.431   0.152  10.251 -0.4944  0.9011  1.9884
  246MPD1    H3 3790   0.492   4.699  10.377  0.2958  0.2651  0.8995
  246MPD1     N 3791   0.927   0.077  10.430 -0.2281  0.4909  0.1117
  246MPD1    H5 3792   0.995   0.149  10.407  2.1328 -1.5964  0.6471
  246MPD1    N1 3793   0.616   0.358  10.196 -0.2043 -0.4171  0.6246
  246MPD1    H6 3794   0.698   0.390  10.144 -0.5002 -0.4074  0.1613
  246MPD1    H7 3795   0.537   0.362  10.131  0.2268  0.3611  0.1514
  247MPD1     C 3796   0.712   0.719  16.158  0.0891 -0.0338 -0.3436
  247MPD1    C1 3797   0.656   0.660  16.272 -0.0832  0.1272  0.0851
  247MPD1    C2 3798   0.656   0.518  16.277  0.2457  0.0372 -0.3371
  247MPD1    C3 3799   0.708   0.439  16.171  0.2617 -0.3893 -1.3906
  247MPD1    C4 3800   0.767   0.501  16.071  0.1918  0.3952 -0.1745
  247MPD1    C5 3801   0.777   0.641  16.065 -0.5369 -0.0316  0.8014
  247MPD1     H 3802   0.602   0.473  16.359  1.7318 -1.9731 -0.4699
  247MPD1    H1 3803   0.814   0.450  15.987  0.6426 -0.9882  0.9280
  247MPD1    H2 3804   0.713   0.827  16.148  0.5460  0.0850  1.0260
  247MPD1    H3 3805   0.829   0.693  15.985  0.7396 -1.7025  0.5433
  247MPD1     N 3806   0.691   0.301  16.154  0.0332 -0.4063 -0.0934
  247MPD1    H5 3807   0.702   0.253  16.066 -1.0553 -0.4228 -0.2274
  247MPD1    N1 3808   0.584   0.738  16.365  0.9969 -0.4926 -0.6262
  247MPD1    H6 3809   0.612   0.835  16.376 -1.1534  0.0876 -0.3103
  247MPD1    H7 3810   0.575   0.695  16.457 -1.1295  1.6870  0.1602
  248MPD1     C 3811   4.624   3.942  16.940 -0.5164 -0.3935  0.1491
  248MPD1    C1 3812   4.731   3.858  16.989 -0.4954  0.0206  0.0984
  248MPD1    C2 3813   0.033   3.895  17.119 -0.3357  0.6946 -0.0653
  248MPD1    C3 3814   4.714   3.996  17.193  1.1081  0.1378  0.0587
  248MPD1    C4 3815   4.606   4.063  17.137 -0.2134  0.4526  0.3299
  248MPD1    C5 3816   4.563   4.036  17.010 -0.5207 -0.5731 -0.4445
  248MPD1     H 3817   0.111   3.831  17.159 -2.5384 -2.1952 -0.4616
  248MPD1    H1 3818   4.544   4.131  17.195  2.2929  0.4105  3.0658
  248MPD1    H2 3819   4.579   3.935  16.842 -1.6045  0.2015  0.6118
  248MPD1    H3 3820   4.482   4.098  16.974  1.2791  1.1313 -1.5865
  248MPD1     N 3821   0.011   4.016  17.329 -0.4707  0.6643  0.2793
  248MPD1    H5 3822   0.074   3.941  17.358  1.7013  1.3136 -2.7698
  248MPD1    N1 3823   0.054   3.759  16.906 -0.0240 -0.0109 -0.4561
  248MPD1    H6 3824   0.085   3.684  16.967 -0.0555  1.8020  1.7948
  248MPD1    H7 3825   4.735   3.716  16.836  2.8884 -0.7235 -2.4649
  249MPD1     C 3826   2.222   3.821   9.518 -0.6660  0.0043 -0.8168
  249MPD1    C1 3827   2.330   3.742   9.484  0.1682 -0.3983 -0.2733
  249MPD1    C2 3828   2.459   3.796   9.507 -0.3767  0.3644  0.0720
  249MPD1    C3 3829   2.468   3.925   9.564  0.4749 -0.1768 -0.0062
  249MPD1    C4 3830   2.357   3.997   9.606 -0.0921  0.4754  0.1282
  249MPD1    C5 3831   2.232   3.941   9.584 -0.0770 -0.7709  0.5695
  249MPD1     H 3832   2.541   3.729   9.486  0.5526  1.4646  0.1955
  249MPD1    H1 3833   2.371   4.095   9.652  1.2346  0.4813 -0.2731
  249MPD1    H2 3834   2.122   3.793   9.488 -1.0595  1.1311 -0.5592
  249MPD1    H3 3835   2.142   3.989   9.619 -0.1883 -0.1241 -0.5940
  249MPD1     N 3836   2.594   3.985   9.588 -1.0191 -0.0566  0.5979
  249MPD1    H5 3837   2.598   4.072   9.641 -1.7351  0.4541 -0.1813
  249MPD1    N1 3838   2.320   3.601   9.447 -0.0998 -0.6445  0.1599
  249MPD1    H6 3839   2.244   3.590   9.380  0.6754 -1.1326 -0.6490
  249MPD1    H7 3840   2.399   3.567   9.393  0.3437 -1.6106  1.4398
  250MPD2     C 3841   4.611   2.871  13.213  0.2075 -0.7805  0.1221
  250MPD2    C1 3842   4.475   2.904  13.214 -0.1409  0.7074 -0.2647
  250MPD2    C2 3843   4.380   2.820  13.163  0.2771  0.6180  0.2373
  250MPD2    C3 3844   4.425   2.702  13.096  0.7574  0.7956  0.4239
  250MPD2    C4 3845   4.561   2.673  13.077  0.2379  0.1775 -0.3006
  250MPD2    C5 3846   4.654   2.759  13.139  0.2567  0.4792 -0.1301
  250MPD2     H 3847   4.274   2.841  13.177  0.4277  1.8601 -0.4781
  250MPD2    H1 3848   4.577   2.571  13.042 -0.8385  0.0187 -0.3407
  250MPD2    H2 3849   4.688   2.934  13.254 -1.5248  1.0113  0.6554
  250MPD2    H3 3850   0.021   2.758  13.127  0.0789  0.8859 -1.8128
  250MPD2     N 3851   4.334   2.618  13.033  0.6333 -0.2465 -0.0948
  250MPD2    H5 3852   4.377   2.540  12.985 -1.4714 -0.4105 -1.7033
  250MPD2    N1 3853   4.444   3.022  13.282 -0.3216  1.4380  0.1179
  250MPD2    H7 3854   4.526   3.058  13.328  1.3705 -1.3102 -0.7536
  251TMC3    C1 3855   4.336   3.196  13.385 -0.1452  0.2606  0.0055
  251TMC3    C2 3856   4.241   3.287  13.360 -0.0925 -0.0646 -0.6052
  251TMC3    C3 3857   4.278   3.417  13.353  0.1878 -0.3252  0.4527
  251TMC3    C4 3858   4.459   3.233  13.425  0.5577 -0.4279 -0.1945
  251TMC3    C5 3859   4.495   3.365  13.417 -0.6986  0.6224 -0.0176
  251TMC3    C6 3860   4.406   3.456  13.369 -0.1108  0.5326  0.8910
  251TMC3     C 3861   4.323   3.070  13.310  0.3699  0.0788  0.8650
  251TMC3     O 3862   4.212   3.036  13.275 -0.2551 -0.2306  0.5559
  251TMC3     H 3863   4.145   3.263  13.316 -0.4422  2.5479 -1.2447
  251TMC3    H1 3864   4.533   3.159  13.454  0.2321  0.4727  2.9843
  251TMC3    H2 3865   4.429   3.561  13.382 -1.1807  0.6374  1.8654
  251TMC3    C7 3866   4.634   3.399  13.423 -0.5562 -0.4808  0.1345
  251TMC3    C8 3867   4.181   3.518  13.397  0.0125 -0.6626 -0.2851
  251TMC3    O1 3868   4.714   3.310  13.451  0.1309  0.3138  0.1406
  251TMC3    O2 3869   4.214   3.633  13.403 -0.1188 -0.7148  0.3186
  252TMC3    C1 3870   4.033   0.501   9.422 -0.2710 -0.2208 -0.4354
  252TMC3    C2 3871   4.158   0.527   9.454  0.2982  0.0376 -0.2134
  252TMC3    C3 3872   4.228   0.441   9.530  0.1032  0.5847 -0.1449
  252TMC3    C4 3873   3.971   0.396   9.470  0.0357  0.3912  0.1667
  252TMC3    C5 3874   4.036   0.309   9.559 -0.0148  0.4780  0.1316
  252TMC3    C6 3875   4.169   0.323   9.578 -0.5674  0.7975 -0.2826
  252TMC3     C 3876   3.950   0.618   9.385 -0.0849  0.0214 -0.1913
  252TMC3     O 3877   3.839   0.632   9.437  0.3767 -0.1319 -0.0135
  252TMC3     H 3878   4.200   0.627   9.442  1.6028 -0.4650  0.1658
  252TMC3    H1 3879   3.864   0.388   9.453  0.2467  0.5753 -1.2589
  252TMC3    H2 3880   4.227   0.251   9.635 -2.1169  0.2881  0.6466
  252TMC3    C7 3881   3.946   0.220   9.625  0.8582 -0.2417  0.4006
  252TMC3    C8 3882   4.349   0.491   9.584 -0.2281  0.3843  0.3615
  252TMC3    O1 3883   3.832   0.265   9.641 -0.0190  0.2944 -0.2165
  252TMC3    O2 3884   4.409   0.571   9.506  0.4442  0.3673  0.2164
  253MPD2     C 3885   0.780   3.451  15.344 -0.6973  0.1365 -0.7723
  253MPD2    C1 3886   0.638   3.462  15.348  0.2111  0.3126  0.0552
  253MPD2    C2 3887   0.573   3.402  15.457  0.2337 -0.3497  0.1188
  253MPD2    C3 3888   0.637   3.352  15.567  0.4469  0.1271  0.2941
  253MPD2    C4 3889   0.775   3.347  15.561  0.2637 -1.1913 -0.3741
  253MPD2    C5 3890   0.848   3.397  15.452 -0.0631 -0.2391 -0.2620
  253MPD2     H 3891   0.465   3.407  15.456  0.3202  1.4226 -0.3772
  253MPD2    H1 3892   0.827   3.292  15.638  1.2604 -1.3172 -1.1449
  253MPD2    H2 3893   0.833   3.495  15.260  0.5404  2.2618  1.1125
  253MPD2    H3 3894   0.956   3.392  15.448 -0.2341 -2.0330 -2.8025
  253MPD2     N 3895   0.577   3.300  15.683 -0.2975 -0.2137 -0.1627
  253MPD2    H5 3896   0.633   3.250  15.751  1.0139 -1.3876 -2.1257
  253MPD2    N1 3897   0.554   3.518  15.252 -0.3125 -0.2603 -0.7652
  253MPD2    H7 3898   0.456   3.531  15.273  0.2129 -1.6559  2.5987
  254TMC3    C1 3899   0.399   3.228  15.816 -0.3875 -0.3428  0.7339
  254TMC3    C2 3900   0.269   3.174  15.826 -0.2949  0.6030 -0.5925
  254TMC3    C3 3901   0.243   3.084  15.923 -0.7242  0.3423  0.4258
  254TMC3    C4 3902   0.494   3.203  15.913 -0.8994 -0.1109 -0.0639
  254TMC3    C5 3903   0.467   3.103  15.999 -0.8575  0.9858 -0.3912
  254TMC3    C6 3904   0.344   3.046  16.005 -0.4674  0.6110  0.6932
  254TMC3     C 3905   0.443   3.288  15.696  0.4776 -0.2387 -0.2738
  254TMC3     O 3906   0.352   3.308  15.618  0.1469  0.2803  0.2180
  254TMC3     H 3907   0.190   3.190  15.753 -0.4189  0.7462 -0.4253
  254TMC3    H1 3908   0.592   3.248  15.922 -0.4471 -0.7310 -1.9548
  254TMC3    H2 3909   0.320   2.978  16.086 -1.4231 -0.2590 -0.3217
  254TMC3    C7 3910   0.547   3.083  16.120 -0.0493 -0.6037 -0.6649
  254TMC3    C8 3911   0.109   3.075  15.990 -0.0363  0.1079  0.0656
  254TMC3    O1 3912   0.498   3.033  16.218 -0.2400  0.1903  0.0325
  254TMC3    O2 3913   0.105   3.011  16.095  0.5705  0.4398 -0.6253
  255MPD2     C 3914   3.292   1.914  10.977  0.3919  0.0667 -0.0616
  255MPD2    C1 3915   3.270   1.933  10.842  0.2441 -0.1930  0.2359
  255MPD2    C2 3916   3.317   1.833  10.759 -0.5072  0.0678 -0.1300
  255MPD2    C3 3917   3.370   1.716  10.800  0.3872 -0.4998 -0.3631
  255MPD2    C4 3918   3.369   1.688  10.938  0.7636 -0.6503  0.2126
  255MPD2    C5 3919   3.339   1.794  11.017 -0.1131 -0.2449  0.8553
  255MPD2     H 3920   3.318   1.856  10.653 -2.2025  0.7106 -0.0097
  255MPD2    H1 3921   3.383   1.591  10.983 -1.8120 -1.2539 -0.2411
  255MPD2    H2 3922   3.264   1.986  11.054 -2.0288 -2.7859  1.6961
  255MPD2    H3 3923   3.341   1.787  11.125  1.9376  0.6169  0.8776
  255MPD2     N 3924   3.410   1.624  10.701 -0.3745 -0.3866 -0.1105
  255MPD2    H5 3925   3.408   1.659  10.606 -0.8504  1.4968  0.6038
  255MPD2    N1 3926   3.202   2.049  10.786  0.1806  0.3922 -0.4081
  255MPD2    H7 3927   3.191   2.132  10.844  1.2751  0.8693 -0.8864
  256TMC3    C1 3928   3.126   2.205  10.621  0.5234  0.9857 -0.4944
  256TMC3    C2 3929   3.217   2.297  10.659  0.0011  0.5322  0.1287
  256TMC3    C3 3930   3.235   2.404  10.578  0.6007 -0.4271 -0.5025
  256TMC3    C4 3931   3.058   2.208  10.506 -0.4556 -0.4464  0.1828
  256TMC3    C5 3932   3.077   2.321  10.424 -0.5926 -0.8924  0.2716
  256TMC3    C6 3933   3.175   2.411  10.458 -0.6608 -0.0023 -0.1000
  256TMC3     C 3934   3.152   2.069  10.653  0.2386  0.4953  0.0140
  256TMC3     O 3935   3.128   1.973  10.582 -0.2247  0.0300 -0.2923
  256TMC3     H 3936   3.267   2.296  10.755 -0.8852 -3.6988  0.5449
  256TMC3    H1 3937   2.997   2.125  10.473  1.6115 -1.8795 -0.0220
  256TMC3    H2 3938   3.173   2.502  10.399 -2.0017  1.8223  2.7250
  256TMC3    C7 3939   3.011   2.314  10.295 -0.0948 -0.2477  0.3086
  256TMC3    C8 3940   3.312   2.512  10.634 -0.0240  0.2974 -0.3040
  256TMC3    O1 3941   2.933   2.221  10.285 -0.1961 -0.1503 -0.0456
  256TMC3    O2 3942   3.329   2.527  10.755  0.0024  0.0436 -0.5280
  257MPD2     C 3943   2.451   3.102  12.891 -0.3829 -0.8382 -0.3903
  257MPD2    C1 3944   2.573   3.141  12.947  0.8867 -0.1341  0.0736
  257MPD2    C2 3945   2.638   3.064  13.042  0.5281 -0.2610 -0.8630
  257MPD2    C3 3946   2.577   2.945  13.074  0.0887  0.1026 -0.1171
  257MPD2    C4 3947   2.462   2.890  13.009 -0.1218  0.3735  0.4354
  257MPD2    C5 3948   2.404   2.971  12.916  0.1091  0.0762 -0.5542
  257MPD2     H 3949   2.725   3.088  13.103 -0.4576 -3.4034  1.8161
  257MPD2    H1 3950   2.409   2.800  13.038 -0.2686  0.0764 -0.7351
  257MPD2    H2 3951   2.389   3.162  12.825  3.0342  0.8138 -2.1159
  257MPD2    H3 3952   2.309   2.952  12.868 -0.2498 -2.1436  1.0468
  257MPD2     N 3953   2.649   2.857  13.153 -0.2049 -0.2818  0.0126
  257MPD2    H5 3954   2.728   2.905  13.195  0.3142 -1.0711 -0.0736
  257MPD2    N1 3955   2.627   3.262  12.903  0.4202  0.0585  0.4675
  257MPD2    H7 3956   2.596   3.298  12.813  3.1914  2.1300  0.3385
  258TMC3    C1 3957   2.732   2.666  13.253 -0.5913 -0.7469  0.4983
  258TMC3    C2 3958   2.861   2.662  13.209 -0.7799  0.0675  0.1377
  258TMC3    C3 3959   2.970   2.684  13.294  0.2574  0.5113 -0.1253
  258TMC3    C4 3960   2.708   2.693  13.387 -0.1752 -0.1208 -0.2076
  258TMC3    C5 3961   2.818   2.711  13.468  0.4003  0.4731 -0.1554
  258TMC3    C6 3962   2.948   2.706  13.426  0.4614  0.6009  0.5844
  258TMC3     C 3963   2.626   2.719  13.170 -0.0513 -0.4864 -0.2574
  258TMC3     O 3964   2.545   2.640  13.120 -0.2330  0.8256  0.0582
  258TMC3     H 3965   2.881   2.632  13.107 -2.6211  1.0048 -0.4927
  258TMC3    H1 3966   2.610   2.709  13.432  0.2932 -0.3744  0.9038
  258TMC3    H2 3967   3.038   2.742  13.474 -0.0315  0.8093  1.3493
  258TMC3    C7 3968   2.790   2.730  13.615  0.1568  0.4093 -0.4939
  258TMC3    C8 3969   3.105   2.653  13.250  0.2733 -0.7018  0.1466
  258TMC3    O1 3970   2.674   2.746  13.648 -0.3348  0.0666  0.0570
  258TMC3    O2 3971   3.188   2.644  13.340 -0.4070  0.1019  0.0258
  259MPD2     C 3972   1.408   0.743   0.511 -0.0011  0.3651  0.6692
  259MPD2    C1 3973   1.446   0.620   0.471 -0.5209 -0.6712  0.0315
  259MPD2    C2 3974   1.394   0.574   0.348  0.5659  0.8187 -0.2171
  259MPD2    C3 3975   1.327   0.655   0.254 -0.4835  0.9380  0.4271
  259MPD2    C4 3976   1.311   0.785   0.290  0.1478 -0.3328 -0.3497
  259MPD2    C5 3977   1.343   0.827   0.418  0.1597 -0.6828  0.2131
  259MPD2     H 3978   1.411   0.471   0.320 -0.3505  0.5522  0.1818
  259MPD2    H1 3979   1.262   0.855   0.224 -0.7576 -0.4578  0.1788
  259MPD2    H2 3980   1.448   0.785   0.603 -2.9197  0.1142  2.0511
  259MPD2    H3 3981   1.329   0.932   0.443 -1.7245 -0.5747 -1.2660
  259MPD2     N 3982   1.288   0.598   0.128  0.6215 -0.5307  0.1932
  259MPD2    H5 3983   1.274   0.498   0.123 -0.7691 -0.2772 -0.8658
  259MPD2    N1 3984   1.527   0.533   0.550 -0.2424 -0.2302  0.0415
  259MPD2    H7 3985   1.528   0.562   0.647  0.0465  1.0849 -0.3437
  260TMC3    C1 3986   1.199   0.573  17.675 -0.4508  0.5266 -0.4566
  260TMC3    C2 3987   1.285   0.584  17.575 -0.0598 -0.4474  0.1988
  260TMC3    C3 3988   1.323   0.481  17.498 -0.2316  0.9097  0.3170
  260TMC3    C4 3989   1.136   0.458  17.703  0.4422  0.1264  1.1506
  260TMC3    C5 3990   1.159   0.358  17.614 -0.0836  0.4981  0.3816
  260TMC3    C6 3991   1.248   0.363  17.515 -0.2066  0.6603 -0.4146
  260TMC3     C 3992   1.235   0.666   0.020  0.7613 -0.4438 -0.1208
  260TMC3     O 3993   1.239   0.789   0.001  0.8645  0.3156 -0.2517
  260TMC3     H 3994   1.341   0.677  17.568 -1.5684  0.5792  1.6552
  260TMC3    H1 3995   1.078   0.445   0.036 -1.1088  0.5461  0.2402
  260TMC3    H2 3996   1.251   0.289  17.436  1.8023  0.4398 -0.1272
  260TMC3    C7 3997   1.131   0.213  17.647  0.1620 -0.7785  0.3898
  260TMC3    C8 3998   1.463   0.466  17.485 -0.1064 -0.3467 -0.1776
  260TMC3    O1 3999   1.208   0.128  17.608  0.0015  0.7462  0.7015
  260TMC3    O2 4000   1.530   0.567  17.483 -0.2524  0.2393 -0.0338
  261MPD2     C 4001   3.625   2.494  12.574 -0.0107  0.1466  1.0118
  261MPD2    C1 4002   3.727   2.580  12.607 -0.0502  0.3426 -0.2545
  261MPD2    C2 4003   3.738   2.696  12.536 -0.3476  0.6236  0.2821
  261MPD2    C3 4004   3.661   2.734  12.432 -0.7068 -0.3263 -0.0242
  261MPD2    C4 4005   3.559   2.650  12.401 -0.3897  0.3125 -0.1354
  261MPD2    C5 4006   3.556   2.522  12.463  0.0840  0.3773  1.0326
  261MPD2     H 4007   3.803   2.776  12.569  0.8709 -0.2430  0.0038
  261MPD2    H1 4008   3.475   2.681  12.339  1.7261  2.2417 -1.9997
  261MPD2    H2 4009   3.615   2.393  12.613 -1.4261  0.8572  2.4977
  261MPD2    H3 4010   3.481   2.448  12.437  0.4605  0.4581 -0.2983
  261MPD2     N 4011   3.679   2.868  12.379  0.1289 -0.1141 -0.5793
  261MPD2    H5 4012   3.757   2.925  12.410  1.3938 -1.0469 -2.0506
  261MPD2    N1 4013   3.811   2.555  12.714  0.3094  0.0279  0.0096
  261MPD2    H7 4014   3.896   2.611  12.716 -0.5140  1.2166  1.4577
  262TMC3    C1 4015   3.631   3.055  12.254  0.2266 -0.4320  0.6523
  262TMC3    C2 4016   3.542   3.141  12.205  0.9404 -0.7977 -0.1689
  262TMC3    C3 4017   3.583   3.247  12.132 -0.0195  0.7411 -0.0542
  262TMC3    C4 4018   3.762   3.074  12.229 -0.0594  0.1777  0.0499
  262TMC3    C5 4019   3.806   3.175  12.157  0.3675 -0.6052  0.6767
  262TMC3    C6 4020   3.717   3.271  12.103 -0.2390  0.6309 -0.0492
  262TMC3     C 4021   3.587   2.927  12.296 -0.8806 -0.1152  0.6424
  262TMC3     O 4022   3.477   2.896  12.254 -0.1510 -1.1500  0.3456
  262TMC3     H 4023   3.439   3.108  12.217  0.2453  1.4768  0.1092
  262TMC3    H1 4024   3.833   2.995  12.253 -1.4758 -1.2159 -0.3260
  262TMC3    H2 4025   3.738   3.361  12.047 -2.3366 -0.7189 -3.0317
  262TMC3    C7 4026   3.950   3.193  12.139 -0.0294 -0.0659  0.1457
  262TMC3    C8 4027   3.478   3.325  12.052 -0.5346 -0.0679 -0.2829
  262TMC3    O1 4028   4.031   3.135  12.213  0.0281 -0.4394  0.0496
  262TMC3    O2 4029   3.507   3.400  11.961 -0.5304 -0.2501 -0.5356
  263MPD2     C 4030   0.139   2.684  11.970  0.1517  0.7365 -0.1206
  263MPD2    C1 4031   0.228   2.651  11.872 -0.0360  0.3071  0.0394
  263MPD2    C2 4032   0.196   2.680  11.742 -0.4408  0.0996 -0.2033
  263MPD2    C3 4033   0.072   2.726  11.711 -0.0906  0.4678  0.4349
  263MPD2    C4 4034   4.722   2.755  11.809  0.0477  0.3801 -0.0335
  263MPD2    C5 4035   0.019   2.735  11.935  0.9858  0.7471 -0.1962
  263MPD2     H 4036   0.266   2.659  11.662 -0.2908 -0.0298 -0.0370
  263MPD2    H1 4037   4.623   2.798  11.795  0.8218  1.3024 -2.6101
  263MPD2    H2 4038   0.170   2.668  12.073 -1.8199  0.0678  0.3683
  263MPD2    H3 4039   4.694   2.772  12.013  1.2949 -1.2897  1.0283
  263MPD2     N 4040   0.041   2.742  11.574 -0.3225 -0.2639  0.3979
  263MPD2    H5 4041   0.115   2.738  11.505 -1.7849 -0.0150 -1.2043
  263MPD2    N1 4042   0.350   2.586  11.906 -0.5340  0.2941 -0.6948
  263MPD2    H7 4043   0.357   2.552  12.002  0.4570 -1.4339 -1.3776
  264TMC3    C1 4044   4.637   2.787  11.386 -0.6881  0.1982  0.5667
  264TMC3    C2 4045   4.521   2.734  11.327 -0.1907  0.2561 -0.0394
  264TMC3    C3 4046   4.503   2.729  11.189  0.4055 -0.9530 -0.1611
  264TMC3    C4 4047   4.739   2.834  11.309 -0.5782  0.3158  0.1534
  264TMC3    C5 4048   4.725   2.813  11.175 -0.3089 -0.3265  0.6260
  264TMC3    C6 4049   4.608   2.767  11.112  0.3109  0.2141  1.1271
  264TMC3     C 4050   4.652   2.761  11.527 -0.0581  0.2180  0.0473
  264TMC3     O 4051   4.542   2.747  11.582 -0.3453 -0.5491 -0.2441
  264TMC3     H 4052   4.433   2.712  11.385 -0.3574 -1.9954 -1.1663
  264TMC3    H1 4053   0.090   2.869  11.355 -0.8979 -0.2746  1.2349
  264TMC3    H2 4054   4.605   2.755  11.005 -0.1520  1.2987  1.0205
  264TMC3    C7 4055   0.064   2.907  11.097  0.1198  0.2612 -0.1814
  264TMC3    C8 4056   4.379   2.671  11.141 -0.1707  0.5981  0.4325
  264TMC3    O1 4057   0.093   2.877  10.977 -0.1652  0.2016 -0.0309
  264TMC3    O2 4058   4.333   2.588  11.216 -0.5695  0.8289  0.1034
  265MPD2     C 4059   1.554   2.616  15.674  0.2454 -0.0930  0.2950
  265MPD2    C1 4060   1.594   2.742  15.623  0.8648 -0.4270  0.0543
  265MPD2    C2 4061   1.625   2.742  15.483  0.4034 -0.1325 -0.0470
  265MPD2    C3 4062   1.622   2.621  15.405  0.6451 -0.1480  0.0703
  265MPD2    C4 4063   1.582   2.508  15.463 -0.3666  0.3416  0.2505
  265MPD2    C5 4064   1.543   2.502  15.596  0.1405 -0.6269 -0.1205
  265MPD2     H 4065   1.651   2.838  15.439  3.5531 -1.2051 -0.5377
  265MPD2    H1 4066   1.585   2.415  15.407 -1.8571  0.6898 -0.3865
  265MPD2    H2 4067   1.518   2.606  15.776 -1.0574  2.0903  0.0425
  265MPD2    H3 4068   1.508   2.409  15.639 -0.9997  0.3546  1.0616
  265MPD2     N 4069   1.668   2.615  15.269 -0.4437 -0.1383  0.4107
  265MPD2    H5 4070   1.691   2.525  15.227 -3.7995 -0.8075  0.0752
  265MPD2    N1 4071   1.598   2.861  15.696  0.4950  0.2420  0.5520
  265MPD2    H7 4072   1.631   2.935  15.635  1.3268  0.0311  0.7442
  266TMC3    C1 4073   1.644   3.006  15.867  0.3087  0.0359  0.9536
  266TMC3    C2 4074   1.723   3.014  15.972  0.5014 -0.2873  1.0696
  266TMC3    C3 4075   1.764   3.143  15.999  0.1160 -0.0241  0.6968
  266TMC3    C4 4076   1.590   3.108  15.795  0.0185  0.2934 -0.7038
  266TMC3    C5 4077   1.622   3.234  15.832 -0.4227 -0.4399 -0.4401
  266TMC3    C6 4078   1.703   3.259  15.939  0.0158 -0.0271 -0.0148
  266TMC3     C 4079   1.608   2.874  15.830  0.5247  0.0645 -0.1272
  266TMC3     O 4080   1.585   2.799  15.919  0.4866 -0.7810  0.4135
  266TMC3     H 4081   1.775   2.928  16.014 -0.8127 -1.3131  0.5968
  266TMC3    H1 4082   1.523   3.093  15.711 -0.6870 -2.1008  0.2851
  266TMC3    H2 4083   1.729   3.360  15.968  0.1531  0.6208 -2.4519
  266TMC3    C7 4084   1.550   3.338  15.765 -0.1004  0.3555 -0.2798
  266TMC3    C8 4085   1.851   3.160  16.111 -0.3449  0.1096 -0.2450
  266TMC3    O1 4086   1.440   3.304  15.724  0.3849 -0.1186 -0.3717
  266TMC3    O2 4087   1.891   3.061  16.168  0.7724  0.2527 -0.8161
  267MPD2     C 4088   3.674   0.164   0.375 -0.1227  1.3084 -0.2439
  267MPD2    C1 4089   3.661   0.053   0.292  0.7380 -0.2126  0.3171
  267MPD2    C2 4090   3.576   0.059   0.184  0.1790  0.3015 -0.3868
  267MPD2    C3 4091   3.492   0.171   0.169  0.2769  0.7180  0.3907
  267MPD2    C4 4092   3.501   0.277   0.258  0.4279  0.5822  0.5699
  267MPD2    C5 4093   3.591   0.272   0.363 -0.6441 -0.1590 -0.2793
  267MPD2     H 4094   3.580   4.728   0.102 -0.3979 -0.7770  0.5221
  267MPD2    H1 4095   3.456   0.376   0.249  3.2344  1.8559  0.5869
  267MPD2    H2 4096   3.754   0.174   0.448  0.4477  1.5377 -0.8964
  267MPD2    H3 4097   3.594   0.359   0.428 -0.6307  0.2527 -0.8260
  267MPD2     N 4098   3.402   0.188   0.056 -0.1154 -0.0724 -0.7393
  267MPD2    H5 4099   3.354   0.276   0.037  0.7152  1.0827  2.6681
  267MPD2    N1 4100   3.761   4.695   0.302  0.2277  0.8503  0.3739
  267MPD2    H7 4101   3.829   4.704   0.376  1.8477 -0.8115 -0.9284
  268TMC3    C1 4102   3.883   4.504   0.236 -0.3782 -0.1384  0.0219
  268TMC3    C2 4103   3.944   4.456   0.125  0.2229 -0.2625 -0.1922
  268TMC3    C3 4104   4.056   4.377   0.132  0.0653  0.6535  0.0271
  268TMC3    C4 4105   3.942   4.501   0.357  0.4387  0.5200 -0.0437
  268TMC3    C5 4106   4.067   4.429   0.358  0.2796 -0.0981  0.4955
  268TMC3    C6 4107   4.124   4.363   0.248 -0.0762  0.4182  0.2013
  268TMC3     C 4108   3.759   4.582   0.230  0.4898  0.3426  1.0412
  268TMC3     O 4109   3.688   4.535   0.139  0.7014 -0.1884 -0.4440
  268TMC3     H 4110   3.892   4.462   0.030  1.1460 -0.7127 -0.7272
  268TMC3    H1 4111   3.887   4.540   0.442 -1.4551  0.4176 -1.2175
  268TMC3    H2 4112   4.220   4.312   0.242  0.5057  1.5924 -0.4991
  268TMC3    C7 4113   4.144   4.430   0.477 -0.0562 -0.2178  0.7178
  268TMC3    C8 4114   4.128   4.348   0.007  0.7239  0.1543  0.0687
  268TMC3    O1 4115   4.235   4.345   0.487  0.1596  0.4289  0.1302
  268TMC3    O2 4116   4.205   4.253   0.008  0.0242  0.6938  0.1204
  269MPD2     C 4117   4.432   3.433  15.605  0.2862 -0.3579  0.1731
  269MPD2    C1 4118   4.311   3.502  15.615 -0.8744  0.5176 -0.1983
  269MPD2    C2 4119   4.305   3.635  15.580 -0.4464 -0.1834 -0.4486
  269MPD2    C3 4120   4.419   3.708  15.550  0.1269  0.2701  0.7251
  269MPD2    C4 4121   4.536   3.634  15.537  0.1529  0.7530  0.1049
  269MPD2    C5 4122   4.545   3.497  15.559  0.2798  0.1901  0.8576
  269MPD2     H 4123   4.215   3.694  15.594  0.2734  0.7325  0.3397
  269MPD2    H1 4124   4.630   3.686  15.521 -0.8484  1.6090 -2.9124
  269MPD2    H2 4125   4.441   3.326  15.621  0.1067  0.0159  2.7426
  269MPD2    H3 4126   4.634   3.442  15.532  0.5703  0.3403  1.5284
  269MPD2     N 4127   4.420   3.852  15.532  0.0854 -0.2122  0.1913
  269MPD2    H5 4128   4.350   3.905  15.582 -0.5790 -0.0854 -0.8654
  269MPD2    N1 4129   4.201   3.431  15.652  0.0714 -0.4143 -0.0657
  269MPD2    H7 4130   4.214   3.338  15.692  1.0584  0.6064  1.9698
  270TMC3    C1 4131   3.974   3.384  15.690  1.0402  0.3478  0.5378
  270TMC3    C2 4132   3.861   3.362  15.610  0.0245 -0.2264  0.1992
  270TMC3    C3 4133   3.782   3.268  15.661  0.0337  0.7125 -0.1941
  270TMC3    C4 4134   4.006   3.324  15.808  0.4646 -0.2025  0.3591
  270TMC3    C5 4135   3.921   3.229  15.852 -0.3252  0.4388  0.0364
  270TMC3    C6 4136   3.803   3.202  15.783  0.0017  0.2153  0.7171
  270TMC3     C 4137   4.066   3.480  15.633 -0.5367  0.4097  0.1875
  270TMC3     O 4138   4.019   3.568  15.563  0.0652  0.2569 -0.0233
  270TMC3     H 4139   3.844   3.411  15.515 -0.9187 -2.7673 -0.9637
  270TMC3    H1 4140   4.096   3.354  15.862  1.9562  0.8449 -2.7317
  270TMC3    H2 4141   3.738   3.117  15.803 -2.5924  2.6384  2.5764
  270TMC3    C7 4142   3.994   3.118  15.900 -0.2557 -0.0928 -0.6228
  270TMC3    C8 4143   3.686   3.212  15.563  0.2982 -0.0938 -0.0157
  270TMC3    O1 4144   4.113   3.117  15.875  0.3130  0.3842 -0.2553
  270TMC3    O2 4145   3.692   3.248  15.445 -0.2541 -0.2673  0.2850
  271MPD2     C 4146   3.417   3.240  14.239 -0.0074 -0.2276 -0.7385
  271MPD2    C1 4147   3.309   3.164  14.282  1.2419 -0.4390 -0.1271
  271MPD2    C2 4148   3.177   3.208  14.266  0.1715  0.5100  0.2195
  271MPD2    C3 4149   3.162   3.329  14.202 -0.2017  0.3265  0.0085
  271MPD2    C4 4150   3.266   3.403  14.149 -0.2770 -0.4050  0.0200
  271MPD2    C5 4151   3.392   3.360  14.178 -0.2092 -0.5692  0.7812
  271MPD2     H 4152   3.092   3.155  14.309 -0.7828  1.2156 -0.7903
  271MPD2    H1 4153   3.248   3.491  14.089  0.3942 -0.2083  0.1157
  271MPD2    H2 4154   3.521   3.209  14.247 -0.0596 -0.3023 -0.3679
  271MPD2    H3 4155   3.474   3.424  14.148 -0.5227  0.8098  2.8856
  271MPD2     N 4156   3.040   3.406  14.194  0.1495  0.1785 -0.2497
  271MPD2    H5 4157   3.037   3.497  14.149 -0.2671  0.5231  0.4819
  271MPD2    N1 4158   3.323   3.035  14.338 -0.5563  0.1586 -0.2420
  271MPD2    H7 4159   3.235   2.992  14.363 -0.4585 -0.2781 -0.6442
  272TMC3    C1 4160   3.420   2.830  14.398  0.3977 -0.2777  0.5850
  272TMC3    C2 4161   3.536   2.755  14.391 -0.0782  0.0126 -0.1508
  272TMC3    C3 4162   3.587   2.689  14.501 -0.0023 -0.0569  0.2974
  272TMC3    C4 4163   3.365   2.850  14.524 -0.0187  0.4836  0.7242
  272TMC3    C5 4164   3.419   2.785  14.630 -0.1413  0.1730 -0.3758
  272TMC3    C6 4165   3.533   2.703  14.623  0.4836  0.2697 -0.3905
  272TMC3     C 4166   3.437   2.955  14.323  0.2810  0.1639  0.2467
  272TMC3     O 4167   3.547   2.981  14.277 -0.3671 -0.5979  0.4961
  272TMC3     H 4168   3.576   2.745  14.290 -0.7284 -3.3346 -0.0946
  272TMC3    H1 4169   3.273   2.902  14.544  0.0810  1.3506 -1.1192
  272TMC3    H2 4170   3.563   2.657  14.716  0.1886  0.4266 -0.2144
  272TMC3    C7 4171   3.378   2.841  14.759  0.7099  0.0593  0.3860
  272TMC3    C8 4172   3.729   2.651  14.488 -0.5735  0.5054 -0.4431
  272TMC3    O1 4173   3.259   2.847  14.791 -0.4975 -0.2869 -0.5036
  272TMC3    O2 4174   3.787   2.705  14.396 -0.2939  0.4008 -0.3965
  273MPD2     C 4175   0.349   1.046  12.062  0.0949  0.8551 -0.4921
  273MPD2    C1 4176   0.363   1.179  12.092 -0.0517 -0.1735  0.5387
  273MPD2    C2 4177   0.305   1.270  12.007 -0.2419  0.4918 -0.3636
  273MPD2    C3 4178   0.219   1.228  11.907 -0.5342  0.6173 -0.3266
  273MPD2    C4 4179   0.205   1.090  11.882  0.2407  0.3382  0.3632
  273MPD2    C5 4180   0.273   0.999  11.959  0.0945 -0.3236 -0.0681
  273MPD2     H 4181   0.325   1.375  12.019 -1.1689  0.7275 -0.8497
  273MPD2    H1 4182   0.146   1.052  11.799 -0.1485  1.6037  0.0642
  273MPD2    H2 4183   0.384   0.977  12.138 -0.1662 -0.6827 -1.7840
  273MPD2    H3 4184   0.259   0.896  11.931 -0.3193 -0.2265 -0.2156
  273MPD2     N 4185   0.176   1.321  11.811 -0.4994  0.1663  0.3072
  273MPD2    H5 4186   0.209   1.414  11.835 -2.2967  0.8484  0.1522
  273MPD2    N1 4187   0.445   1.211  12.206  0.1994 -0.3922  0.3205
  273MPD2    H7 4188   0.478   1.135  12.264  3.3074 -1.1044 -2.4072
  274TMC3    C1 4189   0.101   1.413  11.613 -0.8630  0.4712  0.3855
  274TMC3    C2 4190   4.735   1.417  11.523  0.2903 -0.3359 -0.3178
  274TMC3    C3 4191   0.004   1.517  11.425 -0.4992 -1.1493  0.1074
  274TMC3    C4 4192   0.214   1.490  11.610 -0.3035 -0.1052 -0.9544
  274TMC3    C5 4193   0.210   1.584  11.510  0.0604  0.5585 -0.2451
  274TMC3    C6 4194   0.106   1.607  11.424 -0.4830 -0.1800 -0.5420
  274TMC3     C 4195   0.100   1.298  11.699 -0.4280  0.2082 -0.1040
  274TMC3     O 4196   0.049   1.195  11.660  0.5756  0.1380 -0.4931
  274TMC3     H 4197   4.649   1.351  11.530  0.4416 -0.4047  0.8639
  274TMC3    H1 4198   0.289   1.468  11.685 -0.4710 -1.6240 -1.2403
  274TMC3    H2 4199   0.111   1.683  11.347  1.5982  1.5245  1.2720
  274TMC3    C7 4200   0.304   1.687  11.533 -0.1517  0.3289 -0.1395
  274TMC3    C8 4201   4.640   1.559  11.339  0.2834  0.7022  0.7496
  274TMC3    O1 4202   0.343   1.691  11.646  0.5252 -0.1626 -0.5522
  274TMC3    O2 4203   4.644   1.670  11.294 -0.5409 -0.1621 -0.0604
  275MPD2     C 4204   0.294   3.614  14.656  0.3990  0.1026  0.1547
  275MPD2    C1 4205   0.209   3.712  14.710 -0.3700 -0.2056  0.3600
  275MPD2    C2 4206   0.095   3.679  14.780 -0.8719 -0.0172 -0.0049
  275MPD2    C3 4207   0.058   3.547  14.801  0.5856  0.2334 -0.3556
  275MPD2    C4 4208   0.153   3.456  14.757 -0.4226 -0.0996  0.1885
  275MPD2    C5 4209   0.270   3.482  14.689 -0.3793 -0.0103  0.1872
  275MPD2     H 4210   0.030   3.759  14.814  0.3295  0.6972  0.5686
  275MPD2    H1 4211   0.142   3.348  14.766 -0.8302 -0.1722 -1.1568
  275MPD2    H2 4212   0.379   3.635  14.591  0.7033  0.1212  0.5589
  275MPD2    H3 4213   0.333   3.401  14.654  0.7378  0.0828  1.9794
  275MPD2     N 4214   4.674   3.504  14.854  0.2284 -0.0795  0.1491
  275MPD2    H5 4215   4.639   3.411  14.835  2.1921 -1.1259  1.7078
  275MPD2    N1 4216   0.242   3.846  14.698  0.3313  0.3427  0.0537
  275MPD2    H7 4217   0.166   3.912  14.704 -2.6664 -3.3622  3.4956
  276TMC3    C1 4218   0.355   4.043  14.653 -0.0777 -0.6858 -0.0212
  276TMC3    C2 4219   0.235   4.104  14.651  0.1377  0.2244  0.5487
  276TMC3    C3 4220   0.222   4.234  14.690  0.1552 -0.4709 -0.0646
  276TMC3    C4 4221   0.465   4.116  14.686  0.3881  0.0821 -0.4382
  276TMC3    C5 4222   0.453   4.253  14.717  0.1341  0.5339  0.6655
  276TMC3    C6 4223   0.328   4.310  14.727  0.1318 -0.2182  0.1717
  276TMC3     C 4224   0.362   3.900  14.675 -0.5411 -0.3070  0.0895
  276TMC3     O 4225   0.473   3.851  14.656  0.2515 -0.0587  0.1198
  276TMC3     H 4226   0.147   4.058  14.608  0.1576 -0.6395  1.4214
  276TMC3    H1 4227   0.561   4.066  14.692  0.2853  0.2838  2.8500
  276TMC3    H2 4228   0.313   4.411  14.763 -1.0141 -0.0396 -0.8214
  276TMC3    C7 4229   0.564   4.337  14.761 -0.0769  0.1358  0.3160
  276TMC3    C8 4230   0.101   4.305  14.685 -0.6955 -0.2775 -0.4679
  276TMC3    O1 4231   0.540   4.426  14.841  0.0668  0.1474  0.2699
  276TMC3    O2 4232   0.094   4.398  14.605  0.2407  0.6781  0.0654
  277MPD2     C 4233   2.247   3.336  13.075  0.1618  0.1561  0.3009
  277MPD2    C1 4234   2.115   3.369  13.078  0.3059  0.1862 -0.0030
  277MPD2    C2 4235   2.036   3.325  13.180  0.7680  0.1547 -0.0812
  277MPD2    C3 4236   2.091   3.257  13.285  0.0076  0.1768 -0.4433
  277MPD2    C4 4237   2.221   3.219  13.281  0.6087  0.1587 -0.2611
  277MPD2    C5 4238   2.300   3.255  13.173  0.0397  0.5130 -0.5996
  277MPD2     H 4239   1.934   3.361  13.184  0.0658 -1.7885 -0.8401
  277MPD2    H1 4240   2.278   3.176  13.363 -0.8083  0.2380  0.7816
  277MPD2    H2 4241   2.315   3.376  13.001 -0.6449  0.6427 -0.1863
  277MPD2    H3 4242   2.405   3.229  13.170 -0.3967 -1.6637  2.5551
  277MPD2     N 4243   2.008   3.239  13.398  0.2038  0.1147  0.0626
  277MPD2    H5 4244   1.918   3.284  13.403 -0.3928 -1.0935  0.2887
  277MPD2    N1 4245   2.055   3.437  12.968 -0.1254  0.0696  0.1627
  277MPD2    H7 4246   2.123   3.492  12.916 -0.5376 -1.3676 -1.8838
  278TMC3    C1 4247   1.916   3.159  13.591 -0.3679 -0.1056 -0.2396
  278TMC3    C2 4248   1.927   3.079  13.703 -0.1138 -0.3122 -0.6190
  278TMC3    C3 4249   1.809   3.051  13.771 -0.1025  0.2334 -0.2232
  278TMC3    C4 4250   1.798   3.211  13.549  0.6760  0.1220  0.2332
  278TMC3    C5 4251   1.687   3.166  13.606 -0.4904  0.7595 -0.4405
  278TMC3    C6 4252   1.690   3.094  13.720  0.1181 -0.6741 -0.0495
  278TMC3     C 4253   2.035   3.172  13.513  0.0295  0.0240 -0.0964
  278TMC3     O 4254   2.140   3.126  13.553 -0.2358  0.4751 -0.3184
  278TMC3     H 4255   2.021   3.032  13.733 -0.7317 -1.8902 -1.1195
  278TMC3    H1 4256   1.774   3.259  13.455  0.8023 -1.0668 -0.4054
  278TMC3    H2 4257   1.598   3.085  13.777 -0.1938  1.6305 -0.1831
  278TMC3    C7 4258   1.564   3.240  13.566 -0.4999  0.6132 -0.4581
  278TMC3    C8 4259   1.809   2.939  13.860  0.1319 -0.6548  0.6240
  278TMC3    O1 4260   1.579   3.335  13.487  0.3366  0.2640  0.0481
  278TMC3    O2 4261   1.904   2.914  13.933  0.1395 -0.2609  0.0525
  279MPD2     C 4262   0.943   2.501   0.357 -0.3511  0.0353  0.5525
  279MPD2    C1 4263   0.848   2.597   0.387  0.4876 -0.2050  0.1625
  279MPD2    C2 4264   0.843   2.712   0.313 -0.0394 -0.4890 -0.2557
  279MPD2    C3 4265   0.947   2.739   0.226  0.2015  0.3933 -0.0582
  279MPD2    C4 4266   1.048   2.652   0.209 -0.7497 -0.5473 -0.5440
  279MPD2    C5 4267   1.051   2.532   0.274  0.3285 -0.1623  0.0698
  279MPD2     H 4268   0.765   2.786   0.330  0.3637 -0.3676  1.0362
  279MPD2    H1 4269   1.131   2.684   0.148  0.7096 -1.5658  0.9049
  279MPD2    H2 4270   0.936   2.405   0.407 -3.7158  0.0317  0.0620
  279MPD2    H3 4271   1.134   2.462   0.272  0.2547 -0.2424 -0.1576
  279MPD2     N 4272   0.957   2.850   0.148 -0.2251 -0.1270  0.4637
  279MPD2    H5 4273   1.023   2.856   0.070 -1.0079 -0.5035 -0.2283
  279MPD2    N1 4274   0.750   2.566   0.483  0.3396  1.1040  0.6298
  279MPD2    H7 4275   0.736   2.469   0.512  2.7605  0.9871  1.4113
  280TMC3    C1 4276   0.555   2.608   0.610 -0.7044 -0.1671 -0.2817
  280TMC3    C2 4277   0.466   2.562   0.523  0.3054 -0.7737  0.2927
  280TMC3    C3 4278   0.337   2.611   0.515  0.9318  0.9217  0.1368
  280TMC3    C4 4279   0.517   2.693   0.714  0.3274  0.2100  0.3802
  280TMC3    C5 4280   0.380   2.732   0.716  0.5032 -0.4622  0.5385
  280TMC3    C6 4281   0.298   2.699   0.614  0.4695  0.0210  0.1900
  280TMC3     C 4282   0.667   2.657   0.539  0.4925  0.2332 -0.5793
  280TMC3     O 4283   0.691   2.780   0.544 -0.3861  0.1124  0.1324
  280TMC3     H 4284   0.503   2.510   0.436  2.1395 -0.3201  0.8020
  280TMC3    H1 4285   0.596   2.745   0.766  0.5286 -1.3322  1.6273
  280TMC3    H2 4286   0.192   2.718   0.608  0.1557 -1.0391  2.4142
  280TMC3    C7 4287   0.366   2.869   0.764 -0.1934 -1.5817 -0.5673
  280TMC3    C8 4288   0.281   2.655   0.387  0.3884  0.0709  0.5013
  280TMC3    O1 4289   0.447   2.910   0.847 -0.1828 -0.3341 -0.2485
  280TMC3    O2 4290   0.201   2.582   0.329 -0.5502 -0.3830  0.2072
  281TMC3    C1 4291   0.249   3.329  13.739  0.3693 -0.3169 -0.5033
  281TMC3    C2 4292   0.306   3.399  13.641  0.3351 -0.2841 -0.9547
  281TMC3    C3 4293   0.344   3.333  13.528 -0.3914 -0.2380  0.7165
  281TMC3    C4 4294   0.227   3.201  13.721  0.1647  0.2886  0.0767
  281TMC3    C5 4295   0.247   3.138  13.601  0.9050 -0.0491  0.3694
  281TMC3    C6 4296   0.327   3.198  13.506 -0.6382  0.4317  0.7065
  281TMC3     C 4297   0.151   3.400  13.820  0.1819  0.3191 -0.1604
  281TMC3     O 4298   0.130   3.344  13.927 -0.0707 -0.2197 -0.0200
  281TMC3     H 4299   0.326   3.505  13.654  0.8825 -0.3621 -1.1623
  281TMC3    H1 4300   0.165   3.154  13.796  0.2350 -0.3163 -0.2405
  281TMC3    H2 4301   0.337   3.162  13.404 -1.8025  0.0294  0.7300
  281TMC3    C7 4302   0.162   3.028  13.562  0.3009  0.1314  0.1420
  281TMC3    C8 4303   0.441   3.399  13.442 -0.8180  0.1481  0.1083
  281TMC3    O1 4304   0.194   2.977  13.457  0.4804 -0.3603  0.4154
  281TMC3    O2 4305   0.553   3.354  13.462 -0.7983  0.3132  0.8029
  282MPD2     C 4306   2.073   4.730  14.682 -0.5130 -0.6746  0.2131
  282MPD2    C1 4307   1.943   0.031  14.694  0.0393 -0.0089 -0.0900
  282MPD2    C2 4308   1.855   4.739  14.605 -0.4048  0.3715  0.4163
  282MPD2    C3 4309   1.888   4.666  14.494  0.5863  0.4344  0.2221
  282MPD2    C4 4310   2.014   4.621  14.478  0.1623 -0.5294  0.0646
  282MPD2    C5 4311   2.108   4.661  14.571  0.3254 -1.0730  0.1086
  282MPD2     H 4312   1.753   0.027  14.628  0.1213  2.2272  0.4431
  282MPD2    H1 4313   2.042   4.562  14.391 -1.0084 -2.9844  1.3597
  282MPD2    H2 4314   2.149   0.018  14.753  0.2506 -2.2695  0.0280
  282MPD2    H3 4315   2.210   4.631  14.550  1.2683  1.4560  1.0345
  282MPD2     N 4316   1.779   4.644  14.400 -0.8717  0.1699  0.9092
  282MPD2    H5 4317   1.694   4.698  14.406  0.8637  2.8991  0.8229
  282MPD2    N1 4318   1.894   0.106  14.803  0.0181  0.4524 -0.2913
  282MPD2    H7 4319   1.794   0.122  14.808  0.0067  0.0440  0.8118
  283TMC3    C1 4320   1.886   0.210  15.013  0.0316 -0.8889 -0.4099
  283TMC3    C2 4321   1.922   0.320  15.088 -0.5462  0.0938 -0.3510
  283TMC3    C3 4322   1.860   0.339  15.208 -0.4875 -0.6064 -0.0438
  283TMC3    C4 4323   1.788   0.124  15.054  0.1259 -0.7103  0.3128
  283TMC3    C5 4324   1.732   0.153  15.173  0.2971  0.5999 -0.3412
  283TMC3    C6 4325   1.773   0.249  15.261  0.0742  0.5472  0.3408
  283TMC3     C 4326   1.969   0.159  14.902  0.3371  0.6257 -0.0960
  283TMC3     O 4327   2.088   0.174  14.913 -0.2343  0.3263  0.4800
  283TMC3     H 4328   1.999   0.388  15.054  0.2382 -0.8817 -0.5250
  283TMC3    H1 4329   1.758   0.035  14.999  0.8494  0.0758 -1.3786
  283TMC3    H2 4330   1.728   0.263  15.358 -0.2305  0.0839  0.2648
  283TMC3    C7 4331   1.613   0.080  15.221  0.3111  1.1222 -0.0496
  283TMC3    C8 4332   1.885   0.455  15.290 -1.0255 -0.0415 -0.5727
  283TMC3    O1 4333   1.590   0.076  15.340 -0.1682  0.0929  0.2211
  283TMC3    O2 4334   1.905   0.440  15.408  0.1096 -0.4731  0.0811
  284MPD2     C 4335   0.028   3.734  12.459  0.2966  0.1747 -0.5258
  284MPD2    C1 4336   0.118   3.834  12.415  0.2421  0.3224 -0.3056
  284MPD2    C2 4337   0.223   3.865  12.495  0.0641  0.4373  0.1108
  284MPD2    C3 4338   0.253   3.781  12.601  0.0288 -0.1493 -0.0309
  284MPD2    C4 4339   0.173   3.679  12.637 -0.0075  0.5334 -0.0205
  284MPD2    C5 4340   0.063   3.655  12.559  0.2124 -0.1869 -0.0165
  284MPD2     H 4341   0.282   3.949  12.459 -1.7374  1.9558  0.7388
  284MPD2    H1 4342   0.197   3.615  12.721  0.7082 -1.1007 -1.4499
  284MPD2    H2 4343   4.667   3.724  12.422  0.1304  2.7585 -0.7542
  284MPD2    H3 4344   0.003   3.566  12.573  1.1327 -0.7676  0.2475
  284MPD2     N 4345   0.386   3.796  12.662 -0.0706  0.0868  0.3370
  284MPD2    H5 4346   0.400   3.723  12.731  1.3486  1.3759  1.4027
  284MPD2    N1 4347   0.103   3.894  12.291 -0.5939  0.5892 -0.2928
  284MPD2    H7 4348   0.171   3.965  12.266  0.4409 -0.9835 -1.9451
  285TMC3    C1 4349   0.027   3.935  12.067  0.0443 -0.6779 -0.7596
  285TMC3    C2 4350   0.037   3.859  11.954 -1.0109 -0.3734  0.1302
  285TMC3    C3 4351   0.098   3.915  11.846  0.2523  0.0564 -0.4942
  285TMC3    C4 4352   0.082   4.062  12.075  0.3090  0.2806  0.3618
  285TMC3    C5 4353   0.149   4.102  11.963 -0.0501  0.0551  0.2299
  285TMC3    C6 4354   0.172   4.030  11.850 -0.3867  0.2077  0.5837
  285TMC3     C 4355   0.018   3.853  12.190 -0.1358 -0.5060 -0.0303
  285TMC3     O 4356   4.690   3.754  12.183 -0.2580  0.7765  0.2213
  285TMC3     H 4357   0.001   3.757  11.952  2.2838 -1.4893 -0.8045
  285TMC3    H1 4358   0.065   4.120  12.165 -1.1793  2.7240 -1.5005
  285TMC3    H2 4359   0.234   4.072  11.771  1.2254  0.0244  1.7429
  285TMC3    C7 4360   0.158   4.242  11.928  0.3032  0.4622 -0.2321
  285TMC3    C8 4361   0.073   3.846  11.719 -0.0270 -0.5386 -0.3387
  285TMC3    O1 4362   0.141   4.274  11.811 -0.4250 -0.1913  0.1606
  285TMC3    O2 4363   0.033   3.732  11.720 -0.3852  0.6532 -0.6725
  286MPD2     C 4364   0.088   2.752   1.312  0.8967 -0.0451 -0.0355
  286MPD2    C1 4365   4.712   2.693   1.254 -0.5697  0.2000  0.3120
  286MPD2    C2 4366   4.676   2.565   1.293 -0.2573  0.0721 -0.1107
  286MPD2    C3 4367   0.005   2.494   1.388 -0.2795  0.2729  0.2055
  286MPD2    C4 4368   0.118   2.556   1.442 -0.4106  0.8411  0.5643
  286MPD2    C5 4369   0.155   2.680   1.406  0.7719 -0.6378  0.8113
  286MPD2     H 4370   4.587   2.519   1.254  0.3330 -0.4413 -0.8474
  286MPD2    H1 4371   0.167   2.510   1.528 -1.6303 -2.4437 -0.4865
  286MPD2    H2 4372   0.117   2.856   1.300  0.8728  0.0930  1.1707
  286MPD2    H3 4373   0.245   2.721   1.450 -0.6982  0.4396  2.7843
  286MPD2     N 4374   4.719   2.356   1.419 -0.3300  0.1737 -0.2856
  286MPD2    H5 4375   0.041   2.297   1.474 -0.8516 -1.1064 -1.0637
  286MPD2    N1 4376   4.627   2.766   1.165 -0.1201  0.0802  0.0449
  286MPD2    H7 4377   4.536   2.724   1.148 -0.0774  0.0886 -0.2067
  287TMC3    C1 4378   4.637   2.138   1.372  0.1432  0.3303 -0.1922
  287TMC3    C2 4379   4.601   2.056   1.263  0.1743 -0.4921  1.0093
  287TMC3    C3 4380   4.686   1.957   1.221 -0.3745 -0.0764 -0.0040
  287TMC3    C4 4381   0.000   2.098   1.460  0.6973  0.0525 -0.1052
  287TMC3    C5 4382   0.064   1.980   1.427  0.1472 -0.0974 -0.3014
  287TMC3    C6 4383   0.050   1.922   1.305 -0.7493  0.0135 -0.2640
  287TMC3     C 4384   4.618   2.283   1.359  0.3963  0.5148  0.2336
  287TMC3     O 4385   4.527   2.323   1.289 -0.0545 -0.0647 -0.2031
  287TMC3     H 4386   4.523   2.092   1.197  1.3615  0.2814  0.0287
  287TMC3    H1 4387   0.022   2.153   1.551  1.9130  0.2046 -0.4952
  287TMC3    H2 4388   0.105   1.834   1.274 -0.3552  0.8172 -1.8708
  287TMC3    C7 4389   0.190   1.961   1.507  0.3777  0.2968  0.2291
  287TMC3    C8 4390   4.668   1.867   1.107  0.6796  0.1077 -0.5918
  287TMC3    O1 4391   0.210   2.043   1.595 -0.2149 -0.0467 -0.2860
  287TMC3    O2 4392   0.012   1.777   1.077 -0.1517  0.1567  0.2121
  288TMC3    C1 4393   2.058   2.898  14.301  0.3030 -0.3904  0.0831
  288TMC3    C2 4394   1.966   2.877  14.398  0.6416 -0.2355  0.2989
  288TMC3    C3 4395   1.857   2.963  14.407 -0.0447 -0.6319  0.3694
  288TMC3    C4 4396   2.054   3.003  14.216 -0.3759 -0.3552 -0.5435
  288TMC3    C5 4397   1.957   3.094  14.230 -0.2242  0.5218 -0.0406
  288TMC3    C6 4398   1.860   3.073  14.328 -0.5535 -0.0188 -0.2766
  288TMC3     C 4399   2.175   2.821  14.311  0.0705 -0.6118  0.7588
  288TMC3     O 4400   2.199   2.782  14.425  0.3460  0.4619  0.0332
  288TMC3     H 4401   1.976   2.791  14.464  0.3639 -1.2888 -1.0337
  288TMC3    H1 4402   2.135   3.031  14.150 -0.9693 -2.1264 -2.0247
  288TMC3    H2 4403   1.776   3.141  14.335 -0.9900 -0.7101  0.9675
  288TMC3    C7 4404   1.945   3.194  14.128  0.0128 -0.1068  0.3483
  288TMC3    C8 4405   1.787   2.975  14.535 -0.1417 -0.1850  0.7675
  288TMC3    O1 4406   2.047   3.230  14.068 -0.1794  0.5209 -0.3682
  288TMC3    O2 4407   1.772   3.089  14.575  0.0167 -0.4403  0.1476
  289MPD2     C 4408   1.890   1.840  14.271  0.6148 -0.7570 -0.0551
  289MPD2    C1 4409   1.877   1.979  14.281 -0.1274  0.4121 -0.8780
  289MPD2    C2 4410   1.752   2.036  14.261  0.0453 -0.2282  0.5427
  289MPD2    C3 4411   1.651   1.952  14.211  0.4218 -0.3732  0.4679
  289MPD2    C4 4412   1.665   1.816  14.200 -0.3756  0.1630 -0.4195
  289MPD2    C5 4413   1.781   1.757  14.244  0.7132 -0.5100 -0.3038
  289MPD2     H 4414   1.740   2.143  14.257 -0.3338 -0.3199 -0.8059
  289MPD2    H1 4415   1.588   1.750  14.161 -0.6345  0.1468  0.1244
  289MPD2    H2 4416   1.988   1.798  14.291  0.4361 -0.8353  0.6548
  289MPD2    H3 4417   1.793   1.650  14.252 -3.1206 -1.1072 -2.3189
  289MPD2     N 4418   1.524   2.005  14.174  0.4746 -0.8979  0.2949
  289MPD2    H5 4419   1.453   1.943  14.137  0.5170 -1.2209  0.7658
  289MPD2    N1 4420   1.994   2.049  14.296  0.2794  0.0310  0.0157
  289MPD2    H7 4421   2.082   2.003  14.310 -0.7035 -1.4519  1.2695
  290TMC3    C1 4422   1.354   2.157  14.129  0.2093  0.2742  0.8421
  290TMC3    C2 4423   1.320   2.285  14.095  0.0763 -0.3228  0.0219
  290TMC3    C3 4424   1.202   2.299  14.042  0.1063 -0.6345  0.4103
  290TMC3    C4 4425   1.264   2.054  14.138 -0.5124 -0.4010 -0.3265
  290TMC3    C5 4426   1.144   2.075  14.073  0.5152  0.0323 -0.0549
  290TMC3    C6 4427   1.110   2.196  14.022 -0.3426  0.6443  0.2647
  290TMC3     C 4428   1.480   2.132  14.190 -0.0090  0.1424  0.2051
  290TMC3     O 4429   1.536   2.226  14.245  0.2484 -0.5009  0.1077
  290TMC3     H 4430   1.389   2.368  14.106 -2.4850  1.6611  1.1638
  290TMC3    H1 4431   1.284   1.960  14.189 -2.0327  0.2815  1.5090
  290TMC3    H2 4432   1.017   2.220  13.972 -0.1915 -0.2144 -0.4211
  290TMC3    C7 4433   1.039   1.991  14.105 -0.4469 -0.1851 -0.1550
  290TMC3    C8 4434   1.151   2.430  14.016 -0.1782 -0.0479 -0.1603
  290TMC3    O1 4435   0.933   2.055  14.115 -0.0879 -0.0733 -0.3297
  290TMC3    O2 4436   1.072   2.444  13.925  0.1736  0.2948 -0.0965
  291MPD2     C 4437   0.711   1.612   0.296  0.3568 -0.6077  0.0923
  291MPD2    C1 4438   0.829   1.554   0.249  0.5333  0.3937 -0.9877
  291MPD2    C2 4439   0.941   1.631   0.240  0.2366 -0.5339 -0.4600
  291MPD2    C3 4440   0.942   1.767   0.276  1.0804  0.4430 -0.0301
  291MPD2    C4 4441   0.831   1.819   0.320  0.4220 -0.2248  0.0607
  291MPD2    C5 4442   0.721   1.745   0.335 -0.5202 -0.6132 -0.0693
  291MPD2     H 4443   1.030   1.580   0.204  1.4955  0.5650  1.0441
  291MPD2    H1 4444   0.825   1.919   0.363  0.5656 -0.4394  0.5778
  291MPD2    H2 4445   0.620   1.555   0.305 -0.0145 -0.2013 -1.0677
  291MPD2    H3 4446   0.627   1.792   0.362 -0.1392 -0.1881  0.5178
  291MPD2     N 4447   1.054   1.853   0.250 -0.7762 -0.2139  0.0385
  291MPD2    H5 4448   1.036   1.949   0.278 -1.0706  0.3442 -2.0515
  291MPD2    N1 4449   0.841   1.425   0.211 -0.0047 -0.9076 -0.3527
  291MPD2    H7 4450   0.926   1.397   0.163 -0.2305 -1.8586 -0.1859
  292TMC3    C1 4451   0.793   1.198   0.187  0.8746 -0.2698 -0.2264
  292TMC3    C2 4452   0.890   1.153   0.276 -0.2885  0.1630  0.3605
  292TMC3    C3 4453   0.885   1.019   0.297  0.0835  0.2430 -0.6763
  292TMC3    C4 4454   0.709   1.112   0.117 -0.9312 -0.1267  0.0770
  292TMC3    C5 4455   0.719   0.979   0.144 -0.1131 -0.1140 -0.4066
  292TMC3    C6 4456   0.808   0.928   0.236  0.3788  0.6319 -0.3463
  292TMC3     C 4457   0.740   1.334   0.208 -0.0405 -0.5303 -0.2131
  292TMC3     O 4458   0.621   1.336   0.235  0.5441  0.2157 -0.5602
  292TMC3     H 4459   0.936   1.233   0.332 -1.8656  0.5815  1.0633
  292TMC3    H1 4460   0.630   1.161   0.061  0.8585  3.5987  0.8093
  292TMC3    H2 4461   0.825   0.823   0.256 -1.4069 -0.3866 -4.1936
  292TMC3    C7 4462   0.691   0.891   0.033  0.4079 -0.1899  0.0738
  292TMC3    C8 4463   0.972   0.972   0.399 -0.2444  0.4691 -0.1591
  292TMC3    O1 4464   0.742   0.781   0.046 -0.0488 -0.8249 -0.1821
  292TMC3    O2 4465   1.067   1.044   0.426 -0.2780 -0.4739  0.1831
  293MPD2     C 4466   2.979   2.921  12.529  0.0504 -0.6331 -0.1616
  293MPD2    C1 4467   2.871   2.988  12.593 -0.4143  0.3653 -0.4857
  293MPD2    C2 4468   2.889   3.034  12.716  0.1578 -0.0077  0.3773
  293MPD2    C3 4469   3.014   3.032  12.776 -0.1870  0.0977  0.4741
  293MPD2    C4 4470   3.123   2.979  12.712  0.2660 -0.0735 -0.1295
  293MPD2    C5 4471   3.104   2.923  12.584 -0.7429 -0.0821  0.0355
  293MPD2     H 4472   2.799   3.069  12.766 -1.0906 -0.3433 -1.6602
  293MPD2    H1 4473   3.222   2.969  12.753  0.2727  1.6342  0.2718
  293MPD2    H2 4474   2.967   2.881  12.429  3.7244 -0.0723 -0.8076
  293MPD2    H3 4475   3.183   2.871  12.531 -1.3669 -2.2452  1.2523
  293MPD2     N 4476   3.028   3.082  12.909 -0.0491  0.0900  0.1140
  293MPD2    H5 4477   2.943   3.123  12.946 -0.1173  1.2080 -1.2899
  293MPD2    N1 4478   2.751   2.991  12.516  1.1437 -0.1940  0.2873
  293MPD2    H7 4479   2.742   2.935  12.432 -0.9275  1.1262 -0.3790
  294TMC3    C1 4480   2.545   3.088  12.429  0.2670 -0.2993 -0.2161
  294TMC3    C2 4481   2.537   2.980  12.341 -0.4532  0.0235  0.1351
  294TMC3    C3 4482   2.453   2.999  12.235  0.1101  0.8816 -0.0342
  294TMC3    C4 4483   2.471   3.202  12.407 -0.0023 -0.4116  0.0752
  294TMC3    C5 4484   2.379   3.206  12.308  0.6324  0.2268  0.5399
  294TMC3    C6 4485   2.369   3.111  12.215 -0.1738 -0.2314  0.3227
  294TMC3     C 4486   2.653   3.089  12.534  0.0933 -0.4598  0.8319
  294TMC3     O 4487   2.652   3.176  12.618  0.5349  0.6445 -0.2235
  294TMC3     H 4488   2.579   2.883  12.367 -0.8766 -0.2066 -0.0433
  294TMC3    H1 4489   2.481   3.288  12.472  1.2877 -0.2344 -0.3615
  294TMC3    H2 4490   2.280   3.110  12.153 -2.0800  0.1060  3.0418
  294TMC3    C7 4491   2.330   3.334  12.266  0.6350 -0.1848 -0.7155
  294TMC3    C8 4492   2.436   2.891  12.146  0.0821  0.0532  0.1236
  294TMC3    O1 4493   2.250   3.396  12.340 -0.3479  0.4166  0.3644
  294TMC3    O2 4494   2.336   2.900  12.074 -0.3528  0.6155 -0.2890
  295MPD2     C 4495   3.759   1.927   1.503  0.2313  0.6513  0.0516
  295MPD2    C1 4496   3.750   1.809   1.424 -0.8474 -0.0028 -0.3438
  295MPD2    C2 4497   3.850   1.721   1.443  0.5613 -0.4591 -0.1902
  295MPD2    C3 4498   3.956   1.741   1.534 -0.0663  0.1261 -0.5007
  295MPD2    C4 4499   3.966   1.865   1.589  0.6310 -0.6316  1.1492
  295MPD2    C5 4500   3.871   1.957   1.571  0.2620  0.4191 -0.3110
  295MPD2     H 4501   3.848   1.620   1.405 -0.9589 -0.9661  1.1798
  295MPD2    H1 4502   4.047   1.895   1.655  0.6856 -1.6012  1.5299
  295MPD2    H2 4503   3.679   2.001   1.494 -0.8286 -0.6180 -1.0763
  295MPD2    H3 4504   3.880   2.053   1.621  2.1242  0.2032 -0.2297
  295MPD2     N 4505   4.066   1.652   1.563  0.3407 -0.0904  0.8917
  295MPD2    H5 4506   4.134   1.681   1.633 -1.7211  2.1850  1.9800
  295MPD2    N1 4507   3.644   1.772   1.340  0.2763  0.2777 -0.1371
  295MPD2    H7 4508   3.650   1.690   1.281 -0.9942  0.7661 -0.9538
  296TMC3    C1 4509   4.181   1.444   1.571 -0.5717  0.4293 -0.4731
  296TMC3    C2 4510   4.289   1.508   1.619  0.4190  0.5000  0.3211
  296TMC3    C3 4511   4.384   1.419   1.663  0.0125  0.3724  0.5383
  296TMC3    C4 4512   4.167   1.311   1.556 -0.1682 -0.3186  0.0167
  296TMC3    C5 4513   4.263   1.225   1.594 -0.0075 -0.0353 -0.5048
  296TMC3    C6 4514   4.375   1.280   1.652 -0.5131 -0.6031  0.0377
  296TMC3     C 4515   4.075   1.523   1.512 -0.2141 -0.0003  0.0834
  296TMC3     O 4516   3.987   1.460   1.448  0.1353 -0.7855 -0.2659
  296TMC3     H 4517   4.319   1.612   1.615 -0.4950  0.7644  0.4235
  296TMC3    H1 4518   4.079   1.266   1.512 -0.2170 -1.8430  1.6541
  296TMC3    H2 4519   4.447   1.208   1.689 -0.0133 -1.3931 -2.4621
  296TMC3    C7 4520   4.253   1.076   1.585  0.6736  0.0446  0.6327
  296TMC3    C8 4521   4.485   1.452   1.764 -0.0305 -0.2586  0.1985
  296TMC3    O1 4522   4.353   1.021   1.629  0.1082  0.1587 -0.3617
  296TMC3    O2 4523   4.576   1.372   1.782 -0.5626  0.6516  0.1827
  297MPD2     C 4524   0.896   3.381  16.577 -0.0672 -0.1313  0.5742
  297MPD2    C1 4525   0.862   3.472  16.478 -0.2149  0.4010  0.4538
  297MPD2    C2 4526   0.955   3.558  16.432  1.1240  0.4968  0.2835
  297MPD2    C3 4527   1.084   3.554  16.470  0.3702  0.8781 -0.2698
  297MPD2    C4 4528   1.120   3.471  16.572 -0.0083  0.1896  0.0083
  297MPD2    C5 4529   1.029   3.385  16.620  0.2107  0.3777  0.3617
  297MPD2     H 4530   0.922   3.624  16.352 -3.4046  0.9515  2.5051
  297MPD2    H1 4531   1.218   3.463  16.618  0.2023  0.1608 -0.4425
  297MPD2    H2 4532   0.829   3.308  16.620 -2.2099  1.1793 -0.5385
  297MPD2    H3 4533   1.053   3.310  16.695  1.2962 -4.2657 -4.6190
  297MPD2     N 4534   1.170   3.648  16.404  0.2670 -0.8755  0.1201
  297MPD2    H5 4535   1.130   3.705  16.331 -0.1580  0.0148  1.0552
  297MPD2    N1 4536   0.734   3.476  16.421 -0.0366  0.6995 -0.3874
  297MPD2    H7 4537   0.720   3.553  16.355 -0.0082 -0.3947 -1.6664
  298TMC3    C1 4538   0.508   3.433  16.375  0.7051 -0.7726 -0.2986
  298TMC3    C2 4539   0.519   3.459  16.238 -0.1436 -0.7457 -0.9807
  298TMC3    C3 4540   0.404   3.434  16.163  0.1250 -0.0879  0.5035
  298TMC3    C4 4541   0.395   3.401  16.438  0.3744 -0.3980 -0.1898
  298TMC3    C5 4542   0.286   3.371  16.357  0.9540  0.2112  0.6759
  298TMC3    C6 4543   0.294   3.380  16.224 -0.5148  0.0760 -0.2044
  298TMC3     C 4544   0.629   3.408  16.453  0.1914  0.0079  0.2453
  298TMC3     O 4545   0.623   3.319  16.537 -0.1624 -0.0019  0.2352
  298TMC3     H 4546   0.611   3.496  16.193  0.2615 -0.1768  0.3298
  298TMC3    H1 4547   0.395   3.369  16.542  1.4591 -1.0061 -0.3677
  298TMC3    H2 4548   0.216   3.348  16.155  0.3971 -0.8472 -0.8215
  298TMC3    C7 4549   0.155   3.406  16.414  0.6689 -0.2760  0.2944
  298TMC3    C8 4550   0.389   3.482  16.028 -0.2434 -0.1088  0.2354
  298TMC3    O1 4551   0.147   3.413  16.538 -0.5595 -0.2909  0.0010
  298TMC3    O2 4552   0.286   3.469  15.966  0.6774 -0.4468 -0.0545
  299MPD2     C 4553   1.062   3.720  10.945  0.4418 -0.4345  0.1028
  299MPD2    C1 4554   1.076   3.849  10.897 -0.5899 -0.0803  0.1516
  299MPD2    C2 4555   0.997   3.885  10.791  0.1102  0.0890  0.1434
  299MPD2    C3 4556   0.897   3.802  10.744  0.0174 -0.4188 -0.6294
  299MPD2    C4 4557   0.885   3.674  10.797  0.0254  0.4981 -0.6051
  299MPD2    C5 4558   0.964   3.633  10.895  0.4547 -0.0340 -0.6464
  299MPD2     H 4559   1.001   3.982  10.743 -2.8264 -0.2273 -0.7238
  299MPD2    H1 4560   0.810   3.603  10.765 -0.1403  0.6675 -0.5862
  299MPD2    H2 4561   1.132   3.678  11.016 -0.3273  0.2385  1.2660
  299MPD2    H3 4562   0.960   3.528  10.923 -1.3959  0.3552  0.5478
  299MPD2     N 4563   0.791   3.840  10.656 -0.3310 -0.1670  0.0818
  299MPD2    H5 4564   0.716   3.774  10.640 -1.2233  0.6669  0.8211
  299MPD2    N1 4565   1.172   3.935  10.955 -0.7227 -0.3143 -0.1384
  299MPD2    H7 4566   1.227   3.894  11.030 -2.0486 -1.6694  0.0938
  300TMC3    C1 4567   0.682   3.952  10.474  0.0496 -0.0210  1.0505
  300TMC3    C2 4568   0.669   4.079  10.419 -0.0862 -0.5681  0.2854
  300TMC3    C3 4569   0.590   4.082  10.307 -0.1450  0.5761  0.4378
  300TMC3    C4 4570   0.619   3.839  10.423 -0.1826 -0.5443  0.1268
  300TMC3    C5 4571   0.543   3.848  10.310 -0.0142  0.3779  0.0682
  300TMC3    C6 4572   0.533   3.974  10.251 -0.3483 -0.5909 -0.2277
  300TMC3     C 4573   0.774   3.956  10.589 -0.9468 -0.1366  0.3482
  300TMC3     O 4574   0.849   4.052  10.602  0.0011  0.4589  0.0376
  300TMC3     H 4575   0.718   4.161  10.470 -1.0631  1.4436 -2.0073
  300TMC3    H1 4576   0.644   3.741  10.461  2.0944  1.0226  2.7478
  300TMC3    H2 4577   0.491   3.983  10.152  1.1489  1.6189 -0.6663
  300TMC3    C7 4578   0.422   3.757  10.295 -0.1680 -0.1383 -0.6177
  300TMC3    C8 4579   0.499   4.190  10.304  0.1672  0.3761  0.9091
  300TMC3    O1 4580   0.362   3.763  10.191  0.3031 -0.1516  0.2518
  300TMC3    O2 4581   0.402   4.172  10.229 -0.1189 -0.0538 -0.6901
  301MPD2     C 4582   3.740   4.456   0.691 -0.3058 -0.1042  0.5852
  301MPD2    C1 4583   3.611   4.466   0.656  0.0788 -0.7922  0.3126
  301MPD2    C2 4584   3.550   4.349   0.627 -0.0428  0.3649 -0.4894
  301MPD2    C3 4585   3.605   4.224   0.649 -0.7892  0.0793  0.5046
  301MPD2    C4 4586   3.741   4.217   0.687 -0.0172  0.1038  0.1491
  301MPD2    C5 4587   3.799   4.335   0.713  0.0759 -0.8197 -0.2919
  301MPD2     H 4588   3.454   4.362   0.578 -0.7274  0.6042  0.9044
  301MPD2    H1 4589   3.801   4.127   0.683 -0.7083 -0.3301 -0.6483
  301MPD2    H2 4590   3.800   4.543   0.718  1.1029 -0.6948 -0.5934
  301MPD2    H3 4591   3.900   4.332   0.752  0.1292 -1.1521 -0.4533
  301MPD2     N 4592   3.536   4.107   0.625 -0.8887  0.4580 -0.3508
  301MPD2    H5 4593   3.586   4.019   0.616  0.8368  1.3375  0.6381
  301MPD2    N1 4594   3.537   4.583   0.640 -0.2376 -0.3897  0.4892
  301MPD2    H7 4595   3.439   4.573   0.617 -0.1931  0.5131 -0.0542
  302TMC3    C1 4596   3.365   3.957   0.578  0.2376  0.4501 -0.4336
  302TMC3    C2 4597   3.390   3.887   0.695 -1.5780 -0.3456 -0.3267
  302TMC3    C3 4598   3.311   3.779   0.733  0.0601 -0.0928 -0.2428
  302TMC3    C4 4599   3.259   3.924   0.504 -0.1593  1.1073  0.2909
  302TMC3    C5 4600   3.184   3.815   0.540  0.1181 -0.2496 -0.6054
  302TMC3    C6 4601   3.211   3.732   0.649  0.8932  0.4033  0.2392
  302TMC3     C 4602   3.405   4.093   0.576 -0.0529 -0.0114 -0.4570
  302TMC3     O 4603   3.332   4.171   0.507  0.2361  0.0969  0.3012
  302TMC3     H 4604   3.465   3.919   0.767  0.8609 -1.6235 -2.2974
  302TMC3    H1 4605   3.237   3.977   0.412  2.2661  1.6137 -0.0038
  302TMC3    H2 4606   3.149   3.644   0.657 -0.5226  1.3671 -0.0253
  302TMC3    C7 4607   3.076   3.786   0.451 -0.5751 -0.4477  0.3604
  302TMC3    C8 4608   3.335   3.706   0.858  0.8376  0.2745 -0.2211
  302TMC3    O1 4609   3.059   3.670   0.417  0.5083 -0.0864  0.0952
  302TMC3    O2 4610   3.423   3.757   0.930  0.4910 -0.2883 -0.3364
  303MPD2     C 4611   3.472   3.794  10.676  0.2385  0.3441 -0.7911
  303MPD2    C1 4612   3.330   3.793  10.673 -0.6578  0.1218  0.8040
  303MPD2    C2 4613   3.266   3.841  10.555 -0.1985  0.6865 -0.3870
  303MPD2    C3 4614   3.341   3.880  10.443  0.1849  0.5030 -0.4711
  303MPD2    C4 4615   3.476   3.882  10.459  0.0438 -0.3219 -0.1648
  303MPD2    C5 4616   3.545   3.844  10.569  0.2089  0.4343 -0.3448
  303MPD2     H 4617   3.160   3.827  10.537  0.0005 -0.1802 -0.9193
  303MPD2    H1 4618   3.548   3.894  10.379 -1.2520  1.7299 -1.0217
  303MPD2    H2 4619   3.535   3.749  10.751 -2.0473 -0.0845  0.8653
  303MPD2    H3 4620   3.654   3.841  10.566  0.2790  1.2337  1.5011
  303MPD2     N 4621   3.285   3.914  10.319 -0.3320 -0.6097 -0.1036
  303MPD2    H5 4622   3.339   3.927  10.235 -0.5105 -0.1200 -0.1420
  303MPD2    N1 4623   3.266   3.737  10.786 -0.1568 -0.5266 -0.1798
  303MPD2    H7 4624   3.333   3.696  10.850  0.8205 -1.3497 -1.7408
  304TMC3    C1 4625   3.101   3.693  10.946  0.6654 -0.1713 -0.7379
  304TMC3    C2 4626   2.986   3.734  11.008  1.3880  0.3839  0.1613
  304TMC3    C3 4627   2.911   3.646  11.083 -0.6150  0.2722 -0.3730
  304TMC3    C4 4628   3.143   3.562  10.950  0.1584 -0.3478  0.4833
  304TMC3    C5 4629   3.070   3.471  11.017 -0.0215  0.1502  0.6873
  304TMC3    C6 4630   2.954   3.520  11.080  0.5873 -0.2430  0.3326
  304TMC3     C 4631   3.132   3.762  10.820  0.0680 -0.1013  0.3117
  304TMC3     O 4632   3.051   3.839  10.779  0.1636 -0.2939  0.4213
  304TMC3     H 4633   2.949   3.834  10.988  1.6999 -0.0784 -2.6205
  304TMC3    H1 4634   3.231   3.521  10.901 -0.0525 -1.3543  0.9420
  304TMC3    H2 4635   2.896   3.446  11.134 -1.3639 -0.4474 -2.0295
  304TMC3    C7 4636   3.051   3.350  10.940 -1.7113 -0.0533 -0.2031
  304TMC3    C8 4637   2.767   3.648  11.074  0.1156 -0.4158 -0.0342
  304TMC3    O1 4638   3.148   3.310  10.880  0.5207 -0.2040 -0.1633
  304TMC3    O2 4639   2.702   3.545  11.053 -0.9382 -0.6646  0.1890
  305MPD2     C 4640   1.687   0.315  14.194 -0.7156 -0.6385  0.1985
  305MPD2    C1 4641   1.802   0.242  14.165  0.6153  0.1055 -0.2339
  305MPD2    C2 4642   1.809   0.185  14.042  0.6654 -0.0664 -0.2179
  305MPD2    C3 4643   1.709   0.201  13.943  0.1484 -0.2228 -0.5576
  305MPD2    C4 4644   1.596   0.271  13.977  0.2228  0.2060 -0.0194
  305MPD2    C5 4645   1.584   0.334  14.104 -0.2529  0.6253 -0.7312
  305MPD2     H 4646   1.906   0.147  14.014  0.3756 -0.2579 -0.9706
  305MPD2    H1 4647   1.510   0.280  13.912  0.1442 -0.0018  0.0531
  305MPD2    H2 4648   1.679   0.376  14.283 -0.6194 -0.6817  0.2362
  305MPD2    H3 4649   1.493   0.389  14.126  0.0066 -0.4656  3.1708
  305MPD2     N 4650   1.722   0.151  13.811 -0.2948 -0.0079  0.7695
  305MPD2    H5 4651   1.644   0.173  13.749 -1.6811  0.8207  2.8394
  305MPD2    N1 4652   1.905   0.229  14.259 -0.3453 -0.6352 -0.2633
  305MPD2    H7 4653   1.909   0.295  14.336 -0.5485 -0.1847 -0.6391
  306TMC3    C1 4654   2.127   0.183  14.309 -0.7753 -0.6147 -0.2413
  306TMC3    C2 4655   2.237   0.149  14.237 -0.0054 -0.3288  0.0656
  306TMC3    C3 4656   2.357   0.184  14.284 -0.0189  0.2519  0.5959
  306TMC3    C4 4657   2.130   0.251  14.426 -0.3905  0.0823 -0.4819
  306TMC3    C5 4658   2.254   0.280  14.475  0.2462 -0.1853  0.3588
  306TMC3    C6 4659   2.370   0.253  14.401  0.4123  0.0056  0.1208
  306TMC3     C 4660   2.008   0.136  14.244 -0.0091  0.5229  0.4566
  306TMC3     O 4661   2.011   0.033  14.178 -0.0766  0.0717  0.3369
  306TMC3     H 4662   2.217   0.105  14.140 -0.7681 -2.6427  1.2821
  306TMC3    H1 4663   2.043   0.261  14.489 -0.6206 -0.6109 -0.6869
  306TMC3    H2 4664   2.463   0.298  14.435  0.8912  1.0722 -2.6477
  306TMC3    C7 4665   2.276   0.337  14.607  0.1422 -0.2147 -0.5794
  306TMC3    C8 4666   2.472   0.131  14.219 -0.4160  0.3042  0.2168
  306TMC3    O1 4667   2.387   0.335  14.650  0.1330 -0.5541  0.0170
  306TMC3    O2 4668   2.445   0.076  14.115 -0.4589 -0.3536 -0.2626
  307MPD2     C 4669   4.067   2.805   0.334  0.0295  0.1768  0.3647
  307MPD2    C1 4670   4.072   2.941   0.320  0.0290 -0.8137 -0.9770
  307MPD2    C2 4671   4.031   3.024   0.423  0.0657  0.1920 -0.1097
  307MPD2    C3 4672   3.971   2.967   0.537  0.0300  0.0268  0.1459
  307MPD2    C4 4673   3.957   2.826   0.545 -0.3742 -0.1260  0.3355
  307MPD2    C5 4674   4.007   2.751   0.443 -0.4114  0.0364  0.6489
  307MPD2     H 4675   4.029   3.132   0.417 -1.2775  0.1117 -1.1526
  307MPD2    H1 4676   3.917   2.772   0.630 -0.4936 -0.1504  0.2645
  307MPD2    H2 4677   4.110   2.732   0.266 -0.0150  1.0058 -0.5581
  307MPD2    H3 4678   4.011   2.645   0.466  0.9935 -0.2412 -0.9123
  307MPD2     N 4679   3.918   3.062   0.629 -0.3698  0.9072  0.5953
  307MPD2    H5 4680   3.919   3.161   0.606 -0.2592  0.4438 -1.4209
  307MPD2    N1 4681   4.112   2.997   0.201  0.0618 -0.7015 -0.1887
  307MPD2    H7 4682   4.097   3.097   0.205  2.3190 -0.2859 -2.1968
  308TMC3    C1 4683   3.564   3.209   0.853  0.2316 -0.3383 -0.9234
  308TMC3    C2 4684   3.592   3.333   0.814 -0.0371 -0.2702 -0.0060
  308TMC3    C3 4685   3.719   3.356   0.773  0.0925  0.1604 -0.1117
  308TMC3    C4 4686   3.657   3.108   0.854 -0.6643 -0.0683 -0.2650
  308TMC3    C5 4687   3.786   3.138   0.812 -0.0924 -0.1995 -0.5443
  308TMC3    C6 4688   3.822   3.264   0.776  0.2481 -0.4930  1.0690
  308TMC3     C 4689   3.426   3.166   0.861  0.2028 -0.6970  0.2639
  308TMC3     O 4690   3.404   3.052   0.910  0.3256 -0.1908 -0.7485
  308TMC3     H 4691   3.520   3.412   0.829  1.8240  0.7994  3.2443
  308TMC3    H1 4692   3.620   3.009   0.877 -0.2906 -0.3382 -0.8145
  308TMC3    H2 4693   3.916   3.292   0.730  0.2112  0.7456  1.7437
  308TMC3    C7 4694   3.863   3.023   0.752  0.7238  0.9008 -0.7839
  308TMC3    C8 4695   3.737   3.488   0.726 -0.4777 -0.0844 -0.0607
  308TMC3    O1 4696   3.842   2.917   0.810  0.2541 -0.2914  0.0809
  308TMC3    O2 4697   3.653   3.546   0.658 -0.2796  0.3835 -0.5864
  309MPD2     C 4698   3.180   3.364  17.237 -0.0529  0.1412  0.0082
  309MPD2    C1 4699   3.180   3.456  17.137 -0.5410 -0.0341 -0.1859
  309MPD2    C2 4700   3.067   3.531  17.110 -1.0596  0.6782  0.2395
  309MPD2    C3 4701   2.960   3.516  17.196 -0.3956  0.0296  0.0237
  309MPD2    C4 4702   2.959   3.420  17.292  0.3012 -0.2269  0.4415
  309MPD2    C5 4703   3.063   3.340  17.312 -0.0565  0.4973  0.8536
  309MPD2     H 4704   3.080   3.592  17.021  2.3198 -0.1675  0.1367
  309MPD2    H1 4705   2.872   3.412  17.356 -1.2749  2.4825 -1.3970
  309MPD2    H2 4706   3.260   3.295  17.260  0.1982  0.6827  0.7267
  309MPD2    H3 4707   3.055   3.265  17.389 -0.0689  0.4877  0.8430
  309MPD2     N 4708   2.839   3.585  17.175 -0.2833  0.1444 -0.1020
  309MPD2    H5 4709   2.758   3.542  17.219  0.1869 -2.1093 -1.4493
  309MPD2    N1 4710   3.299   3.472  17.052 -0.4012  0.1039  0.9664
  309MPD2    H7 4711   3.304   3.537  16.974  1.0082  2.5424  3.0932
  310TMC3    C1 4712   3.511   3.414  16.975 -0.4950 -0.0024  0.1377
  310TMC3    C2 4713   3.496   3.510  16.874 -0.6999  0.8927  0.1664
  310TMC3    C3 4714   3.601   3.517  16.787 -0.5646 -0.4961  0.1114
  310TMC3    C4 4715   3.615   3.329  16.983 -0.7710  0.1508  1.0839
  310TMC3    C5 4716   3.701   3.326  16.877  0.8360  0.3532  0.3288
  310TMC3    C6 4717   3.699   3.423  16.784 -0.1531  0.9491  0.2673
  310TMC3     C 4718   3.419   3.415  17.086 -0.0513 -0.6316 -0.3255
  310TMC3     O 4719   3.457   3.362  17.190  0.4125 -1.2431 -0.0463
  310TMC3     H 4720   3.414   3.581  16.867 -0.6021  0.9942  0.0689
  310TMC3    H1 4721   3.628   3.265  17.070 -1.3080  0.7674  1.6217
  310TMC3    H2 4722   3.791   3.444  16.730 -0.1501  1.3351  0.4267
  310TMC3    C7 4723   3.800   3.232  16.890 -0.4914  0.5101 -0.0043
  310TMC3    C8 4724   3.571   3.582  16.661 -0.1853  0.9097  0.7122
  310TMC3    O1 4725   3.798   3.160  16.992 -0.4917 -0.0423  0.3667
  310TMC3    O2 4726   3.450   3.586  16.632 -0.5438 -0.9274  0.1558
  311MPD2     C 4727   0.870   0.432  12.273  0.2599 -0.1214  0.3042
  311MPD2    C1 4728   0.927   0.409  12.399 -0.2794  0.5992  0.1581
  311MPD2    C2 4729   0.843   0.357  12.494  0.5366 -0.4697 -0.2112
  311MPD2    C3 4730   0.719   0.297  12.469 -0.3610 -0.0416 -1.1034
  311MPD2    C4 4731   0.676   0.297  12.337 -0.2156  0.2094 -0.5693
  311MPD2    C5 4732   0.747   0.377  12.244  0.3513 -0.0276 -0.3317
  311MPD2     H 4733   0.882   0.351  12.595 -0.3539  0.7073  0.2039
  311MPD2    H1 4734   0.587   0.252  12.296 -0.8834 -0.4342  1.5722
  311MPD2    H2 4735   0.916   0.489  12.193 -1.2247  1.9051  0.8867
  311MPD2    H3 4736   0.700   0.387  12.147  0.1540  0.3589 -0.1969
  311MPD2     N 4737   0.638   0.249  12.575 -1.0473 -0.2929  0.3099
  311MPD2    H5 4738   0.683   0.245  12.667  0.9805  2.9971 -0.5298
  311MPD2    N1 4739   1.050   0.461  12.437 -0.0851  0.3005 -0.6057
  311MPD2    H7 4740   1.072   0.470  12.535  0.7461  0.0127 -0.7678
  312TMC3    C1 4741   0.466   0.131  12.687  0.3289 -0.6375 -0.1640
  312TMC3    C2 4742   0.392   0.017  12.662 -0.1117 -0.3943  0.0819
  312TMC3    C3 4743   0.349   4.681  12.767  0.2936  0.1828  0.1489
  312TMC3    C4 4744   0.508   0.159  12.814 -0.7498  0.5325 -0.7599
  312TMC3    C5 4745   0.458   0.083  12.917  0.1700  0.1769 -0.2336
  312TMC3    C6 4746   0.373   4.718  12.897 -0.6872  0.6601 -0.4915
  312TMC3     C 4747   0.513   0.194  12.566 -0.0002 -0.5107 -0.6152
  312TMC3     O 4748   0.438   0.186  12.468  0.1760 -0.5505  0.0992
  312TMC3     H 4749   0.393   4.718  12.561  2.4425  0.8385 -0.3854
  312TMC3    H1 4750   0.573   0.246  12.825 -0.6316  0.2004  1.1667
  312TMC3    H2 4751   0.315   4.669  12.975 -0.4223 -0.5483 -1.0533
  312TMC3    C7 4752   0.453   0.147  13.046 -0.0069 -0.1618 -0.3830
  312TMC3    C8 4753   0.221   4.614  12.740 -0.9990 -0.1079 -0.1581
  312TMC3    O1 4754   0.482   0.264  13.061  0.5185  0.1079  0.2503
  312TMC3    O2 4755   0.204   4.504  12.795 -0.1033  0.2080  0.5355
  313MPD2     C 4756   0.270   4.217  10.869  0.1965  0.0045 -0.0620
  313MPD2    C1 4757   0.136   4.207  10.891  0.1135  0.0448 -0.4981
  313MPD2    C2 4758   0.067   4.126  10.810  0.8267  0.5879 -0.5177
  313MPD2    C3 4759   0.121   4.052  10.709 -0.3363  0.6061 -0.0558
  313MPD2    C4 4760   0.251   4.064  10.680  0.1637 -0.8810 -0.0539
  313MPD2    C5 4761   0.329   4.141  10.766  0.3593  0.1127 -0.3744
  313MPD2     H 4762   4.699   4.133  10.819  0.6768 -0.6967 -1.3702
  313MPD2    H1 4763   0.294   4.020  10.591 -2.6212 -3.2891 -0.2009
  313MPD2    H2 4764   0.340   4.274  10.929  2.6400 -1.5337 -1.4719
  313MPD2    H3 4765   0.434   4.157  10.741 -0.3879 -1.0979 -4.2699
  313MPD2     N 4766   0.038   3.970  10.627  0.4446  0.4645 -0.2182
  313MPD2    H5 4767   4.683   3.950  10.655  0.5422  0.3440  0.0281
  313MPD2    N1 4768   0.062   4.283  10.989  0.4301 -0.3295  0.8361
  313MPD2    H7 4769   4.702   4.289  10.974  0.5835 -0.7931 -0.3175
  314TMC3    C1 4770   0.038   4.429  11.172 -0.1875  0.7382 -0.1050
  314TMC3    C2 4771   0.092   4.494  11.288 -0.3927  0.2878 -0.1444
  314TMC3    C3 4772   0.011   4.579  11.355 -0.0770  0.5622  0.1102
  314TMC3    C4 4773   4.645   4.432  11.150  0.3453  0.1443  0.8600
  314TMC3    C5 4774   4.566   4.523  11.221  0.1248 -0.3860  0.2579
  314TMC3    C6 4775   4.620   4.597  11.320 -0.6317  0.3066 -0.0547
  314TMC3     C 4776   0.127   4.349  11.092  0.5637  0.4451  0.7022
  314TMC3     O 4777   0.242   4.351  11.130 -0.0336  0.2740  0.4300
  314TMC3     H 4778   0.200   4.497  11.293 -0.3483 -0.8051 -0.4124
  314TMC3    H1 4779   4.597   4.376  11.069  4.2036  0.1789 -1.4282
  314TMC3    H2 4780   4.562   4.678  11.364 -2.5722 -0.3659 -1.3592
  314TMC3    C7 4781   4.452   4.583  11.146 -0.5619  0.1520 -0.0112
  314TMC3    C8 4782   0.079   4.692  11.408 -0.0821  0.0794  0.1979
  314TMC3    O1 4783   4.343   4.581  11.199  0.5176  0.4506 -0.3444
  314TMC3    O2 4784   0.032   0.061  11.379 -0.2459 -0.1511 -0.2378
  315MPD2     C 4785   4.501   2.634  17.741 -0.0429 -0.0942  0.1469
  315MPD2    C1 4786   4.584   2.665   0.083 -0.4240  0.1584 -0.2175
  315MPD2    C2 4787   4.588   2.798   0.114 -0.9636 -0.6053  0.7960
  315MPD2    C3 4788   4.547   2.895   0.028  0.7300 -0.0929 -0.3003
  315MPD2    C4 4789   4.468   2.853  17.681  1.2400  0.4040 -0.2667
  315MPD2    C5 4790   4.440   2.727  17.663  0.2439 -0.6693  0.0912
  315MPD2     H 4791   4.641   2.837   0.200  3.6779  0.9367 -2.7245
  315MPD2    H1 4792   4.427   2.925  17.613  0.2209  0.9067  0.8832
  315MPD2    H2 4793   4.472   2.533  17.714 -2.1247  0.9758 -1.5971
  315MPD2    H3 4794   4.378   2.696  17.580  1.1314 -0.9576 -0.4625
  315MPD2     N 4795   4.577   3.029   0.061 -0.4362  0.1655 -0.1390
  315MPD2    H5 4796   4.627   3.044   0.148  0.1064 -1.1577 -0.2198
  315MPD2    N1 4797   4.647   2.564   0.158  0.2753 -0.2318 -0.0748
  315MPD2    H7 4798   4.712   2.586   0.234 -0.4844  4.4263 -0.7647
  316TMC3    C1 4799   4.615   3.261   0.047  0.6949  0.4507  0.5034
  316TMC3    C2 4800   4.711   3.253   0.147 -0.3405  0.9439  0.3715
  316TMC3    C3 4801   0.021   3.369   0.201  0.3984 -0.0292 -0.7603
  316TMC3    C4 4802   4.566   3.388   0.009  0.0884 -0.6464 -0.0038
  316TMC3    C5 4803   4.624   3.493   0.066 -0.2206 -0.2238  1.2564
  316TMC3    C6 4804   4.718   3.490   0.159 -0.3438  0.3346 -0.6007
  316TMC3     C 4805   4.544   3.143  17.755 -0.2954  0.4409  0.0178
  316TMC3     O 4806   4.479   3.161  17.649  0.2652 -0.0677 -0.0700
  316TMC3     H 4807   0.019   3.159   0.169 -0.9555  0.8445  1.2770
  316TMC3    H1 4808   4.483   3.401  17.699  0.0084  2.5861  0.6957
  316TMC3    H2 4809   0.022   3.577   0.205  0.8695 -0.9244  0.5972
  316TMC3    C7 4810   4.557   3.623   0.033 -0.2312 -0.1186 -0.1646
  316TMC3    C8 4811   0.120   3.376   0.314 -0.0915  0.3028  0.5381
  316TMC3    O1 4812   4.564   3.704   0.120  0.5070  0.3671  0.6273
  316TMC3    O2 4813   0.185   3.479   0.333  0.0635 -0.4386 -0.1339
  317MPD2     C 4814   2.091   1.370  12.353  0.4347 -0.3397 -0.2868
  317MPD2    C1 4815   2.208   1.360  12.416  0.2782 -0.5091  0.3889
  317MPD2    C2 4816   2.215   1.317  12.547 -0.5633 -0.9049 -0.6940
  317MPD2    C3 4817   2.096   1.284  12.615 -0.1253  1.1179 -0.1106
  317MPD2    C4 4818   1.979   1.287  12.543 -0.1633  0.0153  0.2400
  317MPD2    C5 4819   1.977   1.341  12.414 -0.0375  0.1335 -0.3713
  317MPD2     H 4820   2.307   1.304  12.603 -0.8549  2.2747  0.5308
  317MPD2    H1 4821   1.882   1.265  12.587 -0.6118 -2.5586 -2.0476
  317MPD2    H2 4822   2.090   1.430  12.263  2.4650  1.4951  0.9152
  317MPD2    H3 4823   1.877   1.352  12.374  0.2871  0.8532 -0.9870
  317MPD2     N 4824   2.119   1.247  12.746  0.0039 -0.3623  0.3016
  317MPD2    H5 4825   2.208   1.276  12.786 -0.0001  1.7194 -1.2261
  317MPD2    N1 4826   2.325   1.391  12.342  0.0745 -0.2724 -0.1185
  317MPD2    H7 4827   2.410   1.367  12.393  1.2336 -0.6738 -2.2491
  318TMC3    C1 4828   2.065   1.218  12.972  0.0804 -0.0488 -0.0042
  318TMC3    C2 4829   2.020   1.124  13.061 -0.0566 -0.3026 -0.0987
  318TMC3    C3 4830   2.092   1.102  13.178  0.2720 -0.3148  0.4356
  318TMC3    C4 4831   2.168   1.300  13.006 -0.3595 -0.1389 -0.7281
  318TMC3    C5 4832   2.245   1.269  13.117 -0.7205  0.7839  0.1226
  318TMC3    C6 4833   2.212   1.172  13.209 -0.7794  0.4442  0.0941
  318TMC3     C 4834   2.021   1.216  12.832  0.7853 -0.0956  0.4679
  318TMC3     O 4835   1.905   1.172  12.822  0.0245  0.0817 -0.6113
  318TMC3     H 4836   1.930   1.066  13.042  0.0005 -1.4074  2.8959
  318TMC3    H1 4837   2.219   1.365  12.935 -1.7893  1.4296 -0.3321
  318TMC3    H2 4838   2.268   1.155  13.300 -1.1482 -0.8968  0.0698
  318TMC3    C7 4839   2.367   1.344  13.131 -0.3988  0.0464 -0.3287
  318TMC3    C8 4840   2.045   1.020  13.284  0.3592 -0.1882 -0.5506
  318TMC3    O1 4841   2.381   1.448  13.070  0.3340  0.5567  0.1492
  318TMC3    O2 4842   2.126   0.986  13.374 -0.0805  0.1110  0.0268
  319MPD2     C 4843   2.744   2.549  16.793  0.6918  0.5272  0.4025
  319MPD2    C1 4844   2.634   2.615  16.834 -0.0124 -0.2090  0.0867
  319MPD2    C2 4845   2.517   2.589  16.762  0.0453  0.0670  0.0413
  319MPD2    C3 4846   2.514   2.507  16.655 -0.0799 -0.3849  1.4149
  319MPD2    C4 4847   2.627   2.458  16.613 -0.9915  0.1496  0.1770
  319MPD2    C5 4848   2.744   2.478  16.682 -0.3621 -0.3440 -0.5910
  319MPD2     H 4849   2.427   2.641  16.792 -0.3418  0.5590 -1.9735
  319MPD2    H1 4850   2.628   2.380  16.537  3.0382  1.7481 -1.3839
  319MPD2    H2 4851   2.838   2.551  16.847  0.3609  1.5224  0.9518
  319MPD2    H3 4852   2.827   2.412  16.657  1.3183  1.1723  1.0089
  319MPD2     N 4853   2.401   2.466  16.589 -0.0135  0.0378  0.0042
  319MPD2    H5 4854   2.408   2.394  16.518 -0.3246 -0.5954  0.6187
  319MPD2    N1 4855   2.617   2.686  16.957  0.4752  0.8239 -0.1483
  319MPD2    H7 4856   2.525   2.725  16.973  0.8035  1.2308  0.7101
  320TMC3    C1 4857   2.168   2.431  16.536  0.5375  0.0359 -0.1243
  320TMC3    C2 4858   2.063   2.503  16.480  0.2203 -0.2810 -0.1365
  320TMC3    C3 4859   2.005   2.460  16.360 -0.5254  0.3291 -0.0440
  320TMC3    C4 4860   2.208   2.319  16.469  0.1067 -0.3132  0.8165
  320TMC3    C5 4861   2.143   2.273  16.363 -0.2941  0.2469 -0.4706
  320TMC3    C6 4862   2.040   2.344  16.304  0.1404  0.1529 -0.2897
  320TMC3     C 4863   2.271   2.507  16.613  0.2402  0.6217  0.9022
  320TMC3     O 4864   2.227   2.596  16.686  0.4710 -0.8045 -0.1350
  320TMC3     H 4865   2.034   2.595  16.529 -0.4123 -0.2421 -0.5889
  320TMC3    H1 4866   2.288   2.264  16.518  1.1435  1.0618  0.6637
  320TMC3    H2 4867   2.008   2.316  16.204  0.3438 -0.3640 -0.2073
  320TMC3    C7 4868   2.199   2.162  16.291  0.2987 -0.0187 -0.7294
  320TMC3    C8 4869   1.964   2.571  16.274  0.4296 -0.2738  0.4274
  320TMC3    O1 4870   2.165   2.163  16.171  0.3233  0.0675  0.6665
  320TMC3    O2 4871   1.974   2.686  16.314 -0.0777 -0.2088 -0.1317
  321TMC3    C1 4872   2.670   2.744  17.183 -0.1506 -0.1555  0.1495
  321TMC3    C2 4873   2.540   2.717  17.218  0.4682  0.1972  0.5191
  321TMC3    C3 4874   2.487   2.745  17.340 -0.0399  0.3026 -0.4252
  321TMC3    C4 4875   2.743   2.821  17.268 -0.2585  0.1279 -0.5292
  321TMC3    C5 4876   2.684   2.875  17.378 -0.1180 -0.1621 -0.3115
  321TMC3    C6 4877   2.561   2.830  17.413 -0.5763  0.8313 -0.1308
  321TMC3     C 4878   2.714   2.704  17.050  0.8294 -0.4369 -0.7211
  321TMC3     O 4879   2.835   2.689  17.038 -0.0212 -0.2029 -0.2474
  321TMC3     H 4880   2.490   2.639  17.161  1.5889 -0.0491 -0.1452
  321TMC3    H1 4881   2.833   2.868  17.231  0.0021  2.1312  2.6015
  321TMC3    H2 4882   2.516   2.880  17.498 -0.4362 -0.8105  0.9029
  321TMC3    C7 4883   2.768   2.868  17.493 -0.5566  0.0016 -0.2053
  321TMC3    C8 4884   2.459   2.624  17.421 -0.2631  0.2773 -0.3758
  321TMC3    O1 4885   2.710   2.834  17.594  0.1019 -0.2942  0.5473
  321TMC3    O2 4886   2.392   2.538  17.361 -0.6416 -0.0517  0.2491
  322MPD2     C 4887   2.075   4.449  13.234 -0.0647  0.0287  0.3973
  322MPD2    C1 4888   2.078   4.381  13.350 -0.5444 -0.1850 -0.2970
  322MPD2    C2 4889   2.029   4.254  13.353  0.8316 -0.7619  0.0940
  322MPD2    C3 4890   1.995   4.183  13.237  0.6201 -0.0241  0.0136
  322MPD2    C4 4891   1.995   4.257  13.121 -0.8401 -0.0736 -0.5453
  322MPD2    C5 4892   2.012   4.391  13.127 -0.4139 -0.4380  0.4848
  322MPD2     H 4893   2.010   4.210  13.450  0.8130 -0.9485  0.0061
  322MPD2    H1 4894   1.960   4.214  13.028 -2.5013 -1.2445  0.6299
  322MPD2    H2 4895   2.101   4.554  13.227 -3.4208  0.8593  0.4401
  322MPD2    H3 4896   1.991   4.447  13.037 -1.1971 -1.6893 -0.1037
  322MPD2     N 4897   1.983   4.040  13.250  0.1482  0.0388  0.0635
  322MPD2    H5 4898   1.992   3.994  13.340  0.5775 -0.1728 -0.0936
  322MPD2    N1 4899   2.135   4.451  13.464 -0.2996  0.3492 -0.2785
  322MPD2    H7 4900   2.184   4.539  13.451 -1.4411  0.9123 -0.7846
  323TMC3    C1 4901   2.233   4.471  13.671  0.2056 -0.3307 -0.2528
  323TMC3    C2 4902   2.356   4.513  13.618 -0.3214  0.0525  0.0917
  323TMC3    C3 4903   2.455   4.545  13.707  0.2797 -0.5119  0.2352
  323TMC3    C4 4904   2.217   4.459  13.809  0.2701  0.1717  0.2927
  323TMC3    C5 4905   2.317   4.501  13.893 -0.0003  0.1889  0.4070
  323TMC3    C6 4906   2.436   4.546  13.838 -0.8267  0.3460 -0.3598
  323TMC3     C 4907   2.136   4.399  13.589 -0.0350  0.0458  0.2189
  323TMC3     O 4908   2.078   4.302  13.642  0.6723  0.3694  0.2335
  323TMC3     H 4909   2.365   4.517  13.511  1.0615  1.1934  0.2467
  323TMC3    H1 4910   2.130   4.418  13.859  1.4931  0.0813  2.3609
  323TMC3    H2 4911   2.516   4.556  13.910 -0.1773 -0.1879 -1.0086
  323TMC3    C7 4912   2.324   4.425  14.018 -0.0130 -0.2647 -0.2224
  323TMC3    C8 4913   2.572   4.616  13.656  0.1521 -0.2547 -0.5104
  323TMC3    O1 4914   2.270   4.313  14.010 -0.1280 -0.0199 -0.6581
  323TMC3    O2 4915   2.624   4.682  13.741  0.1558 -0.0523  0.3206
  324MPD2     C 4916   3.428   0.450  14.414 -0.2558  0.0155 -0.1198
  324MPD2    C1 4917   3.450   0.585  14.391  0.0225 -0.2770 -0.2661
  324MPD2    C2 4918   3.350   0.661  14.328  0.3823 -0.7651  0.0469
  324MPD2    C3 4919   3.241   0.596  14.284 -0.6547 -0.3644  0.5475
  324MPD2    C4 4920   3.233   0.456  14.292 -0.2480  0.2435  0.8828
  324MPD2    C5 4921   3.316   0.382  14.371 -0.3597  0.2165  0.2197
  324MPD2     H 4922   3.367   0.768  14.324 -0.8799 -0.6081 -1.2486
  324MPD2    H1 4923   3.152   0.402  14.244  0.9842  1.0042 -2.0960
  324MPD2    H2 4924   3.493   0.391  14.477  0.4947 -0.3539 -1.2426
  324MPD2    H3 4925   3.305   0.276  14.388  0.5779  0.3290  1.5547
  324MPD2     N 4926   3.124   0.649  14.240  0.4380 -0.4161 -0.4957
  324MPD2    H5 4927   3.051   0.585  14.212 -1.5212  0.3949  2.7595
  324MPD2    N1 4928   3.566   0.654  14.443  0.5515 -0.1642  0.0835
  324MPD2    H7 4929   3.572   0.754  14.433  0.2790 -0.2596 -1.0719
  325TMC3    C1 4930   2.959   0.814  14.193  0.3346  0.6252 -0.7088
  325TMC3    C2 4931   2.861   0.719  14.186 -0.6571  0.0497  0.2784
  325TMC3    C3 4932   2.729   0.761  14.164 -0.4330  0.4299  0.3760
  325TMC3    C4 4933   2.932   0.946  14.181  0.0344  0.9529  0.0968
  325TMC3    C5 4934   2.804   0.984  14.166  0.3170  0.0452  0.1346
  325TMC3    C6 4935   2.702   0.899  14.160  0.1722  0.0297  0.4956
  325TMC3     C 4936   3.099   0.782  14.228 -0.1076  0.3089 -0.0961
  325TMC3     O 4937   3.178   0.876  14.215 -0.2977 -0.0846  0.3270
  325TMC3     H 4938   2.874   0.612  14.199 -3.1569 -0.1898  0.9542
  325TMC3    H1 4939   3.010   1.021  14.176  1.1545 -0.1788  0.7851
  325TMC3    H2 4940   2.602   0.927  14.129 -0.7659 -0.1234  3.3144
  325TMC3    C7 4941   2.787   1.132  14.172  0.1742 -0.3878 -0.1922
  325TMC3    C8 4942   2.626   0.662  14.120  0.4118  0.8786 -0.0942
  325TMC3    O1 4943   2.865   1.208  14.113  0.5423 -0.8421 -0.5077
  325TMC3    O2 4944   2.672   0.564  14.070  0.4664  0.1332 -0.6488
  326MPD2     C 4945   4.396   2.241  11.612  0.7802 -0.3318 -0.3679
  326MPD2    C1 4946   4.362   2.249  11.478  0.1438  0.1385  0.7427
  326MPD2    C2 4947   4.459   2.302  11.392 -0.0634 -0.3820 -0.7801
  326MPD2    C3 4948   4.588   2.329  11.441 -0.6937  0.1858  0.7652
  326MPD2    C4 4949   4.615   2.310  11.574  0.5374 -0.6278  0.7579
  326MPD2    C5 4950   4.523   2.259  11.653 -0.6481 -0.0781 -0.1463
  326MPD2     H 4951   4.419   2.319  11.293 -2.2313 -0.5813  0.0634
  326MPD2    H1 4952   4.716   2.329  11.608 -0.0443  1.1350  1.4819
  326MPD2    H2 4953   4.326   2.215  11.691 -0.2286 -1.5425 -1.6445
  326MPD2    H3 4954   4.546   2.236  11.757 -0.0528 -1.7144 -0.6407
  326MPD2     N 4955   4.702   2.368  11.360  0.2481  0.7365 -0.1389
  326MPD2    H5 4956   0.053   2.371  11.404  0.9387  1.0682 -1.5872
  326MPD2    N1 4957   4.232   2.222  11.429  0.2927 -0.3693  0.2692
  326MPD2    H7 4958   4.212   2.248  11.333 -2.1978  1.2259  1.2350
  327TMC3    C1 4959   4.049   2.096  11.390  0.0532  0.3630 -0.0500
  327TMC3    C2 4960   3.994   2.189  11.310  0.0334 -0.2844  0.2091
  327TMC3    C3 4961   3.939   2.156  11.188  0.4648 -0.7723  0.1228
  327TMC3    C4 4962   4.058   1.968  11.345 -0.1219 -0.1345 -0.1785
  327TMC3    C5 4963   4.015   1.940  11.220  0.1068 -0.0475 -0.7650
  327TMC3    C6 4964   3.941   2.020  11.144 -0.6704 -0.0726 -1.0651
  327TMC3     C 4965   4.143   2.137  11.487 -0.1457  0.0333 -0.9494
  327TMC3     O 4966   4.157   2.073  11.587 -0.2041 -0.1362 -0.3546
  327TMC3     H 4967   3.989   2.294  11.337  1.8772  0.1007 -0.9023
  327TMC3    H1 4968   4.116   1.902  11.409 -0.0899 -0.2371 -0.3155
  327TMC3    H2 4969   3.911   1.989  11.044 -1.3690  0.4716 -1.0249
  327TMC3    C7 4970   4.056   1.812  11.168 -0.2266 -0.2658 -0.4026
  327TMC3    C8 4971   3.893   2.264  11.102 -0.7674 -0.0372 -0.5564
  327TMC3    O1 4972   3.990   1.766  11.078  0.0924  0.4716 -0.2888
  327TMC3    O2 4973   3.921   2.381  11.134 -0.4026 -0.3921  0.0541
  328MPD2     C 4974   2.108   1.814  17.257  0.8385 -0.2103 -0.0976
  328MPD2    C1 4975   2.013   1.710  17.259  0.0689 -0.0241  0.0533
  328MPD2    C2 4976   1.910   1.702  17.168  0.0682  0.2928 -0.3354
  328MPD2    C3 4977   1.877   1.821  17.096 -0.1513  0.1496 -0.1790
  328MPD2    C4 4978   1.948   1.934  17.114  0.9253 -0.0027  0.3731
  328MPD2    C5 4979   2.066   1.922  17.182  0.3612 -0.2800  0.4527
  328MPD2     H 4980   1.844   1.617  17.160  0.9995 -0.5343  0.8010
  328MPD2    H1 4981   1.923   2.017  17.048  1.0778 -1.9709 -2.1408
  328MPD2    H2 4982   2.197   1.829  17.317  1.0030 -2.5437  0.2606
  328MPD2    H3 4983   2.129   2.009  17.170 -3.5032  2.2894 -1.4662
  328MPD2     N 4984   1.772   1.830  17.008 -0.0422 -0.0381 -0.1907
  328MPD2    H5 4985   1.741   1.924  16.983 -0.0470 -0.0845 -0.3567
  328MPD2    N1 4986   2.046   1.604  17.346  0.0167 -0.0200 -0.8183
  328MPD2    H7 4987   2.120   1.619  17.414 -0.7701 -1.3389  0.3499
  329TMC3    C1 4988   2.017   1.411  17.463 -0.4651 -0.0544  0.1308
  329TMC3    C2 4989   2.041   1.488  17.575  0.0910 -0.3036 -0.0275
  329TMC3    C3 4990   2.086   1.433  17.684  0.2484  0.7258  0.0737
  329TMC3    C4 4991   2.039   1.273  17.464  0.2466  0.2029 -0.4623
  329TMC3    C5 4992   2.067   1.219  17.586  0.2731 -0.0208  0.1978
  329TMC3    C6 4993   2.102   1.296  17.691  0.8430  0.7246 -0.1155
  329TMC3     C 4994   1.987   1.480  17.343  0.7051  0.1618 -1.0286
  329TMC3     O 4995   1.901   1.436  17.269  0.2957  0.2733 -0.4897
  329TMC3     H 4996   2.011   1.592  17.585 -0.8269 -0.6969  1.2774
  329TMC3    H1 4997   2.018   1.219  17.372  1.1114 -1.3797  0.2909
  329TMC3    H2 4998   2.129   1.252   0.027  0.4226 -0.8790 -0.7538
  329TMC3    C7 4999   2.101   1.083  17.586  0.6333  0.2443  0.6358
  329TMC3    C8 5000   2.088   1.508   0.049  0.0599 -0.0083 -0.6963
  329TMC3    O1 5001   2.179   1.047  17.500  0.0463  0.1330  0.2389
  329TMC3    O2 5002   2.178   1.478   0.126  0.3423 -0.2536 -0.0833
  330TMC3    C1 5003   4.689   2.002  10.211 -0.2963 -0.5245  0.3300
  330TMC3    C2 5004   4.737   1.875  10.228  0.4694  0.4449  0.3054
  330TMC3    C3 5005   0.100   1.848  10.308  0.4140 -0.7981  0.1603
  330TMC3    C4 5006   0.021   2.104  10.262  0.0060 -0.0895 -0.0945
  330TMC3    C5 5007   0.137   2.088  10.342  0.3723  0.1653  0.6080
  330TMC3    C6 5008   0.174   1.955  10.367 -0.4277 -0.0350  0.8745
  330TMC3     C 5009   4.588   2.038  10.105 -0.0296 -0.4100  0.0713
  330TMC3     O 5010   4.612   2.154  10.064 -0.3628  0.5329 -0.3444
  330TMC3     H 5011   4.684   1.791  10.185 -0.3563 -0.1473  2.4619
  330TMC3    H1 5012   4.718   2.201  10.245  0.2373 -0.3058 -1.8979
  330TMC3    H2 5013   0.263   1.939  10.426  0.5858  2.4825 -0.0046
  330TMC3    C7 5014   0.218   2.208  10.368 -0.5161 -0.4222  0.0238
  330TMC3    C8 5015   0.163   1.718  10.330  0.7417 -0.9419  0.4355
  330TMC3    O1 5016   0.185   2.308  10.308  0.5796  0.3982  0.0990
  330TMC3    O2 5017   0.268   1.715  10.397 -0.5425  0.2289 -0.1603
  331MPD2     C 5018   2.599   4.444  12.637 -0.2677  0.5281 -0.3359
  331MPD2    C1 5019   2.713   4.513  12.596  0.7908  0.4191  0.4793
  331MPD2    C2 5020   2.828   4.434  12.575 -0.6573 -0.5459 -0.0472
  331MPD2    C3 5021   2.824   4.301  12.616  0.2983  0.9501  1.0041
  331MPD2    C4 5022   2.707   4.239  12.658 -0.2720  0.1415  0.6672
  331MPD2    C5 5023   2.594   4.316  12.661 -0.3139  0.2303 -0.0759
  331MPD2     H 5024   2.917   4.459  12.519 -0.7246 -0.2015  0.0016
  331MPD2    H1 5025   2.705   4.134  12.683 -0.8358 -0.2882 -1.2156
  331MPD2    H2 5026   2.506   4.499  12.652 -0.0437  0.1443  2.5588
  331MPD2    H3 5027   2.500   4.265  12.683 -0.1644 -0.8310 -1.8353
  331MPD2     N 5028   2.933   4.220  12.580  0.2668 -0.6392 -0.4464
  331MPD2    H5 5029   3.018   4.258  12.539 -0.9688  1.7653 -0.8218
  331MPD2    N1 5030   2.707   4.646  12.555 -0.0350 -0.0264  0.1975
  331MPD2    H7 5031   2.615   4.687  12.557 -0.2570 -0.5827  1.4711
  332TMC3    C1 5032   3.076   4.049  12.559 -0.0368  0.0391 -0.3518
  332TMC3    C2 5033   3.132   4.111  12.453 -0.1597 -0.3406 -0.4636
  332TMC3    C3 5034   3.268   4.122  12.445 -0.0654  0.1297 -0.0441
  332TMC3    C4 5035   3.156   4.001  12.657 -0.7817  0.3925 -0.0945
  332TMC3    C5 5036   3.291   4.013  12.645  0.4174 -0.9404  0.3083
  332TMC3    C6 5037   3.357   4.071  12.537 -0.3614  0.3328  0.6920
  332TMC3     C 5038   2.949   4.088  12.604  0.6014  0.1854  0.3253
  332TMC3     O 5039   2.884   4.016  12.680  0.0526  0.5138  0.3311
  332TMC3     H 5040   3.063   4.158  12.384 -1.4292 -0.2439  0.8702
  332TMC3    H1 5041   3.108   3.967  12.748 -0.3547 -0.5402 -0.2169
  332TMC3    H2 5042   3.463   4.089  12.525 -0.2227 -0.5842  0.6069
  332TMC3    C7 5043   3.368   3.965  12.757  0.3086 -0.1947  0.3517
  332TMC3    C8 5044   3.308   4.210  12.343 -0.1932 -0.4565 -0.2105
  332TMC3    O1 5045   3.312   3.889  12.834  0.0665  0.2326  0.1860
  332TMC3    O2 5046   3.219   4.266  12.281 -0.2137  0.4387 -0.0536
  333MPD2     C 5047   2.829   4.655  11.152  0.1248 -0.1162  0.5964
  333MPD2    C1 5048   2.952   4.598  11.172  0.5941  0.6885  0.9340
  333MPD2    C2 5049   2.955   4.478  11.253 -0.1974 -0.1090  0.4169
  333MPD2    C3 5050   2.844   4.431  11.323 -0.3283 -0.5891  0.5340
  333MPD2    C4 5051   2.719   4.489  11.297  0.2357 -0.1364  0.3990
  333MPD2    C5 5052   2.716   4.600  11.210 -0.6706 -0.2218  0.0621
  333MPD2     H 5053   3.049   4.429  11.276  0.7183  2.4466  2.1292
  333MPD2    H1 5054   2.624   4.474  11.348 -0.0592 -0.0808 -0.1391
  333MPD2    H2 5055   2.819   0.008  11.099  0.5964  0.3668  1.3425
  333MPD2    H3 5056   2.617   4.640  11.188 -1.5536 -2.4384 -0.0014
  333MPD2     N 5057   2.870   4.331  11.418  0.3442 -0.7417 -0.0445
  333MPD2    H5 5058   2.965   4.300  11.438  1.1716 -0.6406 -3.7273
  333MPD2    N1 5059   3.063   4.659  11.118 -0.1662 -0.5317 -0.4357
  333MPD2    H7 5060   3.052   0.017  11.095 -0.8635 -0.2384  1.1139
  334TMC3    C1 5061   3.286   4.672  11.035 -0.2782  0.0446 -0.4789
  334TMC3    C2 5062   3.413   4.639  11.074 -0.4315 -0.8004 -0.0970
  334TMC3    C3 5063   3.519   4.727  11.038  0.4412  0.0893 -1.0530
  334TMC3    C4 5064   3.260   0.038  10.958 -0.3548 -0.4791 -0.5730
  334TMC3    C5 5065   3.361   0.118  10.915 -0.0078  0.3979  0.6251
  334TMC3    C6 5066   3.491   0.096  10.954  0.4218  0.0932  0.0392
  334TMC3     C 5067   3.183   4.594  11.100  0.6104 -0.1544  0.3054
  334TMC3     O 5068   3.217   4.474  11.118 -0.1761  0.4955  0.3019
  334TMC3     H 5069   3.446   4.561  11.142  0.2844 -0.7481 -0.3874
  334TMC3    H1 5070   3.160   0.056  10.921 -0.3830  0.5503  0.0158
  334TMC3    H2 5071   3.575   0.154  10.917  0.0454  0.3201 -0.4596
  334TMC3    C7 5072   3.325   0.242  10.852  0.6134  0.1128  0.1055
  334TMC3    C8 5073   3.624   4.739  11.142 -0.8140 -0.0924 -1.0540
  334TMC3    O1 5074   3.372   0.344  10.903  0.8229 -0.5435 -0.6467
  334TMC3    O2 5075   3.623   4.661  11.239  0.2934 -0.1212  0.0655
  335TMC3    C1 5076   3.015   1.796  17.022  0.0991  0.3220  0.1524
  335TMC3    C2 5077   2.977   1.684  16.951  0.3939 -0.3501  1.1037
  335TMC3    C3 5078   3.075   1.610  16.903  0.5945  0.2508 -0.9455
  335TMC3    C4 5079   3.144   1.834  17.028  0.3780 -0.1210  0.6928
  335TMC3    C5 5080   3.244   1.757  16.971 -0.4831 -0.1808 -0.0024
  335TMC3    C6 5081   3.202   1.632  16.916 -0.7798  0.0930 -0.7079
  335TMC3     C 5082   2.908   1.866  17.084 -0.6765 -0.3673  0.3640
  335TMC3     O 5083   2.810   1.793  17.096  0.8622 -0.4218  0.0448
  335TMC3     H 5084   2.872   1.663  16.933  1.8793 -1.2913 -6.7469
  335TMC3    H1 5085   3.176   1.918  17.089 -3.0864  0.7066  1.3626
  335TMC3    H2 5086   3.266   1.567  16.858  2.1548  2.5837 -0.2243
  335TMC3    C7 5087   3.380   1.783  17.016 -0.2958  0.0543 -0.4176
  335TMC3    C8 5088   3.043   1.491  16.825 -0.2611 -0.1517 -0.1996
  335TMC3    O1 5089   3.396   1.889  17.072 -0.2183 -0.1616 -0.6105
  335TMC3    O2 5090   3.125   1.441  16.747  0.2908 -0.3201  0.7875
  336MPD2     C 5091   2.651   4.254  16.212 -0.6189  0.2789 -0.1400
  336MPD2    C1 5092   2.581   4.163  16.125 -0.1835 -0.7910  0.0140
  336MPD2    C2 5093   2.617   4.026  16.132  0.0592 -0.3310  0.2121
  336MPD2    C3 5094   2.721   3.979  16.210  0.1116 -0.1862 -0.4887
  336MPD2    C4 5095   2.786   4.070  16.290 -0.7140  0.3895  0.6349
  336MPD2    C5 5096   2.745   4.197  16.291 -0.6987 -0.2520  0.4593
  336MPD2     H 5097   2.568   3.955  16.066  1.6578 -0.8751 -0.3879
  336MPD2    H1 5098   2.859   4.039  16.364 -0.1924 -0.8199 -0.3778
  336MPD2    H2 5099   2.614   4.349  16.249 -0.1834  0.3296  0.1692
  336MPD2    H3 5100   2.785   4.264  16.367  2.5958 -0.1618 -1.4065
  336MPD2     N 5101   2.755   3.845  16.227 -0.0611  0.3167  0.4160
  336MPD2    H5 5102   2.825   3.827  16.299 -0.8915 -0.4113  1.0396
  336MPD2    N1 5103   2.487   4.218  16.044  0.4347 -0.0533 -0.3273
  336MPD2    H7 5104   2.428   4.152  15.995  0.3703  1.5554 -2.4699
  337TMC3    C1 5105   2.375   4.380  15.907 -0.0822  0.3367 -0.2766
  337TMC3    C2 5106   2.251   4.335  15.927 -0.0768  0.6124  0.4013
  337TMC3    C3 5107   2.147   4.406  15.874 -0.0780 -0.2269  0.3204
  337TMC3    C4 5108   2.395   4.503  15.840 -0.2638  0.0979 -0.1992
  337TMC3    C5 5109   2.281   4.568  15.791  0.0011 -0.3316 -0.0266
  337TMC3    C6 5110   2.154   4.519  15.801  0.1635 -0.1793  0.2421
  337TMC3     C 5111   2.479   4.349  16.008 -0.1330  0.2437 -0.1781
  337TMC3     O 5112   2.547   4.447  16.044 -0.3179  0.2105  0.6940
  337TMC3     H 5113   2.228   4.256  15.997 -0.1517  0.6946  0.4694
  337TMC3    H1 5114   2.498   4.534  15.827 -0.9195  2.5999  0.6017
  337TMC3    H2 5115   2.072   4.581  15.770  2.6579  2.5247 -0.9509
  337TMC3    C7 5116   2.322   4.664  15.691  0.6315 -0.4222 -0.3694
  337TMC3    C8 5117   2.014   4.348  15.896  0.6575 -0.1754  0.0177
  337TMC3    O1 5118   2.438   4.698  15.666  0.8539 -0.1626  0.0413
  337TMC3    O2 5119   1.999   4.285  15.997  0.6321 -0.0483 -0.3713
  338MPD2     C 5120   2.514   3.682   0.871  0.2917 -0.1569 -0.0956
  338MPD2    C1 5121   2.451   3.652   0.756  0.0506 -0.0428  0.2382
  338MPD2    C2 5122   2.314   3.633   0.753 -0.4423  0.9010  0.9154
  338MPD2    C3 5123   2.250   3.627   0.871  0.3129 -0.1725 -0.1794
  338MPD2    C4 5124   2.310   3.658   0.993 -0.3252  0.1841  0.1150
  338MPD2    C5 5125   2.439   3.696   0.985  0.4237  0.0698  0.2629
  338MPD2     H 5126   2.266   3.612   0.658  0.2015 -1.0973  1.0323
  338MPD2    H1 5127   2.262   3.671   1.089  1.5485  1.9265  0.8168
  338MPD2    H2 5128   2.610   3.732   0.877 -0.3169  1.0595 -0.5952
  338MPD2    H3 5129   2.485   3.743   1.071 -0.6329  2.3760 -0.4496
  338MPD2     N 5130   2.105   3.604   0.865 -0.2344 -0.1667 -0.0161
  338MPD2    H5 5131   2.053   3.597   0.778 -2.3775  0.5770  1.2116
  338MPD2    N1 5132   2.523   3.648   0.633  0.0463 -0.8198  0.4800
  338MPD2    H7 5133   2.477   3.615   0.549  0.3902 -3.1812  1.2311
  339TMC3    C1 5134   1.889   3.629   0.954 -0.6506  0.1601  0.3638
  339TMC3    C2 5135   1.801   3.537   0.997  0.9590  0.1207  0.3802
  339TMC3    C3 5136   1.683   3.524   0.930 -0.5598  0.1527 -0.9405
  339TMC3    C4 5137   1.866   3.722   0.859  0.3271  0.3297 -0.4643
  339TMC3    C5 5138   1.742   3.718   0.803 -0.5127  0.3067  0.9555
  339TMC3    C6 5139   1.658   3.614   0.823  0.4517 -0.3184  0.2899
  339TMC3     C 5140   2.032   3.589   0.977 -0.8587 -0.4443 -0.2534
  339TMC3     O 5141   2.065   3.542   1.085  0.2132  0.5681 -0.1196
  339TMC3     H 5142   1.832   3.474   1.080 -0.9917  1.6801  2.3040
  339TMC3    H1 5143   1.936   3.802   0.836 -1.0068  1.2675 -1.2904
  339TMC3    H2 5144   1.558   3.612   0.782  0.6516 -1.9843 -0.1341
  339TMC3    C7 5145   1.723   3.808   0.694 -0.0323 -0.1284  0.7045
  339TMC3    C8 5146   1.578   3.430   0.966  0.7515 -1.3768 -0.0944
  339TMC3    O1 5147   1.820   3.878   0.668 -0.4529 -0.2674 -0.2613
  339TMC3    O2 5148   1.480   3.443   0.896  0.2783 -0.7724  0.0768
  340MPD2     C 5149   3.086   2.361   9.796  0.3796  0.1589 -0.7244
  340MPD2    C1 5150   3.018   2.267   9.864 -0.0395 -0.4635  0.1095
  340MPD2    C2 5151   2.999   2.277  10.003 -1.1263 -0.0857  0.1444
  340MPD2    C3 5152   3.042   2.396  10.066  0.8481  0.5126  0.0292
  340MPD2    C4 5153   3.114   2.482   9.995 -0.1260  0.3372  0.1479
  340MPD2    C5 5154   3.139   2.468   9.859  0.1646 -0.1429  0.1149
  340MPD2     H 5155   2.946   2.202  10.061 -0.1978  0.6322  1.9407
  340MPD2    H1 5156   3.147   2.573  10.044  2.0927  0.3525 -1.3612
  340MPD2    H2 5157   3.098   2.360   9.689  0.3530  0.1816 -0.7277
  340MPD2    H3 5158   3.194   2.543   9.803 -1.2756 -0.5651 -1.8754
  340MPD2     N 5159   3.053   2.408  10.204  0.2525 -0.4972  0.2911
  340MPD2    H5 5160   3.115   2.481  10.236 -1.7673 -0.1952  3.4673
  340MPD2    N1 5161   2.977   2.153   9.794  0.1569 -0.8126 -0.3720
  340MPD2    H7 5162   2.991   2.144   9.694 -1.5753 -0.2093 -0.6726
  341TMC3    C1 5163   2.917   1.927   9.767  0.4372  0.2299  0.6821
  341TMC3    C2 5164   2.815   1.838   9.791 -0.5623  0.4113 -0.4784
  341TMC3    C3 5165   2.786   1.749   9.696  0.3298 -0.0159  0.3963
  341TMC3    C4 5166   3.001   1.915   9.660 -0.3690  0.5278 -0.0524
  341TMC3    C5 5167   2.970   1.814   9.575  0.0880 -0.2174  0.1963
  341TMC3    C6 5168   2.860   1.732   9.587 -0.2635 -0.1364  0.4811
  341TMC3     C 5169   2.910   2.043   9.849  0.2682  0.0719 -0.3891
  341TMC3     O 5170   2.846   2.040   9.955 -0.2550 -0.6246  0.4567
  341TMC3     H 5171   2.744   1.843   9.873  2.1522 -0.8250  1.8997
  341TMC3    H1 5172   3.096   1.968   9.660 -0.4919  0.7076 -2.6241
  341TMC3    H2 5173   2.854   1.652   9.514 -2.0385 -0.1711  0.6647
  341TMC3    C7 5174   3.087   1.765   9.512  0.2745  0.7830  0.1861
  341TMC3    C8 5175   2.679   1.652   9.712 -0.0121  0.6737  0.1508
  341TMC3    O1 5176   3.175   1.844   9.486 -0.1104 -0.3688 -0.4291
  341TMC3    O2 5177   2.635   1.626   9.823 -0.0623  0.5093  0.5036
  342MPD2     C 5178   0.486   4.337  17.186  1.0264 -0.8045  0.1296
  342MPD2    C1 5179   0.613   4.361  17.140 -0.5955  0.6347  0.2590
  342MPD2    C2 5180   0.654   4.493  17.128 -0.2546  0.6302  0.0911
  342MPD2    C3 5181   0.585   4.596  17.189 -0.1651  0.1020 -0.8280
  342MPD2    C4 5182   0.466   4.566  17.245  0.5165 -0.0288 -0.5510
  342MPD2    C5 5183   0.406   4.445  17.234  0.0309  0.4503 -0.5707
  342MPD2     H 5184   0.752   4.524  17.092 -0.9203  3.2624  0.5722
  342MPD2    H1 5185   0.401   4.642  17.286  2.3305  0.6190  1.1116
  342MPD2    H2 5186   0.439   4.240  17.184  2.3535 -1.4793  2.1257
  342MPD2    H3 5187   0.299   4.432  17.249 -0.0327  0.8029 -0.7254
  342MPD2     N 5188   0.629   4.734  17.191 -0.5292  0.3374 -0.0856
  342MPD2    H5 5189   0.578   0.058  17.251 -1.5526  1.6168 -2.3546
  342MPD2    N1 5190   0.707   4.260  17.105 -0.5803  0.2210  0.4651
  342MPD2    H7 5191   0.789   4.294  17.057 -1.7697 -0.5107 -2.0998
  343TMC3    C1 5192   0.804   4.041  17.115  0.2936 -0.0708 -0.0233
  343TMC3    C2 5193   0.930   4.090  17.112 -0.6361 -0.3538 -0.2234
  343TMC3    C3 5194   1.037   4.002  17.110 -1.2256 -0.1606 -0.8543
  343TMC3    C4 5195   0.779   3.912  17.137 -0.5832 -0.5004  0.0405
  343TMC3    C5 5196   0.889   3.826  17.150  0.2324 -0.5703  0.6301
  343TMC3    C6 5197   1.018   3.872  17.134  0.1744 -0.1803  0.6189
  343TMC3     C 5198   0.691   4.126  17.148  0.1967  0.1433 -0.3519
  343TMC3     O 5199   0.594   4.079  17.203  0.2634 -0.3324  0.0292
  343TMC3     H 5200   0.942   4.197  17.096 -0.0013 -0.1773  1.5017
  343TMC3    H1 5201   0.678   3.873  17.129 -0.5115  0.0599 -3.3294
  343TMC3    H2 5202   1.098   3.800  17.147 -0.2109 -0.5462  0.9841
  343TMC3    C7 5203   0.865   3.684  17.148 -0.4207 -0.1992 -0.3036
  343TMC3    C8 5204   1.155   4.066  17.052  0.1762 -0.4032  0.1016
  343TMC3    O1 5205   0.761   3.657  17.210 -0.0511  1.3985 -0.3366
  343TMC3    O2 5206   1.143   4.189  17.041  0.0380  0.1444  0.8281
  344MPD2     C 5207   1.815   4.404  10.904  0.3028  0.5712  0.5611
  344MPD2    C1 5208   1.704   4.478  10.933 -1.1022  0.3990 -0.3490
  344MPD2    C2 5209   1.702   4.611  10.897  0.1483 -0.0184 -0.5922
  344MPD2    C3 5210   1.823   4.673  10.872 -0.4262  0.4765 -0.0293
  344MPD2    C4 5211   1.934   4.601  10.865 -0.7328  0.5300  0.4778
  344MPD2    C5 5212   1.924   4.465  10.863  0.1432 -0.0308 -0.0720
  344MPD2     H 5213   1.608   4.664  10.896  1.1027  1.6936  0.0553
  344MPD2    H1 5214   2.031   4.648  10.855 -0.2408 -0.2095  1.9322
  344MPD2    H2 5215   1.833   4.298  10.916  1.5263  0.7442  0.2116
  344MPD2    H3 5216   2.018   4.412  10.846 -0.1522 -0.8452  0.8157
  344MPD2     N 5217   1.844   0.072  10.845 -0.2249 -0.0392  0.0822
  344MPD2    H5 5218   1.939   0.107  10.842 -1.1717  2.6557  1.3785
  344MPD2    N1 5219   1.590   4.413  10.985 -0.0465  0.7000 -0.6523
  344MPD2    H7 5220   1.500   4.455  10.963 -0.7955 -1.0555 -0.9099
  345TMC3    C1 5221   1.785   0.283  10.758 -0.0984 -0.2431 -0.6583
  345TMC3    C2 5222   1.917   0.324  10.787 -0.6470  0.3794  0.0187
  345TMC3    C3 5223   1.969   0.432  10.720  0.4827  0.0323  0.8858
  345TMC3    C4 5224   1.706   0.351  10.671  0.1687 -0.2118 -0.0003
  345TMC3    C5 5225   1.765   0.466  10.615 -0.8406  0.0233 -0.1273
  345TMC3    C6 5226   1.898   0.499  10.624 -0.3779 -0.4715  0.1287
  345TMC3     C 5227   1.742   0.158  10.815 -0.2719 -0.3170  0.2318
  345TMC3     O 5228   1.624   0.144  10.835  0.5597  0.0202 -0.3269
  345TMC3     H 5229   1.971   0.289  10.875 -0.8627  1.3924  0.5485
  345TMC3    H1 5230   1.600   0.333  10.676  0.3127 -0.5754  1.7636
  345TMC3    H2 5231   1.948   0.566  10.556 -1.1897  0.0819  0.0788
  345TMC3    C7 5232   1.696   0.592  10.584  0.5982 -0.4021  0.2666
  345TMC3    C8 5233   2.082   0.501  10.782  0.4217  0.3214 -0.2866
  345TMC3    O1 5234   1.768   0.692  10.600  0.5984 -0.6095 -1.3455
  345TMC3    O2 5235   2.160   0.428  10.837  0.2044  0.0109  0.5726
  346MPD2     C 5236   1.550   1.378  14.065  0.2976  0.5672 -0.0753
  346MPD2    C1 5237   1.681   1.310  14.067 -0.5265 -0.4465  0.2222
  346MPD2    C2 5238   1.755   1.314  14.186  0.5819 -0.6420  0.0091
  346MPD2    C3 5239   1.717   1.391  14.289  0.4505  0.3893  0.2612
  346MPD2    C4 5240   1.592   1.450  14.284 -0.1001  0.5458  0.9368
  346MPD2    C5 5241   1.504   1.443  14.172  0.0493 -0.1025 -0.1773
  346MPD2     H 5242   1.853   1.270  14.205  0.6020 -0.6721 -0.1617
  346MPD2    H1 5243   1.551   1.493  14.375 -0.1227  1.3988  0.5248
  346MPD2    H2 5244   1.494   1.373  13.972  2.0815  2.5186 -1.2781
  346MPD2    H3 5245   1.410   1.496  14.164 -0.8133 -2.0313 -2.9879
  346MPD2     N 5246   1.814   1.409  14.388 -0.5210  0.1097 -0.0232
  346MPD2    H5 5247   1.904   1.365  14.375 -1.0721 -0.5906 -1.4882
  346MPD2    N1 5248   1.742   1.240  13.959 -0.1179 -0.2416 -0.3306
  346MPD2    H7 5249   1.827   1.194  13.988 -0.7162 -0.7573  0.6110
  347TMC3    C1 5250   1.919   1.489  14.583  0.0137 -0.0033 -0.1669
  347TMC3    C2 5251   2.033   1.540  14.522 -0.6341  0.0896 -0.1590
  347TMC3    C3 5252   2.156   1.511  14.562  0.3546  0.8586 -0.7151
  347TMC3    C4 5253   1.929   1.397  14.685 -0.5423 -0.8431 -0.2350
  347TMC3    C5 5254   2.057   1.369  14.717 -0.7019 -0.5651  0.4788
  347TMC3    C6 5255   2.177   1.424  14.663 -0.5135  0.0716 -0.3715
  347TMC3     C 5256   1.802   1.481  14.503 -0.0639 -0.2941 -0.8964
  347TMC3     O 5257   1.702   1.529  14.556 -0.0582  0.1159 -0.5509
  347TMC3     H 5258   2.014   1.620  14.452  1.5893  0.8961  0.1499
  347TMC3    H1 5259   1.844   1.358  14.739  1.0781 -3.3267  0.5253
  347TMC3    H2 5260   2.277   1.393  14.692  0.4706  3.3476 -0.2850
  347TMC3    C7 5261   2.075   1.303  14.845  0.2777  0.0260  0.2092
  347TMC3    C8 5262   2.253   1.540  14.459 -0.1848  0.9687 -0.1202
  347TMC3    O1 5263   1.980   1.233  14.886 -0.4749  0.0364  0.6456
  347TMC3    O2 5264   2.222   1.624  14.372 -0.0036  0.3848  0.1798
  348MPD2     C 5265   1.141   1.049  12.044 -0.1453 -0.1140 -0.1646
  348MPD2    C1 5266   1.037   1.013  11.963 -0.5761  0.3526 -0.3026
  348MPD2    C2 5267   0.966   1.122  11.914 -1.0597  0.4107 -0.1055
  348MPD2    C3 5268   1.021   1.251  11.928  0.6897  0.3814 -0.0982
  348MPD2    C4 5269   1.136   1.281  12.000  0.4366  0.4522 -0.2702
  348MPD2    C5 5270   1.199   1.178  12.051 -0.1293  0.3673  0.3904
  348MPD2     H 5271   0.871   1.107  11.865 -1.2671 -0.5558  0.5839
  348MPD2    H1 5272   1.172   1.382  12.016  3.1029 -0.4240 -0.8164
  348MPD2    H2 5273   1.197   0.968  12.088  0.9864  1.0512  0.5316
  348MPD2    H3 5274   1.291   1.191  12.106  2.1485 -1.1213 -3.0758
  348MPD2     N 5275   0.937   1.354  11.874  0.1006  0.6604 -0.3182
  348MPD2    H5 5276   0.853   1.325  11.825  2.1845 -1.0989 -2.8636
  348MPD2    N1 5277   0.993   0.881  11.941  0.2166 -0.3705  0.1279
  348MPD2    H7 5278   0.904   0.871  11.893  0.9456 -0.9684 -1.1221
  349TMC3    C1 5279   0.996   0.648  11.927  0.2614  0.6337  0.3714
  349TMC3    C2 5280   1.083   0.535  11.930  0.2152  0.6895 -0.3360
  349TMC3    C3 5281   1.015   0.423  11.897  0.3322 -0.6508 -0.1742
  349TMC3    C4 5282   0.866   0.646  11.887  0.1885 -0.0289  0.3599
  349TMC3    C5 5283   0.814   0.525  11.849  0.1817  0.9644  0.0031
  349TMC3    C6 5284   0.892   0.417  11.847 -0.7990 -0.2013 -0.5812
  349TMC3     C 5285   1.062   0.770  11.972 -0.2345 -0.3325  0.1772
  349TMC3     O 5286   1.172   0.762  12.018 -0.1256 -0.0234 -0.4480
  349TMC3     H 5287   1.177   0.546  11.983 -0.4290  3.7944  0.1917
  349TMC3    H1 5288   0.802   0.734  11.895  0.0528 -0.1606  0.7312
  349TMC3    H2 5289   0.851   0.317  11.841  0.2500 -0.5900 -1.2841
  349TMC3    C7 5290   0.678   0.505  11.811  0.4395 -0.2099  0.1727
  349TMC3    C8 5291   1.061   0.307  11.957 -0.0731  0.3360  0.6292
  349TMC3    O1 5292   0.638   0.394  11.796  0.1263 -0.7841 -0.0430
  349TMC3    O2 5293   0.977   0.229  12.002  0.0053  0.1044  0.1435
  350MPD2     C 5294   3.999   3.940  10.161 -0.5929 -0.0286  0.1719
  350MPD2    C1 5295   4.018   3.808  10.164 -0.0225  0.1100 -0.0724
  350MPD2    C2 5296   4.151   3.768  10.180 -0.1821 -0.2468 -0.6009
  350MPD2    C3 5297   4.256   3.855  10.194  1.0280  0.5356 -0.2016
  350MPD2    C4 5298   4.234   3.986  10.180  0.3245  0.4651 -0.2939
  350MPD2    C5 5299   4.104   4.025  10.181  0.8572  0.7855 -0.2959
  350MPD2     H 5300   4.168   3.661  10.177  1.2218 -0.0406  0.0702
  350MPD2    H1 5301   4.310   4.063  10.184 -1.6966  2.3676  1.6441
  350MPD2    H2 5302   3.903   3.991  10.153  0.4478  1.8400 -0.3664
  350MPD2    H3 5303   4.084   4.131  10.175 -3.0602  0.0278 -0.8143
  350MPD2     N 5304   4.381   3.790  10.209  0.1797 -0.0931 -0.0121
  350MPD2    H5 5305   4.383   3.688  10.203  0.9678 -0.0192 -1.0652
  350MPD2    N1 5306   3.919   3.713  10.152  0.2116  0.3410  0.2731
  350MPD2    H7 5307   3.947   3.616  10.150 -1.4883 -0.1123 -1.9242
  351TMC3    C1 5308   3.722   3.619  10.087  0.1608  0.3451 -0.4126
  351TMC3    C2 5309   3.792   3.527  10.015  0.3914  0.6025  0.7035
  351TMC3    C3 5310   3.740   3.419   9.950  0.4580 -0.3311  0.1311
  351TMC3    C4 5311   3.590   3.610  10.083 -0.2822  0.1619 -0.0737
  351TMC3    C5 5312   3.533   3.498  10.023 -1.1015  0.0865  0.5044
  351TMC3    C6 5313   3.603   3.405   9.953  0.4580  0.7434 -0.3089
  351TMC3     C 5314   3.785   3.734  10.150  0.5043 -1.0658  0.3321
  351TMC3     O 5315   3.713   3.833  10.164  0.3518  0.4576 -0.0077
  351TMC3     H 5316   3.894   3.557   9.995  0.8933 -2.4003 -1.1495
  351TMC3    H1 5317   3.538   3.681  10.147 -0.4309 -1.0344  1.1234
  351TMC3    H2 5318   3.548   3.324   9.908  1.9080 -0.2163 -0.3505
  351TMC3    C7 5319   3.390   3.502  10.009 -0.0941  0.6894  0.1582
  351TMC3    C8 5320   3.820   3.350   9.858  0.6774 -0.0463  0.1228
  351TMC3    O1 5321   3.346   3.449   9.908  0.3490 -0.4217  0.5822
  351TMC3    O2 5322   3.938   3.345   9.877  0.1204  0.2465 -0.3306
  352MPD2     C 5323   3.514   0.793   1.058 -0.2222 -0.0909 -0.1713
  352MPD2    C1 5324   3.398   0.756   0.999 -0.8477 -0.4672  0.3818
  352MPD2    C2 5325   3.392   0.639   0.917  0.0640 -0.6164  0.1304
  352MPD2    C3 5326   3.504   0.564   0.893  0.6848 -0.4209 -0.6661
  352MPD2    C4 5327   3.619   0.603   0.961 -0.0144  0.3766 -1.0890
  352MPD2    C5 5328   3.624   0.716   1.040 -0.3593 -0.1362 -0.0513
  352MPD2     H 5329   3.300   0.605   0.870 -0.1088  0.5047 -0.3272
  352MPD2    H1 5330   3.714   0.552   0.954 -0.1749 -0.3701  2.1084
  352MPD2    H2 5331   3.528   0.871   1.132 -0.2740  1.3910 -1.7290
  352MPD2    H3 5332   3.712   0.751   1.094  0.5682 -2.4253 -0.0858
  352MPD2     N 5333   3.511   0.445   0.811 -0.1971 -0.2491 -0.1261
  352MPD2    H5 5334   3.591   0.386   0.796  0.7034  0.2820  2.7160
  352MPD2    N1 5335   3.280   0.840   1.008 -0.0015  0.2668  0.1359
  352MPD2    H7 5336   3.285   0.910   1.082 -1.8062  0.9336 -0.3923
  353TMC3    C1 5337   3.402   0.277   0.669 -0.0665  0.0173 -0.4015
  353TMC3    C2 5338   3.505   0.184   0.694 -1.2417 -0.3178 -0.0624
  353TMC3    C3 5339   3.488   0.068   0.626 -0.8382 -0.0498  0.5709
  353TMC3    C4 5340   3.302   0.250   0.585 -0.4880 -0.3737 -0.9173
  353TMC3    C5 5341   3.307   0.133   0.518 -0.5982 -0.4029  0.0675
  353TMC3    C6 5342   3.402   0.040   0.523 -0.1072 -0.3264  0.1204
  353TMC3     C 5343   3.399   0.413   0.734 -0.1726 -0.2364 -0.9201
  353TMC3     O 5344   3.296   0.472   0.712  0.2874 -0.0866 -0.2153
  353TMC3     H 5345   3.577   0.190   0.775  0.8192  2.9819 -2.1605
  353TMC3    H1 5346   3.224   0.324   0.578 -0.5005 -0.5540 -2.6381
  353TMC3    H2 5347   3.392   4.690   0.465  0.3169 -1.6393  2.1013
  353TMC3    C7 5348   3.187   0.092   0.451  0.1411  0.4014 -0.2429
  353TMC3    C8 5349   3.587   4.702   0.660 -0.7675  0.1876 -0.2789
  353TMC3    O1 5350   3.171   4.711   0.450  0.2598 -0.0527  0.1363
  353TMC3    O2 5351   3.690   0.009   0.711 -0.3957 -0.4673  0.6830
  354TMC3    C1 5352   0.031   1.628  13.781 -0.2238  0.1984 -0.1695
  354TMC3    C2 5353   0.028   1.764  13.779  1.1004 -0.2067 -0.1382
  354TMC3    C3 5354   0.012   1.830  13.658  0.7448 -1.3910 -0.2417
  354TMC3    C4 5355   0.024   1.548  13.663  0.0361  0.8003  0.8430
  354TMC3    C5 5356   0.013   1.624  13.546  0.7411 -0.3548 -0.1313
  354TMC3    C6 5357   4.739   1.759  13.542  0.6128  0.1638 -0.1408
  354TMC3     C 5358   0.038   1.550  13.902 -0.3584 -0.1635  0.4068
  354TMC3     O 5359   0.027   1.428  13.893  0.2033  0.4425  0.0804
  354TMC3     H 5360   0.014   1.825  13.867 -4.5105  1.2732 -2.0696
  354TMC3    H1 5361   0.054   1.445  13.653  2.7706  1.5254  1.5663
  354TMC3    H2 5362   4.708   1.811  13.453 -2.5893  1.1046  1.5368
  354TMC3    C7 5363   0.030   1.555  13.424  0.6386 -0.0030 -0.3515
  354TMC3    C8 5364   0.004   1.978  13.660  1.1491 -0.1630 -0.8833
  354TMC3    O1 5365   4.716   1.444  13.429  0.0452  0.4298 -0.0303
  354TMC3    O2 5366   4.721   2.027  13.769  0.0309  0.4268 -0.4173
  355MPD2     C 5367   0.293   2.900  12.272  0.0896  0.4119 -0.1953
  355MPD2    C1 5368   0.363   2.962  12.171 -0.1301  0.1385 -0.4837
  355MPD2    C2 5369   0.499   2.944  12.166  0.6261 -0.1813 -0.0207
  355MPD2    C3 5370   0.569   2.869  12.258 -0.0580  0.2167 -0.1873
  355MPD2    C4 5371   0.498   2.802  12.362  0.2099 -0.5623  0.2032
  355MPD2    C5 5372   0.365   2.827  12.367 -0.0501 -0.0013  0.1265
  355MPD2     H 5373   0.562   2.988  12.089  2.5170  0.3771  1.8507
  355MPD2    H1 5374   0.545   2.737  12.435 -0.3401  0.7422  1.7211
  355MPD2    H2 5375   0.186   2.896  12.262  0.1253 -1.9742  0.4168
  355MPD2    H3 5376   0.303   2.768  12.433 -0.0203  1.7627  1.7188
  355MPD2     N 5377   0.708   2.889  12.257 -0.1429  0.3566 -0.2186
  355MPD2    H5 5378   0.752   2.955  12.193  1.8802 -1.8366 -1.1104
  355MPD2    N1 5379   0.291   3.038  12.072 -0.4987 -0.2405 -0.5136
  355MPD2    H7 5380   0.191   3.050  12.086 -0.8071 -0.7769 -2.2925
  356TMC3    C1 5381   0.921   2.898  12.346 -0.3816  0.8540  0.7657
  356TMC3    C2 5382   0.956   2.965  12.231 -0.2875 -0.3492 -0.0535
  356TMC3    C3 5383   1.065   3.050  12.236 -0.4429  0.5987  0.2507
  356TMC3    C4 5384   1.000   2.901  12.462  0.5204  0.5962 -0.3335
  356TMC3    C5 5385   1.117   2.971  12.453  0.1391 -0.6861  0.1217
  356TMC3    C6 5386   1.154   3.043  12.345  0.0105 -0.2189  0.3783
  356TMC3     C 5387   0.793   2.836  12.354 -0.3713  0.1178 -0.0929
  356TMC3     O 5388   0.767   2.763  12.450  0.1614 -0.1793 -0.0666
  356TMC3     H 5389   0.914   2.955  12.131  1.4754 -2.5032 -0.5746
  356TMC3    H1 5390   0.977   2.862  12.561  0.9492  1.1497 -0.0088
  356TMC3    H2 5391   1.249   3.095  12.340  0.9560 -2.0586 -1.2149
  356TMC3    C7 5392   1.183   2.994  12.576 -0.8759 -0.0667  0.0798
  356TMC3    C8 5393   1.105   3.112  12.110  0.0390  0.0699  1.1709
  356TMC3    O1 5394   1.220   2.892  12.632 -0.0854  0.2688 -0.1669
  356TMC3    O2 5395   1.152   3.038  12.027  0.5865  0.2075  0.4711
  357MPD2     C 5396   4.265   1.889   1.429  0.6172 -0.6690 -0.3223
  357MPD2    C1 5397   4.372   1.805   1.427 -0.1658 -0.3425 -0.0958
  357MPD2    C2 5398   4.474   1.836   1.513  0.4679  0.4860 -0.3893
  357MPD2    C3 5399   4.473   1.934   1.608 -0.2371  0.4608 -0.2564
  357MPD2    C4 5400   4.365   2.018   1.606  0.5802  0.6244 -0.0408
  357MPD2    C5 5401   4.264   1.994   1.518 -0.2688  0.0569 -0.2647
  357MPD2     H 5402   4.558   1.767   1.514 -1.7478 -2.1517  1.7139
  357MPD2    H1 5403   4.360   2.108   1.667  1.2488  1.1072 -0.6852
  357MPD2    H2 5404   4.188   1.882   1.354  1.7139 -1.2063 -1.3929
  357MPD2    H3 5405   4.174   2.054   1.524 -0.0404  0.3888 -0.1482
  357MPD2     N 5406   4.570   1.965   1.706  0.5637 -0.0834  0.0568
  357MPD2    H5 5407   4.555   2.051   1.759  2.0005  0.3409 -0.2441
  357MPD2    N1 5408   4.376   1.705   1.324  0.3551 -0.1581  0.0425
  357MPD2    H7 5409   4.292   1.703   1.266  0.6905  0.5319 -0.4689
  358TMC3    C1 5410   4.475   1.542   1.185  0.3148  0.0833 -0.3521
  358TMC3    C2 5411   4.351   1.508   1.143  0.2600  0.1167  0.3613
  358TMC3    C3 5412   4.358   1.442   1.031  0.1947  0.1054 -0.5152
  358TMC3    C4 5413   4.595   1.503   1.132 -0.1351 -0.4126  0.7101
  358TMC3    C5 5414   4.587   1.438   1.009 -0.2798 -0.7214 -0.1058
  358TMC3    C6 5415   4.466   1.402   0.963  0.4646  0.5497  0.3930
  358TMC3     C 5416   4.486   1.625   1.300 -0.5562  0.0568 -0.1971
  358TMC3     O 5417   4.600   1.626   1.354 -0.2918  0.2165 -0.0798
  358TMC3     H 5418   4.262   1.536   1.198  0.3166 -2.7226  1.8550
  358TMC3    H1 5419   4.694   1.515   1.174  0.2446  0.6274 -0.4900
  358TMC3    H2 5420   4.460   1.385   0.856 -0.2167 -1.6001  0.7773
  358TMC3    C7 5421   4.711   1.421   0.934 -0.7591 -0.6437  0.2340
  358TMC3    C8 5422   4.231   1.394   0.969 -0.5845  1.1527 -0.0829
  358TMC3    O1 5423   4.710   1.328   0.854  0.1150  0.2138  0.0384
  358TMC3    O2 5424   4.128   1.417   1.031  0.0522 -0.0254  0.1231
  359MPD2     C 5425   0.431   1.171  12.968  0.4502  1.2222 -0.3503
  359MPD2    C1 5426   0.359   1.195  12.850 -0.4013 -0.1058  0.7002
  359MPD2    C2 5427   0.235   1.152  12.837 -0.1006  0.4039 -0.5728
  359MPD2    C3 5428   0.181   1.064  12.929  0.7273 -0.4787 -0.4577
  359MPD2    C4 5429   0.259   1.038  13.040 -0.8148 -0.3791 -0.3270
  359MPD2    C5 5430   0.382   1.090  13.064  0.1723 -0.0603 -0.3244
  359MPD2     H 5431   0.172   1.165  12.750 -0.7708  3.2118  0.3414
  359MPD2    H1 5432   0.224   0.961  13.107 -0.6886 -0.7336 -0.6669
  359MPD2    H2 5433   0.536   1.195  12.982  0.6094  0.6603 -0.5698
  359MPD2    H3 5434   0.435   1.050  13.149 -2.0964 -0.5474  0.8571
  359MPD2     N 5435   0.054   1.006  12.926 -0.6614 -0.5749 -0.0493
  359MPD2    H5 5436   0.026   0.956  13.009  0.2708 -0.7418  0.1545
  359MPD2    N1 5437   0.420   1.252  12.739  0.0556 -0.0303 -0.5992
  359MPD2    H7 5438   0.360   1.252  12.657 -0.3124  1.2460 -0.3364
  360TMC3    C1 5439   0.583   1.357  12.608 -0.0617  0.5514  0.7309
  360TMC3    C2 5440   0.685   1.452  12.604  0.4356  0.5124  0.2730
  360TMC3    C3 5441   0.725   1.482  12.479 -0.2590  0.0269  0.9486
  360TMC3    C4 5442   0.519   1.315  12.491  0.8067  0.4188 -0.0863
  360TMC3    C5 5443   0.570   1.344  12.370  0.3795 -0.0896  0.5210
  360TMC3    C6 5444   0.661   1.442  12.362 -0.5837 -0.4379  0.2030
  360TMC3     C 5445   0.540   1.307  12.739  0.1537 -0.4509  0.0148
  360TMC3     O 5446   0.612   1.335  12.834  0.3709  0.3643 -0.0504
  360TMC3     H 5447   0.749   1.477  12.688  1.6870  0.3188 -0.6299
  360TMC3    H1 5448   0.430   1.254  12.497 -1.1628  3.3848  0.7312
  360TMC3    H2 5449   0.686   1.475  12.262 -1.9820 -0.2398 -0.0753
  360TMC3    C7 5450   0.479   1.341  12.252  0.5039  0.5888 -0.6176
  360TMC3    C8 5451   0.799   1.607  12.479 -0.0975  0.4739  0.0085
  360TMC3    O1 5452   0.442   1.452  12.209 -0.3985  0.2447 -0.1932
  360TMC3    O2 5453   0.779   1.685  12.571  0.0220  0.1676  0.4926
  361MPD2     C 5454   1.755   0.624  17.042  0.1862  0.1947  0.0391
  361MPD2    C1 5455   1.760   0.551  16.929 -0.2739  0.8151  0.0772
  361MPD2    C2 5456   1.872   0.477  16.901 -0.6727  0.8147 -0.4884
  361MPD2    C3 5457   1.977   0.477  16.999 -0.4495  0.6806 -0.2553
  361MPD2    C4 5458   1.966   0.550  17.117 -0.8957  0.3008  0.5739
  361MPD2    C5 5459   1.854   0.621  17.140  0.6126 -0.5994  0.5615
  361MPD2     H 5460   1.879   0.428  16.805  1.9391  0.1224  0.0545
  361MPD2    H1 5461   2.035   0.540  17.201 -0.6864 -2.3764  0.0973
  361MPD2    H2 5462   1.675   0.694  17.064 -0.6202 -1.1275  1.3223
  361MPD2    H3 5463   1.846   0.674  17.235 -0.2263 -0.0113  0.1634
  361MPD2     N 5464   2.102   0.403  16.991 -0.2729 -0.0977 -0.3464
  361MPD2    H5 5465   2.174   0.419  17.060 -0.7733  1.7546 -0.2325
  361MPD2    N1 5466   1.654   0.549  16.832  0.0648  0.6338 -0.0726
  361MPD2    H7 5467   1.673   0.493  16.749 -3.8976  0.1660 -0.6732
  362TMC3    C1 5468   1.437   0.558  16.758  0.3591 -0.3734 -0.2806
  362TMC3    C2 5469   1.315   0.559  16.813  0.0190  0.2069 -0.8937
  362TMC3    C3 5470   1.215   0.488  16.753  0.5637 -0.0312  0.0290
  362TMC3    C4 5471   1.470   0.505  16.639 -0.0307  0.3482 -0.6393
  362TMC3    C5 5472   1.364   0.433  16.576  0.0332  0.3937  0.2378
  362TMC3    C6 5473   1.244   0.415  16.638  0.2872  0.1254 -0.2035
  362TMC3     C 5474   1.536   0.621  16.841 -0.0278  0.0757 -0.0545
  362TMC3     O 5475   1.504   0.718  16.914  0.6850 -0.1337  0.4907
  362TMC3     H 5476   1.299   0.604  16.910  0.9514  0.4894 -0.8750
  362TMC3    H1 5477   1.555   0.542  16.582 -1.7454  3.6207 -1.0707
  362TMC3    H2 5478   1.158   0.371  16.588  0.0909  2.2157 -1.7286
  362TMC3    C7 5479   1.350   0.467  16.433 -0.0682 -0.1098 -0.3957
  362TMC3    C8 5480   1.075   0.498  16.799  0.0804  1.1182  0.2418
  362TMC3    O1 5481   1.236   0.471  16.390 -0.5659  0.2225 -0.3149
  362TMC3    O2 5482   1.007   0.401  16.765 -0.2504  0.0704 -0.0718
  363TMC3    C1 5483   4.697   3.341   9.339 -0.0672  0.4049  0.2599
  363TMC3    C2 5484   0.090   3.316   9.372 -0.5282  0.3518  0.1274
  363TMC3    C3 5485   0.165   3.394   9.453  0.0801 -0.1346 -0.2310
  363TMC3    C4 5486   4.635   3.451   9.384  0.0179  0.7417 -0.2510
  363TMC3    C5 5487   4.720   3.540   9.455 -0.5006 -0.3167  0.7076
  363TMC3    C6 5488   0.115   3.521   9.489 -0.0198  0.8527  0.3342
  363TMC3     C 5489   4.638   3.242   9.254 -0.3538 -0.2457  0.3019
  363TMC3     O 5490   4.711   3.150   9.216 -0.0936  0.3753  0.0067
  363TMC3     H 5491   0.135   3.224   9.335  0.0640  0.3418  0.8645
  363TMC3    H1 5492   4.536   3.485   9.353  0.6603  0.4953 -2.5282
  363TMC3    H2 5493   0.180   3.587   9.544  2.6397 -0.5205 -1.1511
  363TMC3    C7 5494   4.661   3.672   9.500  0.0496 -0.0920  0.0388
  363TMC3    C8 5495   0.301   3.353   9.497 -1.2323 -0.2577 -0.2463
  363TMC3    O1 5496   4.538   3.686   9.498  0.1764 -0.2681 -0.9071
  363TMC3    O2 5497   0.366   3.443   9.541 -0.2319 -0.1833  0.2198
  364MPD2     C 5498   3.752   2.480  10.651 -0.4079 -0.4020  0.4347
  364MPD2    C1 5499   3.806   2.533  10.763 -0.1414 -0.1465 -0.0323
  364MPD2    C2 5500   3.840   2.449  10.872 -0.7375 -0.8559  0.0784
  364MPD2    C3 5501   3.810   2.310  10.874  0.4475 -0.9243 -0.5053
  364MPD2    C4 5502   3.755   2.263  10.759 -0.1861  0.1921  0.0591
  364MPD2    C5 5503   3.726   2.347  10.651  0.9959  0.4484 -0.4935
  364MPD2     H 5504   3.893   2.504  10.949 -2.5432 -0.2024  0.8446
  364MPD2    H1 5505   3.725   2.159  10.754 -0.3694  0.2660 -0.3765
  364MPD2    H2 5506   3.729   2.542  10.566  1.5377 -0.3678 -0.0622
  364MPD2    H3 5507   3.678   2.297  10.568  0.8532  0.0801 -0.1884
  364MPD2     N 5508   3.837   2.219  10.985  0.0860  0.0192 -0.6264
  364MPD2    H5 5509   3.815   2.120  10.977 -0.2901 -0.0582  1.3678
  364MPD2    N1 5510   3.837   2.672  10.746 -0.1670 -0.5024  0.4039
  364MPD2    H7 5511   3.811   2.715  10.657  3.5193  1.9468  0.4954
  365TMC3    C1 5512   3.949   2.872  10.777 -0.1461  0.5577  0.1486
  365TMC3    C2 5513   3.972   2.884  10.642 -0.1278 -0.6634 -0.2930
  365TMC3    C3 5514   4.020   3.004  10.591  0.0318 -0.7155 -0.1484
  365TMC3    C4 5515   3.961   2.980  10.859  0.2295  0.5276  0.2622
  365TMC3    C5 5516   4.008   3.095  10.807  0.3467 -0.5478  0.6544
  365TMC3    C6 5517   4.051   3.101  10.677  0.2958  0.3344  0.2610
  365TMC3     C 5518   3.899   2.751  10.838 -0.6313  0.4448  0.2158
  365TMC3     O 5519   3.922   2.735  10.955 -0.2147 -0.1724 -0.4624
  365TMC3     H 5520   3.975   2.797  10.578 -0.2893 -1.1993  0.4238
  365TMC3    H1 5521   3.914   2.965  10.956  0.4749  0.2716  0.3415
  365TMC3    H2 5522   4.087   3.197  10.641  0.3695  1.0731  2.3290
  365TMC3    C7 5523   4.078   3.183  10.894  0.4689 -0.6473  0.0773
  365TMC3    C8 5524   4.097   3.006  10.470 -0.4570  1.4103  0.0042
  365TMC3    O1 5525   4.111   3.293  10.851  0.1306  0.0573 -0.0128
  365TMC3    O2 5526   4.176   3.102  10.447  0.9670 -0.1771 -0.6852
  366MPD2     C 5527   1.896   3.717  15.424 -0.2999  0.1651 -0.5686
  366MPD2    C1 5528   2.031   3.705  15.457  0.2457 -0.0658 -0.2966
  366MPD2    C2 5529   2.089   3.578  15.447 -0.3757  0.4557  0.2755
  366MPD2    C3 5530   2.018   3.472  15.394  0.5392  0.6677 -0.0810
  366MPD2    C4 5531   1.884   3.487  15.378  0.1873 -0.6975 -0.3031
  366MPD2    C5 5532   1.826   3.604  15.385 -0.4119  0.8394  0.0594
  366MPD2     H 5533   2.194   3.560  15.470 -0.4678  0.5997  0.7879
  366MPD2    H1 5534   1.823   3.403  15.348 -0.6388  0.7517 -2.7124
  366MPD2    H2 5535   1.840   3.809  15.424 -0.5585  0.0063  1.9763
  366MPD2    H3 5536   1.723   3.619  15.354 -0.3693  1.1651  0.0722
  366MPD2     N 5537   2.083   3.344  15.377  0.2769  0.6387  0.0246
  366MPD2    H5 5538   2.184   3.343  15.369  0.2262 -0.7480 -0.5474
  366MPD2    N1 5539   2.112   3.811  15.506 -0.0507 -0.6277 -0.3896
  366MPD2    H7 5540   2.211   3.796  15.522  0.7066  1.2534 -3.3919
  367TMC3    C1 5541   2.177   4.014  15.568  0.2101 -0.4213  0.1848
  367TMC3    C2 5542   2.311   3.989  15.553  0.5116 -0.1585  0.6537
  367TMC3    C3 5543   2.401   4.092  15.549  0.8557  0.2528  0.2399
  367TMC3    C4 5544   2.134   4.147  15.579  0.5667  0.3996  0.2597
  367TMC3    C5 5545   2.226   4.245  15.579 -0.6045  0.2705 -0.0253
  367TMC3    C6 5546   2.359   4.222  15.561  0.2645  0.6561 -0.1626
  367TMC3     C 5547   2.062   3.934  15.543  0.3948 -0.5930  0.2120
  367TMC3     O 5548   1.960   3.989  15.507 -0.0020 -0.1412  0.5496
  367TMC3     H 5549   2.347   3.887  15.543 -1.3938 -0.6746 -0.9016
  367TMC3    H1 5550   2.030   4.171  15.597  0.5105 -0.0557  0.5419
  367TMC3    H2 5551   2.419   4.311  15.563  1.2495  0.0235 -1.6029
  367TMC3    C7 5552   2.173   4.355  15.496  0.7707 -0.0670 -0.3344
  367TMC3    C8 5553   2.519   4.057  15.615  0.0451 -0.3040  0.1075
  367TMC3    O1 5554   2.074   4.406  15.544 -0.1070  0.2207  0.2508
  367TMC3    O2 5555   2.529   3.949  15.671  0.2696 -0.0954 -0.0983
  368MPD2     C 5556   3.274   0.109  12.548 -0.2111 -0.0627 -0.1128
  368MPD2    C1 5557   3.320   0.232  12.597  0.4909 -0.5538  0.1716
  368MPD2    C2 5558   3.401   0.303  12.516 -0.8311  0.1700  1.1670
  368MPD2    C3 5559   3.449   0.246  12.397 -0.2549  0.1829  0.2951
  368MPD2    C4 5560   3.417   0.117  12.359  0.5512  0.7154  0.5431
  368MPD2    C5 5561   3.324   0.052  12.437  0.0277 -0.2199 -0.6359
  368MPD2     H 5562   3.429   0.405  12.539  1.0628  0.5605 -2.8960
  368MPD2    H1 5563   3.437   0.076  12.260  4.0602 -0.2812  1.6501
  368MPD2    H2 5564   3.210   0.052  12.614  0.7487 -3.6080 -2.2175
  368MPD2    H3 5565   3.299   4.688  12.419  0.6220 -0.4517 -0.1230
  368MPD2     N 5566   3.546   0.314  12.315 -0.0233  0.3194 -0.3107
  368MPD2    H5 5567   3.602   0.256  12.254 -1.8562  1.9212 -3.5389
  368MPD2    N1 5568   3.265   0.277  12.722 -0.2380 -0.0064  0.4414
  368MPD2    H7 5569   3.191   0.219  12.761  0.3747 -0.6766  0.6149
  369TMC3    C1 5570   3.231   0.434  12.899 -0.3114 -0.2816  0.6620
  369TMC3    C2 5571   3.259   0.566  12.923  0.5531 -0.4326 -0.4297
  369TMC3    C3 5572   3.153   0.645  12.938 -0.7528 -0.3007 -0.9057
  369TMC3    C4 5573   3.098   0.383  12.905  0.0280 -0.0312  0.0838
  369TMC3    C5 5574   2.996   0.471  12.919 -0.4407  0.5342 -0.0618
  369TMC3    C6 5575   3.026   0.600  12.940 -0.2000 -0.3428 -0.6932
  369TMC3     C 5576   3.324   0.376  12.798  0.2603 -0.3614  0.0493
  369TMC3     O 5577   3.430   0.439  12.777 -0.7934  0.0483 -0.2852
  369TMC3     H 5578   3.364   0.593  12.916  0.4107 -0.3497 -2.1975
  369TMC3    H1 5579   3.085   0.275  12.899  3.7754 -0.5296  0.9306
  369TMC3    H2 5580   2.953   0.673  12.973 -0.0389 -1.4889  2.1602
  369TMC3    C7 5581   2.867   0.420  12.958 -0.0321 -0.7762  0.6042
  369TMC3    C8 5582   3.177   0.785  12.946  0.3657 -0.2625 -0.1600
  369TMC3    O1 5583   2.865   0.303  12.995 -0.2727  0.2848 -0.0800
  369TMC3    O2 5584   3.087   0.860  12.908  0.1248 -0.5971  0.6318
  370TMC3    C1 5585   3.117   1.149  16.286 -0.6074 -0.3573  0.9017
  370TMC3    C2 5586   3.050   1.059  16.366  0.0396  0.1535 -0.3754
  370TMC3    C3 5587   3.053   0.928  16.330  0.1588  0.0951  0.1426
  370TMC3    C4 5588   3.190   1.111  16.172 -0.7964  0.3546 -0.7076
  370TMC3    C5 5589   3.177   0.982  16.132  0.4192  0.4835  0.2108
  370TMC3    C6 5590   3.117   0.887  16.216 -0.3829 -0.2556 -0.4933
  370TMC3     C 5591   3.178   1.255  16.366  0.7013  0.0049 -0.2656
  370TMC3     O 5592   3.189   1.237  16.488 -0.7614  0.0115  0.2562
  370TMC3     H 5593   3.015   1.095  16.462 -1.6060 -1.0633 -0.5135
  370TMC3    H1 5594   3.240   1.188  16.114  0.3784 -0.2941 -0.5402
  370TMC3    H2 5595   3.106   0.786  16.178 -0.4173 -1.2423  2.1237
  370TMC3    C7 5596   3.268   0.945  16.022  0.0848 -0.5473 -0.3887
  370TMC3    C8 5597   3.016   0.823  16.428  0.2007  0.5979  0.0602
  370TMC3    O1 5598   3.300   1.039  15.949 -0.5032 -0.0178  0.3622
  370TMC3    O2 5599   3.060   0.713  16.406  0.3041 -0.5427 -0.1253
  371TMC3    C1 5600   4.505   4.072  15.516  0.2186 -0.4158  0.3880
  371TMC3    C2 5601   4.420   4.113  15.617  0.2165 -0.5014  0.4093
  371TMC3    C3 5602   4.397   4.241  15.636 -0.1407  0.0500 -0.1122
  371TMC3    C4 5603   4.555   4.163  15.422 -0.2722 -1.0580 -0.7266
  371TMC3    C5 5604   4.520   4.297  15.434 -0.0424  0.9674  0.1597
  371TMC3    C6 5605   4.448   4.335  15.545  0.2644  0.5110  0.2060
  371TMC3     C 5606   4.525   3.932  15.482  0.5035  0.8276  0.0650
  371TMC3     O 5607   4.619   3.893  15.416 -0.3081  1.1458 -0.2173
  371TMC3     H 5608   4.387   4.041  15.691  0.1593  0.4867  1.3371
  371TMC3    H1 5609   4.605   4.123  15.335  0.4508 -0.4782 -0.5747
  371TMC3    H2 5610   4.428   4.441  15.548 -0.0700  0.3382  3.2487
  371TMC3    C7 5611   4.585   4.400  15.358  0.4526 -0.0760 -0.9248
  371TMC3    C8 5612   4.386   4.282  15.779  0.2046 -1.3839  0.0781
  371TMC3    O1 5613   4.555   4.515  15.389  0.3624  0.5489 -0.6883
  371TMC3    O2 5614   4.455   4.222  15.859  0.3907 -0.1331 -0.5451
  372MPD2     C 5615   4.411   0.085  13.041  0.2246 -0.5326 -0.4377
  372MPD2    C1 5616   4.419   0.018  13.165  0.3758 -0.6953 -0.0692
  372MPD2    C2 5617   4.313   0.029  13.249 -0.0423  0.2360  0.3364
  372MPD2    C3 5618   4.202   0.100  13.208 -0.1316  0.3317 -0.0696
  372MPD2    C4 5619   4.194   0.168  13.092 -0.7540 -0.4054  0.2959
  372MPD2    C5 5620   4.306   0.171  13.017 -0.2581  0.0596 -0.2388
  372MPD2     H 5621   4.319   4.707  13.338  0.5210  1.7329  1.3382
  372MPD2    H1 5622   4.106   0.214  13.049  0.1137  1.2088  0.2488
  372MPD2    H2 5623   4.491   0.093  12.968  0.6064 -1.0037 -0.0613
  372MPD2    H3 5624   4.289   0.213  12.918 -3.1028  1.2237  0.7339
  372MPD2     N 5625   4.093   0.096  13.296 -1.1075  0.1022 -0.2602
  372MPD2    H5 5626   4.097   0.037  13.379 -2.1707  1.3527  0.6647
  372MPD2    N1 5627   4.527   4.681  13.204 -0.7299  0.3185  0.3028
  372MPD2    H7 5628   4.510   4.624  13.286 -0.5003 -1.1974 -0.7085
  373TMC3    C1 5629   3.902   0.182  13.415 -0.6695  0.0586 -0.3969
  373TMC3    C2 5630   3.889   0.296  13.484  0.1759  0.5100  0.2295
  373TMC3    C3 5631   3.843   0.285  13.614  0.2965 -0.0572 -0.0707
  373TMC3    C4 5632   3.880   0.058  13.468  0.3123  0.0749 -0.3009
  373TMC3    C5 5633   3.846   0.052  13.600  0.4591 -0.0749  0.0092
  373TMC3    C6 5634   3.821   0.163  13.669 -0.6129 -0.1490  0.2420
  373TMC3     C 5635   3.991   0.188  13.306  0.2259  0.0044  0.3809
  373TMC3     O 5636   3.979   0.290  13.236  0.6423 -0.0368 -0.1053
  373TMC3     H 5637   3.931   0.389  13.448  1.3395  0.1694  0.7023
  373TMC3    H1 5638   3.888   4.707  13.410  1.0247  1.2890 -2.1434
  373TMC3    H2 5639   3.787   0.161  13.772 -1.4089  1.6260  0.0126
  373TMC3    C7 5640   3.878   4.658  13.653  0.2003  0.5330 -0.0451
  373TMC3    C8 5641   3.893   0.378  13.707 -0.9449  0.7768 -0.5302
  373TMC3    O1 5642   3.902   4.572  13.571 -0.2213 -0.6552  0.4691
  373TMC3    O2 5643   4.005   0.428  13.681  0.3162 -0.5607  0.3437
  374TMC3    C1 5644   4.149   1.089  10.190 -0.1763  0.3107  0.9138
  374TMC3    C2 5645   4.194   1.196  10.263 -0.4216  0.3392 -0.0438
  374TMC3    C3 5646   4.247   1.299  10.189 -0.5398  0.5173  0.1717
  374TMC3    C4 5647   4.144   1.096  10.049 -0.3722  0.2565  0.8028
  374TMC3    C5 5648   4.183   1.213   9.984 -0.0516 -0.3021 -0.0225
  374TMC3    C6 5649   4.240   1.314  10.050 -0.1070  0.5384  0.5992
  374TMC3     C 5650   4.134   0.966  10.261 -0.4868  0.5431 -0.0733
  374TMC3     O 5651   4.212   0.950  10.356 -0.7093 -0.0465 -0.6270
  374TMC3     H 5652   4.189   1.205  10.371 -1.4206 -0.3667 -0.0305
  374TMC3    H1 5653   4.106   1.005  10.004 -1.3319  0.7715  0.5735
  374TMC3    H2 5654   4.287   1.399  10.000 -0.2666 -0.4558 -1.2519
  374TMC3    C7 5655   4.182   1.210   9.837  0.9706  0.2764 -0.4462
  374TMC3    C8 5656   4.296   1.420  10.258 -0.2961  0.7331 -0.1411
  374TMC3    O1 5657   4.178   1.322   9.787 -0.6250  0.2083 -0.3490
  374TMC3    O2 5658   4.278   1.523  10.195 -0.2312  0.3053 -0.3125
  375MPD2     C 5659   4.655   2.099  16.956 -0.1662 -0.4236 -0.6038
  375MPD2    C1 5660   4.548   2.015  16.973 -0.3040  0.1970  0.1922
  375MPD2    C2 5661   4.554   1.881  16.926 -0.5931 -0.4139 -0.7475
  375MPD2    C3 5662   4.664   1.835  16.862  0.1863  0.6172 -0.7580
  375MPD2    C4 5663   0.036   1.913  16.850 -0.3076 -0.2444  0.1608
  375MPD2    C5 5664   0.023   2.047  16.891 -0.3056 -0.4388 -0.0780
  375MPD2     H 5665   4.468   1.818  16.941 -0.2776 -0.3079  1.5420
  375MPD2    H1 5666   0.124   1.883  16.794 -2.2090 -1.1723 -2.3586
  375MPD2    H2 5667   4.652   2.206  16.974 -2.2883 -0.7542  1.0171
  375MPD2    H3 5668   0.106   2.110  16.862 -1.1537  0.4589 -0.5494
  375MPD2     N 5669   4.670   1.707  16.799  0.7400  0.0897  0.4371
  375MPD2    H5 5670   0.014   1.666  16.758  0.2042 -2.2129  1.6295
  375MPD2    N1 5671   4.434   2.046  17.049  0.0879 -0.1505  0.3535
  375MPD2    H7 5672   4.369   1.968  17.050  0.3677 -0.3927 -1.2342
  376TMC3    C1 5673   4.603   1.492  16.734  0.2449  0.3889 -0.1064
  376TMC3    C2 5674   4.715   1.437  16.802  0.3930  0.1484  0.2614
  376TMC3    C3 5675   4.718   1.302  16.819 -0.7634  0.0280 -0.4723
  376TMC3    C4 5676   4.506   1.419  16.668  0.7578 -1.0489 -0.2894
  376TMC3    C5 5677   4.530   1.282  16.674 -0.5372  0.3659  0.6174
  376TMC3    C6 5678   4.626   1.223  16.751  0.5637 -0.0446  0.7032
  376TMC3     C 5679   4.562   1.629  16.764 -0.5789  0.3924  0.0976
  376TMC3     O 5680   4.441   1.654  16.771  0.0052  0.3058 -0.1242
  376TMC3     H 5681   0.041   1.505  16.854 -1.6930 -0.1304  3.3047
  376TMC3    H1 5682   4.438   1.463  16.596  0.3852  1.1372  1.3924
  376TMC3    H2 5683   4.640   1.116  16.761 -0.3539 -0.4244 -2.0570
  376TMC3    C7 5684   4.495   1.217  16.547 -0.1617  0.2555 -0.0826
  376TMC3    C8 5685   0.108   1.245  16.842  0.1991 -0.6769 -0.0841
  376TMC3    O1 5686   4.419   1.276  16.470  0.1600  0.2340  0.3284
  376TMC3    O2 5687   0.114   1.136  16.892  0.4380  0.0619 -0.5232
  377MPD2     C 5688   3.002   0.596  12.459 -0.0888 -0.0858  0.1247
  377MPD2    C1 5689   2.916   0.683  12.404  0.5189  0.1689 -0.0170
  377MPD2    C2 5690   2.785   0.673  12.439 -0.3568 -0.2480  0.1661
  377MPD2    C3 5691   2.739   0.575  12.521  0.5338 -0.3662 -0.5061
  377MPD2    C4 5692   2.825   0.482  12.571 -0.6790  0.1872 -0.4889
  377MPD2    C5 5693   2.957   0.500  12.544  0.5204  0.1945 -0.3454
  377MPD2     H 5694   2.716   0.737  12.385 -0.8073 -1.0092 -0.1691
  377MPD2    H1 5695   2.797   0.399  12.635  0.0581  1.8861  2.0573
  377MPD2    H2 5696   3.108   0.603  12.435 -0.0078 -0.5554  0.3441
  377MPD2    H3 5697   3.038   0.437  12.577  1.0751 -0.0406 -2.1593
  377MPD2     N 5698   2.601   0.561  12.561  0.2428  0.6371  0.3553
  377MPD2    H5 5699   2.584   0.481  12.620 -0.5121 -0.2074 -1.0145
  377MPD2    N1 5700   2.963   0.776  12.304  0.0250  0.4131 -0.2566
  377MPD2    H7 5701   3.063   0.768  12.286 -0.3169  0.7243 -2.3548
  378TMC3    C1 5702   2.988   1.116  11.991  0.2455 -0.0969  0.1156
  378TMC3    C2 5703   2.915   1.053  12.089  0.2312 -0.3170 -0.1390
  378TMC3    C3 5704   2.969   0.976  12.184 -0.5327 -0.2168  0.0602
  378TMC3    C4 5705   3.126   1.097  11.989 -0.9534  0.0313  0.1005
  378TMC3    C5 5706   3.181   1.037  12.101  0.4768  0.2128 -0.6703
  378TMC3    C6 5707   3.105   0.966  12.191 -0.0634 -0.5938  0.4607
  378TMC3     C 5708   2.931   1.215  11.897 -0.6718 -0.9093  0.1035
  378TMC3     O 5709   3.004   1.263  11.810 -0.0519  0.5465 -0.1510
  378TMC3     H 5710   2.807   1.043  12.081  0.1078  0.7070  0.3373
  378TMC3    H1 5711   3.190   1.146  11.916 -0.1307  0.8211  1.3598
  378TMC3    H2 5712   3.151   0.909  12.271 -0.3314 -1.5800 -0.0869
  378TMC3    C7 5713   3.316   0.992  12.084 -0.5675  0.2885 -0.4527
  378TMC3    C8 5714   2.887   0.874  12.247  0.6763 -1.0258  0.3149
  378TMC3    O1 5715   3.366   0.945  12.187 -0.5795 -0.3199 -0.0208
  378TMC3    O2 5716   2.763   0.892  12.246  0.3856  0.2817 -0.0037
  379MPD2     C 5717   3.658   3.850  16.232 -0.0676  0.1974  0.3877
  379MPD2    C1 5718   3.562   3.762  16.269 -1.0036  0.4946 -0.5910
  379MPD2    C2 5719   3.562   3.697  16.388  0.0576  0.0203 -0.2833
  379MPD2    C3 5720   3.662   3.724  16.481  0.1230 -0.4460  0.5818
  379MPD2    C4 5721   3.762   3.813  16.444 -0.9707  0.2463  0.7014
  379MPD2    C5 5722   3.762   3.868  16.321 -0.2499  0.3198 -0.2701
  379MPD2     H 5723   3.485   3.623  16.407  2.1382 -1.8485  0.7133
  379MPD2    H1 5724   3.843   3.824  16.516 -1.3714 -2.0211  1.4951
  379MPD2    H2 5725   3.658   3.892  16.132  0.8235  0.1119  0.3539
  379MPD2    H3 5726   3.839   3.935  16.285 -0.3942  0.7740  0.2637
  379MPD2     N 5727   3.668   3.663  16.609 -0.2144 -0.0648  0.0777
  379MPD2    H5 5728   3.751   3.680  16.664 -0.9476  0.7794  0.9222
  379MPD2    N1 5729   3.459   3.752  16.175 -0.0101  0.1086  0.0235
  379MPD2    H7 5730   3.463   3.821  16.101  1.2935  1.4484  1.3608
  380TMC3    C1 5731   3.258   3.661  16.094 -0.0521 -0.4238  0.5019
  380TMC3    C2 5732   3.214   3.558  16.022 -0.2671 -0.3228 -0.4843
  380TMC3    C3 5733   3.102   3.582  15.947  0.2604  0.1332  0.4744
  380TMC3    C4 5734   3.200   3.781  16.102 -0.7114 -0.3819  0.0765
  380TMC3    C5 5735   3.084   3.799  16.028  0.4490  0.1111 -1.0190
  380TMC3    C6 5736   3.033   3.699  15.956 -0.5015  0.3462  0.4035
  380TMC3     C 5737   3.381   3.639  16.162  0.0549  0.1130  0.2155
  380TMC3     O 5738   3.405   3.526  16.202 -0.3828  0.2276  0.2246
  380TMC3     H 5739   3.269   3.464  16.030  0.2774  0.1221  0.9513
  380TMC3    H1 5740   3.218   3.849  16.184  2.2044  0.7628 -1.5253
  380TMC3    H2 5741   2.960   3.721  15.879 -0.1967  1.5090  0.4357
  380TMC3    C7 5742   3.056   3.934  15.981 -0.0940 -0.6114  0.3537
  380TMC3    C8 5743   3.083   3.499  15.828  0.4435 -0.3917  0.2577
  380TMC3    O1 5744   3.148   4.013  16.004 -0.6216  0.5335  0.2892
  380TMC3    O2 5745   2.975   3.499  15.769 -0.1923  0.2297 -0.1315
  381TMC3    C1 5746   3.195   0.187  16.249  0.2368  0.4287  0.1825
  381TMC3    C2 5747   3.240   0.311  16.222  0.1355 -0.3418  1.0746
  381TMC3    C3 5748   3.225   0.401  16.320  0.1729  0.4923 -0.7854
  381TMC3    C4 5749   3.142   0.153  16.371 -0.2469  0.0071  0.4776
  381TMC3    C5 5750   3.117   0.251  16.462  0.2447 -0.1557  0.3395
  381TMC3    C6 5751   3.160   0.377  16.436 -0.4446 -0.1085 -0.6985
  381TMC3     C 5752   3.158   0.096  16.137  0.5932 -0.2484 -0.2423
  381TMC3     O 5753   3.098   4.732  16.173  0.5483  0.0712  0.1493
  381TMC3     H 5754   3.270   0.341  16.123 -0.8760 -0.1634  0.8191
  381TMC3    H1 5755   3.093   0.058  16.392 -1.7617  0.2538 -1.9163
  381TMC3    H2 5756   3.131   0.462  16.498  0.5269  0.0721 -0.4945
  381TMC3    C7 5757   3.044   0.218  16.584  0.3720  0.2348  0.0241
  381TMC3    C8 5758   3.331   0.503  16.321 -0.1376  0.4881  0.1396
  381TMC3    O1 5759   3.029   0.099  16.609  0.4924  0.4392 -0.4457
  381TMC3    O2 5760   3.428   0.465  16.258  0.9314 -0.0058  0.2721
  382MPD2     C 5761   2.116   2.993  17.308 -0.2075 -0.3433 -0.1845
  382MPD2    C1 5762   2.002   2.966  17.381  0.0442  0.2021  0.6489
  382MPD2    C2 5763   1.964   2.838  17.391 -0.1913  0.3584  0.1798
  382MPD2    C3 5764   2.037   2.734  17.333 -0.4911  0.3512 -0.2591
  382MPD2    C4 5765   2.147   2.772  17.259 -0.2137 -0.0294 -0.0661
  382MPD2    C5 5766   2.187   2.898  17.244 -0.1350  1.3066  0.5580
  382MPD2     H 5767   1.883   2.809  17.457 -2.1373  2.4799 -1.2993
  382MPD2    H1 5768   2.196   2.695  17.200  0.6686  2.0856 -2.0871
  382MPD2    H2 5769   2.164   3.090  17.308  1.1458 -1.0017  0.4384
  382MPD2    H3 5770   2.284   2.918  17.199 -0.1558 -0.5256 -0.2952
  382MPD2     N 5771   2.017   2.594  17.360 -0.5381  0.5236  0.0867
  382MPD2    H5 5772   2.079   2.534  17.307 -0.0342  0.1522  1.0931
  382MPD2    N1 5773   1.934   3.067  17.445  0.3048 -0.1848  0.7764
  382MPD2    H7 5774   1.850   3.049  17.500  0.3062  0.7209  1.0702
  383TMC3    C1 5775   1.927   2.396  17.404 -0.0693 -0.5222 -0.1160
  383TMC3    C2 5776   1.806   2.327  17.409  0.2228  0.5612 -0.2610
  383TMC3    C3 5777   1.817   2.196  17.422 -0.1494  0.7184  0.0438
  383TMC3    C4 5778   2.045   2.330  17.425 -0.4583  0.1978  0.4230
  383TMC3    C5 5779   2.057   2.187  17.427 -0.2044  0.5075 -0.3382
  383TMC3    C6 5780   1.935   2.124  17.436 -0.1864 -0.1044  0.1440
  383TMC3     C 5781   1.906   2.537  17.411  0.3070 -0.3680  0.2221
  383TMC3     O 5782   1.800   2.594  17.437 -0.7526  0.4812  0.1514
  383TMC3     H 5783   1.704   2.364  17.410  0.0347 -0.0471  1.8595
  383TMC3    H1 5784   2.136   2.388  17.435 -0.4220  0.5126 -1.6428
  383TMC3    H2 5785   1.935   2.017  17.420  0.6189  0.3051 -2.5357
  383TMC3    C7 5786   2.175   2.130  17.483  0.0429 -0.0794  0.6333
  383TMC3    C8 5787   1.694   2.128  17.370 -1.1371  0.1035 -0.4194
  383TMC3    O1 5788   2.277   2.194  17.466 -0.1984  0.3341 -0.3411
  383TMC3    O2 5789   1.609   2.194  17.313  0.2576 -0.2506  0.6012
  384MPD2     C 5790   4.097   3.568  12.428 -0.0818 -0.0695 -0.0797
  384MPD2    C1 5791   4.136   3.605  12.557 -0.0172 -0.4603 -0.4687
  384MPD2    C2 5792   4.254   3.567  12.613 -0.0692  0.7593  0.1799
  384MPD2    C3 5793   4.335   3.487  12.536 -0.4162  0.0550 -0.1226
  384MPD2    C4 5794   4.295   3.442  12.413 -0.0380 -0.4006 -0.5366
  384MPD2    C5 5795   4.182   3.490  12.354 -0.5357 -0.8284  0.1454
  384MPD2     H 5796   4.289   3.590  12.713  0.3238 -0.4977  0.3240
  384MPD2    H1 5797   4.354   3.370  12.356  0.8867 -0.5515  0.5982
  384MPD2    H2 5798   4.007   3.610  12.383 -0.2118 -0.3054 -0.0385
  384MPD2    H3 5799   4.162   3.451  12.255 -1.6906 -0.1846  0.1176
  384MPD2     N 5800   4.441   3.432  12.608 -0.1731 -0.3447  0.1918
  384MPD2    H5 5801   4.460   3.469  12.701  0.7591  0.6181 -0.3771
  384MPD2    N1 5802   4.044   3.690  12.627 -0.2814 -0.3725 -0.1507
  384MPD2    H7 5803   3.947   3.693  12.596 -0.3128  1.4509  0.1422
  385TMC3    C1 5804   4.587   3.251  12.666 -0.1515 -0.3393  0.3225
  385TMC3    C2 5805   4.631   3.127  12.617  0.0513  0.2600  0.2670
  385TMC3    C3 5806   4.615   3.016  12.698 -0.2685  0.4255 -0.0602
  385TMC3    C4 5807   4.540   3.263  12.789 -0.3028 -0.6354 -0.1139
  385TMC3    C5 5808   4.515   3.151  12.864  0.1751  0.3573  0.0553
  385TMC3    C6 5809   4.547   3.025  12.814 -0.4181  0.6325 -0.4095
  385TMC3     C 5810   4.537   3.342  12.559 -0.6111 -0.0746  0.7848
  385TMC3     O 5811   4.562   3.306  12.443 -0.3794  0.0481 -0.2127
  385TMC3     H 5812   4.691   3.123  12.527 -0.8281  1.5325 -0.3857
  385TMC3    H1 5813   4.506   3.354  12.838  0.2574  0.4414 -1.7262
  385TMC3    H2 5814   4.504   2.936  12.856 -0.0793  0.6586 -0.0091
  385TMC3    C7 5815   4.403   3.167  12.950  0.2619  0.3802  0.2582
  385TMC3    C8 5816   4.610   2.890  12.629  0.3568 -1.1410  0.1502
  385TMC3    O1 5817   4.394   3.268  13.017  0.1006 -0.0674  0.3137
  385TMC3    O2 5818   4.634   2.792  12.697  0.1463  0.2948  0.1708
  386TMC3    C1 5819   3.720   1.023  11.877 -0.0501  0.1160 -0.1900
  386TMC3    C2 5820   3.687   0.994  11.749  1.0692  0.0477 -0.0944
  386TMC3    C3 5821   3.588   1.076  11.694  0.2465  0.1925  0.5111
  386TMC3    C4 5822   3.668   1.122  11.950  0.9631  0.0942 -0.8608
  386TMC3    C5 5823   3.570   1.191  11.899 -0.0558  0.1834  0.8734
  386TMC3    C6 5824   3.522   1.170  11.772 -0.3416  0.1820 -0.2586
  386TMC3     C 5825   3.843   0.964  11.925 -0.1049  0.3968 -0.7089
  386TMC3     O 5826   3.920   1.018  12.008  0.6382 -0.6806  0.5848
  386TMC3     H 5827   3.739   0.913  11.701  1.4412  0.2915 -0.1000
  386TMC3    H1 5828   3.709   1.127  12.051 -0.4553 -0.0535 -0.2800
  386TMC3    H2 5829   3.430   1.216  11.739  0.7549  2.2787 -0.4195
  386TMC3    C7 5830   3.501   1.282  11.999 -0.4484 -0.2888  0.6929
  386TMC3    C8 5831   3.535   1.047  11.568  0.4230 -1.1156  0.1119
  386TMC3    O1 5832   3.504   1.243  12.114 -0.1207 -0.2984 -0.3981
  386TMC3    O2 5833   3.422   1.089  11.548 -0.2921  0.3502  0.1082
  387MPD2     C 5834   1.961   1.801   9.666 -0.2895 -0.4676 -0.5304
  387MPD2    C1 5835   1.955   1.831   9.803 -0.0965 -0.3028  0.1371
  387MPD2    C2 5836   1.880   1.750   9.888  1.1353  0.4829 -0.1218
  387MPD2    C3 5837   1.819   1.636   9.843  0.0020  0.0974  0.3052
  387MPD2    C4 5838   1.813   1.608   9.705 -0.0878  0.4094  0.0516
  387MPD2    C5 5839   1.885   1.687   9.623  0.1844  0.0143 -0.3802
  387MPD2     H 5840   1.873   1.779   9.992  0.5692  0.6574 -0.2051
  387MPD2    H1 5841   1.768   1.513   9.676 -1.5168  0.5483  1.8099
  387MPD2    H2 5842   2.023   1.859   9.599  0.7312 -2.7328 -1.5474
  387MPD2    H3 5843   1.888   1.666   9.517  1.1302  0.7752 -0.5161
  387MPD2     N 5844   1.757   1.559   9.938 -0.1001 -0.1571 -0.8247
  387MPD2    H5 5845   1.748   1.595  10.033  0.9386  1.6288 -1.3933
  387MPD2    N1 5846   2.027   1.931   9.871  0.1819  0.6599  0.1936
  387MPD2    H7 5847   2.008   1.938   9.971 -0.9492 -3.2566  0.2663
  388TMC3    C1 5848   2.180   2.100   9.918 -0.0441 -0.0135  0.0731
  388TMC3    C2 5849   2.189   2.241   9.904 -0.5581  0.4719 -0.0834
  388TMC3    C3 5850   2.214   2.315  10.014 -0.6650  0.0315  0.1901
  388TMC3    C4 5851   2.207   2.039  10.035  0.8683 -0.4261 -0.1579
  388TMC3    C5 5852   2.245   2.119  10.140 -0.3189 -0.3749  0.1017
  388TMC3    C6 5853   2.253   2.257  10.132  0.3867 -0.2683 -1.1627
  388TMC3     C 5854   2.113   2.020   9.812  0.5691  0.6008  0.0693
  388TMC3     O 5855   2.125   2.053   9.696  0.0772 -0.5467 -0.5410
  388TMC3     H 5856   2.144   2.294   9.821 -0.3821  0.2475 -0.3179
  388TMC3    H1 5857   2.229   1.934  10.050  2.3673  0.0380  0.8844
  388TMC3    H2 5858   2.277   2.309  10.224  0.2135  0.4507 -1.5254
  388TMC3    C7 5859   2.236   2.050  10.274 -0.7319 -0.8707  0.2958
  388TMC3    C8 5860   2.217   2.459   9.997 -0.6016 -0.6088  0.4606
  388TMC3    O1 5861   2.294   2.102  10.371  0.0627  0.1148  0.0989
  388TMC3    O2 5862   2.247   2.503   9.889 -0.0873  0.5253 -0.0951
  389MPD2     C 5863   0.842   0.217  11.438  0.8856  0.3596  0.0550
  389MPD2    C1 5864   0.751   0.119  11.395  0.1177  0.0704 -0.4405
  389MPD2    C2 5865   0.739   0.003  11.468  0.5922  0.3800 -0.3092
  389MPD2    C3 5866   0.813   4.726  11.583  0.0405 -0.1169 -0.0060
  389MPD2    C4 5867   0.888   0.085  11.636  0.2406 -0.0255 -0.0541
  389MPD2    C5 5868   0.902   0.203  11.558  0.0227 -0.5457  0.0416
  389MPD2     H 5869   0.686   4.656  11.430  2.4772 -0.7914 -0.2271
  389MPD2    H1 5870   0.958   0.061  11.715  0.9056  3.5687  0.4544
  389MPD2    H2 5871   0.871   0.302  11.376  2.8712  0.4747  1.1375
  389MPD2    H3 5872   0.991   0.259  11.580 -0.9291  0.6006  0.9381
  389MPD2     N 5873   0.830   4.597  11.649  0.6736 -0.0658 -0.0668
  389MPD2    H5 5874   0.908   4.591  11.714 -0.9679 -1.1962  1.7986
  389MPD2    N1 5875   0.690   0.135  11.268 -0.4917 -0.0393  0.5094
  389MPD2    H7 5876   0.698   0.225  11.223 -0.3826 -0.3753 -0.1501
  390TMC3    C1 5877   0.783   4.387  11.736 -0.0144 -0.3509 -0.2327
  390TMC3    C2 5878   0.696   4.283  11.741 -0.2580  0.4516  0.1893
  390TMC3    C3 5879   0.696   4.205  11.855 -0.3283 -0.0111 -0.4974
  390TMC3    C4 5880   0.861   4.420  11.844 -0.3931 -0.7022 -0.3016
  390TMC3    C5 5881   0.852   4.343  11.958 -0.1218  0.2488  0.7484
  390TMC3    C6 5882   0.777   4.236  11.962 -0.1860 -0.0103  0.2832
  390TMC3     C 5883   0.761   4.480  11.624  0.6321 -0.6637  1.1409
  390TMC3     O 5884   0.678   4.449  11.537  0.2765  0.4722 -0.0888
  390TMC3     H 5885   0.632   4.248  11.661 -0.0538 -0.3644  0.3865
  390TMC3    H1 5886   0.924   4.506  11.858 -0.0580 -1.2904  1.8869
  390TMC3    H2 5887   0.788   4.165  12.043 -1.5912  1.9152  2.1524
  390TMC3    C7 5888   0.925   4.393  12.073 -0.5939 -0.0447  0.3253
  390TMC3    C8 5889   0.616   4.085  11.859 -0.0600  0.8215 -0.6096
  390TMC3    O1 5890   1.023   4.461  12.069 -0.7829  0.0244  0.0900
  390TMC3    O2 5891   0.584   4.033  11.755 -0.2935 -0.5025 -0.6556
  391MPD2     C 5892   0.441   1.213  11.501 -0.3250 -0.5480  0.1126
  391MPD2    C1 5893   0.484   1.331  11.452  0.0240 -0.2592 -0.2155
  391MPD2    C2 5894   0.459   1.361  11.317 -1.0784 -0.3430 -0.1542
  391MPD2    C3 5895   0.408   1.270  11.227 -0.3595 -0.9060  0.2875
  391MPD2    C4 5896   0.366   1.147  11.281  0.3325  0.2582 -0.1608
  391MPD2    C5 5897   0.382   1.127  11.415 -0.4084  0.5658  1.3659
  391MPD2     H 5898   0.493   1.450  11.264 -0.4596 -0.4401  0.0836
  391MPD2    H1 5899   0.311   1.073  11.223  1.6049 -0.4351 -0.5043
  391MPD2    H2 5900   0.447   1.183  11.605  0.6473 -0.9485 -0.0630
  391MPD2    H3 5901   0.336   1.041  11.464  0.9376 -0.9569 -0.0230
  391MPD2     N 5902   0.413   1.300  11.085  0.0095  0.3227  0.3005
  391MPD2    H5 5903   0.442   1.395  11.064 -0.3030  0.0680 -1.2723
  391MPD2    N1 5904   0.534   1.439  11.527 -0.1354  0.4566  0.2272
  391MPD2    H7 5905   0.563   1.519  11.471  0.2924 -0.1245 -0.3712
  392TMC3    C1 5906   0.359   1.285  10.848  0.7002 -0.2911 -0.0687
  392TMC3    C2 5907   0.240   1.272  10.782 -0.7597  0.6369 -0.3598
  392TMC3    C3 5908   0.206   1.362  10.683 -0.6115 -0.4214  0.3382
  392TMC3    C4 5909   0.441   1.392  10.818  0.1962  0.0441 -0.2365
  392TMC3    C5 5910   0.407   1.481  10.722 -0.5602  0.5740  0.0583
  392TMC3    C6 5911   0.293   1.461  10.648 -0.6224  0.4392  0.4369
  392TMC3     C 5912   0.366   1.222  10.983  0.4492 -0.5037  0.1975
  392TMC3     O 5913   0.303   1.118  10.997  0.4391 -0.3832  0.1096
  392TMC3     H 5914   0.160   1.205  10.813  1.0477 -2.9479 -3.4781
  392TMC3    H1 5915   0.539   1.407  10.863 -1.1459  0.1335  2.7025
  392TMC3    H2 5916   0.275   1.524  10.561 -0.6888  2.4785  1.9429
  392TMC3    C7 5917   0.495   1.589  10.692  0.2920 -0.1800 -0.5528
  392TMC3    C8 5918   0.068   1.369  10.639  0.0749 -0.7811  0.4282
  392TMC3    O1 5919   0.592   1.601  10.763 -0.3211  0.4060 -0.5983
  392TMC3    O2 5920   0.000   1.268  10.656  0.6458 -0.8654 -0.2579
  393TMC3    C1 5921   3.838   4.149  10.714 -0.7412 -0.6270 -0.5812
  393TMC3    C2 5922   3.714   4.178  10.762 -0.1062  0.2160 -0.5218
  393TMC3    C3 5923   3.660   4.080  10.837  0.0477 -0.0424  0.1370
  393TMC3    C4 5924   3.915   4.037  10.741 -0.4272  0.6373 -0.1863
  393TMC3    C5 5925   3.855   3.933  10.811  0.4153  0.2151  0.3075
  393TMC3    C6 5926   3.729   3.966  10.861 -0.6301  0.6435  0.0885
  393TMC3     C 5927   3.881   4.240  10.610 -0.2990 -0.4965  0.3294
  393TMC3     O 5928   3.793   4.320  10.565  0.3610  0.6794  0.0626
  393TMC3     H 5929   3.666   4.273  10.741 -0.1787  0.4663  0.7335
  393TMC3    H1 5930   4.000   4.008  10.680 -0.5694 -1.6222  0.7232
  393TMC3    H2 5931   3.679   3.881  10.908  0.1800 -0.2585 -0.6801
  393TMC3    C7 5932   3.874   3.793  10.762  0.0588 -0.6022  0.1451
  393TMC3    C8 5933   3.533   4.110  10.907  0.5225  0.4664  0.0507
  393TMC3    O1 5934   3.779   3.715  10.777  0.0168  0.0341  0.9954
  393TMC3    O2 5935   3.461   4.194  10.843  0.0596 -0.0616 -0.2666
  394TMC3    C1 5936   0.593   0.079  11.071 -0.1828 -0.7027 -0.3891
  394TMC3    C2 5937   0.480   0.033  11.012  0.3065 -0.0653  0.7637
  394TMC3    C3 5938   0.472   0.048  10.876 -0.2646  0.3563 -0.1393
  394TMC3    C4 5939   0.695   0.134  11.008  0.1216  0.6501 -0.4198
  394TMC3    C5 5940   0.682   0.148  10.875 -0.5672  1.2729 -0.4754
  394TMC3    C6 5941   0.576   0.103  10.805 -0.1127  0.4039  0.0492
  394TMC3     C 5942   0.604   0.046  11.211 -0.1904  0.1951  0.0571
  394TMC3     O 5943   0.559   4.681  11.250 -0.2871 -0.4815 -0.3815
  394TMC3     H 5944   0.404   4.720  11.068  0.9741 -0.9463  0.8352
  394TMC3    H1 5945   0.788   0.165  11.055 -1.3657  2.9479  0.9696
  394TMC3    H2 5946   0.577   0.112  10.697  0.4804  1.2724  0.1275
  394TMC3    C7 5947   0.776   0.231  10.801 -0.0233 -0.1349 -0.2515
  394TMC3    C8 5948   0.378   4.703  10.805  0.3786 -0.1357 -0.3212
  394TMC3    O1 5949   0.724   0.316  10.730 -0.0860  0.2515  0.2128
  394TMC3    O2 5950   0.270   4.685  10.851  0.3778 -0.0150  0.1513
  395TMC3    C1 5951   0.774   1.332  14.694 -0.6336  0.0439 -0.2085
  395TMC3    C2 5952   0.816   1.221  14.620 -0.4350  0.3562  0.5121
  395TMC3    C3 5953   0.906   1.246  14.519 -0.9098  0.1772  0.1092
  395TMC3    C4 5954   0.820   1.459  14.672 -0.1319 -0.0855 -0.6698
  395TMC3    C5 5955   0.909   1.475  14.571 -0.4250  0.2571 -0.0238
  395TMC3    C6 5956   0.951   1.370  14.489 -0.7753 -0.3823 -0.3431
  395TMC3     C 5957   0.660   1.316  14.789 -0.8346  0.4141  0.5686
  395TMC3     O 5958   0.637   1.405  14.872 -0.3856 -0.2189  0.5883
  395TMC3     H 5959   0.783   1.121  14.646  0.3694  0.1814  0.8827
  395TMC3    H1 5960   0.794   1.541  14.738 -0.5472 -0.6365 -0.1417
  395TMC3    H2 5961   1.025   1.380  14.411 -1.1963 -0.3771 -0.7461
  395TMC3    C7 5962   0.954   1.611  14.544 -0.1376  0.8844  0.7447
  395TMC3    C8 5963   0.968   1.124  14.473 -0.0831 -0.3227 -0.5842
  395TMC3    O1 5964   0.877   1.700  14.571 -0.2901  0.5739  0.9654
  395TMC3    O2 5965   1.088   1.130  14.448  0.0215  0.6948  0.3052
  396MPD2     C 5966   0.373   2.221  17.206  0.1306  0.3355 -0.2808
  396MPD2    C1 5967   0.481   2.277  17.272 -0.4693  0.8740 -0.0364
  396MPD2    C2 5968   0.561   2.362  17.189 -0.3568  0.0902 -0.1751
  396MPD2    C3 5969   0.529   2.386  17.053 -0.9126  0.0080 -0.2772
  396MPD2    C4 5970   0.432   2.321  16.995  0.3338  0.1084 -0.2240
  396MPD2    C5 5971   0.357   2.232  17.069 -0.1275 -0.1470 -0.0164
  396MPD2     H 5972   0.654   2.403  17.227  0.2889 -0.4740 -1.1709
  396MPD2    H1 5973   0.411   2.319  16.889 -1.7214 -1.3092  0.2093
  396MPD2    H2 5974   0.311   2.147  17.256 -1.0676 -0.1223 -2.4691
  396MPD2    H3 5975   0.276   2.171  17.033 -0.4326  1.6644 -2.4127
  396MPD2     N 5976   0.618   2.471  16.988 -0.1015 -0.3614  0.2561
  396MPD2    H5 5977   0.675   2.530  17.047  1.3957  0.0316 -1.5993
  396MPD2    N1 5978   0.510   2.244  17.402  0.4125  0.1336  0.1841
  396MPD2    H7 5979   0.453   2.167  17.435  0.6834  0.2334  0.8768
  397TMC3    C1 5980   0.645   2.162  17.558  0.0673  0.0310  0.1114
  397TMC3    C2 5981   0.763   2.116  17.498 -0.3603  0.2343 -0.5006
  397TMC3    C3 5982   0.745   2.004  17.424 -0.0425  0.0641 -0.1637
  397TMC3    C4 5983   0.540   2.074  17.578  0.1004 -1.4580 -0.0468
  397TMC3    C5 5984   0.537   1.954  17.525 -0.4151 -0.9802 -1.3548
  397TMC3    C6 5985   0.638   1.922  17.441 -0.0744  0.2303 -0.6678
  397TMC3     C 5986   0.619   2.280  17.477  0.0152  0.2929  0.1441
  397TMC3     O 5987   0.697   2.371  17.464  0.1401 -0.3561  0.0345
  397TMC3     H 5988   0.834   2.190  17.463 -1.3243  1.4518  0.1147
  397TMC3    H1 5989   0.451   2.119  17.619  2.2784  0.6366  2.3230
  397TMC3    H2 5990   0.644   1.826  17.392 -1.7978  0.4857 -1.3835
  397TMC3    C7 5991   0.404   1.882  17.508  0.1735  0.3219 -0.5141
  397TMC3    C8 5992   0.802   1.999  17.286 -0.4606 -0.0438  0.0760
  397TMC3    O1 5993   0.395   1.823  17.400 -0.3338  0.4954 -0.5616
  397TMC3    O2 5994   0.744   1.926  17.209  0.8964  0.4608  0.2857
  398MPD2     C 5995   3.062   3.999   0.070 -0.2795 -0.8800 -0.1843
  398MPD2    C1 5996   3.154   3.890   0.096 -0.6481  0.3016  0.2545
  398MPD2    C2 5997   3.276   3.922   0.151 -0.2997 -0.1145  0.0199
  398MPD2    C3 5998   3.318   4.052   0.155 -0.2011  0.1885 -0.4768
  398MPD2    C4 5999   3.230   4.156   0.124 -0.7859 -0.1396 -0.9155
  398MPD2    C5 6000   3.107   4.125   0.072 -0.5503  0.0061 -0.0434
  398MPD2     H 6001   3.347   3.841   0.160 -0.3362 -0.0611  0.7441
  398MPD2    H1 6002   3.259   4.260   0.118 -3.1458  0.6137  0.4004
  398MPD2    H2 6003   2.965   3.981   0.025 -1.1590 -0.3861  1.5403
  398MPD2    H3 6004   3.040   4.202   0.035 -0.5462 -1.0515 -2.1870
  398MPD2     N 6005   3.458   4.069   0.182  0.2142 -0.4483 -0.1036
  398MPD2    H5 6006   3.510   3.986   0.210 -0.1144 -0.0031  1.8125
  398MPD2    N1 6007   3.118   3.754   0.084 -0.5794  0.5620  0.1263
  398MPD2    H7 6008   3.182   3.679   0.108 -0.0937  0.9141 -0.0584
  399TMC3    C1 6009   2.999   3.567   0.016 -0.0528 -0.4275  0.3845
  399TMC3    C2 6010   3.081   3.491   0.097  0.1319 -1.2390  0.0290
  399TMC3    C3 6011   3.079   3.359   0.087  0.1156 -0.2811 -0.0095
  399TMC3    C4 6012   2.912   3.511  17.679  0.2433 -0.3149  0.1283
  399TMC3    C5 6013   2.906   3.373  17.690 -0.1242 -0.0728  0.0072
  399TMC3    C6 6014   2.993   3.300   0.000  0.0795 -0.4259  0.5560
  399TMC3     C 6015   2.998   3.713   0.026 -0.0974  1.0885  0.0954
  399TMC3     O 6016   2.903   3.766  17.736 -1.0225  0.0330 -0.0515
  399TMC3     H 6017   3.148   3.538   0.168  0.7881 -1.4605 -0.4388
  399TMC3    H1 6018   2.838   3.572  17.627  0.7440  0.5247  0.4059
  399TMC3    H2 6019   2.995   3.193  17.746 -0.1323 -0.5925  1.9038
  399TMC3    C7 6020   2.796   3.295  17.637  0.0741 -0.1871 -0.5657
  399TMC3    C8 6021   3.153   3.279   0.177 -0.5921 -0.1359 -0.0489
  399TMC3    O1 6022   2.830   3.189  17.583  0.0798  0.6375  0.6375
  399TMC3    O2 6023   3.239   3.334   0.246 -0.2567 -0.2827 -0.2336
  400TMC3    C1 6024   1.613   1.772  16.851 -0.3938 -0.5959  0.1516
  400TMC3    C2 6025   1.528   1.681  16.792  0.1143  0.6474  0.1497
  400TMC3    C3 6026   1.467   1.711  16.670 -0.3252  0.3896  0.2013
  400TMC3    C4 6027   1.641   1.889  16.777  0.7579  0.2766 -1.0824
  400TMC3    C5 6028   1.575   1.911  16.655  0.5150  0.2779 -0.0711
  400TMC3    C6 6029   1.486   1.823  16.600  0.0960 -0.0445 -0.5605
  400TMC3     C 6030   1.700   1.728  16.962  0.2962 -0.3803 -0.0233
  400TMC3     O 6031   1.702   1.607  16.982 -0.0468 -0.5269  0.0785
  400TMC3     H 6032   1.519   1.583  16.837 -2.8481  1.0986  0.5494
  400TMC3    H1 6033   1.723   1.955  16.805 -1.0281  2.7232 -1.5421
  400TMC3    H2 6034   1.416   1.848  16.521  2.3004  2.0872 -1.8357
  400TMC3    C7 6035   1.579   2.035  16.585  0.5593 -0.2469 -0.5723
  400TMC3    C8 6036   1.384   1.618  16.596 -1.2775  0.4504  0.8980
  400TMC3    O1 6037   1.546   2.042  16.466  0.0565  0.5506  0.3859
  400TMC3    O2 6038   1.378   1.637  16.476 -0.0526 -0.4391 -0.4083
  401MPD2     C 6039   0.068   0.613   1.053  0.5949  0.8008 -0.3365
  401MPD2    C1 6040   0.142   0.499   1.045  0.9565  0.3398  0.4921
  401MPD2    C2 6041   0.093   0.380   0.987  0.0232  0.0656 -0.4034
  401MPD2    C3 6042   4.699   0.371   0.964 -0.0689  0.7505  0.6620
  401MPD2    C4 6043   4.621   0.490   0.982 -0.1531  0.3711 -0.7703
  401MPD2    C5 6044   4.677   0.608   1.015  0.3821 -0.1012 -0.4958
  401MPD2     H 6045   0.159   0.294   0.991  0.9603  0.8470  0.5425
  401MPD2    H1 6046   4.513   0.495   0.969 -0.3130 -2.0190 -0.3402
  401MPD2    H2 6047   0.103   0.704   1.100  3.5982  0.7527 -2.4955
  401MPD2    H3 6048   4.611   0.690   1.039  0.8710  0.4002 -0.8374
  401MPD2     N 6049   4.651   0.250   0.913 -0.1693 -0.4613  0.6954
  401MPD2    H5 6050   4.709   0.166   0.905 -1.3330 -1.2334  0.3624
  401MPD2    N1 6051   0.271   0.498   1.080 -0.9136 -0.4022 -0.6457
  401MPD2    H7 6052   0.313   0.406   1.066 -2.4335 -1.1560 -0.3071
  402TMC3    C1 6053   4.510   0.076   0.863 -0.0611 -0.9439 -0.0453
  402TMC3    C2 6054   4.605   4.729   0.907 -0.4174  0.0106 -0.0748
  402TMC3    C3 6055   4.620   4.608   0.850 -0.1502 -1.4437 -0.2622
  402TMC3    C4 6056   4.436   0.049   0.759 -0.1375  0.8180  0.4609
  402TMC3    C5 6057   4.459   4.675   0.692 -0.8260 -0.1265 -0.5672
  402TMC3    C6 6058   4.553   4.585   0.733  0.3070  0.4506 -0.2669
  402TMC3     C 6059   4.521   0.216   0.884  0.1605 -0.0152 -0.1369
  402TMC3     O 6060   4.422   0.283   0.881 -0.0950  0.5877  0.5569
  402TMC3     H 6061   4.666   0.025   0.989  1.9840  0.9218 -2.2491
  402TMC3    H1 6062   4.358   0.114   0.721  0.6429  0.0384 -2.5150
  402TMC3    H2 6063   4.567   4.491   0.681 -1.8510 -0.8343  1.4314
  402TMC3    C7 6064   4.401   4.675   0.557 -0.2132 -0.5824 -0.1759
  402TMC3    C8 6065   4.730   4.521   0.881  0.3862  0.0512  0.5783
  402TMC3    O1 6066   4.376   0.045   0.509 -1.0070  0.0340 -0.3125
  402TMC3    O2 6067   0.032   4.447   0.794  0.1853 -0.5279  0.0872
  403MPD2     C 6068   3.707   3.139  13.332 -0.3081  0.7426  0.2968
  403MPD2    C1 6069   3.598   3.179  13.404 -0.2064  0.0881  0.4945
  403MPD2    C2 6070   3.620   3.213  13.540 -0.5214  0.2143  0.5706
  403MPD2    C3 6071   3.747   3.219  13.598  0.1753  0.0159  1.0157
  403MPD2    C4 6072   3.852   3.175  13.524  0.2377 -0.0994  0.6363
  403MPD2    C5 6073   3.828   3.133  13.392  0.1155  0.2539  0.5333
  403MPD2     H 6074   3.534   3.242  13.598 -2.8235 -1.0354 -2.2505
  403MPD2    H1 6075   3.953   3.164  13.561  0.0155 -1.2038  0.9357
  403MPD2    H2 6076   3.683   3.118  13.229  0.6765 -0.2111  0.2554
  403MPD2    H3 6077   3.914   3.108  13.331  0.3255  1.7987  0.2092
  403MPD2     N 6078   3.763   3.245  13.739  0.1921  0.3876  0.0982
  403MPD2    H5 6079   3.688   3.294  13.788  2.3544  3.6789  0.1137
  403MPD2    N1 6080   3.471   3.168  13.345 -0.4275  0.4104  0.2957
  403MPD2    H7 6081   3.473   3.134  13.250  1.5027  2.4128 -0.3887
  404TMC3    C1 6082   3.227   3.182  13.332  0.3754  0.1421 -0.0076
  404TMC3    C2 6083   3.120   3.130  13.403 -0.5204  0.0503  0.4249
  404TMC3    C3 6084   3.017   3.080  13.327  0.1346 -0.4532  0.3407
  404TMC3    C4 6085   3.233   3.177  13.193 -0.0032 -0.1389 -0.3688
  404TMC3    C5 6086   3.129   3.122  13.123  0.3188  0.2425  0.3072
  404TMC3    C6 6087   3.020   3.072  13.188  0.0592  0.5452 -0.3447
  404TMC3     C 6088   3.349   3.193  13.410  0.3461 -0.2458  0.5770
  404TMC3     O 6089   3.322   3.218  13.526  0.4435 -0.0228 -0.3397
  404TMC3     H 6090   3.130   3.123  13.511 -1.9631  0.0695  0.5540
  404TMC3    H1 6091   3.308   3.239  13.146 -0.7926  1.5895  0.6230
  404TMC3    H2 6092   2.943   3.023  13.129 -0.9763 -0.7886  2.1218
  404TMC3    C7 6093   3.146   3.092  12.980  0.1935  0.0185  0.4033
  404TMC3    C8 6094   2.890   3.052  13.387  0.2386 -0.6556  0.1717
  404TMC3    O1 6095   3.262   3.092  12.945  0.1745  0.3130  0.2588
  404TMC3    O2 6096   2.820   2.986  13.316 -0.3523  0.0441 -0.2740
  405MPD2     C 6097   3.805   3.696  14.785  0.5503 -0.0822  0.5409
  405MPD2    C1 6098   3.711   3.646  14.695 -0.0671 -0.0435 -0.1523
  405MPD2    C2 6099   3.651   3.739  14.606 -0.5997  0.1199 -0.1963
  405MPD2    C3 6100   3.676   3.877  14.610  0.2872 -0.9608  0.4180
  405MPD2    C4 6101   3.774   3.924  14.701  0.4912  0.5798  0.2882
  405MPD2    C5 6102   3.835   3.830  14.784  0.1140 -1.0895  0.3771
  405MPD2     H 6103   3.572   3.707  14.540  0.1398 -0.2954 -0.8858
  405MPD2    H1 6104   3.799   4.029  14.711  0.4009  0.7421 -1.2849
  405MPD2    H2 6105   3.859   3.632  14.854  1.1992  0.5801  0.6401
  405MPD2    H3 6106   3.913   3.859  14.854 -1.3919 -0.0671  1.6308
  405MPD2     N 6107   3.597   3.963  14.533  0.3135  1.0450 -0.1395
  405MPD2    H5 6108   3.527   3.924  14.470  0.5566  1.9809 -0.9981
  405MPD2    N1 6109   3.681   3.511  14.697 -0.5564 -0.0681  0.1262
  405MPD2    H7 6110   3.737   3.445  14.750  1.2065 -0.9392 -2.8978
  406TMC3    C1 6111   3.326   4.306  14.407 -0.1901  0.1413 -0.1870
  406TMC3    C2 6112   3.218   4.217  14.390 -0.5147 -0.2429  0.3714
  406TMC3    C3 6113   3.235   4.088  14.437  0.2872 -0.1899  0.0889
  406TMC3    C4 6114   3.442   4.266  14.460 -0.0969  0.0671 -0.0336
  406TMC3    C5 6115   3.457   4.138  14.497  0.6149  0.2609  0.5168
  406TMC3    C6 6116   3.355   4.045  14.494  0.2285 -0.1569 -0.6673
  406TMC3     C 6117   3.320   4.443  14.370 -0.5392 -0.8010 -0.2871
  406TMC3     O 6118   3.374   4.523  14.444 -0.5348  0.1480  0.1106
  406TMC3     H 6119   3.126   4.252  14.345 -0.3915 -0.7693 -0.2988
  406TMC3    H1 6120   3.518   4.341  14.473  1.3229 -1.3298 -0.3585
  406TMC3    H2 6121   3.364   3.943  14.528  0.4223  0.5859  1.5654
  406TMC3    C7 6122   3.587   4.097  14.548 -0.9436 -0.1251  1.3684
  406TMC3    C8 6123   3.120   4.003  14.436  0.1482  0.2444  0.3831
  406TMC3    O1 6124   3.650   4.180  14.605  0.3249  0.6702  0.1794
  406TMC3    O2 6125   3.002   4.047  14.439 -0.5646  0.6207 -0.2144
  407MPD2     C 6126   1.075   0.997   9.850  0.5550  0.4820  0.1867
  407MPD2    C1 6127   1.161   1.047   9.942 -0.7368 -0.3827 -0.6805
  407MPD2    C2 6128   1.126   1.160  10.015 -0.4062  0.2067  0.4006
  407MPD2    C3 6129   1.010   1.228  10.007  0.1665 -0.4561 -0.2283
  407MPD2    C4 6130   0.925   1.184   9.911  0.1416 -0.6250  0.5161
  407MPD2    C5 6131   0.950   1.072   9.840  0.4808 -0.4782  0.0254
  407MPD2     H 6132   1.203   1.193  10.083  1.1421 -2.8827  0.1222
  407MPD2    H1 6133   0.836   1.235   9.876  0.7580 -0.5571 -0.9166
  407MPD2    H2 6134   1.083   0.908   9.788 -2.4742 -0.8101  1.6542
  407MPD2    H3 6135   0.881   1.051   9.760  1.4315  1.4028 -1.2922
  407MPD2     N 6136   0.983   1.354  10.071  0.2221 -0.3133 -0.3921
  407MPD2    H5 6137   0.903   1.404  10.033 -0.6774 -2.1028 -0.8936
  407MPD2    N1 6138   1.290   0.992   9.958  0.6663  0.0901 -0.5614
  407MPD2    H7 6139   1.347   1.037  10.028 -1.6895  2.0229  0.1303
  408TMC3    C1 6140   1.467   0.820   9.937  0.2164 -0.0713 -0.8867
  408TMC3    C2 6141   1.571   0.910   9.966 -0.3065  0.0134 -0.7104
  408TMC3    C3 6142   1.693   0.858  10.014 -0.4350 -0.0547 -0.1882
  408TMC3    C4 6143   1.482   0.688   9.973  0.3301  0.4116 -0.1584
  408TMC3    C5 6144   1.604   0.644  10.028 -0.5267 -0.7571 -0.9304
  408TMC3    C6 6145   1.713   0.729  10.042  0.0481  0.8855 -0.4886
  408TMC3     C 6146   1.334   0.871   9.907  0.1046  0.3393  0.3730
  408TMC3     O 6147   1.270   0.791   9.843  0.1136  0.3485  0.3165
  408TMC3     H 6148   1.549   1.015   9.949 -0.5712  0.2599  1.1450
  408TMC3    H1 6149   1.397   0.621   9.968  1.4332 -0.9575 -0.5827
  408TMC3    H2 6150   1.806   0.692  10.082 -1.0488 -2.1468 -0.7341
  408TMC3    C7 6151   1.603   0.517  10.099 -0.0496  0.3563 -0.9912
  408TMC3    C8 6152   1.804   0.943  10.051 -0.0729  0.1950 -0.5063
  408TMC3    O1 6153   1.495   0.464  10.109 -0.1411  0.1648 -0.0219
  408TMC3    O2 6154   1.863   0.901  10.149 -0.8745  0.3136  0.2764
  409MPD2     C 6155   0.432   1.516  17.002 -0.3889  0.2357 -0.5470
  409MPD2    C1 6156   0.562   1.463  17.023 -0.2193 -0.2467  0.7726
  409MPD2    C2 6157   0.672   1.527  16.976 -1.4376  0.3474  0.9507
  409MPD2    C3 6158   0.660   1.644  16.899  0.2144  0.2169  0.4671
  409MPD2    C4 6159   0.533   1.689  16.880 -1.3048  0.4463  0.0960
  409MPD2    C5 6160   0.422   1.633  16.941  0.2701  0.4052  0.2473
  409MPD2     H 6161   0.763   1.479  17.011 -2.3057 -1.9926 -0.0317
  409MPD2    H1 6162   0.518   1.778  16.820  0.9943 -0.2753 -1.5636
  409MPD2    H2 6163   0.350   1.466  17.052  2.1265 -4.2531 -0.7886
  409MPD2    H3 6164   0.324   1.680  16.939 -0.9491 -2.1830 -1.5103
  409MPD2     N 6165   0.772   1.722  16.851 -0.2842 -0.0399 -0.3806
  409MPD2    H5 6166   0.750   1.809  16.806 -2.4160 -1.2007 -1.5649
  409MPD2    N1 6167   0.583   1.359  17.115  0.5345 -0.4653  0.0633
  409MPD2    H7 6168   0.678   1.331  17.135  0.9481  2.2408  2.0038
  410TMC3    C1 6169   1.008   1.795  16.860  0.1417 -0.1466  1.0395
  410TMC3    C2 6170   1.110   1.800  16.952 -0.0488  0.5924 -0.1071
  410TMC3    C3 6171   1.219   1.874  16.909 -0.1658  0.3814  0.1037
  410TMC3    C4 6172   1.013   1.840  16.727  0.3355 -0.3357 -0.2596
  410TMC3    C5 6173   1.117   1.921  16.692 -0.0313 -0.1324 -0.5406
  410TMC3    C6 6174   1.214   1.946  16.789  0.6520  0.3089 -0.3882
  410TMC3     C 6175   0.905   1.690  16.884 -0.2096 -0.3660 -0.2820
  410TMC3     O 6176   0.948   1.603  16.959  0.2542  0.2661  0.0473
  410TMC3     H 6177   1.100   1.763  17.054 -0.0478  0.5167 -0.1345
  410TMC3    H1 6178   0.943   1.807  16.651 -0.2952 -0.2812  0.3025
  410TMC3    H2 6179   1.298   2.010  16.767  0.5140 -0.2733 -2.6281
  410TMC3    C7 6180   1.135   1.952  16.551 -0.2495  0.3661  0.1226
  410TMC3    C8 6181   1.332   1.906  17.003  0.2725  0.5626 -0.2725
  410TMC3    O1 6182   1.058   1.889  16.481 -0.2800 -0.4922 -0.2259
  410TMC3    O2 6183   1.391   2.012  16.998  0.0547  0.3694  0.3078
  411MPD2     C 6184   1.053   2.420  14.408  0.3089 -0.1386 -0.3490
  411MPD2    C1 6185   1.015   2.455  14.539  0.2827 -0.4794 -0.3516
  411MPD2    C2 6186   0.940   2.370  14.613  0.3145 -0.4659  0.1270
  411MPD2    C3 6187   0.895   2.252  14.557 -0.2072 -0.3160  0.4058
  411MPD2    C4 6188   0.937   2.220  14.435  0.3255  0.0779 -0.3487
  411MPD2    C5 6189   1.011   2.309  14.360  0.5580  0.3508 -0.4636
  411MPD2     H 6190   0.901   2.393  14.712  1.3810  2.1766 -0.0675
  411MPD2    H1 6191   0.903   2.131  14.383 -1.4547 -0.1334  1.1849
  411MPD2    H2 6192   1.108   2.485  14.340 -2.1640  1.1093 -1.1602
  411MPD2    H3 6193   1.036   2.277  14.260 -1.7512 -0.7730 -0.6902
  411MPD2     N 6194   0.807   2.164  14.625 -0.0064 -0.2133  0.3462
  411MPD2    H5 6195   0.760   2.092  14.571  1.2499 -1.3755  0.8072
  411MPD2    N1 6196   1.054   2.582  14.586  0.3367  0.4455 -0.1192
  411MPD2    H7 6197   1.094   2.659  14.534  1.0969 -0.5621 -1.0094
  412TMC3    C1 6198   0.645   2.125  14.772 -0.6148  0.1324 -0.8566
  412TMC3    C2 6199   0.563   2.197  14.694  0.4288 -0.4756 -0.7866
  412TMC3    C3 6200   0.453   2.128  14.647 -0.7436 -0.5265 -0.0154
  412TMC3    C4 6201   0.614   1.999  14.815  0.2958 -0.3490 -0.2917
  412TMC3    C5 6202   0.496   1.940  14.774  0.3514 -0.4951 -0.1118
  412TMC3    C6 6203   0.409   2.010  14.693 -0.0942  0.3568  0.3283
  412TMC3     C 6204   0.781   2.160  14.756  0.1922 -0.1893 -0.1232
  412TMC3     O 6205   0.856   2.192  14.850  0.3890  0.4507  0.2069
  412TMC3     H 6206   0.603   2.293  14.665 -3.5675  1.7659  1.1751
  412TMC3    H1 6207   0.693   1.942  14.862 -1.3604 -1.9843  0.5412
  412TMC3    H2 6208   0.312   1.967  14.671  0.9892 -2.2513  0.6218
  412TMC3    C7 6209   0.498   1.793  14.747  0.4459 -0.1319  0.0730
  412TMC3    C8 6210   0.429   2.135  14.502  0.4807  0.2627 -0.6706
  412TMC3    O1 6211   0.532   1.713  14.834 -0.0091 -0.0368  0.1383
  412TMC3    O2 6212   0.367   2.037  14.458 -0.1273 -0.3378 -0.4752
  413MPD2     C 6213   3.145   0.561  15.575 -0.3753 -0.5344 -0.0519
  413MPD2    C1 6214   3.076   0.494  15.480 -0.5170 -0.2901 -0.1296
  413MPD2    C2 6215   3.150   0.394  15.411 -0.0188  0.4215  0.0391
  413MPD2    C3 6216   3.275   0.359  15.449 -0.0651 -0.0588  0.5883
  413MPD2    C4 6217   3.343   0.430  15.547  0.1383  0.2996 -0.3533
  413MPD2    C5 6218   3.278   0.537  15.606  0.6290 -1.1415  0.3176
  413MPD2     H 6219   3.115   0.331  15.330 -1.3253 -0.8297  1.5930
  413MPD2    H1 6220   3.444   0.413  15.581 -1.0573 -1.7691  2.1669
  413MPD2    H2 6221   3.103   0.646  15.628  0.2508 -0.5679  0.5084
  413MPD2    H3 6222   3.328   0.601  15.678  0.2204  0.6792 -1.0313
  413MPD2     N 6223   3.339   0.257  15.374 -0.2191  0.2714 -0.3459
  413MPD2    H5 6224   3.288   0.214  15.297 -1.1598 -1.7447  1.4288
  413MPD2    N1 6225   2.943   0.533  15.454  0.3382  0.3208 -0.4527
  413MPD2    H7 6226   2.898   0.612  15.498 -0.2276  1.1908 -2.6095
  414TMC3    C1 6227   3.498   0.099  15.304 -0.3752  0.2340 -0.0811
  414TMC3    C2 6228   3.566   4.729  15.343 -0.3461 -0.0120  0.3858
  414TMC3    C3 6229   3.577   4.626  15.252 -0.3476  0.1508 -0.2562
  414TMC3    C4 6230   3.424   0.099  15.187 -0.0591  0.5329 -0.0793
  414TMC3    C5 6231   3.449   0.003  15.097  0.6455 -0.2352 -0.2159
  414TMC3    C6 6232   3.529   4.634  15.126 -0.5679  0.1234  0.2033
  414TMC3     C 6233   3.460   0.196  15.399 -0.3063  0.1202 -0.2325
  414TMC3     O 6234   3.517   0.187  15.507  1.3666  0.1531 -0.2649
  414TMC3     H 6235   3.612   4.725  15.441  0.6685 -1.3762 -0.1466
  414TMC3    H1 6236   3.360   0.179  15.152  0.6861  1.2805  0.2675
  414TMC3    H2 6237   3.521   4.554  15.053 -2.5082  0.5800 -0.0982
  414TMC3    C7 6238   3.371   0.001  14.975  0.2654 -0.6041 -0.5268
  414TMC3    C8 6239   3.628   4.494  15.292 -0.4702 -0.6220 -0.6505
  414TMC3    O1 6240   3.254   0.037  14.991  0.3175 -0.7650  0.7087
  414TMC3    O2 6241   3.639   4.412  15.202  0.6957 -0.3790  0.3926
  415TMC3    C1 6242   3.119   3.928  10.158  0.8349 -0.4390 -0.4438
  415TMC3    C2 6243   3.218   3.915  10.065  0.4940 -0.2981 -0.1279
  415TMC3    C3 6244   3.180   3.897   9.933 -0.2553  0.5817 -0.0324
  415TMC3    C4 6245   2.988   3.938  10.123  0.4783 -0.2088  0.4039
  415TMC3    C5 6246   2.948   3.918   9.992 -0.4638  0.7238  1.2743
  415TMC3    C6 6247   3.049   3.900   9.894 -0.3561 -0.8428  0.7848
  415TMC3     C 6248   3.150   3.926  10.294  0.0587  0.0486  0.5279
  415TMC3     O 6249   3.060   3.946  10.376 -0.1481 -0.1159  0.0824
  415TMC3     H 6250   3.311   3.873  10.101  0.2872 -1.9124 -1.4701
  415TMC3    H1 6251   2.913   3.966  10.196  0.1438  0.3904 -0.1651
  415TMC3    H2 6252   3.022   3.894   9.789  0.0397  1.2932  0.5650
  415TMC3    C7 6253   2.814   3.886   9.957 -0.0578 -0.4878 -0.1470
  415TMC3    C8 6254   3.278   3.853   9.835  0.1984 -0.5141  0.3972
  415TMC3    O1 6255   2.795   3.870   9.838  0.5593  0.1335  0.0247
  415TMC3    O2 6256   3.234   3.782   9.751 -0.0956 -0.4959 -0.0800
  416MPD2     C 6257   0.614   2.073  11.397 -0.3517 -0.2335  0.3451
  416MPD2    C1 6258   0.567   2.035  11.520  0.2042  0.1374  0.5101
  416MPD2    C2 6259   0.486   1.931  11.524 -0.2101  1.0640 -0.1045
  416MPD2    C3 6260   0.454   1.854  11.417  0.3283  0.2840  0.1595
  416MPD2    C4 6261   0.507   1.886  11.295  0.1504  0.3188  0.0196
  416MPD2    C5 6262   0.586   2.000  11.286 -0.3291  0.1148 -0.0229
  416MPD2     H 6263   0.433   1.894  11.611  1.3625  0.2438  0.4930
  416MPD2    H1 6264   0.482   1.826  11.208  0.9161  1.7886 -1.2040
  416MPD2    H2 6265   0.662   2.170  11.391 -0.9066 -0.1809 -3.7708
  416MPD2    H3 6266   0.624   2.019  11.186 -0.0122 -0.3242  0.0111
  416MPD2     N 6267   0.352   1.752  11.425 -0.2198 -0.9071 -0.4311
  416MPD2    H5 6268   0.327   1.718  11.333 -1.6429  1.7505 -1.0413
  416MPD2    N1 6269   0.610   2.121  11.633 -0.1944 -0.1780 -0.2330
  416MPD2    H7 6270   0.654   2.209  11.610  0.7051  0.2017  2.8878
  417TMC3    C1 6271   0.586   2.217  11.845  0.1296 -0.7232 -0.0254
  417TMC3    C2 6272   0.585   2.205  11.982  0.1293  0.2309 -0.6691
  417TMC3    C3 6273   0.562   2.318  12.061 -0.1304  0.1061  0.0325
  417TMC3    C4 6274   0.569   2.342  11.785 -0.3129 -0.3274  0.4591
  417TMC3    C5 6275   0.541   2.455  11.866  0.1239 -0.0908  0.4716
  417TMC3    C6 6276   0.537   2.443  12.004 -0.5693 -0.1175  0.0579
  417TMC3     C 6277   0.576   2.100  11.763 -0.2248  0.5810 -0.4142
  417TMC3     O 6278   0.519   2.005  11.817 -0.1165 -0.3147  0.8402
  417TMC3     H 6279   0.594   2.103  12.017  2.0575  0.5469 -0.2667
  417TMC3    H1 6280   0.565   2.363  11.678 -2.5570  0.3146  0.6585
  417TMC3    H2 6281   0.527   2.523  12.076  0.6377 -0.6724  0.8532
  417TMC3    C7 6282   0.438   2.538  11.810  0.1778 -0.3115 -0.8460
  417TMC3    C8 6283   0.540   2.298  12.201  0.2245  0.9957 -0.0413
  417TMC3    O1 6284   0.444   2.545  11.689  0.3178  0.1367  0.4972
  417TMC3    O2 6285   0.546   2.405  12.267 -0.4861 -0.2298 -0.0738
  418TMC3    C1 6286   3.863   4.084   0.126 -0.6506 -0.4756 -0.5916
  418TMC3    C2 6287   3.746   4.163   0.114  0.1282 -0.2117 -0.1727
  418TMC3    C3 6288   3.661   4.178   0.221 -0.6403 -0.5619 -0.6821
  418TMC3    C4 6289   3.887   4.022   0.243 -0.3618  0.1290  0.2540
  418TMC3    C5 6290   3.795   4.027   0.345  0.1316 -0.8277  0.6612
  418TMC3    C6 6291   3.682   4.095   0.325 -0.6543 -0.5559  1.1308
  418TMC3     C 6292   3.918   4.035  17.755 -0.5557  0.3353 -0.8908
  418TMC3     O 6293   3.906   4.106  17.659 -0.2930 -0.3378 -0.1596
  418TMC3     H 6294   3.714   4.208   0.021 -0.6087  3.5135  1.8665
  418TMC3    H1 6295   3.982   3.975   0.267 -0.4938 -0.6635 -0.7663
  418TMC3    H2 6296   3.604   4.080   0.400  0.7413 -2.5285  2.1650
  418TMC3    C7 6297   3.793   3.934   0.445  0.6923  0.7917 -0.9327
  418TMC3    C8 6298   3.524   4.185   0.179  0.4174  0.1719  0.0445
  418TMC3    O1 6299   3.688   3.900   0.498 -0.2091  0.2042 -0.2237
  418TMC3    O2 6300   3.489   4.289   0.127  0.1819 -0.5438  0.1696
  419MPD2     C 6301   3.284   2.060  12.004 -0.0850 -0.4745  0.9269
  419MPD2    C1 6302   3.175   2.138  11.998 -0.5662  0.4533  0.5679
  419MPD2    C2 6303   3.073   2.112  12.082  0.0127 -0.7962  0.4374
  419MPD2    C3 6304   3.070   2.009  12.175 -0.6347  0.0370  0.7829
  419MPD2    C4 6305   3.182   1.932  12.186 -0.7439 -0.0825 -0.4959
  419MPD2    C5 6306   3.285   1.954  12.096  0.5980 -0.2325 -0.5139
  419MPD2     H 6307   2.993   2.185  12.071 -0.4379 -1.4752 -0.6718
  419MPD2    H1 6308   3.185   1.847  12.254  3.9431 -0.8816 -1.6602
  419MPD2    H2 6309   3.379   2.082  11.955  0.0002 -0.1595  1.2308
  419MPD2    H3 6310   3.371   1.888  12.093 -0.3891 -1.4539 -2.0706
  419MPD2     N 6311   2.964   2.007  12.271 -0.3926 -0.0415  0.1702
  419MPD2    H5 6312   2.892   2.079  12.265 -1.4950 -1.0147  1.6727
  419MPD2    N1 6313   3.162   2.256  11.919  1.0433  0.2452  0.0411
  419MPD2    H7 6314   3.084   2.319  11.932 -1.3594 -2.3040 -2.3246
  420TMC3    C1 6315   2.835   1.948  12.450 -0.2175 -0.3542 -0.1470
  420TMC3    C2 6316   2.719   1.985  12.382 -0.2945  0.3749  0.9810
  420TMC3    C3 6317   2.614   2.013  12.462 -0.0044  0.1154  0.0205
  420TMC3    C4 6318   2.838   1.922  12.583  0.3483  0.3819  0.0634
  420TMC3    C5 6319   2.726   1.948  12.657  1.1664  0.2904 -0.6132
  420TMC3    C6 6320   2.617   1.988  12.595  0.0209 -0.3391  0.2640
  420TMC3     C 6321   2.951   1.916  12.373  0.0411 -0.2581 -1.0856
  420TMC3     O 6322   3.008   1.805  12.387 -0.1940 -0.2795  0.2149
  420TMC3     H 6323   2.710   1.994  12.274  1.6007  1.1077  0.8902
  420TMC3    H1 6324   2.935   1.893  12.622  0.2335 -0.0904 -0.0059
  420TMC3    H2 6325   2.525   2.017  12.645 -0.5594 -1.9494  0.1027
  420TMC3    C7 6326   2.742   1.984  12.799  0.1002  0.2557  0.1377
  420TMC3    C8 6327   2.494   2.079  12.422 -0.6175 -0.0352 -0.9704
  420TMC3    O1 6328   2.644   1.977  12.874  0.0326  0.2975 -0.0308
  420TMC3    O2 6329   2.438   2.142  12.506 -0.4424 -0.1783 -0.4331
  421TMC3    C1 6330   3.851   3.250  13.958 -0.5075 -1.0594  0.6529
  421TMC3    C2 6331   3.806   3.376  13.979 -0.2125 -1.3400 -0.6375
  421TMC3    C3 6332   3.791   3.422  14.105  0.7202 -0.0245 -0.3006
  421TMC3    C4 6333   3.911   3.184  14.058 -0.3367 -0.0465 -0.5260
  421TMC3    C5 6334   3.912   3.241  14.181 -0.2572 -0.3946 -0.5242
  421TMC3    C6 6335   3.849   3.357  14.213 -0.0294  0.1124 -0.3388
  421TMC3     C 6336   3.877   3.225  13.812 -0.4121  0.1771 -0.2915
  421TMC3     O 6337   3.971   3.151  13.794 -0.3341  0.0581  0.2201
  421TMC3     H 6338   3.771   3.444  13.902 -0.5733 -2.3298 -1.3341
  421TMC3    H1 6339   3.962   3.092  14.032  1.5602  0.4291  1.4989
  421TMC3    H2 6340   3.834   3.398  14.313 -1.1370 -0.2531 -0.3607
  421TMC3    C7 6341   4.032   3.215  14.256 -0.4200 -0.0202 -0.6764
  421TMC3    C8 6342   3.774   3.568  14.131 -0.0065 -0.0166 -0.4011
  421TMC3    O1 6343   4.097   3.315  14.286 -0.0131  0.6115 -0.2608
  421TMC3    O2 6344   3.841   3.610  14.225  0.7075 -0.1515 -0.2722
  422TMC3    C1 6345   1.497   0.562  12.416  0.0965 -0.7453  0.4119
  422TMC3    C2 6346   1.486   0.638  12.535 -0.5054  0.1238 -0.2188
  422TMC3    C3 6347   1.362   0.675  12.583  0.4471  0.3713 -0.9449
  422TMC3    C4 6348   1.386   0.521  12.349  0.4252 -0.3413  0.0226
  422TMC3    C5 6349   1.265   0.537  12.419  0.6679  0.3217  0.5305
  422TMC3    C6 6350   1.251   0.617  12.525 -0.0477  0.5961 -0.0303
  422TMC3     C 6351   1.625   0.577  12.338 -0.2893  0.0138  0.1604
  422TMC3     O 6352   1.706   0.648  12.394  0.4060 -0.1799  0.6616
  422TMC3     H 6353   1.568   0.692  12.579  0.6095 -2.3327  0.7120
  422TMC3    H1 6354   1.386   0.448  12.269 -1.9477  0.6044 -0.8345
  422TMC3    H2 6355   1.156   0.658  12.556  0.9870  0.9529  2.6782
  422TMC3    C7 6356   1.150   0.482  12.348  0.3067 -0.5446 -0.2849
  422TMC3    C8 6357   1.348   0.811  12.609 -0.2596 -0.3835 -0.8780
  422TMC3    O1 6358   1.162   0.441  12.232  0.0527 -0.0508  0.4617
  422TMC3    O2 6359   1.419   0.886  12.542  0.0191  0.0557 -0.5486
  423MPD2     C 6360   2.681   1.292   0.633 -0.9564  0.4100 -0.3800
  423MPD2    C1 6361   2.753   1.176   0.626  0.2102  0.2770  1.2569
  423MPD2    C2 6362   2.752   1.112   0.502 -0.4357  0.1691  0.0875
  423MPD2    C3 6363   2.681   1.174   0.395  0.7708 -0.4872 -0.7933
  423MPD2    C4 6364   2.620   1.294   0.412 -0.0183  0.0282 -0.0087
  423MPD2    C5 6365   2.612   1.347   0.533  0.1412 -0.3738  0.8363
  423MPD2     H 6366   2.812   1.026   0.475  0.9027  0.6236  1.6675
  423MPD2    H1 6367   2.567   1.338   0.329  0.3000  1.6668  0.6523
  423MPD2    H2 6368   2.662   1.340   0.729 -0.6219  0.7731 -0.4919
  423MPD2    H3 6369   2.552   1.436   0.549 -0.0268 -0.6783  1.9189
  423MPD2     N 6370   2.664   1.099   0.274  0.1634 -0.2835  0.3257
  423MPD2    H5 6371   2.614   1.135   0.194 -0.8108  1.3702  1.6859
  423MPD2    N1 6372   2.814   1.102   0.734 -1.0572  0.2438 -0.5095
  423MPD2    H7 6373   2.845   1.007   0.716  1.6777  0.5733  2.4572
  424TMC3    C1 6374   2.880   1.051   0.956  0.8990 -0.4269  0.6265
  424TMC3    C2 6375   2.974   0.968   0.904 -0.5750 -0.8373 -0.0161
  424TMC3    C3 6376   3.053   0.906   0.997  0.1115  0.6243  0.0588
  424TMC3    C4 6377   2.857   1.059   1.092 -0.2685  0.6981 -0.5996
  424TMC3    C5 6378   2.933   0.982   1.185 -0.2628 -0.4971  0.0612
  424TMC3    C6 6379   3.023   0.899   1.131 -0.0279  0.2928  0.1663
  424TMC3     C 6380   2.815   1.148   0.862  0.4090  0.1413  0.1755
  424TMC3     O 6381   2.791   1.254   0.908 -0.1058 -0.8394 -0.3276
  424TMC3     H 6382   3.002   0.955   0.800 -1.1644  2.7642 -0.6284
  424TMC3    H1 6383   2.775   1.124   1.117  1.2641  1.3605  2.6908
  424TMC3    H2 6384   3.079   0.836   1.199 -0.0712  1.2914  1.1310
  424TMC3    C7 6385   2.872   0.946   1.312  0.2509  0.6592 -0.2089
  424TMC3    C8 6386   3.162   0.829   0.939 -0.3741  0.5665 -0.3376
  424TMC3    O1 6387   2.936   0.892   1.403 -0.4350  0.0416 -0.2116
  424TMC3    O2 6388   3.149   0.778   0.824 -0.5284  0.4876 -0.0560
  425MPD2     C 6389   1.578   0.326  17.133 -0.5094 -0.8553  0.0419
  425MPD2    C1 6390   1.512   0.204  17.134  0.3051 -0.3388  0.6781
  425MPD2    C2 6391   1.371   0.197  17.150  0.3375 -0.5647 -0.4590
  425MPD2    C3 6392   1.303   0.321  17.164 -0.6875  0.4176 -0.1669
  425MPD2    C4 6393   1.367   0.443  17.171 -0.5968 -0.3288  0.7106
  425MPD2    C5 6394   1.509   0.441  17.163  0.1932  0.4526 -0.2113
  425MPD2     H 6395   1.314   0.105  17.142  1.0613 -1.0230 -0.2936
  425MPD2    H1 6396   1.323   0.540  17.189 -1.2411 -0.5159  0.1479
  425MPD2    H2 6397   1.686   0.327  17.122 -0.3623 -2.0118  1.4586
  425MPD2    H3 6398   1.557   0.536  17.183 -1.2111  1.2918 -0.8118
  425MPD2     N 6399   1.159   0.305  17.184 -0.6146 -0.2456  0.4860
  425MPD2    H5 6400   1.126   0.209  17.174 -0.8077 -0.5179  3.8149
  425MPD2    N1 6401   1.596   0.090  17.147  1.0181 -0.3280 -0.0390
  425MPD2    H7 6402   1.696   0.102  17.132  0.9690 -0.4824 -0.4924
  426TMC3    C1 6403   1.671   4.628  17.228 -0.1730  0.2505  0.7898
  426TMC3    C2 6404   1.753   4.604  17.122 -0.0789 -0.1186 -0.4827
  426TMC3    C3 6405   1.814   4.481  17.109  0.0239 -0.2586  0.0043
  426TMC3    C4 6406   1.653   4.532  17.319  0.2882  0.1578 -1.1591
  426TMC3    C5 6407   1.717   4.410  17.302 -0.1232 -0.0632 -0.3915
  426TMC3    C6 6408   1.813   4.385  17.201  0.2547 -0.4526  0.4279
  426TMC3     C 6409   1.555   4.713  17.198 -0.6002  0.3198  0.0607
  426TMC3     O 6410   1.447   4.687  17.243  0.2998 -0.6252  0.6510
  426TMC3     H 6411   1.733   4.669  17.038  0.1794 -0.3708 -0.7362
  426TMC3    H1 6412   1.576   4.546  17.394  1.1036  1.6320 -0.5911
  426TMC3    H2 6413   1.853   4.285  17.188 -1.7869 -0.9327 -2.4203
  426TMC3    C7 6414   1.633   4.297  17.339  0.2174  0.2916 -0.1397
  426TMC3    C8 6415   1.879   4.454  16.984 -0.8758 -0.7509 -0.1636
  426TMC3    O1 6416   1.690   4.188  17.328 -0.1115 -0.6325  0.0623
  426TMC3    O2 6417   1.906   4.337  16.965  0.0906  0.1006 -0.3148
  427MPD2     C 6418   0.256   2.338  14.890 -0.4649 -0.4974  0.2007
  427MPD2    C1 6419   0.228   2.312  15.024  0.6216  0.1503  0.2195
  427MPD2    C2 6420   0.094   2.306  15.054 -1.3408 -0.5589  0.5923
  427MPD2    C3 6421   4.733   2.317  14.961  0.3438 -0.3443  0.0547
  427MPD2    C4 6422   0.025   2.338  14.832  0.1492  0.8001  0.3907
  427MPD2    C5 6423   0.153   2.351  14.796  0.3519 -0.0631  0.3195
  427MPD2     H 6424   0.065   2.301  15.158 -1.9737  1.6768  0.5267
  427MPD2    H1 6425   4.685   2.341  14.758 -1.7615 -1.1681  2.4056
  427MPD2    H2 6426   0.359   2.353  14.863 -0.4413  0.1580  0.6628
  427MPD2    H3 6427   0.172   2.374  14.692  1.6821 -0.6724  0.4315
  427MPD2     N 6428   4.599   2.320  15.004 -0.2398 -0.7587 -0.1497
  427MPD2    H5 6429   4.535   2.355  14.932 -0.6229 -1.7811 -0.3046
  427MPD2    N1 6430   0.323   2.269  15.119 -0.1685 -0.5348 -0.5291
  427MPD2    H7 6431   0.293   2.243  15.212  0.5840 -2.6699 -0.8806
  428TMC3    C1 6432   0.530   2.240  15.211 -0.2935 -0.4797  0.4738
  428TMC3    C2 6433   0.491   2.132  15.287 -0.2948  0.1667  0.6669
  428TMC3    C3 6434   0.559   2.107  15.400 -0.1333  0.0195  0.6961
  428TMC3    C4 6435   0.646   2.303  15.230 -0.2877  0.0157 -0.1562
  428TMC3    C5 6436   0.724   2.256  15.336 -1.0853 -0.9434  0.1679
  428TMC3    C6 6437   0.677   2.163  15.425 -0.8487  0.3225  0.1579
  428TMC3     C 6438   0.463   2.283  15.096 -0.2168 -0.2650 -0.0922
  428TMC3     O 6439   0.525   2.333  15.002 -0.0502  0.2480  0.4519
  428TMC3     H 6440   0.394   2.087  15.270 -0.2821  0.9879 -1.5490
  428TMC3    H1 6441   0.660   2.397  15.179 -1.9525 -0.1600 -0.9136
  428TMC3    H2 6442   0.728   2.143  15.519 -0.4953  1.8290  0.2761
  428TMC3    C7 6443   0.831   2.336  15.387 -0.1960  0.6327  0.1444
  428TMC3    C8 6444   0.522   1.992  15.484  0.6505  0.2999  0.0862
  428TMC3    O1 6445   0.868   2.311  15.504 -0.4414 -0.4917  0.1386
  428TMC3    O2 6446   0.444   1.915  15.434  0.5149 -0.1352  0.1146
  429MPD2     C 6447   1.169   2.464  17.367 -0.3219  0.4139  0.0945
  429MPD2    C1 6448   1.285   2.406  17.424  0.1517 -0.1912  0.2252
  429MPD2    C2 6449   1.411   2.469  17.410  0.4789  0.3493  0.1390
  429MPD2    C3 6450   1.424   2.582  17.332  0.1849 -0.4328 -1.1450
  429MPD2    C4 6451   1.304   2.638  17.283  0.1530  0.1525 -0.1657
  429MPD2    C5 6452   1.182   2.582  17.300 -0.2827 -0.3697 -0.3141
  429MPD2     H 6453   1.499   2.426  17.455  0.0258 -1.9821 -1.1944
  429MPD2    H1 6454   1.303   2.737  17.239  0.8259  0.5026  0.5958
  429MPD2    H2 6455   1.072   2.417  17.364  0.2261 -0.8070  1.4478
  429MPD2    H3 6456   1.098   2.642  17.266  0.1678  0.1624 -0.4724
  429MPD2     N 6457   1.548   2.636  17.298  1.0476 -0.7892  0.6422
  429MPD2    H5 6458   1.628   2.577  17.318 -0.9587 -3.0468  2.0475
  429MPD2    N1 6459   1.278   2.289  17.501  0.2651  0.8728  0.0124
  429MPD2    H7 6460   1.363   2.268  17.552  0.5821  1.1834 -0.3856
  430TMC3    C1 6461   1.697   2.759  17.149  0.1255  1.0087 -0.9352
  430TMC3    C2 6462   1.722   2.879  17.090  0.4347 -0.2896 -0.5777
  430TMC3    C3 6463   1.805   2.881  16.980 -0.6125 -0.7943 -0.3115
  430TMC3    C4 6464   1.757   2.642  17.106  0.0187  0.0343 -0.0808
  430TMC3    C5 6465   1.847   2.652  17.004  0.6700 -0.8883  0.1147
  430TMC3    C6 6466   1.878   2.773  16.947  0.2586  0.0883  0.1429
  430TMC3     C 6467   1.570   2.751  17.213  0.0037  0.4456 -0.1899
  430TMC3     O 6468   1.491   2.833  17.183  0.0245 -0.3649 -0.0077
  430TMC3     H 6469   1.669   2.967  17.124  2.2459  0.4149  0.3859
  430TMC3    H1 6470   1.746   2.551  17.163 -0.9010  0.4754  0.4453
  430TMC3    H2 6471   1.939   2.781  16.858  0.1660 -3.0306 -0.2207
  430TMC3    C7 6472   1.826   2.539  16.917 -0.4362  0.1415 -0.3720
  430TMC3    C8 6473   1.755   2.935  16.862  0.0336 -0.1018  0.0263
  430TMC3    O1 6474   1.830   2.425  16.960  0.1430  0.4201  0.4940
  430TMC3    O2 6475   1.781   2.871  16.761 -0.5375  0.3875  0.8407
  431MPD2     C 6476   2.474   2.635  11.980  0.2301 -0.1681 -0.3070
  431MPD2    C1 6477   2.570   2.720  12.019 -0.3941 -0.4581  0.1176
  431MPD2    C2 6478   2.695   2.713  11.957  0.4820  0.0315  0.0067
  431MPD2    C3 6479   2.726   2.615  11.862 -0.1597 -0.8752  0.7798
  431MPD2    C4 6480   2.622   2.529  11.828 -0.0110  0.0326  0.4086
  431MPD2    C5 6481   2.501   2.538  11.886 -0.6111  0.0692 -0.4305
  431MPD2     H 6482   2.776   2.775  11.992 -2.0913  3.0077  0.6921
  431MPD2    H1 6483   2.636   2.444  11.762  1.4485  0.4855  0.1362
  431MPD2    H2 6484   2.373   2.648  12.018  0.8932  2.5377  0.5373
  431MPD2    H3 6485   2.417   2.478  11.855 -1.4418  0.2979  1.3611
  431MPD2     N 6486   2.851   2.590  11.802  0.0856  0.1675 -0.5193
  431MPD2    H5 6487   2.858   2.523  11.725  0.5012 -1.0522  0.5851
  431MPD2    N1 6488   2.552   2.820  12.118  0.1853 -0.2693  0.5571
  431MPD2    H7 6489   2.639   2.858  12.154  0.3291 -1.0688  1.0503
  432TMC3    C1 6490   3.082   2.605  11.778  0.3943 -0.1687 -0.0696
  432TMC3    C2 6491   3.188   2.696  11.775 -0.5046  0.1743 -0.6457
  432TMC3    C3 6492   3.311   2.648  11.756  0.4469  0.0025  0.6798
  432TMC3    C4 6493   3.101   2.471  11.787  0.1804 -0.4420  0.3133
  432TMC3    C5 6494   3.227   2.430  11.772 -0.4213 -0.3735 -0.6484
  432TMC3    C6 6495   3.331   2.512  11.748  0.1294 -0.0419  0.3711
  432TMC3     C 6496   2.957   2.668  11.818  0.0278  0.3301 -0.3252
  432TMC3     O 6497   2.972   2.769  11.889  0.1084 -0.3930  0.2704
  432TMC3     H 6498   3.174   2.801  11.800 -3.1274 -0.0371 -1.2465
  432TMC3    H1 6499   3.015   2.407  11.805  0.2252 -0.1186  1.6366
  432TMC3    H2 6500   3.425   2.461  11.728  0.2658  0.4949 -0.3485
  432TMC3    C7 6501   3.265   2.306  11.837 -0.2940  0.2604 -0.0591
  432TMC3    C8 6502   3.424   2.733  11.775  0.3804 -0.3350  0.5526
  432TMC3    O1 6503   3.379   2.271  11.824  0.0675  0.6239 -0.1059
  432TMC3    O2 6504   3.427   2.840  11.722 -0.0727 -0.5896  0.3458
  433MPD2     C 6505   1.131   1.729  11.011 -0.7525 -0.1857 -0.1804
  433MPD2    C1 6506   1.083   1.626  11.088 -0.5927  0.6184 -0.3408
  433MPD2    C2 6507   1.122   1.629  11.218 -0.0115  0.2687 -0.0645
  433MPD2    C3 6508   1.198   1.725  11.274 -0.2677  0.2180 -0.6293
  433MPD2    C4 6509   1.227   1.834  11.198 -0.0052 -0.3621  0.1296
  433MPD2    C5 6510   1.195   1.837  11.067  0.1465 -0.3843 -0.0167
  433MPD2     H 6511   1.100   1.547  11.285  4.3178 -0.5831  0.2592
  433MPD2    H1 6512   1.294   1.907  11.242 -0.0962  0.2217 -0.6970
  433MPD2    H2 6513   1.118   1.740  10.904  1.4079 -0.0576 -0.4264
  433MPD2    H3 6514   1.221   1.915  10.998  1.8391  0.0841  1.1561
  433MPD2     N 6515   1.223   1.720  11.411 -0.4312 -0.2873  0.3757
  433MPD2    H5 6516   1.192   1.643  11.469  2.8858 -1.4249  0.6882
  433MPD2    N1 6517   1.005   1.526  11.024  0.4712  0.0544  0.4438
  433MPD2    H7 6518   1.009   1.524  10.922  2.2993  0.3182  0.5212
  434TMC3    C1 6519   0.919   1.325  11.016  0.0899 -0.0939 -0.6959
  434TMC3    C2 6520   0.995   1.223  11.058 -0.0977 -0.0999 -0.3490
  434TMC3    C3 6521   1.057   1.144  10.965 -0.4713 -0.4381  0.4640
  434TMC3    C4 6522   0.895   1.342  10.885 -0.3256  0.1907  0.3017
  434TMC3    C5 6523   0.948   1.259  10.794 -0.3828 -0.8171  0.1240
  434TMC3    C6 6524   1.043   1.168  10.830 -0.4421 -0.3121 -0.4426
  434TMC3     C 6525   0.937   1.435  11.098  0.3635 -0.5652  0.2116
  434TMC3     O 6526   0.913   1.427  11.219 -0.3414 -0.2631  0.3564
  434TMC3     H 6527   1.015   1.226  11.164  1.0872  2.0426 -0.6350
  434TMC3    H1 6528   0.824   1.417  10.852 -1.1853 -0.8196 -0.1413
  434TMC3    H2 6529   1.095   1.107  10.758  1.9340  2.4596 -1.0522
  434TMC3    C7 6530   0.947   1.304  10.658 -0.3296  0.6205  0.1825
  434TMC3    C8 6531   1.151   1.057  11.012  0.3192  0.0348 -0.0755
  434TMC3    O1 6532   1.013   1.405  10.651 -0.2055 -0.1575 -0.2033
  434TMC3    O2 6533   1.141   1.029  11.131  0.2679  0.0808  0.3511
  435MPD2     C 6534   3.443   1.219  15.479  0.1048  0.3457  0.6002
  435MPD2    C1 6535   3.400   1.198  15.607  0.3500  0.3502  0.4356
  435MPD2    C2 6536   3.487   1.149  15.699 -0.3401 -0.6272  0.5790
  435MPD2    C3 6537   3.615   1.106  15.662 -0.1125  0.6882 -0.2983
  435MPD2    C4 6538   3.656   1.120  15.536  0.0829  0.2402  0.5727
  435MPD2    C5 6539   3.570   1.176  15.448  0.3073  0.5242 -0.0691
  435MPD2     H 6540   3.441   1.144  15.797 -1.7497  3.9129  0.1539
  435MPD2    H1 6541   3.753   1.087  15.499 -0.4939 -1.6034  0.7007
  435MPD2    H2 6542   3.397   1.278  15.401 -0.2961 -1.3373 -0.4530
  435MPD2    H3 6543   3.604   1.193  15.346  1.2961  0.3140  0.2282
  435MPD2     N 6544   3.706   1.056  15.765  0.4768  0.4233 -0.0481
  435MPD2    H5 6545   3.661   1.039  15.855 -0.1381 -1.7524 -0.7483
  435MPD2    N1 6546   3.269   1.223  15.652 -0.3945  0.8068  0.4517
  435MPD2    H7 6547   3.251   1.199  15.749 -1.4661 -0.8361 -0.1485
  436TMC3    C1 6548   2.963   1.359  15.851 -0.5879  0.1077 -0.5875
  436TMC3    C2 6549   3.043   1.276  15.784 -1.1390  0.0069  0.1272
  436TMC3    C3 6550   3.039   1.279  15.646 -0.4016  0.0197 -0.4354
  436TMC3    C4 6551   2.868   1.438  15.792 -0.0959 -1.0050  0.5610
  436TMC3    C5 6552   2.856   1.429  15.653 -0.6824  0.3727  0.3138
  436TMC3    C6 6553   2.941   1.351  15.581 -0.1580 -1.0115 -0.2349
  436TMC3     C 6554   2.988   1.378  15.995 -0.4681  0.0151  0.4546
  436TMC3     O 6555   3.101   1.372  16.035 -0.0986 -0.0414 -0.0746
  436TMC3     H 6556   3.110   1.215  15.844 -1.0312  0.1453  0.1474
  436TMC3    H1 6557   2.809   1.502  15.857  2.3954  2.3388 -0.5378
  436TMC3    H2 6558   2.931   1.359  15.473  2.5097 -0.5664 -0.4596
  436TMC3    C7 6559   2.744   1.489  15.581 -0.2852  0.0490 -0.4617
  436TMC3    C8 6560   3.165   1.260  15.563 -0.5220 -0.4225  0.2660
  436TMC3    O1 6561   2.760   1.514  15.461  0.8363 -0.3856 -0.6950
  436TMC3    O2 6562   3.163   1.287  15.445  0.1544  0.0487  0.3173
  437TMC3    C1 6563   2.051   3.926  12.266  0.2157 -1.1258  0.6899
  437TMC3    C2 6564   1.977   3.961  12.155  0.8041  0.0854 -0.4942
  437TMC3    C3 6565   2.038   4.005  12.046 -0.2281 -0.0221  0.5727
  437TMC3    C4 6566   2.188   3.936  12.267  0.7824  0.2203  0.2600
  437TMC3    C5 6567   2.246   3.973  12.149  0.3651  0.5750 -0.5469
  437TMC3    C6 6568   2.176   4.019  12.040  0.3981 -0.6552  0.0382
  437TMC3     C 6569   2.007   3.815  12.342  0.1622  0.3143  0.4663
  437TMC3     O 6570   2.088   3.735  12.390 -0.2393  0.6587 -0.4259
  437TMC3     H 6571   1.869   3.955  12.148  0.6127 -1.0542  3.2582
  437TMC3    H1 6572   2.240   3.888  12.349  0.5965 -1.9695 -0.9202
  437TMC3    H2 6573   2.230   4.046  11.950 -0.6591  1.7401  0.1071
  437TMC3    C7 6574   2.364   3.900  12.098 -0.3388 -1.3095  0.0960
  437TMC3    C8 6575   1.953   3.995  11.922  0.3536  0.3327 -0.4545
  437TMC3    O1 6576   2.406   3.911  11.985 -0.3560 -0.5115 -0.3266
  437TMC3    O2 6577   1.858   3.918  11.931  0.1849 -0.1894  0.0378
  438MPD2     C 6578   4.058   3.608  16.845 -0.0067  0.3203 -0.5660
  438MPD2    C1 6579   4.106   3.505  16.918 -0.1653  1.0120  0.6864
  438MPD2    C2 6580   4.058   3.477  17.047 -0.5629  0.8895  0.1525
  438MPD2    C3 6581   3.951   3.553  17.090  0.9818  0.3089 -0.7941
  438MPD2    C4 6582   3.892   3.647  17.003 -0.2029 -0.3024 -0.1896
  438MPD2    C5 6583   3.939   3.669  16.876  0.6664 -0.1020 -0.3454
  438MPD2     H 6584   4.099   3.391  17.099 -0.3114 -0.1264 -1.7363
  438MPD2    H1 6585   3.792   3.685  17.014 -0.0725  0.2035 -0.7488
  438MPD2    H2 6586   4.099   3.633  16.748 -0.8633  1.2764 -0.6886
  438MPD2    H3 6587   3.889   3.743  16.814  0.4021  0.3112  0.3665
  438MPD2     N 6588   3.890   3.540  17.215 -0.3419  0.4727 -0.2437
  438MPD2    H5 6589   3.817   3.608  17.234  0.1630  1.1695 -0.7994
  438MPD2    N1 6590   4.201   3.419  16.860  0.2313 -0.1246  0.2976
  438MPD2    H7 6591   4.236   3.341  16.915  1.2650  0.5857  0.6552
  439TMC3    C1 6592   4.342   3.327  16.696  0.9290 -0.1420  0.3887
  439TMC3    C2 6593   4.372   3.284  16.568  0.0552 -0.2874 -0.6996
  439TMC3    C3 6594   4.488   3.206  16.538  0.2691  0.4955  0.0482
  439TMC3    C4 6595   4.420   3.265  16.794  0.2839 -0.3841 -0.1944
  439TMC3    C5 6596   4.525   3.182  16.772 -0.0650 -0.4151 -0.6708
  439TMC3    C6 6597   4.568   3.157  16.643  0.2184  0.3305 -0.0108
  439TMC3     C 6598   4.233   3.413  16.724 -0.1197  0.2456 -0.6901
  439TMC3     O 6599   4.189   3.471  16.623  0.5085  0.1058 -0.0027
  439TMC3     H 6600   4.326   3.333  16.482  0.0579  1.0768  0.0862
  439TMC3    H1 6601   4.404   3.301  16.895  0.6740 -0.1825 -0.2036
  439TMC3    H2 6602   4.665   3.111  16.626 -0.2576 -0.4154 -0.7031
  439TMC3    C7 6603   4.604   3.132  16.884 -0.0415  0.4040  0.6962
  439TMC3    C8 6604   4.519   3.167  16.404  0.4800  0.8521 -0.1506
  439TMC3    O1 6605   4.719   3.102  16.865 -0.0447  0.0944 -0.0487
  439TMC3    O2 6606   4.640   3.132  16.404 -0.1417  0.0509 -0.3089
  440MPD2     C 6607   3.222   3.960  14.804  0.5636 -0.5820  0.3094
  440MPD2    C1 6608   3.318   4.035  14.872  0.3527 -0.0872 -0.4820
  440MPD2    C2 6609   3.424   3.967  14.930  0.0739 -0.0110  0.3715
  440MPD2    C3 6610   3.438   3.833  14.936  0.1604 -0.6750 -0.9705
  440MPD2    C4 6611   3.344   3.755  14.868 -0.3596 -0.3709 -0.1157
  440MPD2    C5 6612   3.245   3.827  14.803  0.2422 -0.1045  0.2373
  440MPD2     H 6613   3.496   4.039  14.966 -0.2719 -0.4925  2.0319
  440MPD2    H1 6614   3.333   3.647  14.875 -0.1371 -0.4219 -0.5932
  440MPD2    H2 6615   3.142   4.003  14.746  1.7655 -0.1429 -1.0173
  440MPD2    H3 6616   3.179   3.781  14.730 -0.4905  0.3013  0.6399
  440MPD2     N 6617   3.546   3.772  15.002  0.2253  0.4022  0.2326
  440MPD2    H5 6618   3.551   3.672  14.986  2.7093  0.4680  0.6646
  440MPD2    N1 6619   3.314   4.174  14.889 -0.1729 -0.1073  0.0024
  440MPD2    H7 6620   3.392   4.221  14.934  1.3984 -2.9816  0.2668
  441TMC3    C1 6621   3.721   3.745  15.160 -0.3806  0.5893  0.6467
  441TMC3    C2 6622   3.804   3.827  15.235  0.1393  0.4880 -0.6134
  441TMC3    C3 6623   3.824   3.796  15.369 -0.1382 -0.2616 -0.7238
  441TMC3    C4 6624   3.648   3.647  15.228  0.4862 -0.5605 -0.0690
  441TMC3    C5 6625   3.673   3.629  15.360 -0.7259 -0.1826 -0.0969
  441TMC3    C6 6626   3.772   3.690  15.430  0.0297  0.4922  0.4915
  441TMC3     C 6627   3.657   3.829  15.063  0.5800 -0.1062 -0.1523
  441TMC3     O 6628   3.676   3.945  15.088  0.2804  0.2895 -0.2142
  441TMC3     H 6629   3.860   3.911  15.195 -1.2881  0.9629 -1.5976
  441TMC3    H1 6630   3.561   3.605  15.180  1.6662  0.9925 -3.5610
  441TMC3    H2 6631   3.783   3.688  15.537  2.6614 -0.6620  0.1806
  441TMC3    C7 6632   3.589   3.546  15.443 -1.1271  0.5477 -0.0077
  441TMC3    C8 6633   3.870   3.904  15.458  0.7270  0.3831  0.3533
  441TMC3    O1 6634   3.605   3.575  15.559 -0.1283 -0.1654 -0.0450
  441TMC3    O2 6635   3.923   3.879  15.567  0.4735  0.4472 -0.2750
  442MPD2     C 6636   1.559   4.557  16.425 -0.1980 -0.2051  0.3684
  442MPD2    C1 6637   1.431   4.509  16.416 -0.2258  0.8351  0.2966
  442MPD2    C2 6638   1.405   4.385  16.359  0.2151 -0.0727 -0.7472
  442MPD2    C3 6639   1.514   4.312  16.317  0.3560 -0.6493  0.2790
  442MPD2    C4 6640   1.644   4.355  16.326 -0.0556 -0.5815  0.1104
  442MPD2    C5 6641   1.663   4.478  16.376  0.0469 -0.4640  0.7514
  442MPD2     H 6642   1.302   4.353  16.348  0.1610 -1.4862  3.7904
  442MPD2    H1 6643   1.730   4.297  16.293  0.9131  0.4397  0.8758
  442MPD2    H2 6644   1.582   4.654  16.469  0.1344 -0.5389  0.9384
  442MPD2    H3 6645   1.767   4.510  16.375 -0.2957  0.5156 -2.9903
  442MPD2     N 6646   1.495   4.175  16.267  0.8043 -0.1064 -0.0615
  442MPD2    H5 6647   1.579   4.124  16.242  0.9341  0.9358 -1.8034
  442MPD2    N1 6648   1.320   4.585  16.464  0.0474  0.2321 -0.3771
  442MPD2    H7 6649   1.227   4.544  16.470  1.4943 -2.7746  1.1025
  443TMC3    C1 6650   1.198   0.034  16.516  0.3189 -0.0418  0.3156
  443TMC3    C2 6651   1.149   0.147  16.450  0.6884  0.0969  0.2909
  443TMC3    C3 6652   1.015   0.159  16.454 -0.9358 -0.4279  0.4807
  443TMC3    C4 6653   1.123   4.702  16.603  0.3638 -0.2063 -0.3482
  443TMC3    C5 6654   0.993   4.731  16.610 -0.3450 -0.0954  0.3117
  443TMC3    C6 6655   0.931   0.089  16.537 -0.1812 -0.3651  0.2772
  443TMC3     C 6656   1.324   4.725  16.474 -0.3668 -0.2954  0.2879
  443TMC3     O 6657   1.403   0.058  16.412  0.1726  0.0949 -0.0354
  443TMC3     H 6658   1.220   0.186  16.378 -0.1747  1.5464  0.2286
  443TMC3    H1 6659   1.162   4.615  16.653  1.1292 -0.3866 -1.2612
  443TMC3    H2 6660   0.823   0.086  16.530 -0.0557 -0.9921 -1.4354
  443TMC3    C7 6661   0.901   4.622  16.652  0.8931 -0.2298  0.0638
  443TMC3    C8 6662   0.969   0.144  16.316 -0.5276 -0.4605  0.3593
  443TMC3    O1 6663   0.940   4.506  16.643  0.8872  0.9558 -0.4102
  443TMC3    O2 6664   0.911   0.039  16.294 -0.1009 -0.0432 -0.5163
  444MPD2     C 6665   1.440   4.134  17.028 -0.3877  0.6967  0.2804
  444MPD2    C1 6666   1.391   4.005  17.010  0.4715 -0.4816  0.4599
  444MPD2    C2 6667   1.490   3.913  16.972 -0.3968  0.4877  0.1785
  444MPD2    C3 6668   1.625   3.941  16.958 -0.9046 -0.3067 -0.0001
  444MPD2    C4 6669   1.658   4.074  16.972  0.2394 -0.4594 -0.2204
  444MPD2    C5 6670   1.568   4.168  17.005 -0.2463  0.3079 -0.0194
  444MPD2     H 6671   1.454   3.814  16.947  1.0449  0.6457 -2.4680
  444MPD2    H1 6672   1.757   4.110  16.945  0.2038 -0.7771 -0.7683
  444MPD2    H2 6673   1.372   4.211  17.064  0.3156  1.8245 -0.8111
  444MPD2    H3 6674   1.604   4.269  17.018 -2.3827  0.9775  0.7684
  444MPD2     N 6675   1.720   3.839  16.919 -0.3783  0.5631 -0.1498
  444MPD2    H5 6676   1.681   3.750  16.890  0.5058 -0.2588  1.1514
  444MPD2    N1 6677   1.255   3.977  17.025  0.1614 -0.4439 -0.6020
  444MPD2    H7 6678   1.228   3.879  17.033 -1.6514 -0.0138 -1.5542
  445TMC3    C1 6679   1.936   3.745  16.901 -0.4108  0.7441  0.1347
  445TMC3    C2 6680   1.876   3.622  16.917  0.4567 -0.2765 -0.3604
  445TMC3    C3 6681   1.948   3.507  16.924  0.0905  0.2893 -0.3934
  445TMC3    C4 6682   2.074   3.751  16.912 -0.5832  0.0819  0.1037
  445TMC3    C5 6683   2.146   3.633  16.911 -0.4399 -0.7600  0.5018
  445TMC3    C6 6684   2.083   3.513  16.917 -0.3619 -0.5956 -0.0294
  445TMC3     C 6685   1.853   3.863  16.927  0.2067 -0.3072  0.2875
  445TMC3     O 6686   1.922   3.965  16.947  0.4875  0.2609  0.6234
  445TMC3     H 6687   1.769   3.610  16.912  0.3447  0.0839  1.3259
  445TMC3    H1 6688   2.135   3.840  16.917  4.5617 -3.4893  1.1510
  445TMC3    H2 6689   2.138   3.421  16.904  1.5586  0.8953 -2.2498
  445TMC3    C7 6690   2.286   3.649  16.880 -0.6471  0.7145  0.6891
  445TMC3    C8 6691   1.907   3.390  16.841 -0.2033  0.1492 -0.4356
  445TMC3    O1 6692   2.325   3.732  16.802  0.1467  0.5579 -1.1087
  445TMC3    O2 6693   1.959   3.286  16.867 -0.6018  0.8813  0.5503
  446MPD2     C 6694   1.071   0.752  11.593  0.5294 -0.3944 -0.6265
  446MPD2    C1 6695   1.019   0.802  11.474 -0.0326  0.2843  0.1177
  446MPD2    C2 6696   1.089   0.898  11.410  0.0061  0.8289 -0.7357
  446MPD2    C3 6697   1.211   0.948  11.460  0.3730 -0.4349 -0.3306
  446MPD2    C4 6698   1.254   0.905  11.579  0.2231 -0.1075 -0.8401
  446MPD2    C5 6699   1.190   0.805  11.642 -0.0556  0.2742 -0.2330
  446MPD2     H 6700   1.045   0.951  11.327  1.3022  0.6616 -1.5257
  446MPD2    H1 6701   1.345   0.950  11.616  0.0856 -1.3747  1.0758
  446MPD2    H2 6702   1.025   0.667  11.641 -1.8288  1.0401 -0.3622
  446MPD2    H3 6703   1.233   0.769  11.735  1.8644 -1.3021 -1.7263
  446MPD2     N 6704   1.286   1.036  11.375 -0.3896  0.7867  0.5154
  446MPD2    H5 6705   1.242   1.067  11.288  1.8402  0.9459 -0.5454
  446MPD2    N1 6706   0.893   0.765  11.426  0.0460 -0.4589 -0.1632
  446MPD2    H7 6707   0.860   0.812  11.343 -2.2005 -0.2803  0.8172
  447TMC3    C1 6708   1.475   1.151  11.279  0.6526 -0.0114  0.4759
  447TMC3    C2 6709   1.399   1.233  11.201  0.3500  0.1375 -0.3788
  447TMC3    C3 6710   1.476   1.302  11.107 -0.2238 -0.1349 -0.2493
  447TMC3    C4 6711   1.612   1.143  11.273  0.2262  0.0043  0.1081
  447TMC3    C5 6712   1.682   1.213  11.174  0.6200 -0.5020  0.1573
  447TMC3    C6 6713   1.612   1.309  11.098 -0.2493 -0.2307  0.1316
  447TMC3     C 6714   1.415   1.077  11.392 -0.2210  0.3492 -0.0892
  447TMC3     O 6715   1.490   1.071  11.491  0.1496 -0.2664  0.5426
  447TMC3     H 6716   1.293   1.254  11.217 -0.1256 -2.8518  0.4348
  447TMC3    H1 6717   1.668   1.089  11.349 -0.1197  0.4653  0.6943
  447TMC3    H2 6718   1.674   1.361  11.026  0.9386  0.8689  1.9521
  447TMC3    C7 6719   1.823   1.216  11.177 -0.2507  0.0832 -0.4952
  447TMC3    C8 6720   1.398   1.384  11.012 -0.6088 -0.0518 -0.5096
  447TMC3    O1 6721   1.874   1.310  11.117  0.1964  0.7453 -0.4032
  447TMC3    O2 6722   1.283   1.350  10.981  0.0114 -0.2804 -0.2208
  448TMC3    C1 6723   4.133   0.095  16.801 -0.3118  0.1343  0.0103
  448TMC3    C2 6724   4.051   4.731  16.763 -0.0059 -0.2657 -0.4279
  448TMC3    C3 6725   4.001   4.645  16.854  0.5231 -0.2335 -0.3853
  448TMC3    C4 6726   4.169   0.110  16.929  0.2692 -0.0307 -0.0767
  448TMC3    C5 6727   4.117   0.025  17.021 -0.3129  0.0446  0.0796
  448TMC3    C6 6728   4.024   4.668  16.988 -0.5851  0.0118 -0.0912
  448TMC3     C 6729   4.173   0.196  16.706  0.2606  0.4192  0.5956
  448TMC3     O 6730   4.190   0.310  16.749  0.8599  0.4136 -0.0715
  448TMC3     H 6731   4.041   4.707  16.658  1.4386 -0.2168 -0.5722
  448TMC3    H1 6732   4.237   0.193  16.946  1.4351 -0.5356 -2.2130
  448TMC3    H2 6733   4.000   4.595  17.064  0.0874 -0.5830 -0.4577
  448TMC3    C7 6734   4.200   0.007  17.145  0.5811  0.5971 -0.3888
  448TMC3    C8 6735   4.012   4.499  16.820 -0.0151  0.5951 -0.0052
  448TMC3    O1 6736   4.317   0.041  17.132 -0.0569 -0.4219  0.1801
  448TMC3    O2 6737   4.063   4.437  16.916  0.3450  0.3132  0.1434
  449MPD2     C 6738   1.077   3.525  13.951  0.4031  0.3058  0.0068
  449MPD2    C1 6739   0.979   3.565  13.865 -0.7703 -0.3501 -0.5278
  449MPD2    C2 6740   0.853   3.565  13.908  0.1222 -0.5668  0.0756
  449MPD2    C3 6741   0.816   3.547  14.040  0.4638  0.6412  0.8499
  449MPD2    C4 6742   0.917   3.506  14.126 -0.3775 -0.7240 -0.0279
  449MPD2    C5 6743   1.041   3.489  14.082  0.7065 -0.3106 -0.4302
  449MPD2     H 6744   0.778   3.592  13.834 -0.9015 -2.8154  0.2903
  449MPD2    H1 6745   0.898   3.487  14.231 -2.6337 -0.5424 -0.4053
  449MPD2    H2 6746   1.182   3.513  13.926 -0.0955 -2.5431 -0.7612
  449MPD2    H3 6747   1.125   3.472  14.149  0.5910  0.7363 -0.0295
  449MPD2     N 6748   0.681   3.561  14.076  0.0492  0.3076 -0.5911
  449MPD2    H5 6749   0.622   3.575  13.994 -1.6966 -0.0196  0.6105
  449MPD2    N1 6750   1.000   3.603  13.731 -0.3157 -0.0437 -0.3800
  449MPD2    H7 6751   0.922   3.633  13.674 -1.7895  1.4594  2.4682
  450TMC3    C1 6752   1.100   3.641  13.531 -0.2773  0.1404  0.0857
  450TMC3    C2 6753   1.168   3.759  13.504  0.4392  0.2161  0.2526
  450TMC3    C3 6754   1.108   3.872  13.455  0.4594  0.1155  0.0522
  450TMC3    C4 6755   0.978   3.632  13.477  0.6235  0.3672  0.7118
  450TMC3    C5 6756   0.920   3.749  13.439 -0.7458  0.0560 -0.1357
  450TMC3    C6 6757   0.975   3.868  13.426  0.4134 -0.0255  0.8712
  450TMC3     C 6758   1.119   3.587  13.665  0.7588 -0.2349 -0.2207
  450TMC3     O 6759   1.231   3.589  13.709  0.0626 -0.6751 -0.4621
  450TMC3     H 6760   1.268   3.770  13.545  0.0504 -3.4337  2.1731
  450TMC3    H1 6761   0.923   3.546  13.514 -1.7845  1.2636 -0.8167
  450TMC3    H2 6762   0.920   3.954  13.388  1.3316 -0.0017 -0.4092
  450TMC3    C7 6763   0.789   3.760  13.504  0.0174  0.5268 -0.9601
  450TMC3    C8 6764   1.186   3.975  13.394 -0.1106 -0.1556 -0.2571
  450TMC3    O1 6765   0.758   3.677  13.588  0.3425  0.0742 -0.0912
  450TMC3    O2 6766   1.169   4.094  13.408  0.1563 -0.0039  0.0656
  451MPD2     C 6767   2.311   1.711   1.261  0.4188  0.3400 -0.0233
  451MPD2    C1 6768   2.310   1.838   1.211  0.4052  0.2192  0.8431
  451MPD2    C2 6769   2.426   1.891   1.154 -0.1206 -0.7919  0.1892
  451MPD2    C3 6770   2.549   1.827   1.177  0.3174 -0.2303 -0.7360
  451MPD2    C4 6771   2.558   1.707   1.245 -0.3430 -0.2329 -0.0226
  451MPD2    C5 6772   2.436   1.646   1.278 -0.0662 -0.2970 -0.3498
  451MPD2     H 6773   2.413   1.977   1.090 -1.6790  1.3724  3.4052
  451MPD2    H1 6774   2.658   1.666   1.252 -1.6086 -2.9464  2.1468
  451MPD2    H2 6775   2.224   1.653   1.290  0.7923 -0.5581 -0.6974
  451MPD2    H3 6776   2.433   1.544   1.313  3.6259  0.7345  2.9555
  451MPD2     N 6777   2.668   1.876   1.121 -0.0366 -0.0848  0.0786
  451MPD2    H5 6778   2.753   1.822   1.137  0.7385  1.2426  0.4502
  451MPD2    N1 6779   2.178   1.892   1.192 -0.4878 -0.1420  0.1022
  451MPD2    H7 6780   2.102   1.834   1.227  1.2094 -1.7629  1.0707
  452TMC3    C1 6781   2.790   1.990   0.949  0.5201  0.2248 -0.4531
  452TMC3    C2 6782   2.794   1.865   0.884  0.3600 -0.1322  0.0428
  452TMC3    C3 6783   2.742   1.853   0.758 -0.0295  0.2079 -0.4040
  452TMC3    C4 6784   2.785   2.099   0.872  0.2668 -0.0891  0.2237
  452TMC3    C5 6785   2.783   2.085   0.738 -0.2035 -0.1097  0.2374
  452TMC3    C6 6786   2.741   1.968   0.680 -0.3573 -0.4111 -0.7748
  452TMC3     C 6787   2.678   1.992   1.055  0.3806 -0.5512  0.4751
  452TMC3     O 6788   2.609   2.094   1.045 -0.3107  0.5555  0.0875
  452TMC3     H 6789   2.786   1.772   0.939  2.5834  0.4703  1.3775
  452TMC3    H1 6790   2.784   2.194   0.924  0.2684  0.5459 -0.9181
  452TMC3    H2 6791   2.699   1.965   0.580  2.2983 -3.6369 -1.7671
  452TMC3    C7 6792   2.754   2.209   0.660  0.1092  0.7117 -0.1422
  452TMC3    C8 6793   2.606   1.802   0.743  0.2417 -0.3327 -0.7892
  452TMC3    O1 6794   2.717   2.199   0.545 -0.2473  0.0384  0.5103
  452TMC3    O2 6795   2.522   1.867   0.677  0.8887  0.5678 -0.1048
  453TMC3    C1 6796   3.427   4.109  11.888  0.3595 -0.9004  0.7787
  453TMC3    C2 6797   3.377   4.012  11.975 -0.2702  0.0104 -0.5839
  453TMC3    C3 6798   3.242   4.024  12.010 -0.4492 -0.0617  0.4424
  453TMC3    C4 6799   3.346   4.203  11.838 -0.3111  0.0333 -0.5657
  453TMC3    C5 6800   3.212   4.214  11.878 -1.0627 -0.3055 -0.5991
  453TMC3    C6 6801   3.159   4.126  11.971 -0.4448  0.2024 -0.3084
  453TMC3     C 6802   3.570   4.101  11.864  0.0512  0.5063  0.3517
  453TMC3     O 6803   3.638   4.024  11.933  0.1973 -0.3240 -0.0430
  453TMC3     H 6804   3.448   3.952  12.030  0.7445 -0.1117 -2.0162
  453TMC3    H1 6805   3.393   4.286  11.786 -1.3443  1.0523  0.0960
  453TMC3    H2 6806   3.053   4.126  11.993 -0.1659  2.2435  1.0121
  453TMC3    C7 6807   3.157   4.342  11.881  0.3320  0.0061 -0.1220
  453TMC3    C8 6808   3.184   3.906  12.068 -0.4261 -0.4929  0.6052
  453TMC3    O1 6809   3.166   4.413  11.778  0.0738  0.4512 -0.1401
  453TMC3    O2 6810   3.075   3.917  12.120  0.0946  0.2921 -0.2713
  454MPD2     C 6811   2.421   3.426  16.282 -0.3183 -0.0206  0.0724
  454MPD2    C1 6812   2.360   3.492  16.178 -0.3914 -0.6172  0.7075
  454MPD2    C2 6813   2.337   3.629  16.187  0.1657  0.0526 -0.7995
  454MPD2    C3 6814   2.383   3.698  16.295  0.4339 -0.1263 -0.4148
  454MPD2    C4 6815   2.429   3.629  16.402 -0.5479 -0.5366 -0.7342
  454MPD2    C5 6816   2.444   3.494  16.399 -0.6273 -0.6289  0.2034
  454MPD2     H 6817   2.273   3.678  16.114 -0.7208 -1.8556 -1.3141
  454MPD2    H1 6818   2.460   3.678  16.494 -1.3245 -1.1251 -0.1556
  454MPD2    H2 6819   2.443   3.320  16.284 -1.8162 -0.3367 -0.2130
  454MPD2    H3 6820   2.481   3.434  16.481  1.1745  2.1820  1.4669
  454MPD2     N 6821   2.361   3.829  16.315  0.2230 -0.4978  0.1733
  454MPD2    H5 6822   2.349   3.870  16.407  0.0834  1.8282 -0.8790
  454MPD2    N1 6823   2.319   3.431  16.062 -0.4268  1.0262  0.2330
  454MPD2    H7 6824   2.265   3.489  15.998  1.1996 -1.5284 -3.4467
  455TMC3    C1 6825   2.230   4.011  16.278 -0.0297 -0.2956  0.5518
  455TMC3    C2 6826   2.249   4.106  16.377  0.0438  0.1948 -0.4844
  455TMC3    C3 6827   2.164   4.100  16.482 -0.3147 -0.8035  0.4307
  455TMC3    C4 6828   2.121   3.925  16.281  0.4640  0.5533  0.5705
  455TMC3    C5 6829   2.047   3.909  16.387 -0.5441 -0.7127 -0.1176
  455TMC3    C6 6830   2.066   4.000  16.489 -0.4356  0.3201  0.3982
  455TMC3     C 6831   2.333   3.920  16.221  0.1905 -0.5488 -0.0072
  455TMC3     O 6832   2.333   3.914  16.100 -0.3534 -0.3959  0.2767
  455TMC3     H 6833   2.346   4.151  16.387 -0.0978  0.0227  1.6820
  455TMC3    H1 6834   2.122   3.857  16.197  0.2649  0.8361  0.3408
  455TMC3    H2 6835   2.004   3.981  16.576  0.3046 -0.0863  0.8348
  455TMC3    C7 6836   2.005   3.773  16.428  0.1762  1.0167  0.1393
  455TMC3    C8 6837   2.146   4.199  16.584  0.5352  0.5617  0.0295
  455TMC3    O1 6838   1.974   3.744  16.546  0.3288  0.0920 -0.3268
  455TMC3    O2 6839   2.109   4.161  16.697  0.1456  0.0621  0.4035
  456MPD2     C 6840   4.609   3.496  16.224  0.7394  0.4468 -0.1847
  456MPD2    C1 6841   4.681   3.485  16.333  0.2075 -0.4436  0.6574
  456MPD2    C2 6842   4.622   3.533  16.458  0.3070 -0.8466  0.2118
  456MPD2    C3 6843   4.494   3.575  16.462  0.3764  0.5487 -0.2681
  456MPD2    C4 6844   4.419   3.570  16.344 -0.4646 -0.4977 -0.6410
  456MPD2    C5 6845   4.479   3.540  16.224 -0.0803  0.2327 -0.0715
  456MPD2     H 6846   4.689   3.544  16.543  1.6157  3.6203 -1.3789
  456MPD2    H1 6847   4.315   3.600  16.342 -0.4377 -0.4482 -1.1839
  456MPD2    H2 6848   4.654   3.464  16.131 -0.2705 -0.0688 -0.4937
  456MPD2    H3 6849   4.419   3.548  16.135 -0.6610  1.0476  0.3945
  456MPD2     N 6850   4.441   3.640  16.574  0.1713  0.1258  0.5264
  456MPD2    H5 6851   4.354   3.689  16.562  1.1351  1.6857 -0.0723
  456MPD2    N1 6852   0.068   3.433  16.316  0.1036  0.1758 -0.1603
  456MPD2    H7 6853   0.105   3.434  16.221  1.8176  0.4267  0.5190
  457TMC3    C1 6854   4.411   3.708  16.795  0.3136 -0.5585 -0.1892
  457TMC3    C2 6855   4.343   3.816  16.748 -0.4002 -0.9901  0.1676
  457TMC3    C3 6856   4.281   3.889  16.850  0.0476  0.3819  0.1087
  457TMC3    C4 6857   4.420   3.675  16.927 -0.2046 -0.3252 -0.1053
  457TMC3    C5 6858   4.360   3.752  17.019  0.6246  0.0595 -0.4273
  457TMC3    C6 6859   4.291   3.862  16.984 -0.8235  0.7348 -0.0745
  457TMC3     C 6860   4.486   3.626  16.700 -0.6628  0.3977  0.0436
  457TMC3     O 6861   4.573   3.561  16.747 -0.3169 -0.0762  0.5775
  457TMC3     H 6862   4.352   3.855  16.648 -0.8933  0.2578  0.6086
  457TMC3    H1 6863   4.465   3.581  16.956  0.3484 -1.4533 -4.5256
  457TMC3    H2 6864   4.222   3.908  17.054  1.1506  0.8370  1.8230
  457TMC3    C7 6865   4.401   3.738  17.158  0.4817  0.0720  0.2620
  457TMC3    C8 6866   4.209   4.010  16.816 -0.4800 -0.2415  0.1828
  457TMC3    O1 6867   4.474   3.643  17.179 -0.2013  1.2134  0.3296
  457TMC3    O2 6868   4.204   4.082  16.913  0.1365  0.4947  0.0057
  458MPD2     C 6869   2.688   3.501  12.178 -0.1998 -0.1379 -0.8359
  458MPD2    C1 6870   2.627   3.533  12.298  0.7531 -0.3272  0.5587
  458MPD2    C2 6871   2.532   3.632  12.295  1.0994 -0.4899  0.3074
  458MPD2    C3 6872   2.511   3.710  12.182  0.5241  0.4407  0.3601
  458MPD2    C4 6873   2.575   3.678  12.064 -0.0420 -0.4480 -0.1682
  458MPD2    C5 6874   2.659   3.572  12.065  0.0190 -0.2610 -0.9415
  458MPD2     H 6875   2.476   3.644  12.388 -1.9088 -0.4271 -1.5323
  458MPD2    H1 6876   2.540   3.718  11.969 -0.4162  2.6855  1.2872
  458MPD2    H2 6877   2.775   3.437  12.177  0.3251  0.5974 -1.4389
  458MPD2    H3 6878   2.699   3.536  11.970  0.8618  1.3726 -1.1950
  458MPD2     N 6879   2.403   3.808  12.189 -0.0059 -0.6011 -0.1152
  458MPD2    H5 6880   2.345   3.806  12.273  0.2532  0.4092  0.0804
  458MPD2    N1 6881   2.680   3.483  12.419 -0.2317  0.8043 -0.5214
  458MPD2    H7 6882   2.768   3.433  12.417 -0.6963 -0.0472  0.7597
  459TMC3    C1 6883   2.724   3.475  12.643  0.6698 -0.7385 -0.0097
  459TMC3    C2 6884   2.861   3.460  12.603 -0.2827 -0.3986 -0.1563
  459TMC3    C3 6885   2.946   3.440  12.706 -0.2759 -0.1433 -0.5579
  459TMC3    C4 6886   2.677   3.455  12.770 -0.2729 -0.2722 -0.1497
  459TMC3    C5 6887   2.776   3.427  12.861  0.7036 -0.5803 -0.4452
  459TMC3    C6 6888   2.909   3.414  12.836 -0.2596  0.5489  0.6634
  459TMC3     C 6889   2.626   3.510  12.543  0.3150 -0.7172 -0.4963
  459TMC3     O 6890   2.516   3.545  12.581 -0.5439  0.5470  0.1139
  459TMC3     H 6891   2.910   3.460  12.507  1.7355 -1.1994  0.8621
  459TMC3    H1 6892   2.574   3.474  12.800  0.2162 -2.1812  2.8160
  459TMC3    H2 6893   2.982   3.394  12.913 -0.8898 -0.4755  0.9925
  459TMC3    C7 6894   2.744   3.318  12.944 -0.1038  0.1414 -0.1604
  459TMC3    C8 6895   3.084   3.452  12.678  0.1948 -0.4800 -0.1957
  459TMC3    O1 6896   2.810   3.288  13.043  0.2420  0.3835  0.4089
  459TMC3    O2 6897   3.166   3.403  12.756 -0.1062 -0.7725 -0.2820
  460MPD2     C 6898   1.465   1.715  10.884 -0.4115 -0.1391 -0.8493
  460MPD2    C1 6899   1.411   1.588  10.878  0.2408 -0.4230  0.5518
  460MPD2    C2 6900   1.313   1.556  10.783  0.3007  0.1265 -0.5144
  460MPD2    C3 6901   1.275   1.656  10.687 -0.4404  1.2448 -0.6165
  460MPD2    C4 6902   1.336   1.777  10.692  0.3008 -0.0119  0.5501
  460MPD2    C5 6903   1.423   1.814  10.793  0.3448  1.4941  0.0532
  460MPD2     H 6904   1.256   1.464  10.782 -1.0427  0.9071  2.0448
  460MPD2    H1 6905   1.325   1.852  10.614 -1.9742  0.8845  1.7446
  460MPD2    H2 6906   1.555   1.738  10.940 -1.2286  1.7947 -0.3321
  460MPD2    H3 6907   1.459   1.916  10.788 -0.0504  1.6877  1.2305
  460MPD2     N 6908   1.174   1.632  10.593  0.1011  0.4679 -0.5017
  460MPD2    H5 6909   1.135   1.538  10.586 -1.0892  0.9963 -0.9567
  460MPD2    N1 6910   1.463   1.500  10.976 -0.3291  0.1026  0.2136
  460MPD2    H7 6911   1.541   1.534  11.031  0.4418  0.0111 -0.8383
  461TMC3    C1 6912   1.045   1.690  10.387 -0.4276 -0.0829 -0.0001
  461TMC3    C2 6913   1.043   1.556  10.347  0.3370 -0.0440 -0.2072
  461TMC3    C3 6914   1.001   1.525  10.225 -0.1723  0.1510 -0.2016
  461TMC3    C4 6915   1.011   1.790  10.300 -0.4983 -0.3634 -0.1950
  461TMC3    C5 6916   0.961   1.750  10.180 -0.1655  0.4251  0.1264
  461TMC3    C6 6917   0.956   1.620  10.141  0.1389 -0.9358 -0.7665
  461TMC3     C 6918   1.123   1.733  10.507 -0.3263 -0.0779  0.3182
  461TMC3     O 6919   1.119   1.853  10.524  0.0435  0.1997  0.7890
  461TMC3     H 6920   1.066   1.469  10.407  3.2865 -0.7392 -2.3278
  461TMC3    H1 6921   0.985   1.886  10.343 -0.8937 -0.7739  0.4772
  461TMC3    H2 6922   0.922   1.607  10.039 -1.5292  1.8050 -0.5582
  461TMC3    C7 6923   0.949   1.849  10.072  0.3939  0.1696 -0.0957
  461TMC3    C8 6924   1.041   1.398  10.182  0.0537 -1.1351 -0.4363
  461TMC3    O1 6925   0.845   1.850  10.003  0.4585 -0.0479  0.0771
  461TMC3    O2 6926   1.121   1.337  10.251  0.0513  0.2724 -0.6544
  462TMC3    C1 6927   1.312   2.150   0.240  0.3729  0.8791  0.1300
  462TMC3    C2 6928   1.440   2.122   0.280 -0.3054 -0.4119 -0.4488
  462TMC3    C3 6929   1.474   1.994   0.299  0.1208 -0.0141 -0.2054
  462TMC3    C4 6930   1.228   2.050   0.199 -0.3985  0.5592  0.5316
  462TMC3    C5 6931   1.266   1.922   0.227  0.8009 -0.9664 -0.3047
  462TMC3    C6 6932   1.388   1.896   0.278  0.4393 -0.4155 -0.3247
  462TMC3     C 6933   1.291   2.278   0.163 -0.3963 -0.6637  0.4493
  462TMC3     O 6934   1.249   2.270   0.047 -0.0257 -0.3188  0.7774
  462TMC3     H 6935   1.515   2.198   0.296 -0.9518  0.0036  0.6347
  462TMC3    H1 6936   1.137   2.069   0.143  0.1469  0.7496 -0.2854
  462TMC3    H2 6937   1.403   1.799   0.324  2.3808  1.8651  3.7936
  462TMC3    C7 6938   1.180   1.811   0.219 -0.8018  1.0643  0.6885
  462TMC3    C8 6939   1.611   1.965   0.338 -1.3167  0.2769 -0.2619
  462TMC3    O1 6940   1.225   1.698   0.208  0.1257  0.1600  0.0432
  462TMC3    O2 6941   1.667   2.057   0.398  0.1281 -0.2596  0.6060
  463MPD2     C 6942   3.237   0.017   0.918 -0.1004  0.0444  0.2398
  463MPD2    C1 6943   3.170   0.136   0.924  0.1816 -0.1293  0.6832
  463MPD2    C2 6944   3.215   0.240   1.007  0.0173 -0.4035 -0.9200
  463MPD2    C3 6945   3.329   0.228   1.082  0.0621 -0.2155 -0.2298
  463MPD2    C4 6946   3.396   0.108   1.085 -0.2494 -1.0029 -0.2352
  463MPD2    C5 6947   3.354   0.006   0.996 -0.1041 -0.8387 -0.2507
  463MPD2     H 6948   3.168   0.338   1.003 -1.8655 -1.2414  0.5110
  463MPD2    H1 6949   3.485   0.093   1.145  1.0700  0.1437 -1.9182
  463MPD2    H2 6950   3.201   4.673   0.860 -0.1144  0.3264 -0.1585
  463MPD2    H3 6951   3.414   4.656   0.994  1.9271  0.5045  0.1391
  463MPD2     N 6952   3.378   0.331   1.168  0.0282  0.7616 -0.6528
  463MPD2    H5 6953   3.469   0.313   1.208  0.1974  0.9049 -0.9698
  463MPD2    N1 6954   3.043   0.156   0.861 -0.0136 -0.5984 -0.4052
  463MPD2    H7 6955   2.995   0.237   0.898  1.8085  1.0475 -1.5697
  464TMC3    C1 6956   2.868   0.119   0.697 -0.1281  0.1848 -0.1902
  464TMC3    C2 6957   2.834   0.255   0.707 -0.7937  0.4062  0.9560
  464TMC3    C3 6958   2.714   0.286   0.656  0.4064  0.4050 -0.1930
  464TMC3    C4 6959   2.777   0.025   0.667  0.1325  0.1171  0.3685
  464TMC3    C5 6960   2.656   0.064   0.619  0.3659  0.9086 -0.4582
  464TMC3    C6 6961   2.626   0.196   0.590  1.2335  0.1732  0.0590
  464TMC3     C 6962   2.985   0.072   0.768  0.3654 -0.5142 -0.0669
  464TMC3     O 6963   3.007   4.697   0.756  0.5426 -0.2428  0.6714
  464TMC3     H 6964   2.910   0.325   0.737 -0.8620  0.2191  1.5634
  464TMC3    H1 6965   2.803   4.662   0.688  2.2765  0.2166 -1.7539
  464TMC3    H2 6966   2.545   0.230   0.526  1.4065  0.4152 -0.0276
  464TMC3    C7 6967   2.569   4.693   0.607 -0.4424 -0.3968  0.0971
  464TMC3    C8 6968   2.652   0.422   0.667 -0.5624  0.3949  0.1484
  464TMC3    O1 6969   2.620   4.581   0.613  0.4635  0.7089  0.0879
  464TMC3    O2 6970   2.543   0.440   0.610  0.6341 -0.0701 -0.5863
  465MPD2     C 6971   3.742   3.962  17.021  0.2225  0.3515 -0.1961
  465MPD2    C1 6972   3.616   3.915  16.994  0.1974  0.1327  0.0607
  465MPD2    C2 6973   3.570   3.949  16.861  0.2183 -0.4654 -0.2385
  465MPD2    C3 6974   3.637   4.018  16.765 -0.7296  0.4021  0.2217
  465MPD2    C4 6975   3.764   4.061  16.798  0.3145 -0.0394 -0.6354
  465MPD2    C5 6976   3.817   4.028  16.925  0.2388  0.0127 -0.1837
  465MPD2     H 6977   3.469   3.914  16.842  0.1907 -1.0540  1.0384
  465MPD2    H1 6978   3.828   4.120  16.734  0.7716 -0.4379 -0.5510
  465MPD2    H2 6979   3.784   3.943  17.120 -0.4173 -1.4709 -0.2903
  465MPD2    H3 6980   3.917   4.060  16.953 -0.0155  1.1082 -0.5143
  465MPD2     N 6981   3.583   4.042  16.644  0.5550 -0.9065  0.1326
  465MPD2    H5 6982   3.491   4.006  16.619  0.1779  0.5296 -0.5243
  465MPD2    N1 6983   3.541   3.840  17.083  0.0611  0.3165 -0.1568
  465MPD2    H7 6984   3.446   3.821  17.054  0.5721 -2.0827 -0.2672
  466TMC3    C1 6985   3.362   4.083  16.304 -0.1666  0.0284 -0.6030
  466TMC3    C2 6986   3.401   4.177  16.209 -0.9885 -0.6713 -0.2022
  466TMC3    C3 6987   3.504   4.252  16.240  0.2856 -0.7365  0.2377
  466TMC3    C4 6988   3.437   4.051  16.417 -0.2599  0.3116  0.8589
  466TMC3    C5 6989   3.547   4.132  16.432  0.6183  0.3574  0.3641
  466TMC3    C6 6990   3.586   4.243  16.349 -0.3416  0.1594  0.4028
  466TMC3     C 6991   3.217   4.087  16.337  0.0133 -0.3165  0.2837
  466TMC3     O 6992   3.177   3.996  16.405  0.0531  0.2606 -0.2602
  466TMC3     H 6993   3.340   4.205  16.124 -1.4987  0.2144  0.4497
  466TMC3    H1 6994   3.415   3.965  16.479 -2.0014  0.2284  0.1362
  466TMC3    H2 6995   3.680   4.295  16.364 -0.1418 -0.2971  0.7703
  466TMC3    C7 6996   3.642   4.116  16.541 -0.1848 -0.4129  0.0982
  466TMC3    C8 6997   3.492   4.388  16.191  0.3238 -0.3707  0.3572
  466TMC3    O1 6998   3.732   4.195  16.547  0.2969  0.1682 -0.0965
  466TMC3    O2 6999   3.468   4.411  16.074 -0.1890 -0.2077  0.3595
  467TMC3    C1 7000   4.510   2.896  14.126 -0.1428  0.1849 -0.4620
  467TMC3    C2 7001   4.440   2.987  14.061 -0.1443  0.4966  0.3040
  467TMC3    C3 7002   4.318   2.960  14.005 -1.1089 -0.2477 -0.5092
  467TMC3    C4 7003   4.452   2.779  14.156 -0.1887  0.1160 -0.1797
  467TMC3    C5 7004   4.325   2.747  14.114 -0.3963  0.3322  0.2724
  467TMC3    C6 7005   4.261   2.838  14.027 -0.0308 -0.3609  0.6371
  467TMC3     C 7006   4.650   2.898  14.100  0.0806  0.2236  0.3644
  467TMC3     O 7007   4.702   2.997  14.140  0.4080 -0.7817  0.2282
  467TMC3     H 7008   4.488   3.076  14.023 -1.3657  0.9024 -0.2866
  467TMC3    H1 7009   4.521   2.701  14.184 -0.1322 -0.0944 -0.8832
  467TMC3    H2 7010   4.161   2.824  13.988  0.3090  0.1289 -0.3825
  467TMC3    C7 7011   4.280   2.610  14.125  0.1760 -0.8933 -0.4347
  467TMC3    C8 7012   4.330   2.988  13.864  0.2609  0.7677  0.2350
  467TMC3    O1 7013   4.357   2.531  14.173  0.1369  0.5762 -0.2390
  467TMC3    O2 7014   4.358   3.102  13.832 -0.0441 -0.3369  0.5226
  468MPD2     C 7015   3.012   0.510  10.542 -0.5058 -0.1895  0.1670
  468MPD2    C1 7016   3.100   0.556  10.646 -0.1023 -0.1102 -0.2788
  468MPD2    C2 7017   3.185   0.462  10.707 -0.4931 -0.6121  0.3105
  468MPD2    C3 7018   3.181   0.330  10.673 -0.0294 -0.2706 -0.2413
  468MPD2    C4 7019   3.102   0.294  10.572 -0.6621  0.2473 -0.6061
  468MPD2    C5 7020   3.025   0.381  10.502  0.4791  0.4146  0.1036
  468MPD2     H 7021   3.240   0.502  10.791 -0.4124 -3.5002  1.6287
  468MPD2    H1 7022   3.100   0.193  10.532  0.4274 -0.0277  0.0315
  468MPD2    H2 7023   2.942   0.578  10.495 -0.0437 -1.0051 -1.7095
  468MPD2    H3 7024   2.973   0.338  10.417 -1.2434  2.2498  0.2358
  468MPD2     N 7025   3.234   0.230  10.754 -0.2855 -0.2036  0.3500
  468MPD2    H5 7026   3.215   0.133  10.730  2.0268 -0.0854 -1.9574
  468MPD2    N1 7027   3.099   0.680  10.704 -0.4854  0.3587  0.7843
  468MPD2    H7 7028   3.151   0.685  10.792  0.3369 -1.3133  0.4004
  469TMC3    C1 7029   3.062   0.882  10.773 -0.4069 -0.1779 -0.2133
  469TMC3    C2 7030   3.201   0.891  10.796 -0.5359  0.2341  0.2490
  469TMC3    C3 7031   3.241   0.970  10.900 -0.0802  0.1491  1.0774
  469TMC3    C4 7032   2.978   0.943  10.856 -0.4618  0.4028 -0.0914
  469TMC3    C5 7033   3.022   1.007  10.964  0.1787 -0.7374  0.1569
  469TMC3    C6 7034   3.156   1.021  10.992  0.1277  0.4050 -0.7070
  469TMC3     C 7035   3.019   0.787  10.676 -0.5025 -0.0736 -0.6195
  469TMC3     O 7036   2.933   0.796  10.590  0.0087 -0.1330  0.2848
  469TMC3     H 7037   3.279   0.854  10.731  0.5200 -0.6663  2.0397
  469TMC3    H1 7038   2.873   0.918  10.848  0.4275 -3.7537  1.2583
  469TMC3    H2 7039   3.186   1.076  11.080  1.0269 -3.8205  1.6434
  469TMC3    C7 7040   2.935   1.039  11.075 -0.1462 -0.0462 -0.9849
  469TMC3    C8 7041   3.379   0.952  10.944  0.4748 -0.5561 -0.5622
  469TMC3    O1 7042   2.850   0.957  11.103  0.0017 -0.5483  0.5398
  469TMC3    O2 7043   3.467   0.914  10.859  0.4328  0.8341  0.1259
  470TMC3    C1 7044   0.263   1.877   0.479 -0.4625 -0.7734 -0.0688
  470TMC3    C2 7045   0.265   1.927   0.611 -0.6581 -0.1446  1.1769
  470TMC3    C3 7046   0.349   1.856   0.694 -0.3864 -0.1760  0.6228
  470TMC3    C4 7047   0.321   1.762   0.441 -0.2530 -0.2293 -0.0662
  470TMC3    C5 7048   0.397   1.695   0.533  0.0487  0.1632  0.1211
  470TMC3    C6 7049   0.422   1.746   0.660 -0.1509  0.0463  0.4320
  470TMC3     C 7050   0.159   1.925   0.392 -0.3471  0.0196 -0.0002
  470TMC3     O 7051   0.189   1.907   0.272 -0.3048  0.1155  0.0252
  470TMC3     H 7052   0.217   2.021   0.637  0.8584  1.0021 -0.1172
  470TMC3    H1 7053   0.279   1.703   0.360 -1.0965  1.7865 -1.0927
  470TMC3    H2 7054   0.475   1.696   0.740  1.3307  1.3699  0.2886
  470TMC3    C7 7055   0.402   1.548   0.528  0.1088 -0.5467  0.3803
  470TMC3    C8 7056   0.366   1.912   0.831  0.3174  0.0420 -0.1609
  470TMC3    O1 7057   0.336   1.500   0.438  0.0508 -0.1401  0.0357
  470TMC3    O2 7058   0.479   1.891   0.877 -0.2005  0.0834  0.3287
  471MPD2     C 7059   1.419   3.190  16.580 -0.4718  0.0627 -0.6479
  471MPD2    C1 7060   1.471   3.062  16.577  0.7733 -0.1604  0.1371
  471MPD2    C2 7061   1.545   3.019  16.681  0.2677  0.6301 -0.2191
  471MPD2    C3 7062   1.580   3.088  16.790 -0.3484 -0.1968 -0.6863
  471MPD2    C4 7063   1.529   3.216  16.794 -0.0042 -0.0470  0.0613
  471MPD2    C5 7064   1.458   3.265  16.687 -0.1722 -0.6763 -0.0321
  471MPD2     H 7065   1.562   2.912  16.678 -2.5672  0.1718  0.1222
  471MPD2    H1 7066   1.572   3.289  16.861  1.2189 -2.1216  1.5436
  471MPD2    H2 7067   1.353   3.234  16.507  0.8043  1.4000 -0.9991
  471MPD2    H3 7068   1.422   3.368  16.681  2.7198  0.2809 -0.9641
  471MPD2     N 7069   1.677   3.045  16.882 -0.1034  0.3788  0.0963
  471MPD2    H5 7070   1.681   3.096  16.969  0.7452  0.3224  0.0831
  471MPD2    N1 7071   1.446   2.971  16.471  0.7725  0.0772 -0.5092
  471MPD2    H7 7072   1.459   2.873  16.495  0.4966  0.4380  1.1610
  472TMC3    C1 7073   1.380   2.891  16.272  0.2443 -0.6329  0.3728
  472TMC3    C2 7074   1.284   2.907  16.174 -0.5971  0.5567 -0.1944
  472TMC3    C3 7075   1.251   2.804  16.098  0.0041 -0.1138  0.7789
  472TMC3    C4 7076   1.407   2.761  16.318  0.0445  0.0143  0.1727
  472TMC3    C5 7077   1.362   2.653  16.244  0.4881  0.7985 -0.4870
  472TMC3    C6 7078   1.277   2.673  16.136 -0.2032 -0.0897 -0.2476
  472TMC3     C 7079   1.405   3.009  16.344  0.0715 -0.0062 -0.4345
  472TMC3     O 7080   1.379   3.118  16.298  0.5779  0.3307  0.0903
  472TMC3     H 7081   1.244   3.004  16.147 -0.8454  0.7526  0.8665
  472TMC3    H1 7082   1.464   2.731  16.405  0.0226 -1.3081 -0.2705
  472TMC3    H2 7083   1.242   2.599  16.065 -0.5483  0.0595 -0.2354
  472TMC3    C7 7084   1.362   2.523  16.314  0.1268 -0.4059  0.3158
  472TMC3    C8 7085   1.110   2.804  16.054 -0.0518 -0.0700 -0.1153
  472TMC3    O1 7086   1.343   2.527  16.434  0.1563  0.9565 -0.4541
  472TMC3    O2 7087   1.074   2.893  15.977 -0.9955 -0.7236 -0.1708
  473MPD2     C 7088   1.164   0.317  13.895  0.3915  0.2242 -0.3442
  473MPD2    C1 7089   1.077   0.401  13.836  0.6957  0.1436 -0.0536
  473MPD2    C2 7090   1.032   0.516  13.903 -0.2659  0.2226  0.0725
  473MPD2    C3 7091   1.082   0.555  14.021 -0.4175  0.1238  0.2117
  473MPD2    C4 7092   1.173   0.473  14.078 -0.3921  1.0956 -0.1120
  473MPD2    C5 7093   1.211   0.356  14.017  0.8664 -0.0907 -0.7723
  473MPD2     H 7094   0.955   0.577  13.857  1.9270  1.8165 -1.4894
  473MPD2    H1 7095   1.214   0.488  14.177 -0.2217 -0.5174  0.0586
  473MPD2    H2 7096   1.198   0.231  13.838 -0.3656  0.2599 -0.8441
  473MPD2    H3 7097   1.290   0.304  14.070 -1.1030 -2.0507  0.2404
  473MPD2     N 7098   1.061   0.678  14.081 -0.4980 -0.0209 -0.0573
  473MPD2    H5 7099   1.117   0.686  14.165  0.9500  0.6719 -1.0912
  473MPD2    N1 7100   1.044   0.385  13.695 -0.4816  0.4997  0.1561
  473MPD2    H7 7101   0.991   0.459  13.651  1.2206  0.4449 -1.9902
  474TMC3    C1 7102   1.052   0.910  14.084 -0.6161 -0.1594 -0.3743
  474TMC3    C2 7103   0.972   1.028  14.094  0.1639  0.2801 -0.8956
  474TMC3    C3 7104   1.034   1.148  14.129  0.3224  0.5265  0.4808
  474TMC3    C4 7105   1.183   0.911  14.116 -0.8000 -1.1455 -0.3536
  474TMC3    C5 7106   1.238   1.033  14.146  0.4155 -0.5588 -0.0389
  474TMC3    C6 7107   1.172   1.153  14.153 -0.4819  0.5139  0.6897
  474TMC3     C 7108   0.999   0.793  14.037  0.4971  0.0532 -1.0765
  474TMC3     O 7109   0.913   0.796  13.948 -0.2413  0.0847  0.7305
  474TMC3     H 7110   0.866   1.013  14.076 -0.3038 -0.0313  2.0332
  474TMC3    H1 7111   1.239   0.818  14.113  1.4624  0.1704  1.3302
  474TMC3    H2 7112   1.235   1.239  14.173 -0.9403  0.9723  0.1746
  474TMC3    C7 7113   1.372   1.035  14.176  0.0695  0.3305  0.6520
  474TMC3    C8 7114   0.951   1.260  14.153  0.5138  0.7679 -0.3303
  474TMC3    O1 7115   1.449   0.966  14.110  0.0470 -0.1765  0.0951
  474TMC3    O2 7116   0.836   1.239  14.194 -0.2863 -0.7276 -0.0854
  475MPD2     C 7117   4.147   3.449  10.516 -0.3641 -0.7633  0.4700
  475MPD2    C1 7118   4.237   3.545  10.556  0.9165 -0.1760 -0.2344
  475MPD2    C2 7119   4.188   3.653  10.627  0.2136 -0.1435  0.2465
  475MPD2    C3 7120   4.048   3.656  10.650  0.3338 -0.2783  0.4474
  475MPD2    C4 7121   3.962   3.563  10.608  0.1768 -0.5564  0.2846
  475MPD2    C5 7122   4.016   3.457  10.548 -0.3684  0.3279 -0.1164
  475MPD2     H 7123   4.246   3.731  10.674 -0.0175 -0.2315  0.6773
  475MPD2    H1 7124   3.855   3.568  10.625 -0.0886 -0.8336 -1.3140
  475MPD2    H2 7125   4.182   3.362  10.462  0.9369  0.1631 -0.1845
  475MPD2    H3 7126   3.943   3.380  10.525  2.0987 -1.4549 -2.0796
  475MPD2     N 7127   4.007   3.775  10.714 -0.1154  0.6658 -0.4240
  475MPD2    H5 7128   4.075   3.846  10.737 -0.6759  1.0383  0.0856
  475MPD2    N1 7129   4.373   3.539  10.528  0.2186  0.4307  0.5119
  475MPD2    H7 7130   4.411   3.467  10.468  1.1221 -0.0304  1.6335
  476TMC3    C1 7131   4.577   3.652  10.487  0.3361  0.1399  1.1045
  476TMC3    C2 7132   4.549   3.650  10.358 -1.0216  0.4663  0.5890
  476TMC3    C3 7133   4.605   3.749  10.283  0.7075  0.2079  0.0145
  476TMC3    C4 7134   4.672   3.730  10.544  0.2256 -0.5207 -0.7449
  476TMC3    C5 7135   0.005   3.813  10.463 -0.0774  0.6889 -1.2149
  476TMC3    C6 7136   4.705   3.825  10.330  0.2199  0.6178  0.0937
  476TMC3     C 7137   4.466   3.629  10.582  0.4013  0.5306  0.3036
  476TMC3     O 7138   4.473   3.678  10.696 -0.1165 -0.2018  0.9433
  476TMC3     H 7139   4.468   3.591  10.317 -0.6558  0.0650  0.4471
  476TMC3    H1 7140   4.685   3.733  10.652  3.8677  0.4826 -1.2222
  476TMC3    H2 7141   0.017   3.897  10.269  2.4573 -2.2530 -1.3729
  476TMC3    C7 7142   0.088   3.918  10.511  0.0781 -0.6785  0.1907
  476TMC3    C8 7143   4.501   3.853  10.244  0.6002 -0.0452 -0.0263
  476TMC3    O1 7144   0.164   3.965  10.428  0.4754  0.4020 -0.1605
  476TMC3    O2 7145   4.526   3.969  10.286  0.0190 -0.8050 -0.5323
  477MPD2     C 7146   1.912   0.250  11.371 -0.1677 -0.1261  0.4330
  477MPD2    C1 7147   1.841   0.280  11.477 -0.0167 -0.3868 -0.3787
  477MPD2    C2 7148   1.875   0.229  11.601  0.0370  0.2016  0.4288
  477MPD2    C3 7149   1.996   0.169  11.623  0.4099  0.2848 -0.1512
  477MPD2    C4 7150   2.068   0.136  11.516 -0.0332  0.2356  0.5497
  477MPD2    C5 7151   2.028   0.177  11.390  0.5928 -0.2992 -0.5156
  477MPD2     H 7152   1.810   0.246  11.686  1.2800 -2.7778  1.9586
  477MPD2    H1 7153   2.156   0.077  11.540 -0.5809 -0.4160  0.9697
  477MPD2    H2 7154   1.879   0.289  11.276 -0.5961 -1.7125 -0.0737
  477MPD2    H3 7155   2.080   0.136  11.305 -0.1799 -0.5429 -0.8746
  477MPD2     N 7156   2.025   0.124  11.757 -0.2685  0.0873 -0.1300
  477MPD2    H5 7157   1.953   0.140  11.827  1.5574  1.1773  1.5476
  477MPD2    N1 7158   1.724   0.362  11.456  0.0676  0.2231 -0.1508
  477MPD2    H7 7159   1.724   0.422  11.374  1.1791  3.3261  2.1247
  478TMC3    C1 7160   1.572   0.520  11.523 -0.1564 -0.3439  0.2719
  478TMC3    C2 7161   1.558   0.594  11.643 -0.1005  0.0693  0.6246
  478TMC3    C3 7162   1.597   0.727  11.642 -0.5803 -0.2065  0.2526
  478TMC3    C4 7163   1.612   0.577  11.405  1.0707 -0.0692  0.3869
  478TMC3    C5 7164   1.637   0.712  11.413 -0.7285 -0.2592  0.1092
  478TMC3    C6 7165   1.638   0.785  11.527  0.1538 -0.3153  0.2560
  478TMC3     C 7166   1.616   0.387  11.543 -0.3016  1.0857 -0.3275
  478TMC3     O 7167   1.587   0.340  11.651 -0.2006 -0.2262  0.4807
  478TMC3     H 7168   1.529   0.550  11.738 -0.0186 -0.4549  0.4094
  478TMC3    H1 7169   1.583   0.525  11.314 -0.0504  2.5608 -0.7446
  478TMC3    H2 7170   1.682   0.884  11.530 -0.9232  0.2337 -1.6840
  478TMC3    C7 7171   1.644   0.781  11.292  0.9249 -0.7359  0.1283
  478TMC3    C8 7172   1.572   0.807  11.766 -0.2894  0.5733 -0.2201
  478TMC3    O1 7173   1.723   0.874  11.274  0.4691  0.3224 -0.6332
  478TMC3    O2 7174   1.568   0.749  11.872 -0.2414 -0.3727 -0.0064
  479MPD2     C 7175   1.051   2.563  15.212  0.2940 -0.1564  0.1313
  479MPD2    C1 7176   1.005   2.487  15.316  0.7436 -0.7610 -0.1180
  479MPD2    C2 7177   1.067   2.506  15.440 -0.0109 -1.3380  0.1561
  479MPD2    C3 7178   1.169   2.602  15.459 -0.1892  0.5141  0.3827
  479MPD2    C4 7179   1.223   2.658  15.343  0.4385 -0.0540  0.5943
  479MPD2    C5 7180   1.157   2.648  15.222  0.3261  0.8037 -0.0056
  479MPD2     H 7181   1.045   2.440  15.522  1.1497 -0.1399  1.4266
  479MPD2    H1 7182   1.303   2.731  15.348 -1.3317  1.9915 -1.1899
  479MPD2    H2 7183   0.995   2.558  15.119 -0.4643  1.2818  0.5147
  479MPD2    H3 7184   1.201   2.694  15.134  1.3929 -0.7246 -0.2695
  479MPD2     N 7185   1.234   2.628  15.585 -0.0508 -0.0870  0.0136
  479MPD2    H5 7186   1.321   2.679  15.575 -0.4067 -0.1486 -3.3937
  479MPD2    N1 7187   0.890   2.409  15.289  0.3628  0.4924 -0.4407
  479MPD2    H7 7188   0.858   2.400  15.194 -1.2573  2.6645 -0.0819
  480TMC3    C1 7189   0.891   2.455  15.873  0.1830  0.0355 -0.4213
  480TMC3    C2 7190   0.786   2.514  15.808 -0.3664  0.3448  0.0954
  480TMC3    C3 7191   0.810   2.612  15.711  0.0994  0.5529  0.0422
  480TMC3    C4 7192   1.021   2.473  15.834  0.5897  1.1717  0.9565
  480TMC3    C5 7193   1.040   2.558  15.728  0.5720  0.5667 -0.5365
  480TMC3    C6 7194   0.937   2.640  15.673  0.6114  0.4163 -0.8623
  480TMC3     C 7195   0.864   2.326  15.945 -0.3300 -0.6083 -0.4506
  480TMC3     O 7196   0.956   2.246  15.946 -0.4614  0.1218 -0.2040
  480TMC3     H 7197   0.687   2.487  15.842 -0.0168 -0.1243  0.7519
  480TMC3    H1 7198   1.097   2.407  15.874  1.3107 -0.3386 -2.8308
  480TMC3    H2 7199   0.962   2.719  15.603 -0.2770  1.9399  0.5546
  480TMC3    C7 7200   1.179   2.598  15.715 -0.7108 -0.1371 -0.0222
  480TMC3    C8 7201   0.702   2.616  15.618 -0.1772  0.1204  0.0602
  480TMC3    O1 7202   1.247   2.595  15.815  0.0534  0.1698  0.4246
  480TMC3    O2 7203   0.602   2.554  15.648  0.1271  0.6622 -0.3718
  481MPD2     C 7204   2.975   2.062  14.110 -0.0113 -0.4600 -0.2346
  481MPD2    C1 7205   2.863   1.985  14.099  0.1575 -0.5404 -0.0696
  481MPD2    C2 7206   2.800   1.936  14.209  0.2755 -0.3075  0.0409
  481MPD2    C3 7207   2.851   1.966  14.335 -0.5696 -0.7135  0.5751
  481MPD2    C4 7208   2.965   2.042  14.347  0.1276  0.0322  0.0645
  481MPD2    C5 7209   3.026   2.088  14.235  0.2752  0.1246  0.0896
  481MPD2     H 7210   2.720   1.865  14.188  0.5642 -0.7928  0.5744
  481MPD2    H1 7211   3.012   2.070  14.441 -1.0975  2.0537  0.0731
  481MPD2    H2 7212   3.032   2.101  14.026 -1.3203  2.6484  0.2999
  481MPD2    H3 7213   3.121   2.141  14.241  2.1215 -3.4187  2.7520
  481MPD2     N 7214   2.793   1.918  14.460  0.2042  0.0190 -0.6735
  481MPD2    H5 7215   2.853   1.911  14.542  0.8702 -2.2198 -1.3488
  481MPD2    N1 7216   2.824   1.974  13.966  0.0248  0.1950  0.2875
  481MPD2    H7 7217   2.881   2.014  13.892 -0.0659 -2.2880 -1.1321
  482TMC3    C1 7218   2.699   1.890  13.778 -0.9597 -0.2889 -0.3755
  482TMC3    C2 7219   2.620   1.784  13.735  0.3154  0.1343  0.2549
  482TMC3    C3 7220   2.622   1.753  13.604 -0.7557  0.4282 -0.0964
  482TMC3    C4 7221   2.778   1.965  13.692  0.3090  0.3452  0.5074
  482TMC3    C5 7222   2.770   1.924  13.562 -0.1485 -0.7912 -0.1744
  482TMC3    C6 7223   2.711   1.811  13.517 -0.4084  0.0043  0.3876
  482TMC3     C 7224   2.712   1.902  13.923  0.1829 -0.0488 -0.6274
  482TMC3     O 7225   2.624   1.845  13.989  0.3758  0.2719 -0.1105
  482TMC3     H 7226   2.543   1.745  13.801 -0.2550  0.1405 -0.4065
  482TMC3    H1 7227   2.836   2.053  13.717 -1.0067  0.7387  2.1404
  482TMC3    H2 7228   2.712   1.782  13.412  1.0352 -0.1901  0.4600
  482TMC3    C7 7229   2.852   2.004  13.464  0.1064 -0.2900  0.1077
  482TMC3    C8 7230   2.535   1.649  13.562 -0.1377 -0.8135  0.0753
  482TMC3    O1 7231   2.929   2.090  13.505  0.1325 -0.0969 -0.2636
  482TMC3    O2 7232   2.507   1.568  13.648 -0.0173 -0.1110  0.3477
  483TMC3    C1 7233   0.481   0.552   1.155 -0.4782  0.1197 -0.0492
  483TMC3    C2 7234   0.561   0.631   1.078 -0.0998  0.5965 -0.1040
  483TMC3    C3 7235   0.666   0.572   1.018  0.0949 -0.4487 -0.0065
  483TMC3    C4 7236   0.498   0.419   1.158  0.2544 -0.0107  0.0091
  483TMC3    C5 7237   0.593   0.362   1.083  0.5192 -0.1848 -0.0743
  483TMC3    C6 7238   0.685   0.442   1.017  0.1509  0.3386  0.5542
  483TMC3     C 7239   0.346   0.590   1.148 -0.1299 -1.1123  0.0975
  483TMC3     O 7240   0.310   0.698   1.184 -0.5986  0.1176 -0.0742
  483TMC3     H 7241   0.548   0.738   1.072  0.5437  0.7599  1.5214
  483TMC3    H1 7242   0.426   0.357   1.211 -0.2042 -0.3142 -0.9808
  483TMC3    H2 7243   0.768   0.400   0.961  1.2718  1.0463  1.6671
  483TMC3    C7 7244   0.533   0.255   1.000  0.3463 -0.0043 -0.3225
  483TMC3    C8 7245   0.729   0.660   0.912 -0.4522 -0.1909 -1.0926
  483TMC3    O1 7246   0.411   0.247   1.005  0.2314 -0.6036  0.2456
  483TMC3    O2 7247   0.645   0.722   0.852 -0.1719  0.3466 -0.1083
  484MPD2     C 7248   3.214   3.729  12.457 -0.4479 -0.2560  0.4501
  484MPD2    C1 7249   3.220   3.638  12.560 -0.6133  0.4869 -0.4074
  484MPD2    C2 7250   3.339   3.612  12.633  0.9952  0.1136  0.0301
  484MPD2    C3 7251   3.455   3.685  12.598  0.8206 -0.6434  0.1456
  484MPD2    C4 7252   3.449   3.760  12.481 -0.1708  0.1426 -0.9170
  484MPD2    C5 7253   3.331   3.777  12.410 -0.2184 -0.7500  0.1290
  484MPD2     H 7254   3.337   3.527  12.699  0.4550  0.7709  0.8537
  484MPD2    H1 7255   3.537   3.814  12.447  0.5701  0.5785  1.6634
  484MPD2    H2 7256   3.120   3.754  12.410 -0.3685  0.5284  0.7060
  484MPD2    H3 7257   3.329   3.834  12.317 -2.8641 -1.1478 -0.0589
  484MPD2     N 7258   3.580   3.677  12.662 -0.5264  0.4315 -0.0544
  484MPD2    H5 7259   3.660   3.711  12.611 -1.0182 -0.0382 -1.1433
  484MPD2    N1 7260   3.096   3.565  12.594  0.0374 -0.4142 -0.0066
  484MPD2    H7 7261   3.013   3.607  12.553  0.5696  0.6290 -0.0261
  485TMC3    C1 7262   3.742   3.621  12.823 -0.0832  0.1115 -0.2559
  485TMC3    C2 7263   3.779   3.552  12.932  0.4542  0.2211  0.2644
  485TMC3    C3 7264   3.899   3.574  12.997  0.0559 -0.4799  0.3772
  485TMC3    C4 7265   3.835   3.710  12.770 -0.0446 -0.0317  0.0283
  485TMC3    C5 7266   3.954   3.730  12.832 -0.0408  0.2504  0.3807
  485TMC3    C6 7267   3.986   3.666  12.951  0.1779  0.2133 -0.4556
  485TMC3     C 7268   3.609   3.595  12.768 -0.2315  0.1775 -0.7262
  485TMC3     O 7269   3.524   3.535  12.831  0.2479 -0.5778 -0.0145
  485TMC3     H 7270   3.700   3.493  12.978  1.0724 -0.2988  0.6675
  485TMC3    H1 7271   3.815   3.770  12.681  1.2569 -0.7583 -0.7559
  485TMC3    H2 7272   4.087   3.677  12.989  0.9066 -3.3963 -1.4256
  485TMC3    C7 7273   4.068   3.739  12.751 -0.3544  0.3287 -0.1797
  485TMC3    C8 7274   3.966   3.462  13.044  0.7333  0.3251 -0.0374
  485TMC3    O1 7275   4.174   3.762  12.802 -0.7431 -0.1263  0.2499
  485TMC3    O2 7276   4.065   3.472  13.113 -0.2484  0.4949  0.0894
  486MPD2     C 7277   0.711   2.160  13.268  0.0201 -0.2430 -0.5688
  486MPD2    C1 7278   0.703   2.189  13.134 -0.6321  0.3381  0.5393
  486MPD2    C2 7279   0.705   2.321  13.092  0.6794  0.6354  0.2458
  486MPD2    C3 7280   0.677   2.422  13.185  0.1613 -0.4616 -0.5139
  486MPD2    C4 7281   0.668   2.391  13.329 -0.4602  0.3185  0.3444
  486MPD2    C5 7282   0.698   2.261  13.360 -0.3246 -0.1342  0.5456
  486MPD2     H 7283   0.722   2.348  12.989  1.7091 -1.2195 -0.0658
  486MPD2    H1 7284   0.649   2.462  13.408  1.3606  0.8435  0.3014
  486MPD2    H2 7285   0.708   2.060  13.310  0.3014 -0.0516 -0.0943
  486MPD2    H3 7286   0.700   2.231  13.465 -0.7945 -1.7331  0.1032
  486MPD2     N 7287   0.681   2.558  13.138 -0.0991 -0.5007  0.0594
  486MPD2    H5 7288   0.708   2.575  13.041  0.2964  1.0132  0.4255
  486MPD2    N1 7289   0.708   2.082  13.044  0.1876 -0.3492 -0.2011
  486MPD2    H7 7290   0.738   1.991  13.077  0.9451 -0.3061 -0.7771
  487TMC3    C1 7291   0.678   1.955  12.849  0.9827 -0.1168 -0.0460
  487TMC3    C2 7292   0.551   1.918  12.808  0.1336 -0.2811  0.4383
  487TMC3    C3 7293   0.512   1.791  12.814  0.2147  0.3344 -0.1928
  487TMC3    C4 7294   0.768   1.868  12.898 -0.6222 -0.0383 -0.1367
  487TMC3    C5 7295   0.722   1.741  12.911 -0.1902  0.0310 -0.1774
  487TMC3    C6 7296   0.602   1.695  12.860 -0.5312 -0.5745  0.7036
  487TMC3     C 7297   0.687   2.086  12.903 -0.4386 -1.0518 -0.4404
  487TMC3     O 7298   0.621   2.171  12.845 -0.0108  0.6033  0.2190
  487TMC3     H 7299   0.480   1.998  12.791 -0.0975 -0.6620 -0.3541
  487TMC3    H1 7300   0.859   1.906  12.943  0.0157 -1.3097 -0.3817
  487TMC3    H2 7301   0.586   1.591  12.834 -0.5394 -0.3864 -0.0561
  487TMC3    C7 7302   0.718   1.712  13.046  0.3787  0.1115  0.1082
  487TMC3    C8 7303   0.399   1.782  12.907 -0.8082 -0.0725 -0.3501
  487TMC3    O1 7304   0.767   1.795  13.120  0.3779 -0.5521 -0.0343
  487TMC3    O2 7305   0.401   1.859  13.005 -0.0704 -0.1226  0.3830
  488MPD2     C 7306   0.936   3.911  15.837  0.7308 -0.1104 -0.3470
  488MPD2    C1 7307   0.917   4.034  15.897 -0.4500  0.0190  0.0577
  488MPD2    C2 7308   0.853   4.039  16.022  0.0477 -0.1245 -0.0819
  488MPD2    C3 7309   0.784   3.930  16.081  0.3132 -0.2593  0.1065
  488MPD2    C4 7310   0.802   3.809  16.013  0.6563 -0.5529 -0.2263
  488MPD2    C5 7311   0.882   3.801  15.895 -0.4943  0.0684  0.3410
  488MPD2     H 7312   0.831   4.134  16.069  0.9258 -0.0231  0.1136
  488MPD2    H1 7313   0.754   3.721  16.053 -0.8565  0.1897 -0.4159
  488MPD2    H2 7314   0.978   3.897  15.739 -0.8654 -1.3153 -0.8692
  488MPD2    H3 7315   0.892   3.702  15.850  0.2261  0.2401  0.1265
  488MPD2     N 7316   0.734   3.949  16.212  0.5650 -0.0620 -0.1167
  488MPD2    H5 7317   0.733   4.042  16.254 -1.8008 -0.2213  0.1670
  488MPD2    N1 7318   0.946   4.159  15.837 -0.6321 -0.3689  0.0111
  488MPD2    H7 7319   0.929   4.241  15.893  0.8257 -0.7326  0.9830
  489TMC3    C1 7320   0.608   3.895  16.390  0.5790 -0.2095 -0.2164
  489TMC3    C2 7321   0.654   4.001  16.451 -0.5570  0.4094 -0.4904
  489TMC3    C3 7322   0.563   4.079  16.516  0.4009  0.5827 -0.5084
  489TMC3    C4 7323   0.480   3.854  16.376  1.0581 -0.0747  0.1050
  489TMC3    C5 7324   0.392   3.938  16.440 -0.0457  0.0123 -0.1455
  489TMC3    C6 7325   0.432   4.043  16.515  0.3098 -0.2691  0.0703
  489TMC3     C 7326   0.693   3.844  16.294  0.0946 -0.7794 -0.1013
  489TMC3     O 7327   0.693   3.724  16.275 -0.0315  0.3638 -0.6360
  489TMC3     H 7328   0.759   4.019  16.471 -0.6525  1.4221 -0.8878
  489TMC3    H1 7329   0.449   3.775  16.309  2.6644 -0.1376 -0.5415
  489TMC3    H2 7330   0.359   4.113  16.554 -1.1326 -2.8330  1.9700
  489TMC3    C7 7331   0.254   3.897  16.427  0.3500 -0.7772  0.2053
  489TMC3    C8 7332   0.620   4.187  16.598 -0.3070  0.3281 -0.7002
  489TMC3    O1 7333   0.236   3.818  16.335 -0.2636 -0.1713  0.2508
  489TMC3    O2 7334   0.740   4.208  16.577 -0.0905 -0.3129 -0.3281
  490MPD2     C 7335   0.732   3.648  17.532  0.4441  0.0998  0.0668
  490MPD2    C1 7336   0.789   3.618  17.651 -0.2417  0.2474 -0.4445
  490MPD2    C2 7337   0.846   3.718  17.733 -0.3067 -0.0134 -0.1116
  490MPD2    C3 7338   0.836   3.851  17.696 -0.5196  0.1071 -0.0758
  490MPD2    C4 7339   0.781   3.877  17.572 -0.1788  0.3330 -0.6699
  490MPD2    C5 7340   0.732   3.783  17.496  0.0055  0.0601 -1.2349
  490MPD2     H 7341   0.899   3.692   0.065 -0.1327 -0.4894 -0.3516
  490MPD2    H1 7342   0.766   3.982  17.547  0.3012  0.4540 -0.4405
  490MPD2    H2 7343   0.682   3.571  17.474 -1.4278  0.3198  1.3760
  490MPD2    H3 7344   0.666   3.816  17.417  0.0833 -0.7547 -1.6407
  490MPD2     N 7345   0.889   3.968   0.001 -0.5701 -0.6887 -0.2919
  490MPD2    H5 7346   0.892   4.044  17.692 -1.2453  0.2180  0.7033
  490MPD2    N1 7347   0.819   3.479  17.665 -0.7825 -0.2111 -0.0057
  490MPD2    H7 7348   0.797   3.420  17.585 -0.4743  0.7549 -0.8060
  491TMC3    C1 7349   0.912   3.284  17.743  0.3837  0.5095 -0.2746
  491TMC3    C2 7350   0.889   3.192   0.082 -0.1210  1.0056  0.0194
  491TMC3    C3 7351   0.912   3.062   0.063 -0.6223 -0.5023 -0.5158
  491TMC3    C4 7352   0.957   3.256  17.616  0.3144  0.4167 -0.2186
  491TMC3    C5 7353   0.974   3.120  17.597  0.1169 -0.2756 -0.1330
  491TMC3    C6 7354   0.954   3.026  17.693  1.1395 -0.2955 -0.1855
  491TMC3     C 7355   0.878   3.423   0.019 -0.5786 -0.5003 -0.3025
  491TMC3     O 7356   0.888   3.464   0.133 -0.0440  0.3429  0.4217
  491TMC3     H 7357   0.857   3.224   0.181 -1.6389 -0.7344  0.0846
  491TMC3    H1 7358   0.955   3.318  17.527  0.9581 -0.5863 -0.9207
  491TMC3    H2 7359   0.968   2.921  17.672 -2.5236 -1.0950  1.3779
  491TMC3    C7 7360   1.002   3.065  17.468 -0.1310  0.3835 -0.1974
  491TMC3    C8 7361   0.879   2.959   0.160 -0.0992  0.0886  0.8966
  491TMC3    O1 7362   0.950   2.955  17.447 -0.0905 -0.5005 -0.5996
  491TMC3    O2 7363   0.813   2.999   0.256 -1.0665  0.1954 -0.3997
  492MPD2     C 7364   1.531   4.048  11.686 -0.2236  0.2808  0.0315
  492MPD2    C1 7365   1.477   3.972  11.585  0.3542 -0.2518  0.7115
  492MPD2    C2 7366   1.453   3.837  11.616 -0.0127  0.1952  0.6318
  492MPD2    C3 7367   1.484   3.789  11.739  0.0927  0.5582  0.4226
  492MPD2    C4 7368   1.543   3.869  11.839  0.3262 -0.0750  0.7912
  492MPD2    C5 7369   1.568   3.998  11.806  0.5880  0.8258 -0.5239
  492MPD2     H 7370   1.397   3.776  11.546  0.9333  1.3045 -1.0658
  492MPD2    H1 7371   1.571   3.831  11.936  0.6061 -1.0308  0.3399
  492MPD2    H2 7372   1.561   4.151  11.669  3.0454 -0.4892  1.0856
  492MPD2    H3 7373   1.622   4.060  11.876  1.8246 -0.5452 -0.2625
  492MPD2     N 7374   1.472   3.650  11.769 -0.7502  0.0409  0.6720
  492MPD2    H5 7375   1.491   3.621  11.864  0.9467  0.4490  0.4525
  492MPD2    N1 7376   1.442   4.035  11.459 -0.5622 -0.4917  0.2145
  492MPD2    H7 7377   1.471   4.132  11.456  1.2035 -1.0210  0.1820
  493TMC3    C1 7378   1.371   4.072  11.233  0.4008 -0.0088 -0.4869
  493TMC3    C2 7379   1.471   4.168  11.219  0.6083 -0.6185 -0.0501
  493TMC3    C3 7380   1.468   4.242  11.100  0.6199 -0.2372  0.0598
  493TMC3    C4 7381   1.270   4.052  11.146 -0.9314 -0.1954  0.7722
  493TMC3    C5 7382   1.275   4.123  11.027  0.1979 -0.4236 -0.7910
  493TMC3    C6 7383   1.375   4.213  11.001 -0.4692  0.1953  0.2557
  493TMC3     C 7384   1.370   3.983  11.354 -0.1590 -0.2060 -0.6635
  493TMC3     O 7385   1.309   3.879  11.349 -0.1512 -0.8209 -0.1586
  493TMC3     H 7386   1.553   4.177  11.289 -0.7502  2.1881  1.1778
  493TMC3    H1 7387   1.180   4.000  11.177 -0.9951 -1.8238 -2.1405
  493TMC3    H2 7388   1.374   4.257  10.902  1.0683 -1.5902 -0.5598
  493TMC3    C7 7389   1.202   4.060  10.917  0.4084 -0.0297 -0.5356
  493TMC3    C8 7390   1.599   4.303  11.059  0.1718 -0.0154 -0.0139
  493TMC3    O1 7391   1.183   4.120  10.811  0.2204  0.2385  0.3753
  493TMC3    O2 7392   1.697   4.251  11.112  0.0683 -0.4181  0.0301
  494TMC3    C1 7393   1.660   0.642   0.075 -0.1841  0.1531  0.2667
  494TMC3    C2 7394   1.673   0.514   0.100 -0.0226 -0.0014 -0.5395
  494TMC3    C3 7395   1.776   0.447   0.032  0.2372 -0.3402 -0.3515
  494TMC3    C4 7396   1.702   0.708  17.721  0.1423  1.0109 -0.2118
  494TMC3    C5 7397   1.795   0.637  17.652 -0.1186 -0.0472 -0.0433
  494TMC3    C6 7398   1.832   0.512  17.684  0.0152  0.4875  0.4114
  494TMC3     C 7399   1.691   0.716   0.190 -0.5689  0.1276  0.3294
  494TMC3     O 7400   1.761   0.659   0.275 -0.3717  0.9247  0.0332
  494TMC3     H 7401   1.624   0.481   0.191  1.8005  0.1455  0.4887
  494TMC3    H1 7402   1.686   0.815  17.712  0.7536  0.8488 -2.9484
  494TMC3    H2 7403   1.916   0.463  17.635 -3.2846 -4.0604 -0.6340
  494TMC3    C7 7404   1.868   0.699  17.550 -0.4265  1.0000  0.3115
  494TMC3    C8 7405   1.847   0.338   0.099  0.1518  0.0796  0.3008
  494TMC3    O1 7406   1.966   0.650  17.504 -0.3121 -0.0676  0.0911
  494TMC3    O2 7407   1.969   0.318   0.078  0.0216  0.7031 -0.0902
  495TMC3    C1 7408   1.005   2.766  14.721 -0.2230 -1.0451 -0.3378
  495TMC3    C2 7409   0.925   2.813  14.622  0.1556  0.1429 -0.6944
  495TMC3    C3 7410   0.801   2.867  14.650 -0.0407 -0.7722  0.1639
  495TMC3    C4 7411   0.983   2.805  14.847  0.2044 -0.2449  0.6182
  495TMC3    C5 7412   0.862   2.863  14.875 -0.3851  0.0022 -0.4940
  495TMC3    C6 7413   0.765   2.881  14.781  0.0370 -0.2099  0.3275
  495TMC3     C 7414   1.028   2.620  14.718 -0.2048 -0.8531 -0.8985
  495TMC3     O 7415   1.012   2.555  14.823 -0.0617  0.2238  0.0015
  495TMC3     H 7416   0.954   2.798  14.519  0.2837 -1.1601 -0.4681
  495TMC3    H1 7417   1.048   2.773  14.929  1.1352 -0.7944 -0.3324
  495TMC3    H2 7418   0.664   2.902  14.814 -0.3077 -0.1342 -0.7756
  495TMC3    C7 7419   0.819   2.845  15.010  0.5187 -0.0711 -0.4562
  495TMC3    C8 7420   0.691   2.875  14.550  1.2965 -0.7283 -0.1978
  495TMC3    O1 7421   0.908   2.863  15.094  0.4861 -0.3395  0.2773
  495TMC3    O2 7422   0.576   2.875  14.586  0.1738  0.7066 -0.3765
  496MPD2     C 7423   3.330   2.532  15.652  0.2225 -0.0439 -0.3839
  496MPD2    C1 7424   3.205   2.487  15.616 -0.8917 -0.0028  0.6225
  496MPD2    C2 7425   3.093   2.564  15.662  0.4373 -0.2741 -0.5198
  496MPD2    C3 7426   3.118   2.677  15.740 -0.2573 -0.4147 -0.3883
  496MPD2    C4 7427   3.242   2.708  15.780 -0.0979  0.4784  0.7469
  496MPD2    C5 7428   3.344   2.632  15.738 -0.0997 -0.2013 -0.7387
  496MPD2     H 7429   2.991   2.538  15.636  0.4046 -0.3491 -0.3208
  496MPD2    H1 7430   3.261   2.786  15.852  2.3447 -0.5523  1.2014
  496MPD2    H2 7431   3.413   2.467  15.627  0.1199  0.3667 -1.7856
  496MPD2    H3 7432   3.444   2.646  15.778  0.5015 -0.8945 -1.9935
  496MPD2     N 7433   3.007   2.767  15.765 -0.2922  0.0740  0.3013
  496MPD2    H5 7434   3.014   2.831  15.843  0.8756 -1.1923  1.2385
  496MPD2    N1 7435   3.185   2.369  15.546  0.1719 -0.6560 -0.0124
  496MPD2    H7 7436   3.260   2.301  15.550 -0.5181 -1.4519 -0.4595
  497TMC3    C1 7437   2.783   2.822  15.772  0.0849  0.1777  0.9650
  497TMC3    C2 7438   2.664   2.846  15.716 -0.1657  0.4097  0.1386
  497TMC3    C3 7439   2.547   2.849  15.791 -0.1376 -0.2256  0.3956
  497TMC3    C4 7440   2.792   2.798  15.905  0.4971  0.6297  0.2627
  497TMC3    C5 7441   2.675   2.796  15.977 -0.1720 -0.4799 -0.5035
  497TMC3    C6 7442   2.553   2.819  15.923  0.1642 -0.5189  0.4131
  497TMC3     C 7443   2.894   2.777  15.689  0.4410 -0.7491  0.1292
  497TMC3     O 7444   2.876   2.735  15.575 -0.4042  0.4035 -0.0685
  497TMC3     H 7445   2.669   2.871  15.611  1.1068 -0.3681  0.0046
  497TMC3    H1 7446   2.883   2.770  15.956 -0.4834 -0.5486  1.3859
  497TMC3    H2 7447   2.459   2.813  15.977  0.1037  1.2544  0.4957
  497TMC3    C7 7448   2.674   2.690  16.076  0.1323 -0.5182  0.6260
  497TMC3    C8 7449   2.416   2.849  15.720 -0.7112  0.1967  0.0722
  497TMC3    O1 7450   2.581   2.609  16.061 -0.2611  0.4072  0.2179
  497TMC3    O2 7451   2.323   2.860  15.797 -0.0902  0.7495 -0.2221
  498MPD2     C 7452   3.754   3.737   9.703 -0.2683 -0.1933  0.6351
  498MPD2    C1 7453   3.763   3.856   9.777  0.2274  0.5741 -0.0260
  498MPD2    C2 7454   3.642   3.901   9.833 -0.1180  0.2271 -0.3250
  498MPD2    C3 7455   3.521   3.832   9.810 -0.0556  0.4796 -0.4575
  498MPD2    C4 7456   3.522   3.724   9.726 -0.0693  1.1871 -0.0618
  498MPD2    C5 7457   3.639   3.672   9.683 -0.4163  0.0245 -1.1543
  498MPD2     H 7458   3.642   3.989   9.896  1.8433  2.2517 -3.1517
  498MPD2    H1 7459   3.425   3.678   9.710  0.9162 -0.6493 -0.6872
  498MPD2    H2 7460   3.841   3.684   9.666  0.4337 -0.1907  2.2760
  498MPD2    H3 7461   3.631   3.576   9.633  0.3225 -0.2631 -0.7100
  498MPD2     N 7462   3.405   3.889   9.865 -0.0923 -0.3661  0.5950
  498MPD2    H5 7463   3.417   3.967   9.928  0.5280  1.1072 -1.3425
  498MPD2    N1 7464   3.879   3.933   9.804  0.1351  0.0821 -0.3617
  498MPD2    H7 7465   3.868   4.020   9.855  1.3137  0.9261 -1.5360
  499TMC3    C1 7466   4.107   3.994   9.808  0.4354  0.8520 -0.4774
  499TMC3    C2 7467   4.236   3.952   9.814 -0.5393  0.4015 -0.4854
  499TMC3    C3 7468   4.328   4.050   9.816 -0.2029 -0.0159  0.4300
  499TMC3    C4 7469   4.073   4.125   9.816 -0.3183 -0.3858 -0.6358
  499TMC3    C5 7470   4.172   4.218   9.836  0.2978 -0.7223  0.8280
  499TMC3    C6 7471   4.301   4.185   9.815  0.5236 -0.3592  0.0274
  499TMC3     C 7472   4.004   3.890   9.790 -0.3713 -0.4269  0.1860
  499TMC3     O 7473   4.051   3.790   9.737 -0.0590  0.4808  0.1704
  499TMC3     H 7474   4.255   3.846   9.829 -1.6202  0.3933  0.8106
  499TMC3    H1 7475   3.972   4.159   9.795 -0.6367 -0.6461  0.4795
  499TMC3    H2 7476   4.380   4.259   9.816 -1.0206  1.2711  0.4713
  499TMC3    C7 7477   4.134   4.355   9.814 -0.0677  0.4377 -0.3288
  499TMC3    C8 7478   4.461   4.011   9.868  0.5497 -0.7585 -0.0417
  499TMC3    O1 7479   4.232   4.430   9.806 -0.0909  0.5536  0.3390
  499TMC3    O2 7480   4.525   4.108   9.903 -0.0883 -0.5662 -0.7923
  500MPD2     C 7481   0.430   0.334  11.085  0.0351  0.5969 -0.7605
  500MPD2    C1 7482   0.467   0.417  10.984  0.1406 -0.4921 -0.2392
  500MPD2    C2 7483   0.392   0.414  10.868  0.1436  0.0864  0.2865
  500MPD2    C3 7484   0.275   0.352  10.856  0.3234 -0.7168 -0.5264
  500MPD2    C4 7485   0.237   0.275  10.963  0.5386 -0.3809 -0.1058
  500MPD2    C5 7486   0.301   0.280  11.082 -0.4928  0.0184  0.1250
  500MPD2     H 7487   0.432   0.462  10.779  2.0714  0.3354  1.2877
  500MPD2    H1 7488   0.138   0.231  10.970  1.7393 -2.3870  3.8949
  500MPD2    H2 7489   0.477   0.335  11.182 -1.3256 -0.9565 -0.0813
  500MPD2    H3 7490   0.261   0.226  11.168  1.2562 -0.1184  0.8468
  500MPD2     N 7491   0.202   0.346  10.738  0.2564  0.3669 -0.0908
  500MPD2    H5 7492   0.130   0.275  10.742  1.6354 -0.9443  1.7032
  500MPD2    N1 7493   0.590   0.487  10.991  0.3233 -0.5106  0.1814
  500MPD2    H7 7494   0.610   0.552  10.916 -0.7554 -1.2179 -0.7239
  501TMC3    C1 7495   0.807   0.548  11.054  0.7432 -0.5301  0.6919
  501TMC3    C2 7496   0.795   0.643  10.957  0.3317  0.1399 -0.3827
  501TMC3    C3 7497   0.906   0.680  10.891  0.3090  0.2307 -0.1954
  501TMC3    C4 7498   0.925   0.512  11.100  0.4347 -0.0160  0.6093
  501TMC3    C5 7499   1.035   0.567  11.042  0.6354 -0.0837 -0.3153
  501TMC3    C6 7500   1.033   0.657  10.934 -0.5742 -0.2454  0.0297
  501TMC3     C 7501   0.688   0.472  11.091 -0.0416  0.2671 -0.2925
  501TMC3     O 7502   0.699   0.386  11.180  0.3020  0.3629  0.3633
  501TMC3     H 7503   0.698   0.683  10.927  0.7861 -0.3914 -2.6301
  501TMC3    H1 7504   0.931   0.431  11.172 -1.7494 -0.4304  0.3369
  501TMC3    H2 7505   1.122   0.695  10.885 -0.6075  0.6027  0.6252
  501TMC3    C7 7506   1.163   0.508  11.086  0.6798 -0.3399 -0.1036
  501TMC3    C8 7507   0.891   0.796  10.810 -0.5574  0.0907  0.7838
  501TMC3    O1 7508   1.148   0.425  11.176  0.2590 -0.1753  0.3697
  501TMC3    O2 7509   0.977   0.878  10.837  0.5365 -0.4627 -0.9537
  502TMC3    C1 7510   0.473   3.582  15.041 -0.5114 -0.4956  0.1771
  502TMC3    C2 7511   0.427   3.708  15.049 -0.1180 -0.0519 -0.0259
  502TMC3    C3 7512   0.293   3.722  15.059  0.4990 -0.8927 -0.1060
  502TMC3    C4 7513   0.387   3.472  15.055  0.2922 -0.0446  0.0577
  502TMC3    C5 7514   0.259   3.496  15.080  0.2807  0.0087  0.2940
  502TMC3    C6 7515   0.204   3.620  15.075 -0.1688  0.9471  0.0441
  502TMC3     C 7516   0.587   3.565  15.129  0.2237  0.6605 -0.1527
  502TMC3     O 7517   0.702   3.565  15.083 -0.3366  0.5191  0.3509
  502TMC3     H 7518   0.490   3.795  15.036  0.3523 -0.7909 -2.5105
  502TMC3    H1 7519   0.423   3.370  15.066 -0.0073 -0.0039  1.4527
  502TMC3    H2 7520   0.099   3.644  15.083 -0.2441  1.2491 -1.8110
  502TMC3    C7 7521   0.185   3.375  15.122 -0.2908  0.1312 -0.5069
  502TMC3    C8 7522   0.248   3.862  15.041 -0.2814 -0.9692 -0.3931
  502TMC3    O1 7523   0.253   3.280  15.159  0.2828 -0.6660 -0.4191
  502TMC3    O2 7524   0.331   3.944  15.002  0.4893 -0.0705 -0.4281
  503MPD2     C 7525   2.483   4.434  16.644  0.9557 -0.6769  0.4609
  503MPD2    C1 7526   2.431   4.441  16.772  0.7112 -0.0031  0.4311
  503MPD2    C2 7527   2.425   4.325  16.850  0.7920 -0.5974  0.8112
  503MPD2    C3 7528   2.472   4.200  16.798 -0.1000 -0.8867 -0.4044
  503MPD2    C4 7529   2.519   4.198  16.669  0.4010  0.3434  0.2636
  503MPD2    C5 7530   2.528   4.317  16.597 -0.2538 -0.3035  0.0816
  503MPD2     H 7531   2.386   4.331  16.951  0.1760 -1.6443  0.6355
  503MPD2    H1 7532   2.567   4.113  16.622 -1.2684 -0.4708  0.0320
  503MPD2    H2 7533   2.491   4.522  16.582 -1.7857  0.2003  1.3526
  503MPD2    H3 7534   2.577   4.304  16.501 -2.2008 -1.0719 -0.8047
  503MPD2     N 7535   2.480   4.089  16.885 -1.0785  0.2558 -0.1672
  503MPD2    H5 7536   2.445   4.094  16.981  0.0844  4.3575  0.0527
  503MPD2    N1 7537   2.399   4.578  16.820 -0.7281 -0.2297 -0.3200
  503MPD2    H7 7538   2.366   4.588  16.916  0.3627 -0.4062  0.0773
  504TMC3    C1 7539   2.549   3.885  16.972  0.2929 -0.1246  0.4949
  504TMC3    C2 7540   2.469   3.905  17.080  0.6686  0.2356  0.5328
  504TMC3    C3 7541   2.503   3.842  17.202 -0.2620  0.4222 -0.0173
  504TMC3    C4 7542   2.659   3.808  16.977 -0.0939 -1.0104  0.8410
  504TMC3    C5 7543   2.689   3.741  17.093  0.1033 -0.3201  0.5214
  504TMC3    C6 7544   2.615   3.757  17.214 -0.0518  0.5725 -0.0448
  504TMC3     C 7545   2.542   3.971  16.859 -0.1822  0.8592  0.2150
  504TMC3     O 7546   2.607   3.950  16.757 -0.0986 -0.0036 -0.3642
  504TMC3     H 7547   2.381   3.968  17.070  1.3244  0.9915 -0.4036
  504TMC3    H1 7548   2.720   3.785  16.891 -1.4292 -2.0783  0.1887
  504TMC3    H2 7549   2.640   3.706  17.306 -0.9908 -0.8581 -0.5906
  504TMC3    C7 7550   2.827   3.688  17.085  0.0496  0.3926  0.3987
  504TMC3    C8 7551   2.414   3.872  17.318 -0.4547 -0.2551  0.7630
  504TMC3    O1 7552   2.905   3.735  17.001 -0.1372 -0.1595 -0.2305
  504TMC3    O2 7553   2.309   3.936  17.299 -0.1148 -0.8047 -0.3430
  505MPD2     C 7554   2.358   3.880  10.859  0.0477  0.3154  0.3639
  505MPD2    C1 7555   2.393   3.746  10.863  0.2729  0.1116 -0.4054
  505MPD2    C2 7556   2.504   3.713  10.936 -0.0215  0.1923 -0.6384
  505MPD2    C3 7557   2.592   3.809  10.994  0.8292 -0.1604  0.5597
  505MPD2    C4 7558   2.545   3.939  10.998 -0.1210 -0.0598 -0.2286
  505MPD2    C5 7559   2.424   3.973  10.937  0.3343 -0.0656 -0.4178
  505MPD2     H 7560   2.535   3.609  10.943 -0.7698 -0.2070 -3.3360
  505MPD2    H1 7561   2.603   4.009  11.056  0.3650 -1.4365  0.9640
  505MPD2    H2 7562   2.269   3.909  10.805  0.1609 -4.5344 -2.4495
  505MPD2    H3 7563   2.386   4.075  10.939 -0.8710 -0.4533 -2.5681
  505MPD2     N 7564   2.710   3.775  11.064  0.5106  0.2848  0.2781
  505MPD2    H5 7565   2.769   3.850  11.099  1.3225  0.6722 -1.9032
  505MPD2    N1 7566   2.334   3.655  10.773 -0.2663  0.5404  0.0139
  505MPD2    H7 7567   2.276   3.694  10.699  1.1706  0.4465 -1.1505
  506TMC3    C1 7568   2.292   3.449  10.669  0.2073 -0.0952 -0.8108
  506TMC3    C2 7569   2.309   3.503  10.540 -0.4304 -0.1764 -0.3109
  506TMC3    C3 7570   2.324   3.415  10.430 -0.0882  0.1523  0.3518
  506TMC3    C4 7571   2.312   3.312  10.681  0.6163 -0.4178 -1.0015
  506TMC3    C5 7572   2.332   3.225  10.574 -0.5215 -0.3313  0.0876
  506TMC3    C6 7573   2.328   3.277  10.447 -0.4268  0.0761 -0.0905
  506TMC3     C 7574   2.330   3.519  10.789 -0.1695 -0.1064  0.1149
  506TMC3     O 7575   2.376   3.459  10.886  0.0392 -0.3372  0.0299
  506TMC3     H 7576   2.302   3.609  10.522  0.8418 -0.3018 -1.5349
  506TMC3    H1 7577   2.305   3.271  10.782  1.1530  0.7623 -0.4817
  506TMC3    H2 7578   2.367   3.210  10.371  1.0672 -0.0318  0.7673
  506TMC3    C7 7579   2.435   3.130  10.602 -0.5133  0.7600  0.5352
  506TMC3    C8 7580   2.331   3.473  10.296 -0.1227  0.5596 -0.6552
  506TMC3    O1 7581   2.470   3.054  10.514  0.7677  1.4282 -0.4639
  506TMC3    O2 7582   2.287   3.403  10.205  0.1013 -0.3792  0.0206
  507TMC3    C1 7583   3.415   3.285  14.889 -0.0075 -0.1163 -0.0659
  507TMC3    C2 7584   3.300   3.242  14.820  0.4483 -0.1249 -0.1609
  507TMC3    C3 7585   3.311   3.245  14.684 -0.1996  0.1412  0.2909
  507TMC3    C4 7586   3.525   3.318  14.821 -0.7601 -0.1265  0.7310
  507TMC3    C5 7587   3.530   3.323  14.685 -0.6908  0.5665 -0.0329
  507TMC3    C6 7588   3.422   3.274  14.610 -0.3139 -0.4913 -0.4699
  507TMC3     C 7589   3.383   3.393  14.983  0.4294 -0.5630 -0.8543
  507TMC3     O 7590   3.473   3.452  15.048 -0.3973  0.6844 -0.1152
  507TMC3     H 7591   3.221   3.193  14.875  0.9432  0.7961  1.4006
  507TMC3    H1 7592   3.609   3.355  14.879  0.0769 -0.5260 -0.2288
  507TMC3    H2 7593   3.419   3.288  14.503 -0.6463 -1.2714 -0.5595
  507TMC3    C7 7594   3.577   3.450  14.625  0.0576 -0.2734 -0.6173
  507TMC3    C8 7595   3.191   3.312  14.641 -0.4981 -0.3608 -0.7302
  507TMC3    O1 7596   3.508   3.487  14.530 -0.6250  0.2948  0.3101
  507TMC3    O2 7597   3.100   3.288  14.723 -0.1530  0.2338  0.2291
  508MPD2     C 7598   4.674   0.937  16.399 -0.4184 -0.4493  0.1419
  508MPD2    C1 7599   4.605   1.057  16.401  0.0667 -0.2262  0.1233
  508MPD2    C2 7600   4.587   1.127  16.282 -0.4709  0.0483 -0.0391
  508MPD2    C3 7601   4.637   1.080  16.162  0.2483  0.7760  0.2909
  508MPD2    C4 7602   4.706   0.965  16.160  0.5092  0.7982  0.2591
  508MPD2    C5 7603   4.725   0.896  16.282  0.2665  0.1556 -0.7316
  508MPD2     H 7604   4.531   1.220  16.286 -0.0761  0.3147 -0.6997
  508MPD2    H1 7605   4.736   0.916  16.068 -0.9540  0.7964 -0.2000
  508MPD2    H2 7606   4.694   0.879  16.488 -1.2679 -1.2280 -0.1816
  508MPD2    H3 7607   0.036   0.802  16.299 -0.2165 -0.0221 -0.2469
  508MPD2     N 7608   4.612   1.164  16.051 -0.2451 -0.3523  0.4203
  508MPD2    H5 7609   4.546   1.240  16.058 -1.1458 -0.9828 -1.0777
  508MPD2    N1 7610   4.563   1.099  16.527  0.6449 -0.3579  0.8980
  508MPD2    H7 7611   4.618   1.063  16.605  1.4953 -0.9965  0.0071
  509TMC3    C1 7612   4.557   1.463  15.771 -0.0272  0.2647 -0.1018
  509TMC3    C2 7613   4.652   1.558  15.787 -0.3937  0.6562  0.3419
  509TMC3    C3 7614   0.030   1.517  15.855 -0.0313  0.2715 -0.1594
  509TMC3    C4 7615   4.562   1.339  15.833 -0.3684 -0.2961  0.2968
  509TMC3    C5 7616   4.681   1.307  15.882  0.2233 -0.2863 -0.0020
  509TMC3    C6 7617   0.054   1.391  15.891  0.2815 -0.0495 -0.0927
  509TMC3     C 7618   4.431   1.505  15.711 -0.4753  0.4393  0.3626
  509TMC3     O 7619   4.334   1.436  15.745 -0.0933  0.1996 -0.2855
  509TMC3     H 7620   4.649   1.658  15.746  0.9453  0.4057 -0.3773
  509TMC3    H1 7621   4.486   1.262  15.825 -0.5298 -0.2475  1.2936
  509TMC3    H2 7622   0.138   1.363  15.952  0.5883 -0.0462 -0.5131
  509TMC3    C7 7623   4.691   1.173  15.939  0.1350 -0.8442 -0.3812
  509TMC3    C8 7624   0.123   1.623  15.901 -0.0824  0.2120 -0.2928
  509TMC3    O1 7625   0.047   1.107  15.900  0.2307  0.5519 -0.1678
  509TMC3    O2 7626   0.241   1.587  15.902  0.1131  0.1029  0.2054
  510MPD2     C 7627   1.978   3.178  14.820 -0.4777  0.5318  0.0287
  510MPD2    C1 7628   2.040   3.057  14.796  0.3870  0.8208  0.3586
  510MPD2    C2 7629   2.140   3.045  14.711 -0.0130  0.1225  0.6305
  510MPD2    C3 7630   2.158   3.150  14.619 -0.8541 -0.6966 -0.4632
  510MPD2    C4 7631   2.080   3.263  14.618 -0.2291  0.1503  0.7708
  510MPD2    C5 7632   2.001   3.282  14.730  0.7065 -0.0326 -0.1506
  510MPD2     H 7633   2.205   2.960  14.701 -0.5280 -0.2766  0.6519
  510MPD2    H1 7634   2.084   3.345  14.548 -0.0096  0.9796  1.7558
  510MPD2    H2 7635   1.888   3.193  14.878 -0.2377 -0.0527  0.5482
  510MPD2    H3 7636   1.948   3.376  14.741 -0.8046 -0.9617  0.5195
  510MPD2     N 7637   2.274   3.137  14.537  0.0371  0.0853  0.3782
  510MPD2    H5 7638   2.336   3.059  14.558  1.3149  1.0671  0.3276
  510MPD2    N1 7639   1.994   2.944  14.868  0.1349 -0.0068 -0.5941
  510MPD2    H7 7640   1.930   2.957  14.946 -1.2955 -0.8098 -1.6458
  511TMC3    C1 7641   1.939   2.719  14.909  0.0233  0.6943  0.5782
  511TMC3    C2 7642   1.880   2.766  15.022  0.1779 -0.5130 -0.6207
  511TMC3    C3 7643   1.778   2.684  15.068  0.2197 -0.2998  0.3075
  511TMC3    C4 7644   1.907   2.600  14.844 -0.2303 -0.0460  0.0577
  511TMC3    C5 7645   1.805   2.524  14.895 -0.0268  0.5347  0.7809
  511TMC3    C6 7646   1.746   2.564  15.013 -0.1911  0.3902 -0.0213
  511TMC3     C 7647   2.021   2.811  14.837 -0.5939 -0.4644  0.1439
  511TMC3     O 7648   2.080   2.756  14.745 -0.0606 -0.6096  0.0894
  511TMC3     H 7649   1.919   2.847  15.083 -1.9262  2.1519 -2.8126
  511TMC3    H1 7650   1.954   2.575  14.750  0.1977  0.1787  0.2114
  511TMC3    H2 7651   1.651   2.520  15.042  0.2630 -1.7556 -1.8345
  511TMC3    C7 7652   1.775   2.395  14.834  0.7451 -0.5436 -0.7421
  511TMC3    C8 7653   1.718   2.721  15.197 -0.4231  0.5143  0.3427
  511TMC3    O1 7654   1.813   2.374  14.722 -0.2506 -0.1430 -0.0472
  511TMC3    O2 7655   1.749   2.830  15.247  0.5178 -0.0141 -0.0483
  512TMC3    C1 7656   1.148   2.292  13.626  0.5548  0.4448 -0.0220
  512TMC3    C2 7657   1.267   2.337  13.667 -0.3190 -0.2421  0.2604
  512TMC3    C3 7658   1.365   2.251  13.709 -0.4858  0.4237  0.1443
  512TMC3    C4 7659   1.114   2.157  13.636  0.4816 -0.2718  0.2513
  512TMC3    C5 7660   1.209   2.075  13.690 -0.0221 -0.2898 -0.1277
  512TMC3    C6 7661   1.341   2.118  13.713  0.0572 -0.5598  0.2814
  512TMC3     C 7662   1.041   2.386  13.598  0.3877  0.3200 -0.4799
  512TMC3     O 7663   1.079   2.497  13.553 -0.3368  0.5868 -0.3023
  512TMC3     H 7664   1.276   2.444  13.685  0.6062  0.3056 -3.4314
  512TMC3    H1 7665   1.013   2.124  13.619  0.4708 -0.2624  0.2980
  512TMC3    H2 7666   1.396   2.048  13.774 -0.8791 -0.0529  1.7124
  512TMC3    C7 7667   1.188   1.929  13.676  0.5699  0.6680 -0.2657
  512TMC3    C8 7668   1.482   2.289  13.765  0.5032  0.1042 -0.6447
  512TMC3    O1 7669   1.282   1.862  13.630  0.5188 -0.4191  0.4348
  512TMC3    O2 7670   1.545   2.209  13.832  0.1364  0.0398  0.5867
  513MPD2     C 7671   3.068   1.683  13.409  0.4060  0.1001  0.0225
  513MPD2    C1 7672   3.181   1.757  13.383  0.2957  0.1453 -0.5680
  513MPD2    C2 7673   3.227   1.846  13.478 -0.3990 -0.7286 -0.3249
  513MPD2    C3 7674   3.160   1.861  13.597  0.1846  0.6224  0.2316
  513MPD2    C4 7675   3.059   1.774  13.632  0.2223 -0.5104 -0.5607
  513MPD2    C5 7676   3.012   1.695  13.532  0.1143 -0.8628  0.7893
  513MPD2     H 7677   3.307   1.915  13.453 -0.4157 -1.0693 -1.3215
  513MPD2    H1 7678   3.007   1.770  13.727 -0.5254  0.0194 -0.9555
  513MPD2    H2 7679   3.032   1.613  13.335 -0.0993  0.7709 -0.3672
  513MPD2    H3 7680   2.925   1.636  13.555  0.8284 -1.9698  0.6473
  513MPD2     N 7681   3.204   1.963  13.672  0.5509  0.2059 -0.2431
  513MPD2    H5 7682   3.266   2.030  13.627  2.0119 -0.0695  1.3394
  513MPD2    N1 7683   3.268   1.747  13.270 -0.2869  0.4243 -0.4347
  513MPD2    H7 7684   3.343   1.816  13.278 -0.6632  0.9236 -1.2022
  514TMC3    C1 7685   3.341   1.703  13.045  0.2038  0.4567  0.5410
  514TMC3    C2 7686   3.310   1.764  12.926  0.2276 -0.3876 -0.3412
  514TMC3    C3 7687   3.386   1.874  12.885 -1.0502 -0.2300  0.0417
  514TMC3    C4 7688   3.459   1.739  13.106  0.3692  0.7363 -0.3760
  514TMC3    C5 7689   3.540   1.841  13.059  0.3710 -0.1513  0.7699
  514TMC3    C6 7690   3.501   1.908  12.950  0.1953  0.2789  0.7187
  514TMC3     C 7691   3.236   1.690  13.145  0.0159 -0.4699  0.5525
  514TMC3     O 7692   3.134   1.628  13.114  0.0399 -0.5545 -0.2771
  514TMC3     H 7693   3.212   1.744  12.884  0.0225 -0.2910  0.0855
  514TMC3    H1 7694   3.489   1.678  13.191  0.0937  0.0369 -0.7893
  514TMC3    H2 7695   3.547   2.002  12.921 -1.9887  1.9702  2.7285
  514TMC3    C7 7696   3.564   1.936  13.166 -0.0853 -0.3309 -0.2075
  514TMC3    C8 7697   3.367   1.929  12.755  0.8415 -0.2407  0.5301
  514TMC3    O1 7698   3.512   1.902  13.272  0.3644  0.1570 -0.2208
  514TMC3    O2 7699   3.263   1.901  12.697 -0.1256 -0.2600 -0.2064
  515MPD2     C 7700   1.579   3.788  14.519 -0.5283  0.9953 -0.4751
  515MPD2    C1 7701   1.473   3.785  14.609  0.1995 -0.4521 -0.1667
  515MPD2    C2 7702   1.482   3.856  14.724  0.5745 -0.2325 -0.1547
  515MPD2    C3 7703   1.592   3.938  14.742 -0.1734 -0.3559 -0.6019
  515MPD2    C4 7704   1.707   3.927  14.661 -0.6246  0.2778 -0.3223
  515MPD2    C5 7705   1.696   3.857  14.547 -0.1530  0.3357  0.8330
  515MPD2     H 7706   1.392   3.866  14.783  0.3469  1.1657 -0.7603
  515MPD2    H1 7707   1.803   3.977  14.669  0.0809 -1.1568  0.3148
  515MPD2    H2 7708   1.568   3.742  14.421  0.3363 -0.5260  0.1422
  515MPD2    H3 7709   1.774   3.854  14.472 -0.9996  3.2127 -0.1515
  515MPD2     N 7710   1.609   4.028  14.846 -0.0345 -0.0136  0.2859
  515MPD2    H5 7711   1.694   4.084  14.851  0.1821 -0.2239 -0.9688
  515MPD2    N1 7712   1.344   3.729  14.575 -0.3011 -0.5458 -0.1651
  515MPD2    H7 7713   1.272   3.729  14.647  0.1796  0.5973  0.3166
  516TMC3    C1 7714   1.166   3.652  14.448 -0.5536 -0.0680 -0.0215
  516TMC3    C2 7715   1.088   3.734  14.373  0.8904 -0.3694  0.6003
  516TMC3    C3 7716   0.956   3.728  14.401 -0.0552  0.3409  0.2645
  516TMC3    C4 7717   1.123   3.580  14.556  1.1286  0.9901  0.2559
  516TMC3    C5 7718   0.985   3.581  14.578  0.2451 -0.4330  0.8077
  516TMC3    C6 7719   0.907   3.649  14.497  0.5215  0.2231 -0.4606
  516TMC3     C 7720   1.307   3.691  14.444 -0.2588  0.8501  0.0308
  516TMC3     O 7721   1.362   3.689  14.335 -0.5335  0.4920 -0.9725
  516TMC3     H 7722   1.121   3.804  14.298  3.0993 -0.2881  1.6394
  516TMC3    H1 7723   1.186   3.511  14.612 -1.2265 -0.1554  1.4822
  516TMC3    H2 7724   0.800   3.653  14.511  0.5037  0.5414 -0.6838
  516TMC3    C7 7725   0.926   3.491  14.676  0.1278  0.2358  0.5053
  516TMC3    C8 7726   0.871   3.823  14.341  0.7522  0.0292 -0.2686
  516TMC3    O1 7727   0.993   3.456  14.769 -0.1331 -0.1865 -0.7573
  516TMC3    O2 7728   0.763   3.835  14.390  0.2670  0.4218 -0.2382
  517MPD2     C 7729   0.451   0.717  17.370 -0.5976  0.1449  0.9894
  517MPD2    C1 7730   0.568   0.676  17.431  0.3741 -0.2588  0.2982
  517MPD2    C2 7731   0.619   0.751  17.536 -0.0408 -0.1184 -0.2687
  517MPD2    C3 7732   0.557   0.869  17.585  0.3635  0.0913  0.5121
  517MPD2    C4 7733   0.450   0.913  17.511 -0.1185  0.5532  0.3528
  517MPD2    C5 7734   0.394   0.836  17.414  0.1300 -0.6581 -0.5574
  517MPD2     H 7735   0.708   0.712  17.585 -2.0763 -1.1057  2.6458
  517MPD2    H1 7736   0.403   1.004  17.547 -1.5296  0.4383 -1.2118
  517MPD2    H2 7737   0.413   0.673  17.279  0.9711  2.6031 -0.8658
  517MPD2    H3 7738   0.295   0.860  17.378  0.2958  0.6036 -0.1830
  517MPD2     N 7739   0.596   0.940  17.703 -0.3191  0.6763  0.7054
  517MPD2    H5 7740   0.550   1.030  17.710  0.1268  0.9251  0.4534
  517MPD2    N1 7741   0.640   0.569  17.384  0.0413 -0.3120  0.0354
  517MPD2    H7 7742   0.732   0.555  17.425 -0.9815  0.3546  2.5683
  518TMC3    C1 7743   0.708   0.398  17.244  0.2206 -0.1756 -0.1544
  518TMC3    C2 7744   0.668   0.270  17.229 -0.3004 -0.8540  0.1422
  518TMC3    C3 7745   0.768   0.185  17.173  0.2349  0.6438  0.4823
  518TMC3    C4 7746   0.834   0.446  17.240  0.4250 -0.7916  0.8009
  518TMC3    C5 7747   0.931   0.357  17.194  0.0384 -0.5826  0.1668
  518TMC3    C6 7748   0.892   0.233  17.152 -0.0098  1.1674  0.1180
  518TMC3     C 7749   0.608   0.493  17.274  0.3006  0.7656  0.3037
  518TMC3     O 7750   0.494   0.465  17.234  0.0222  0.6195  0.2004
  518TMC3     H 7751   0.570   0.235  17.259 -1.4972  1.9011 -0.5892
  518TMC3    H1 7752   0.865   0.548  17.262 -0.4084 -0.5170  0.7078
  518TMC3    H2 7753   0.973   0.179  17.105 -1.0557 -0.7418  0.5065
  518TMC3    C7 7754   1.066   0.409  17.196  0.2937 -0.2109 -0.3207
  518TMC3    C8 7755   0.741   0.046  17.134  0.1698 -0.6091  0.3511
  518TMC3    O1 7756   1.084   0.518  17.248 -0.4822 -0.2007  0.5047
  518TMC3    O2 7757   0.821   4.740  17.055 -0.0540 -0.6498 -0.4016
  519MPD2     C 7758   2.637   4.114  14.122  0.3212 -0.5849 -0.6955
  519MPD2    C1 7759   2.568   4.023  14.048 -0.2459  0.0401 -0.1300
  519MPD2    C2 7760   2.551   3.896  14.089 -0.2271 -0.0769 -0.0213
  519MPD2    C3 7761   2.612   3.852  14.204  0.0814 -0.0102 -0.1520
  519MPD2    C4 7762   2.691   3.943  14.274 -1.2532  0.6595 -0.0452
  519MPD2    C5 7763   2.704   4.067  14.227  0.1617  0.2662 -0.6431
  519MPD2     H 7764   2.501   3.825  14.025 -0.3531  0.9584 -1.0634
  519MPD2    H1 7765   2.750   3.910  14.359  0.1534 -0.2916 -1.4062
  519MPD2    H2 7766   2.649   4.217  14.088  0.6321 -0.3065  0.2409
  519MPD2    H3 7767   2.751   4.149  14.280  1.7968 -1.3842  0.4549
  519MPD2     N 7768   2.627   3.721  14.243  0.0374 -0.6597 -0.2975
  519MPD2    H5 7769   2.712   3.696  14.294 -0.4056  0.2894  0.9077
  519MPD2    N1 7770   2.504   4.050  13.931  0.4675  0.3077 -0.8002
  519MPD2    H7 7771   2.438   3.981  13.897 -0.8447  1.2663 -0.1653
  520TMC3    C1 7772   2.592   3.506  14.171 -0.3928  0.3639  0.4236
  520TMC3    C2 7773   2.575   3.473  14.036  0.3515 -0.1473  0.0482
  520TMC3    C3 7774   2.689   3.427  13.967 -0.2604 -0.6309 -0.2476
  520TMC3    C4 7775   2.711   3.477  14.236 -0.2459  0.1748 -0.0187
  520TMC3    C5 7776   2.817   3.435  14.160 -0.3534 -0.2648  0.1427
  520TMC3    C6 7777   2.809   3.407  14.025  0.5183  0.1341 -0.2913
  520TMC3     C 7778   2.542   3.632  14.190 -0.4195  1.0311 -0.0990
  520TMC3     O 7779   2.426   3.651  14.155  0.3500  0.0639 -0.0729
  520TMC3     H 7780   2.480   3.490  13.987  0.5293  1.5359  0.2840
  520TMC3    H1 7781   2.734   3.484  14.341 -0.3771  0.6817 -0.0236
  520TMC3    H2 7782   2.894   3.368  13.971  1.6515 -0.1701  1.6944
  520TMC3    C7 7783   2.918   3.371  14.238  0.2439  0.2919 -0.6618
  520TMC3    C8 7784   2.693   3.431  13.822 -0.0571 -0.3745  0.0085
  520TMC3    O1 7785   2.884   3.279  14.312 -0.1930  0.2498  0.1007
  520TMC3    O2 7786   2.803   3.428  13.769  0.3916  0.1797  0.6091
  521MPD2     C 7787   3.655   1.551  17.086 -0.6395  0.1748  0.1864
  521MPD2    C1 7788   3.592   1.668  17.054  0.8008 -0.8465 -0.3408
  521MPD2    C2 7789   3.670   1.782  17.059  0.1896  0.0924  0.2166
  521MPD2    C3 7790   3.803   1.782  17.102 -1.2886 -0.0122  0.1217
  521MPD2    C4 7791   3.861   1.658  17.145  0.7732 -0.4435 -0.1819
  521MPD2    C5 7792   3.783   1.544  17.133 -0.4850 -0.3872 -0.6189
  521MPD2     H 7793   3.632   1.878  17.025 -1.5180 -0.2621  1.1027
  521MPD2    H1 7794   3.966   1.637  17.159  0.4539 -2.4460 -0.8722
  521MPD2    H2 7795   3.617   1.450  17.073 -0.1262  0.2873 -2.2071
  521MPD2    H3 7796   3.828   1.446  17.148  1.3138  0.3189 -1.3306
  521MPD2     N 7797   3.873   1.904  17.106  0.8700 -0.1576 -0.0697
  521MPD2    H5 7798   3.825   1.980  17.058 -0.1530 -0.2596  0.7970
  521MPD2    N1 7799   3.460   1.665  17.011  0.0282  0.4718 -0.3376
  521MPD2    H7 7800   3.423   1.576  16.980  1.1011 -0.2366  0.4228
  522TMC3    C1 7801   4.056   2.057  17.133 -0.1257  0.1486 -0.7101
  522TMC3    C2 7802   4.188   2.077  17.160  0.0932 -0.2632 -0.1539
  522TMC3    C3 7803   4.255   2.182  17.110  0.4084 -0.0695  0.1395
  522TMC3    C4 7804   3.989   2.146  17.057 -0.0229 -0.3282  0.0610
  522TMC3    C5 7805   4.055   2.252  17.009 -0.4854  0.6288  0.2814
  522TMC3    C6 7806   4.190   2.278  17.039  0.0401  0.3916 -0.3360
  522TMC3     C 7807   3.999   1.923  17.161 -0.7906 -0.3308  0.0301
  522TMC3     O 7808   4.061   1.841  17.224 -0.2304  0.0947  0.2727
  522TMC3     H 7809   4.243   2.011  17.225  0.3134  0.9589  0.9060
  522TMC3    H1 7810   3.884   2.127  17.039  0.0428  2.5093 -3.1726
  522TMC3    H2 7811   4.248   2.368  17.021  0.1825  0.3789  0.0589
  522TMC3    C7 7812   3.983   2.360  16.938  0.4536 -0.0054 -0.2032
  522TMC3    C8 7813   4.401   2.170  17.102 -0.0464 -0.2288 -0.2332
  522TMC3    O1 7814   4.034   2.471  16.939 -0.1462  0.2879 -0.5387
  522TMC3    O2 7815   4.464   2.274  17.105 -0.3025  0.0145  0.5655
  523MPD2     C 7816   1.161   2.131  10.035  0.6413 -0.5897 -1.1027
  523MPD2    C1 7817   1.042   2.067  10.025 -0.2175  0.1897 -0.7425
  523MPD2    C2 7818   0.929   2.120   9.972 -0.0290  0.3753 -0.2967
  523MPD2    C3 7819   0.937   2.250   9.925  0.2516  0.6122 -0.0470
  523MPD2    C4 7820   1.056   2.317   9.942  0.4518 -0.1406 -0.4824
  523MPD2    C5 7821   1.170   2.263   9.991 -0.5749 -0.6941  0.3665
  523MPD2     H 7822   0.841   2.058   9.961  0.4183 -0.6940  2.2914
  523MPD2    H1 7823   1.065   2.422   9.918 -1.6529  0.5676  1.8377
  523MPD2    H2 7824   1.255   2.094  10.074 -0.2398 -0.7047  0.8887
  523MPD2    H3 7825   1.256   2.326  10.007 -1.6749  1.6147 -2.8228
  523MPD2     N 7826   0.826   2.320   9.862  0.5431 -0.1063  0.1759
  523MPD2    H5 7827   0.839   2.407   9.813 -1.7746  1.2416  1.9551
  523MPD2    N1 7828   1.042   1.940  10.086 -0.0477  0.3053  0.4369
  523MPD2    H7 7829   1.129   1.910  10.130  0.4899  1.4593  0.1694
  524TMC3    C1 7830   0.621   2.362   9.756 -0.1255 -0.0991 -0.5976
  524TMC3    C2 7831   0.517   2.307   9.685 -0.5925 -0.0896 -0.1268
  524TMC3    C3 7832   0.424   2.389   9.622 -0.2617  0.8293 -0.5446
  524TMC3    C4 7833   0.645   2.491   9.758 -0.1730 -0.5110  0.0264
  524TMC3    C5 7834   0.555   2.573   9.685  0.2202  0.0828  0.1869
  524TMC3    C6 7835   0.449   2.524   9.609  0.3212  0.3347  0.0751
  524TMC3     C 7836   0.705   2.266   9.832 -0.1983  0.1105 -0.0444
  524TMC3     O 7837   0.664   2.157   9.858 -0.0341  0.0294  0.3479
  524TMC3     H 7838   0.494   2.201   9.687 -0.1032 -0.1558  1.4938
  524TMC3    H1 7839   0.711   2.538   9.830 -0.3936  0.0234 -0.1136
  524TMC3    H2 7840   0.383   2.580   9.543 -2.8266 -1.4303  1.7417
  524TMC3    C7 7841   0.600   2.702   9.664  0.1885  0.1173  0.2219
  524TMC3    C8 7842   0.322   2.330   9.547  0.0623  0.4312 -0.0803
  524TMC3    O1 7843   0.716   2.722   9.690 -0.2871  0.3770 -0.4858
  524TMC3    O2 7844   0.336   2.211   9.523 -0.3201  0.0774 -0.5759
  525MPD2     C 7845   3.820   3.056  14.626  0.1628  0.8127  0.3393
  525MPD2    C1 7846   3.931   3.039  14.706 -0.1062  1.2900 -0.9323
  525MPD2    C2 7847   4.034   3.133  14.708  0.0887 -0.1889 -0.5519
  525MPD2    C3 7848   4.025   3.251  14.633 -0.3575 -0.0267  0.2894
  525MPD2    C4 7849   3.912   3.266  14.554  0.5662 -0.1464  0.3974
  525MPD2    C5 7850   3.810   3.173  14.555 -0.6255  0.5876  0.1293
  525MPD2     H 7851   4.110   3.120  14.785 -0.6414 -1.3333 -0.0336
  525MPD2    H1 7852   3.893   3.350  14.489 -2.6658 -1.3356 -0.1802
  525MPD2    H2 7853   3.738   2.987  14.615  1.5453 -0.9496  1.2038
  525MPD2    H3 7854   3.713   3.197  14.512 -1.4789 -2.3287  0.4479
  525MPD2     N 7855   4.119   3.360  14.635 -0.5426 -0.4381 -0.7566
  525MPD2    H5 7856   4.111   3.433  14.565  0.2700  0.4836  0.1117
  525MPD2    N1 7857   3.947   2.932  14.800 -0.3392 -0.2471 -0.0466
  525MPD2    H7 7858   4.027   2.931  14.863 -1.8432 -0.4249  1.8792
  526TMC3    C1 7859   3.913   2.758  14.945 -1.0818 -0.0352 -0.5990
  526TMC3    C2 7860   3.831   2.738  15.050  0.1155 -0.0620  0.1278
  526TMC3    C3 7861   3.889   2.727  15.173 -0.8664  0.0859 -0.2548
  526TMC3    C4 7862   4.055   2.754  14.957  0.1498  0.4943  0.8491
  526TMC3    C5 7863   4.103   2.737  15.085  0.5116 -0.3466 -0.0255
  526TMC3    C6 7864   4.022   2.718  15.194 -0.4576  0.0418 -0.4274
  526TMC3     C 7865   3.860   2.836  14.833 -0.0853 -0.3199 -0.4788
  526TMC3     O 7866   3.746   2.818  14.796  0.2150  0.1404  0.5197
  526TMC3     H 7867   3.727   2.763  15.037  0.0050  0.0677  1.2646
  526TMC3    H1 7868   4.116   2.754  14.867  1.0361 -1.7244  1.4562
  526TMC3    H2 7869   4.064   2.710  15.294  0.3318  1.1570 -0.6693
  526TMC3    C7 7870   4.249   2.712  15.111 -0.1633  0.0133 -0.3493
  526TMC3    C8 7871   3.816   2.785  15.288 -0.5670  0.1920 -0.0517
  526TMC3    O1 7872   4.289   2.699  15.225 -0.1814  0.3522 -0.4391
  526TMC3    O2 7873   3.877   2.798  15.394  0.4296 -0.1638 -0.1899
  527MPD2     C 7874   2.441   0.875   1.586  0.3466 -0.1001 -0.5768
  527MPD2    C1 7875   2.408   0.907   1.455  0.2228  0.4840 -1.1640
  527MPD2    C2 7876   2.507   0.931   1.360  0.3712 -0.8827 -0.1345
  527MPD2    C3 7877   2.643   0.930   1.403 -0.6187  0.2889 -0.4198
  527MPD2    C4 7878   2.677   0.907   1.534  0.2760 -0.0267 -0.4962
  527MPD2    C5 7879   2.570   0.883   1.620 -0.3736  0.1534 -0.2308
  527MPD2     H 7880   2.474   0.936   1.257 -2.2606  0.4147  0.7749
  527MPD2    H1 7881   2.773   0.937   1.576  0.0813  0.8472 -0.6595
  527MPD2    H2 7882   2.372   0.854   1.666  0.4172  3.3886  0.3837
  527MPD2    H3 7883   2.588   0.878   1.727 -0.1022 -0.4794 -0.3031
  527MPD2     N 7884   2.736   0.955   1.305 -0.5417  0.4949  0.3769
  527MPD2    H5 7885   2.694   0.995   1.221  0.1137  0.1423 -0.1215
  527MPD2    N1 7886   2.272   0.898   1.406  0.2602  0.4679 -0.6038
  527MPD2    H7 7887   2.252   0.924   1.310  1.2613 -2.2740 -1.5642
  528TMC3    C1 7888   2.051   0.829   1.394  0.2730  0.3164  0.2144
  528TMC3    C2 7889   2.010   0.939   1.328  0.1758 -0.7362 -0.7471
  528TMC3    C3 7890   1.886   0.935   1.268 -0.3383  0.4309 -0.0968
  528TMC3    C4 7891   1.971   0.718   1.415  0.6685 -0.7116  0.2605
  528TMC3    C5 7892   1.843   0.721   1.369 -0.4504 -0.0969 -0.5906
  528TMC3    C6 7893   1.798   0.827   1.295  0.5733 -0.0088  0.3877
  528TMC3     C 7894   2.175   0.836   1.469 -0.6654  0.0557  0.4415
  528TMC3     O 7895   2.180   0.777   1.577  0.0613 -0.5746 -0.1755
  528TMC3     H 7896   2.073   1.026   1.311  1.0145 -0.7124  2.4675
  528TMC3    H1 7897   2.018   0.628   1.454 -1.0621 -2.1574 -0.9609
  528TMC3    H2 7898   1.697   0.842   1.259  0.2357 -1.5695  0.6862
  528TMC3    C7 7899   1.770   0.602   1.346 -0.5541 -0.5933  0.7775
  528TMC3    C8 7900   1.835   1.056   1.198 -0.4334 -0.3506  0.5878
  528TMC3    O1 7901   1.695   0.607   1.252  0.5946  0.2360 -0.3095
  528TMC3    O2 7902   1.922   1.128   1.153 -0.2623 -0.3231  0.0904
  529MPD2     C 7903   4.270   4.519   0.963  0.1211  0.2562 -0.0344
  529MPD2    C1 7904   4.286   4.407   0.880  0.0596 -0.1202  0.1582
  529MPD2    C2 7905   4.228   4.408   0.755 -0.5306  0.3953  0.0450
  529MPD2    C3 7906   4.150   4.512   0.712 -0.1510  0.4558 -0.4726
  529MPD2    C4 7907   4.131   4.621   0.802  0.2343  0.2352 -0.3101
  529MPD2    C5 7908   4.190   4.624   0.928  0.4521  0.4993 -0.3640
  529MPD2     H 7909   4.263   4.325   0.694 -1.9957  0.2157 -0.5571
  529MPD2    H1 7910   4.071   4.707   0.773 -1.3970 -0.7083  0.2631
  529MPD2    H2 7911   4.299   4.515   1.067 -0.0234  1.0265  0.0348
  529MPD2    H3 7912   4.181   4.705   1.000  1.4351  1.7272 -1.6339
  529MPD2     N 7913   4.105   4.519   0.578  0.0312  0.0168 -0.4495
  529MPD2    H5 7914   4.036   4.586   0.546  1.8715  1.3369 -1.7293
  529MPD2    N1 7915   4.372   4.298   0.917 -0.4091  0.5269  0.0000
  529MPD2    H7 7916   4.366   4.220   0.853 -0.5017 -0.7277  1.5410
  530TMC3    C1 7917   4.521   4.146   1.039  0.5553  0.1273 -0.0866
  530TMC3    C2 7918   4.650   4.156   1.076  0.1707 -0.5494  0.1168
  530TMC3    C3 7919   0.002   4.064   1.026  0.3763 -0.1401  0.3107
  530TMC3    C4 7920   4.485   4.051   0.961  0.1203 -0.3247  0.0069
  530TMC3    C5 7921   4.576   3.960   0.920 -0.3361 -0.2409  0.3736
  530TMC3    C6 7922   4.710   3.965   0.939 -1.0201 -0.6361  1.3061
  530TMC3     C 7923   4.457   4.280   1.031  0.1635  0.1591 -0.6376
  530TMC3     O 7924   4.492   4.366   1.109  0.2374  0.9670  0.2423
  530TMC3     H 7925   4.676   4.240   1.139  1.1282 -1.0767  0.4333
  530TMC3    H1 7926   4.377   4.045   0.949  0.1307  2.4887 -1.4250
  530TMC3    H2 7927   0.039   3.888   0.906 -1.3274  0.4014 -1.7550
  530TMC3    C7 7928   4.534   3.829   0.874 -0.2367 -0.3723  0.2738
  530TMC3    C8 7929   0.136   4.076   1.093 -0.4312  0.3179 -0.6718
  530TMC3    O1 7930   4.580   3.790   0.766 -0.5398 -0.4508  0.4124
  530TMC3    O2 7931   0.147   4.175   1.165 -0.6361 -0.4288  0.0901
  531MPD2     C 7932   3.697   2.392  13.376 -0.1910  0.0153  0.4016
  531MPD2    C1 7933   3.617   2.285  13.415  0.1822 -0.1639 -0.1874
  531MPD2    C2 7934   3.591   2.177  13.332 -0.4385 -0.3885  0.1347
  531MPD2    C3 7935   3.660   2.164  13.213  0.1458  0.1757  0.0911
  531MPD2    C4 7936   3.745   2.265  13.170  0.2584  0.5951  0.4262
  531MPD2    C5 7937   3.762   2.379  13.250  0.1438 -0.1527 -0.3935
  531MPD2     H 7938   3.532   2.094  13.368  1.4489 -2.4462 -1.5152
  531MPD2    H1 7939   3.804   2.258  13.080  0.0968 -1.0170  0.4387
  531MPD2    H2 7940   3.724   2.467  13.449  1.0966  0.4768 -0.5578
  531MPD2    H3 7941   3.834   2.456  13.226  1.5382 -0.2546  3.4190
  531MPD2     N 7942   3.645   2.046  13.130 -0.3091 -0.3849 -0.6766
  531MPD2    H5 7943   3.699   2.035  13.045  1.3268 -0.3451  0.3683
  531MPD2    N1 7944   3.562   2.290  13.543 -0.2030 -0.1688 -0.7919
  531MPD2    H7 7945   3.603   2.353  13.612  0.9463  1.0697 -2.6354
  532TMC3    C1 7946   3.427   2.222  13.723 -0.0609 -0.5921  1.0278
  532TMC3    C2 7947   3.296   2.184  13.746 -0.3274 -0.2689  0.4811
  532TMC3    C3 7948   3.266   2.094  13.844 -1.0117 -0.2994  0.1038
  532TMC3    C4 7949   3.527   2.186  13.804 -0.3189  0.7570  0.0625
  532TMC3    C5 7950   3.495   2.120  13.916  0.1235  0.9720 -1.3342
  532TMC3    C6 7951   3.371   2.060  13.934 -0.5581  0.2366  0.3594
  532TMC3     C 7952   3.460   2.206  13.588  0.5460 -0.0255  0.7330
  532TMC3     O 7953   3.386   2.138  13.519 -0.4648 -0.1171 -0.2377
  532TMC3     H 7954   3.214   2.213  13.680 -0.5516 -2.4866 -0.2138
  532TMC3    H1 7955   3.631   2.217  13.795 -0.4926  0.5621 -2.8962
  532TMC3    H2 7956   3.357   1.992  14.017 -0.6300 -0.5460 -0.2943
  532TMC3    C7 7957   3.608   2.061  13.986 -0.3862  0.6827 -0.4796
  532TMC3    C8 7958   3.176   1.990  13.805 -0.1325  0.0728  0.1838
  532TMC3    O1 7959   3.661   2.117  14.082 -0.2566  0.2656 -0.6912
  532TMC3    O2 7960   3.114   1.929  13.891  0.5700 -0.2865 -0.5585
  533TMC3    C1 7961   4.295   3.495  14.714 -0.4091  0.5007 -0.0300
  533TMC3    C2 7962   4.405   3.478  14.796 -0.3885  0.0123  0.6630
  533TMC3    C3 7963   4.451   3.581  14.870  0.0983  0.1743 -0.3470
  533TMC3    C4 7964   4.223   3.610  14.718  0.0618  0.2207 -0.8245
  533TMC3    C5 7965   4.270   3.710  14.804  0.3657  0.0109  0.4269
  533TMC3    C6 7966   4.383   3.699  14.872 -0.1075 -1.1546  0.2608
  533TMC3     C 7967   4.222   3.373  14.727 -0.1688 -0.0249  0.6095
  533TMC3     O 7968   4.247   3.305  14.824  0.2195  0.1178  0.1095
  533TMC3     H 7969   4.467   3.390  14.783 -2.0611 -0.9597 -0.8888
  533TMC3    H1 7970   4.129   3.625  14.667  0.2206 -0.8813 -1.4350
  533TMC3    H2 7971   4.422   3.775  14.939  1.7847 -0.2041 -1.9104
  533TMC3    C7 7972   4.204   3.838  14.776  0.0238  0.2947  0.0159
  533TMC3    C8 7973   4.591   3.592  14.908  0.4310 -0.6078  0.9008
  533TMC3    O1 7974   4.184   3.867  14.657 -0.2172  0.3320 -0.2251
  533TMC3    O2 7975   4.627   3.681  14.980  0.4240  0.3826 -0.3923
  534MPD2     C 7976   2.326   4.520   0.659 -0.0630  0.1936  0.6168
  534MPD2    C1 7977   2.323   4.655   0.620  0.4562  0.3650  0.8418
  534MPD2    C2 7978   2.203   4.725   0.616  0.3641 -0.0395  0.4554
  534MPD2    C3 7979   2.081   4.663   0.642 -0.3693  0.3435 -0.3867
  534MPD2    C4 7980   2.088   4.528   0.670 -0.1279  0.2066  0.1762
  534MPD2    C5 7981   2.207   4.459   0.677  0.5324 -0.0769 -0.1736
  534MPD2     H 7982   2.203   0.093   0.609  0.0462 -0.1979 -1.9343
  534MPD2    H1 7983   1.998   4.470   0.682 -0.7047  1.1418  0.4041
  534MPD2    H2 7984   2.418   4.464   0.649  0.0899 -0.1576  3.9642
  534MPD2    H3 7985   2.203   4.355   0.705  0.8527  0.1485  0.7055
  534MPD2     N 7986   1.957   4.723   0.648 -0.1610 -0.0247 -0.7112
  534MPD2    H5 7987   1.881   4.658   0.665 -1.2625  0.7854 -2.5753
  534MPD2    N1 7988   2.435   4.732   0.604  0.2272  0.1226 -0.4951
  534MPD2    H7 7989   2.414   0.091   0.596 -0.7675 -0.1122 -0.8460
  535TMC3    C1 7990   1.801   0.166   0.648 -0.5273 -1.1154 -0.3001
  535TMC3    C2 7991   1.718   0.108   0.737  0.1258 -0.4470 -0.0650
  535TMC3    C3 7992   1.599   0.170   0.764 -0.5293  0.5295 -0.1425
  535TMC3    C4 7993   1.763   0.280   0.576 -0.1652 -0.1347  0.4208
  535TMC3    C5 7994   1.653   0.349   0.617  0.4173 -0.9621  0.0973
  535TMC3    C6 7995   1.567   0.294   0.710  0.0125 -0.3612 -0.3146
  535TMC3     C 7996   1.935   0.112   0.610 -0.0867 -0.0916  0.0404
  535TMC3     O 7997   2.010   0.190   0.552 -0.0237  0.4090 -0.8378
  535TMC3     H 7998   1.744   0.009   0.771  2.9594 -0.1182 -1.2501
  535TMC3    H1 7999   1.826   0.326   0.501  0.3992 -1.0056  0.3492
  535TMC3    H2 8000   1.472   0.342   0.732 -0.2035 -1.9717  2.3032
  535TMC3    C7 8001   1.591   0.417   0.510 -0.1516  0.3332  0.7085
  535TMC3    C8 8002   1.502   0.085   0.818  0.4363  0.1053  0.7299
  535TMC3    O1 8003   1.596   0.373   0.395 -0.1373  0.4842 -0.3324
  535TMC3    O2 8004   1.385   0.108   0.786  0.0622 -0.5315  0.0131
  536MPD2     C 8005   0.999   3.016  16.356 -0.7143  0.2277 -0.4990
  536MPD2    C1 8006   0.874   2.967  16.394  0.4597 -0.0037  0.0132
  536MPD2    C2 8007   0.761   2.986  16.308 -0.0803 -0.0982  0.0070
  536MPD2    C3 8008   0.780   3.067  16.194  0.7153 -0.1504  0.5396
  536MPD2    C4 8009   0.904   3.115  16.158  0.2011 -0.4802  0.1021
  536MPD2    C5 8010   1.004   3.103  16.248 -0.5047  0.3642  0.7523
  536MPD2     H 8011   0.664   2.946  16.332  0.4944 -2.2716 -1.2685
  536MPD2    H1 8012   0.925   3.173  16.069  1.4158 -2.0675 -0.6512
  536MPD2    H2 8013   1.087   3.003  16.417 -0.0952  1.0937 -1.2179
  536MPD2    H3 8014   1.094   3.160  16.231  0.0031 -0.6271  0.1403
  536MPD2     N 8015   0.680   3.106  16.109  0.8694  0.2346  0.4995
  536MPD2    H5 8016   0.714   3.150  16.024 -0.4290 -0.7967 -0.5375
  536MPD2    N1 8017   0.869   2.894  16.512 -0.7962 -0.2689  0.6204
  536MPD2    H7 8018   0.951   2.895  16.573 -0.4168  2.2586  0.0697
  537TMC3    C1 8019   0.792   2.760  16.690 -0.3286 -0.6807  1.1640
  537TMC3    C2 8020   0.885   2.804  16.776 -0.1555  0.1986 -0.6929
  537TMC3    C3 8021   0.898   2.734  16.888  0.1441 -0.1576 -0.2850
  537TMC3    C4 8022   0.726   2.643  16.700  0.1543  0.6225 -0.3966
  537TMC3    C5 8023   0.734   2.584  16.823  0.1705 -0.4268 -0.3021
  537TMC3    C6 8024   0.830   2.616  16.916  0.7167  0.3733 -0.0745
  537TMC3     C 8025   0.760   2.825  16.568  0.5667  0.0706 -0.1676
  537TMC3     O 8026   0.650   2.809  16.517 -0.0972  0.0404  1.0494
  537TMC3     H 8027   0.910   2.910  16.772 -2.2609  0.5899 -3.5829
  537TMC3    H1 8028   0.657   2.602  16.626 -2.4816  1.6648  1.5134
  537TMC3    H2 8029   0.842   2.555  17.005  1.8492  0.7518  0.0268
  537TMC3    C7 8030   0.624   2.491  16.856  0.6021 -0.2430  0.7115
  537TMC3    C8 8031   0.959   2.803  16.999 -0.3022  0.7480  0.3899
  537TMC3    O1 8032   0.538   2.465  16.772  0.3217 -0.4624  0.0395
  537TMC3    O2 8033   0.920   2.772  17.104  0.2136  0.1647  0.1290
  538TMC3    C1 8034   1.933   1.998  10.811 -0.2318  0.1029 -0.1973
  538TMC3    C2 8035   2.039   2.088  10.841 -0.6344 -0.3590 -0.7819
  538TMC3    C3 8036   2.097   2.151  10.728  0.3702 -0.3588  0.0859
  538TMC3    C4 8037   1.891   1.967  10.681  0.5033  0.6231  0.0404
  538TMC3    C5 8038   1.941   2.048  10.579  0.4961 -0.4230  0.4240
  538TMC3    C6 8039   2.042   2.138  10.602 -0.7182  0.1124  0.4698
  538TMC3     C 8040   1.835   1.966  10.915  0.3803 -0.1235  0.6070
  538TMC3     O 8041   1.715   1.976  10.877  0.1203 -0.0885  0.5846
  538TMC3     H 8042   2.052   2.130  10.940 -0.2222  3.0174 -2.2818
  538TMC3    H1 8043   1.831   1.879  10.659  2.0046  0.0833 -1.8962
  538TMC3    H2 8044   2.077   2.187  10.512  0.7447  1.4946  1.7849
  538TMC3    C7 8045   1.847   2.073  10.473  0.5998 -0.2618  0.1088
  538TMC3    C8 8046   2.171   2.275  10.758 -0.1611  0.4225  0.2651
  538TMC3    O1 8047   1.887   2.130  10.373 -0.3489 -0.4739  0.4293
  538TMC3    O2 8048   2.164   2.317  10.872  0.0792 -0.4180  0.3177
  539MPD2     C 8049   1.604   1.012  11.985  0.4918 -0.3667 -0.2805
  539MPD2    C1 8050   1.563   1.037  11.852 -0.4995 -0.3233 -0.1842
  539MPD2    C2 8051   1.523   1.166  11.815 -0.3195  0.5624  0.9369
  539MPD2    C3 8052   1.517   1.271  11.907 -0.3953 -0.4803 -0.5819
  539MPD2    C4 8053   1.568   1.242  12.028  0.2205 -0.1494  0.1583
  539MPD2    C5 8054   1.601   1.116  12.067 -0.6182 -0.0474  0.2975
  539MPD2     H 8055   1.504   1.185  11.710 -0.2931  1.1776  1.0434
  539MPD2    H1 8056   1.554   1.312  12.110  0.0894  0.0285 -0.0163
  539MPD2    H2 8057   1.638   0.918  12.027 -0.6565 -0.0673  1.3339
  539MPD2    H3 8058   1.632   1.095  12.169 -1.8575 -0.8946  0.5092
  539MPD2     N 8059   1.453   1.393  11.888 -0.8121 -0.4286  0.5554
  539MPD2    H5 8060   1.473   1.462  11.960  1.5553  0.1340 -0.6637
  539MPD2    N1 8061   1.556   0.941  11.744  0.2029 -0.5204  0.2236
  539MPD2    H7 8062   1.538   0.977  11.650  0.2889  0.9362  0.7655
  540TMC3    C1 8063   1.353   1.566  11.763  0.0321  0.4012 -0.5613
  540TMC3    C2 8064   1.343   1.621  11.639  0.4611  0.3675  0.5859
  540TMC3    C3 8065   1.310   1.748  11.625  0.0593 -0.3620  0.9292
  540TMC3    C4 8066   1.336   1.642  11.880  0.0696  0.4239  0.1962
  540TMC3    C5 8067   1.311   1.777  11.861 -0.3852 -0.4480  0.4055
  540TMC3    C6 8068   1.297   1.835  11.735 -0.4048  0.2224 -0.1415
  540TMC3     C 8069   1.390   1.426  11.769  0.7009 -0.1154 -0.5396
  540TMC3     O 8070   1.366   1.366  11.664  0.0324 -0.0884 -0.5310
  540TMC3     H 8071   1.363   1.558  11.553 -2.0937  1.2279 -0.6299
  540TMC3    H1 8072   1.334   1.588  11.974  1.2593  1.6552  0.9304
  540TMC3    H2 8073   1.272   1.940  11.720 -0.2385  0.4125  0.9119
  540TMC3    C7 8074   1.264   1.855  11.972  0.2523 -0.7029 -0.3419
  540TMC3    C8 8075   1.289   1.811  11.489  0.2916  0.6043  0.4399
  540TMC3    O1 8076   1.306   1.967  12.000  0.0139 -0.1665  0.6715
  540TMC3    O2 8077   1.332   1.919  11.458  0.0991  0.7538 -0.5683
  541MPD2     C 8078   4.704   2.267  13.574  0.4922  0.0412 -0.2241
  541MPD2    C1 8079   0.038   2.171  13.502 -0.8555 -0.3233 -0.2197
  541MPD2    C2 8080   0.115   2.221  13.404 -0.2465 -0.5255  0.3764
  541MPD2    C3 8081   0.125   2.351  13.363  0.2405  0.2048  0.0636
  541MPD2    C4 8082   0.039   2.439  13.426 -0.0243 -0.0155 -0.0932
  541MPD2    C5 8083   4.703   2.394  13.540  0.5072 -0.8243 -0.2691
  541MPD2     H 8084   0.177   2.152  13.348  0.0712 -0.0045  0.0861
  541MPD2    H1 8085   0.042   2.543  13.397  0.5991 -0.2712 -0.9452
  541MPD2    H2 8086   4.639   2.236  13.655  1.0133 -2.0270 -0.6093
  541MPD2    H3 8087   4.647   2.467  13.597  1.7324  1.7636 -2.3825
  541MPD2     N 8088   0.196   2.408  13.252 -0.4824 -0.8350 -0.0710
  541MPD2    H5 8089   0.203   2.509  13.259 -2.1442 -0.7879  0.9848
  541MPD2    N1 8090   0.048   2.035  13.544 -0.0260 -0.0119  0.0341
  541MPD2    H7 8091   0.110   1.980  13.486  2.2329 -0.0324  2.4737
  542TMC3    C1 8092   0.340   2.423  13.053  0.6770  0.0980  0.4554
  542TMC3    C2 8093   0.394   2.357  12.947  0.3806  0.0057 -0.2487
  542TMC3    C3 8094   0.436   2.433  12.845  0.1599 -0.1606 -0.5679
  542TMC3    C4 8095   0.323   2.562  13.050 -0.9198 -0.5155 -0.0542
  542TMC3    C5 8096   0.365   2.627  12.935 -0.4242  0.2500  0.8839
  542TMC3    C6 8097   0.425   2.564  12.833  0.5122  0.3704  0.5519
  542TMC3     C 8098   0.266   2.339  13.151 -0.1344  0.5519  0.0893
  542TMC3     O 8099   0.259   2.223  13.122  0.2260 -0.2923  0.0806
  542TMC3     H 8100   0.409   2.249  12.948  1.7747  0.2059  0.5097
  542TMC3    H1 8101   0.257   2.609  13.123  0.3417  0.0025  0.7532
  542TMC3    H2 8102   0.455   2.612  12.740  1.5175 -1.5527 -0.1205
  542TMC3    C7 8103   0.338   2.769  12.936  0.3215  0.2117 -0.7080
  542TMC3    C8 8104   0.440   2.380  12.716  0.4379 -0.5976  0.0542
  542TMC3    O1 8105   0.268   2.808  13.028 -0.1518 -0.0580 -0.6831
  542TMC3    O2 8106   0.495   2.437  12.624 -0.7895 -0.0769 -0.1370
  543TMC3    C1 8107   3.851   3.464  17.428  0.1595 -0.0632 -1.4770
  543TMC3    C2 8108   3.849   3.354  17.509 -0.8248 -0.0517  0.1922
  543TMC3    C3 8109   3.788   3.373  17.630  0.6518  0.1215 -0.2432
  543TMC3    C4 8110   3.818   3.592  17.470 -0.0810  0.5629  0.0339
  543TMC3    C5 8111   3.760   3.600  17.590  0.2608 -0.3385  0.2097
  543TMC3    C6 8112   3.742   3.492  17.674  0.7297 -1.3795  0.6183
  543TMC3     C 8113   3.913   3.439  17.301 -0.3697 -0.1924  0.0067
  543TMC3     O 8114   3.966   3.333  17.279  0.6301  0.1616  0.1768
  543TMC3     H 8115   3.890   3.259  17.478 -0.1165 -0.5498  2.6146
  543TMC3    H1 8116   3.838   3.676  17.404  0.0214  0.8141  0.3843
  543TMC3    H2 8117   3.683   3.509   0.005  1.1859 -0.3140  0.7170
  543TMC3    C7 8118   3.683   3.726  17.619  0.3818  0.7547 -0.0133
  543TMC3    C8 8119   3.804   3.253  17.717  0.2587  0.0932  0.7255
  543TMC3    O1 8120   3.593   3.726  17.703  0.0349 -0.1343 -1.5525
  543TMC3    O2 8121   3.860   3.147  17.679 -0.2873  0.2354  0.0484
  544MPD2     C 8122   3.654   3.008   0.386  0.6146  0.6740  1.5087
  544MPD2    C1 8123   3.712   2.957   0.277 -0.0501 -0.3278  0.2088
  544MPD2    C2 8124   3.751   3.044   0.172 -0.4166  0.6274  0.6623
  544MPD2    C3 8125   3.738   3.182   0.186 -0.0380  0.3191  0.0473
  544MPD2    C4 8126   3.686   3.226   0.306 -0.9708  0.2101  0.3702
  544MPD2    C5 8127   3.636   3.140   0.401  0.3102 -0.1576  0.0107
  544MPD2     H 8128   3.798   3.007   0.082 -1.6823 -0.5862  0.4885
  544MPD2    H1 8129   3.685   3.331   0.332  3.4481  0.7178 -1.5053
  544MPD2    H2 8130   3.629   2.943   0.469 -0.6930 -0.9145 -0.1167
  544MPD2    H3 8131   3.589   3.181   0.490  0.4346 -0.6387  0.2995
  544MPD2     N 8132   3.766   3.278   0.085 -0.0970  1.0905 -0.2820
  544MPD2    H5 8133   3.729   3.372   0.101 -2.5499  0.1290 -0.2853
  544MPD2    N1 8134   3.713   2.814   0.265 -0.0080  0.6191 -0.3734
  544MPD2    H7 8135   3.684   2.763   0.347  2.3939  0.0432  0.1365
  545TMC3    C1 8136   3.685   2.610   0.170  0.3825 -0.4376 -0.2659
  545TMC3    C2 8137   3.599   2.572   0.072 -0.2293  0.3430 -0.2025
  545TMC3    C3 8138   3.503   2.482   0.110  0.6235  0.2375  0.7244
  545TMC3    C4 8139   3.683   2.566   0.294  0.7959 -0.1866 -0.0063
  545TMC3    C5 8140   3.587   2.481   0.330 -0.0888  0.3610  0.5584
  545TMC3    C6 8141   3.495   2.437   0.238  0.5004 -0.1529 -0.3426
  545TMC3     C 8142   3.733   2.743   0.146  0.8463 -0.3429 -0.3492
  545TMC3     O 8143   3.757   2.785   0.034 -0.4579  0.5633  0.5268
  545TMC3     H 8144   3.600   2.626  17.736  0.7127  3.5223  1.6311
  545TMC3    H1 8145   3.757   2.588   0.370  0.4074  1.1386  0.0059
  545TMC3    H2 8146   3.418   2.368   0.270  1.3559  0.0411  2.0813
  545TMC3    C7 8147   3.575   2.449   0.469 -0.5477 -0.2731  0.4043
  545TMC3    C8 8148   3.398   2.457   0.014 -0.0217 -0.3131 -0.7001
  545TMC3    O1 8149   3.651   2.503   0.549  0.5383  0.2158  0.2342
  545TMC3    O2 8150   3.402   2.522  17.669 -0.2371 -0.5718  0.2056
  546MPD2     C 8151   0.838   3.210  17.021  0.1424 -0.0026  0.2755
  546MPD2    C1 8152   0.798   3.270  17.134 -0.0037  1.3327  0.5906
  546MPD2    C2 8153   0.844   3.395  17.153  0.5472 -0.3689  0.2991
  546MPD2    C3 8154   0.917   3.473  17.059  0.0203  0.5457 -0.1670
  546MPD2    C4 8155   0.975   3.398  16.959 -0.8222 -0.0536 -0.5708
  546MPD2    C5 8156   0.927   3.273  16.937  0.0856 -0.2887 -0.0248
  546MPD2     H 8157   0.815   3.447  17.243 -1.0466 -2.3310  0.9078
  546MPD2    H1 8158   1.030   3.448  16.881  0.9528  0.1585  0.8088
  546MPD2    H2 8159   0.795   3.114  16.993  0.4546  0.6150 -2.3637
  546MPD2    H3 8160   0.970   3.215  16.855 -1.5768 -1.0290 -0.3693
  546MPD2     N 8161   0.946   3.607  17.073 -0.2890  0.1779 -0.5734
  546MPD2    H5 8162   1.027   3.655  17.034  2.1345 -3.4859 -0.0155
  546MPD2    N1 8163   0.718   3.192  17.216 -0.4712 -0.4031  0.7905
  546MPD2    H7 8164   0.679   3.106  17.178  0.1818 -0.1634 -0.4178
  547TMC3    C1 8165   0.560   3.148  17.388  0.6740 -0.5031  0.0455
  547TMC3    C2 8166   0.454   3.123  17.306  1.4573  0.0545 -0.2365
  547TMC3    C3 8167   0.377   3.007  17.326  0.3046 -0.2725 -0.3593
  547TMC3    C4 8168   0.591   3.048  17.478  0.1528  0.5620  0.8329
  547TMC3    C5 8169   0.507   2.950  17.512 -0.1253  0.3447  0.3086
  547TMC3    C6 8170   0.394   2.928  17.432  0.3735  0.0150 -0.7426
  547TMC3     C 8171   0.676   3.229  17.342  0.4697 -0.1960 -0.3654
  547TMC3     O 8172   0.728   3.307  17.419 -0.0531 -0.0630  0.6105
  547TMC3     H 8173   0.426   3.199  17.234 -1.6401  0.9744  1.9533
  547TMC3    H1 8174   0.682   3.056  17.535 -0.7593  1.6246  2.1399
  547TMC3    H2 8175   0.324   2.851  17.459  0.0033  0.4223 -0.5456
  547TMC3    C7 8176   0.566   2.843  17.594 -0.3668  0.1417 -0.1244
  547TMC3    C8 8177   0.253   3.019  17.252  0.4412  1.2072 -0.0441
  547TMC3    O1 8178   0.688   2.851  17.619 -0.2499 -0.5031  0.5995
  547TMC3    O2 8179   0.261   3.047  17.136  0.3038  0.5275 -0.6378
  548MPD2     C 8180   0.629   4.234  13.175 -0.6764 -0.3620 -0.8645
  548MPD2    C1 8181   0.633   4.105  13.122  0.1550 -0.2068 -0.2870
  548MPD2    C2 8182   0.759   4.050  13.098 -0.2128  0.0478 -1.0441
  548MPD2    C3 8183   0.879   4.117  13.131  0.6640  0.5163 -0.5160
  548MPD2    C4 8184   0.875   4.241  13.184  0.9606  0.3031  0.2967
  548MPD2    C5 8185   0.747   4.292  13.212 -0.1950 -0.4988  0.1218
  548MPD2     H 8186   0.765   3.953  13.050 -1.4795 -1.0053  0.9246
  548MPD2    H1 8187   0.967   4.296  13.201  0.6378  0.7305  0.6546
  548MPD2    H2 8188   0.540   4.293  13.193  0.6419  1.1920  0.5710
  548MPD2    H3 8189   0.741   4.396  13.245 -1.3956 -0.1106 -1.2916
  548MPD2     N 8190   1.008   4.057  13.110 -0.5628 -0.4221  0.6460
  548MPD2    H5 8191   1.092   4.110  13.131 -0.9163  1.2965 -2.3709
  548MPD2    N1 8192   0.506   4.046  13.084 -0.7194  0.4451  0.6402
  548MPD2    H7 8193   0.426   4.109  13.082 -0.4811  0.6853 -1.0449
  549TMC3    C1 8194   0.357   3.887  13.001  0.6305  0.3454  0.0434
  549TMC3    C2 8195   0.281   3.983  12.928 -0.0583  0.0638 -0.5439
  549TMC3    C3 8196   0.156   3.948  12.882  0.6598 -0.1499  0.3998
  549TMC3    C4 8197   0.301   3.772  13.044 -0.2306  0.2072 -1.1224
  549TMC3    C5 8198   0.161   3.752  13.012  0.5000 -0.6694 -0.1862
  549TMC3    C6 8199   0.087   3.845  12.945  0.6334  0.0849 -0.1888
  549TMC3     C 8200   0.488   3.917  13.049 -0.6052  0.5885  0.4064
  549TMC3     O 8201   0.566   3.828  13.062  0.3158  0.2016  0.3905
  549TMC3     H 8202   0.324   4.078  12.898  0.4519 -0.4223 -1.3768
  549TMC3    H1 8203   0.351   3.708  13.116 -2.0246 -1.5087 -1.4103
  549TMC3    H2 8204   4.724   3.825  12.919 -0.2430  3.1393  0.9480
  549TMC3    C7 8205   0.098   3.617  13.023 -0.0184 -0.5561  0.5902
  549TMC3    C8 8206   0.093   4.017  12.771  0.3679 -0.7205 -0.3034
  549TMC3    O1 8207   4.725   3.608  12.982  0.0218  0.9278  0.6425
  549TMC3    O2 8208   4.719   3.979  12.741 -0.0210 -0.6116 -0.0322
  550TMC3    C1 8209   4.694   1.615  12.708 -0.1745 -0.6615 -0.4716
  550TMC3    C2 8210   4.652   1.605  12.838  0.4310 -0.6796 -0.5109
  550TMC3    C3 8211   4.659   1.717  12.915  0.2572 -0.7651  1.1155
  550TMC3    C4 8212   4.733   1.740  12.655  0.4756  0.4302  0.2633
  550TMC3    C5 8213   0.001   1.846  12.727 -0.0858 -0.8038  0.1272
  550TMC3    C6 8214   4.714   1.835  12.858  0.2450 -0.1520  0.1819
  550TMC3     C 8215   4.619   1.530  12.621 -0.1381 -0.3223  0.3352
  550TMC3     O 8216   4.572   1.435  12.681  0.5138  0.2721  0.7605
  550TMC3     H 8217   4.635   1.506  12.879 -0.3106 -0.7570 -1.0155
  550TMC3    H1 8218   0.004   1.757  12.549 -3.6715 -2.7898 -0.6805
  550TMC3    H2 8219   4.722   1.924  12.919  1.3330 -0.5250  0.5955
  550TMC3    C7 8220   4.692   1.974  12.662  0.3994  1.2892  0.1599
  550TMC3    C8 8221   4.533   1.756  12.971  0.1443 -0.3547 -0.4665
  550TMC3    O1 8222   4.617   1.953  12.567 -0.3873  0.0152 -0.1345
  550TMC3    O2 8223   4.536   1.861  13.037  0.7307 -0.3215 -0.2406
  551TMC3    C1 8224   1.741   0.050  13.405 -0.6329  0.3860  0.1328
  551TMC3    C2 8225   1.867   0.038  13.347  0.2170 -0.6010  0.2573
  551TMC3    C3 8226   1.982   0.044  13.423 -0.1943  0.3266 -0.1400
  551TMC3    C4 8227   1.722   0.077  13.537  0.8490  0.1962  0.0786
  551TMC3    C5 8228   1.838   0.076  13.617 -0.4919 -0.1756  0.4828
  551TMC3    C6 8229   1.968   0.062  13.559  0.7479  0.3783  0.2834
  551TMC3     C 8230   1.639   0.062  13.306 -0.2757 -0.5628  0.1912
  551TMC3     O 8231   1.652   4.736  13.204  0.9290  0.4776  0.0318
  551TMC3     H 8232   1.870   0.019  13.241 -3.5578  1.5017 -0.2317
  551TMC3    H1 8233   1.623   0.068  13.579  0.4320 -1.1762 -1.2066
  551TMC3    H2 8234   2.057   0.084  13.618  0.5812  0.9138  0.3370
  551TMC3    C7 8235   1.838   0.084  13.761 -0.1557 -0.0669  0.3156
  551TMC3    C8 8236   2.115   0.037  13.364 -0.3419 -0.8584  0.0088
  551TMC3    O1 8237   1.936   0.039  13.819 -0.2587  0.3874 -0.3254
  551TMC3    O2 8238   2.205   4.724  13.430  0.3756  0.0104 -0.0177
  552MPD2     C 8239   3.509   1.730  14.425  0.3901  0.4810  0.0680
  552MPD2    C1 8240   3.607   1.670  14.338  0.1630  0.0272 -0.1155
  552MPD2    C2 8241   3.738   1.651  14.381  0.1711  0.1908 -0.2915
  552MPD2    C3 8242   3.781   1.691  14.505 -0.6871  0.1871  0.0667
  552MPD2    C4 8243   3.679   1.741  14.591 -0.2668  0.2006  0.0857
  552MPD2    C5 8244   3.548   1.760  14.553  0.4138 -0.5974  0.2851
  552MPD2     H 8245   3.794   1.603  14.302  1.3884 -0.7673  1.1636
  552MPD2    H1 8246   3.712   1.764  14.692 -1.1025  2.5521 -0.1699
  552MPD2    H2 8247   3.405   1.733  14.393 -0.0873 -3.2699  1.2443
  552MPD2    H3 8248   3.472   1.806  14.614  1.2603  0.2535  0.7011
  552MPD2     N 8249   3.913   1.693  14.552  0.3562  1.4242 -0.0010
  552MPD2    H5 8250   3.921   1.711  14.652  1.2894 -0.8799  0.3533
  552MPD2    N1 8251   3.562   1.631  14.208 -0.1582 -0.3646 -0.0380
  552MPD2    H7 8252   3.622   1.574  14.149 -0.9391 -0.4070 -0.7835
  553TMC3    C1 8253   3.408   1.591  14.026  1.0198  0.6766 -0.1011
  553TMC3    C2 8254   3.353   1.654  13.908 -0.7815  0.3672  0.2263
  553TMC3    C3 8255   3.301   1.565  13.818 -0.2983  0.2704  0.3984
  553TMC3    C4 8256   3.387   1.462  14.061  0.0122 -0.0229  0.2045
  553TMC3    C5 8257   3.338   1.377  13.962 -0.5424  0.0064 -0.8460
  553TMC3    C6 8258   3.289   1.425  13.845 -0.1606 -0.0215  0.1802
  553TMC3     C 8259   3.451   1.685  14.136 -0.6298  0.5039 -0.6099
  553TMC3     O 8260   3.392   1.790  14.154  0.1509 -0.0359  0.5073
  553TMC3     H 8261   3.377   1.760  13.899  1.1934  0.0115  1.3122
  553TMC3    H1 8262   3.424   1.417  14.152  0.0260 -3.7760 -1.6392
  553TMC3    H2 8263   3.235   1.360  13.777  0.7969 -1.7207  1.0427
  553TMC3    C7 8264   3.362   1.235  13.975 -0.3218 -0.2838  0.8132
  553TMC3    C8 8265   3.373   1.579  13.694  0.0912 -0.2129 -0.1156
  553TMC3    O1 8266   3.263   1.162  13.969 -0.2441  0.1064 -0.5679
  553TMC3    O2 8267   3.476   1.646  13.707  0.0215 -0.2692 -0.1250
  554TMC3    C1 8268   0.858   1.563  11.832 -0.8823  0.7542 -0.2166
  554TMC3    C2 8269   0.735   1.505  11.821  0.5169 -0.4627  0.2534
  554TMC3    C3 8270   0.658   1.536  11.708 -0.2430  0.1063 -0.1910
  554TMC3    C4 8271   0.895   1.667  11.757  0.0484 -0.6762 -0.3476
  554TMC3    C5 8272   0.812   1.701  11.656 -0.3814  0.4353 -0.2034
  554TMC3    C6 8273   0.693   1.643  11.628  0.6297  0.3543  0.2976
  554TMC3     C 8274   0.965   1.487  11.889  0.5406 -0.3831 -0.1531
  554TMC3     O 8275   1.058   1.556  11.932  0.0761  0.4272 -0.1579
  554TMC3     H 8276   0.709   1.427  11.892 -0.0462  1.5118  2.1901
  554TMC3    H1 8277   0.997   1.704  11.762  0.6414 -1.9731 -3.1103
  554TMC3    H2 8278   0.647   1.670  11.533  0.8767  1.2425  0.4319
  554TMC3    C7 8279   0.857   1.799  11.558  0.8501 -0.1650 -0.3960
  554TMC3    C8 8280   0.573   1.429  11.662 -0.2160 -0.0186 -0.0415
  554TMC3    O1 8281   0.839   1.771  11.440  0.9953 -0.5976  0.3070
  554TMC3    O2 8282   0.566   1.334  11.742 -0.1818 -0.4878 -0.0929
  555TMC3    C1 8283   0.027   0.396  14.898 -1.0998 -0.5956 -0.0270
  555TMC3    C2 8284   4.715   0.486  14.986  0.3142  0.2574  0.0171
  555TMC3    C3 8285   4.698   0.437  15.110  0.5145  0.0157  1.0429
  555TMC3    C4 8286   0.078   0.276  14.934  0.1564 -0.2904  0.5775
  555TMC3    C5 8287   0.063   0.237  15.066 -0.0858  0.5838 -0.2354
  555TMC3    C6 8288   0.011   0.323  15.160 -0.0734 -0.1479 -0.0345
  555TMC3     C 8289   0.013   0.416  14.759 -0.2144 -0.3892 -0.1811
  555TMC3     O 8290   0.097   0.379  14.680  0.1739  0.4719 -0.0772
  555TMC3     H 8291   4.677   0.583  14.957 -0.7129 -0.2042 -0.1811
  555TMC3    H1 8292   0.097   0.199  14.860 -1.1811  0.1727 -0.2508
  555TMC3    H2 8293   4.718   0.289  15.257 -3.2966  0.5052 -0.9068
  555TMC3    C7 8294   0.033   0.100  15.102 -0.3485  0.1890 -0.3006
  555TMC3    C8 8295   4.643   0.531  15.205 -0.4039 -0.1129  0.6501
  555TMC3    O1 8296   4.681   0.086  15.183 -0.2111  0.4590  0.1170
  555TMC3    O2 8297   4.549   0.603  15.170  0.2580  0.5512  0.6327
  556MPD2     C 8298   3.243   2.981  10.516  0.0248 -0.2931  0.3844
  556MPD2    C1 8299   3.164   2.878  10.572  0.0311 -0.7345 -0.0704
  556MPD2    C2 8300   3.079   2.806  10.499  0.0453  0.1788 -0.3188
  556MPD2    C3 8301   3.073   2.828  10.359  0.9432 -0.2479  0.2290
  556MPD2    C4 8302   3.151   2.926  10.302  0.1418 -0.0261 -0.4040
  556MPD2    C5 8303   3.228   3.001  10.383  0.0437 -0.1511  0.3906
  556MPD2     H 8304   3.007   2.739  10.545  0.6809  0.2217  0.7570
  556MPD2    H1 8305   3.157   2.949  10.197  2.1798 -0.7010 -0.4430
  556MPD2    H2 8306   3.314   3.045  10.568  0.6529 -0.5903 -0.1083
  556MPD2    H3 8307   3.297   3.068  10.334 -0.4109 -1.4849 -2.0397
  556MPD2     N 8308   2.972   2.758  10.291  1.2793  0.1096 -0.4955
  556MPD2    H5 8309   2.930   2.681  10.343  1.9745  0.1263  0.0818
  556MPD2    N1 8310   3.155   2.864  10.710  0.2058  0.1014 -0.7256
  556MPD2    H7 8311   3.095   2.787  10.737 -1.4368  1.3952 -0.6633
  557TMC3    C1 8312   2.832   2.684  10.120  0.7518  0.1262  0.4329
  557TMC3    C2 8313   2.832   2.639   9.989 -0.0958  0.0277  0.4774
  557TMC3    C3 8314   2.739   2.543   9.949  0.0728  0.2990 -0.6883
  557TMC3    C4 8315   2.734   2.643  10.207  0.6090 -0.1039  0.1500
  557TMC3    C5 8316   2.644   2.550  10.167  0.0573 -0.1918  0.3119
  557TMC3    C6 8317   2.646   2.492  10.045 -0.7564 -0.3540 -0.3035
  557TMC3     C 8318   2.940   2.776  10.159 -0.0388  0.3859 -0.6686
  557TMC3     O 8319   2.986   2.851  10.071 -0.3534  0.5947 -0.1798
  557TMC3     H 8320   2.906   2.679   9.921  2.5249 -1.7453  2.2793
  557TMC3    H1 8321   2.731   2.682  10.308  0.9319 -0.0457  0.1383
  557TMC3    H2 8322   2.577   2.416  10.010  0.4349 -1.3815 -0.4133
  557TMC3    C7 8323   2.547   2.499  10.261 -0.2590 -0.1017  0.4962
  557TMC3    C8 8324   2.749   2.471   9.822  0.3177  0.0710  0.4761
  557TMC3    O1 8325   2.519   2.379  10.259 -0.4875 -0.2656 -0.4445
  557TMC3    O2 8326   2.812   2.537   9.739  0.1787 -0.2410  0.2020
  558TMC3    C1 8327   0.106   0.396  10.540 -0.0427 -0.1603 -0.7245
  558TMC3    C2 8328   4.726   0.345  10.593  0.4770  0.1075  0.0280
  558TMC3    C3 8329   4.622   0.336  10.511 -0.3150 -0.7935 -1.0147
  558TMC3    C4 8330   0.128   0.426  10.404 -1.1261  0.0856 -0.8593
  558TMC3    C5 8331   0.009   0.425  10.331 -0.3962 -0.5313  0.4598
  558TMC3    C6 8332   4.634   0.371  10.380  0.6974  0.4192 -1.1657
  558TMC3     C 8333   0.215   0.419  10.624  0.4149 -0.0623  0.2345
  558TMC3     O 8334   0.292   0.514  10.601  0.7690 -0.1719  0.1211
  558TMC3     H 8335   4.706   0.328  10.698 -2.5355  1.7199 -0.2798
  558TMC3    H1 8336   0.222   0.472  10.375 -0.7990 -0.2585 -0.3471
  558TMC3    H2 8337   4.547   0.365  10.315  0.1052  0.0445 -0.3407
  558TMC3    C7 8338   0.017   0.479  10.191 -0.0446  0.1691  0.4800
  558TMC3    C8 8339   4.499   0.264  10.554 -0.7501 -0.3952  0.2254
  558TMC3    O1 8340   0.115   0.544  10.167 -0.4461 -0.2079  0.4731
  558TMC3    O2 8341   4.392   0.287  10.504 -0.1119  0.4445 -0.1157
  559MPD2     C 8342   0.173   0.780  10.737  0.3924  0.2453 -0.3758
  559MPD2    C1 8343   0.111   0.704  10.831 -0.2271  0.0495 -0.1897
  559MPD2    C2 8344   0.186   0.678  10.941  0.2112  0.1899  0.6464
  559MPD2    C3 8345   0.304   0.745  10.970 -0.4820  0.4434  0.9827
  559MPD2    C4 8346   0.361   0.833  10.881 -0.2149  0.3177  0.3195
  559MPD2    C5 8347   0.295   0.836  10.764  0.4328 -0.4724  0.2751
  559MPD2     H 8348   0.160   0.606  11.019 -0.0653  1.2145  1.4951
  559MPD2    H1 8349   0.454   0.884  10.906  0.5844 -0.3244 -1.3240
  559MPD2    H2 8350   0.129   0.800  10.640  3.4435  0.9065 -1.6165
  559MPD2    H3 8351   0.326   0.905  10.686  0.8425  0.4214  1.2286
  559MPD2     N 8352   0.350   0.727  11.101 -0.3674  0.1701  0.0632
  559MPD2    H5 8353   0.302   0.667  11.167 -0.0154  0.4587  0.5798
  559MPD2    N1 8354   4.723   0.639  10.810  0.8824  0.4066 -0.2664
  559MPD2    H7 8355   4.697   0.655  10.713  1.9070  2.9267 -0.1389
  560TMC3    C1 8356   0.507   0.715  11.280  0.3376 -0.5435 -0.6793
  560TMC3    C2 8357   0.423   0.618  11.333  0.0496  0.0048  0.8461
  560TMC3    C3 8358   0.479   0.522  11.421  0.6972  0.8109 -0.3451
  560TMC3    C4 8359   0.637   0.720  11.323 -0.5823 -0.0058 -0.1730
  560TMC3    C5 8360   0.685   0.624  11.414  0.3671 -0.0696 -0.1457
  560TMC3    C6 8361   0.616   0.516  11.444  0.6213  0.0333  0.1306
  560TMC3     C 8362   0.469   0.774  11.148  0.1393 -1.0374 -0.1387
  560TMC3     O 8363   0.562   0.834  11.096 -0.0949 -0.1879  0.3951
  560TMC3     H 8364   0.316   0.617  11.313  0.5712  1.2108 -1.9705
  560TMC3    H1 8365   0.707   0.786  11.273 -1.5234 -0.3635 -1.9868
  560TMC3    H2 8366   0.667   0.442  11.506  0.1046 -0.6255 -0.2388
  560TMC3    C7 8367   0.816   0.653  11.473 -0.1098  0.0521 -0.5750
  560TMC3    C8 8368   0.388   0.410  11.448 -0.4903 -0.1065  0.3122
  560TMC3    O1 8369   0.841   0.572  11.560 -0.0032  0.6288  0.2185
  560TMC3    O2 8370   0.278   0.402  11.395  0.4206 -0.1050  0.3024
  561TMC3    C1 8371   2.985   4.041  11.683 -0.4711  0.4971  0.2263
  561TMC3    C2 8372   2.910   4.022  11.795  0.0435 -0.2930 -0.1713
  561TMC3    C3 8373   2.785   4.079  11.808  1.4150  0.3859 -0.1347
  561TMC3    C4 8374   2.934   4.106  11.572 -0.3509 -0.4822  0.3229
  561TMC3    C5 8375   2.813   4.163  11.586 -0.7317 -0.6747  0.6563
  561TMC3    C6 8376   2.736   4.150  11.701 -0.0112  0.2451 -0.0502
  561TMC3     C 8377   3.110   3.963  11.663 -0.0500  0.0290  0.3798
  561TMC3     O 8378   3.118   3.863  11.733 -0.0360  0.3974  0.2006
  561TMC3     H 8379   2.950   3.963  11.877  0.7177  0.3325 -0.0459
  561TMC3    H1 8380   2.986   4.106  11.477 -0.4617 -2.2375  0.2616
  561TMC3    H2 8381   2.638   4.196  11.700 -0.0455  0.2555  2.9267
  561TMC3    C7 8382   2.772   4.272  11.495  0.6350  0.6561  0.0283
  561TMC3    C8 8383   2.731   4.114  11.937  0.4898 -0.5338 -0.5124
  561TMC3    O1 8384   2.659   4.316  11.502 -0.2709 -0.4739 -0.4162
  561TMC3    O2 8385   2.767   4.050  12.034 -0.8451 -0.4184 -0.2971
  562TMC3    C1 8386   4.511   0.583  16.472 -0.3234 -0.6475 -0.5563
  562TMC3    C2 8387   4.467   0.692  16.401  0.2742  0.3469  0.4278
  562TMC3    C3 8388   4.472   0.689  16.269  0.7593 -0.0044  0.4648
  562TMC3    C4 8389   4.548   0.465  16.411  0.8256 -0.5086 -0.0578
  562TMC3    C5 8390   4.539   0.462  16.275  0.1827  0.1607  0.0686
  562TMC3    C6 8391   4.511   0.577  16.207 -0.3989 -0.2703  0.0508
  562TMC3     C 8392   4.489   0.586  16.619 -0.1144 -0.1645  0.0740
  562TMC3     O 8393   4.469   0.698  16.669  0.3725  0.2710 -0.1824
  562TMC3     H 8394   4.442   0.784  16.453 -1.6619  0.2376 -0.2962
  562TMC3    H1 8395   4.585   0.381  16.469  0.6948  0.3003  1.2120
  562TMC3    H2 8396   4.508   0.570  16.098  1.1636 -0.1974  0.0118
  562TMC3    C7 8397   4.553   0.337  16.196  0.2379 -0.6391  0.6219
  562TMC3    C8 8398   4.399   0.782  16.196  0.2151 -0.0120  0.1806
  562TMC3    O1 8399   4.557   0.346  16.075 -0.3497  0.0935  0.2170
  562TMC3    O2 8400   4.320   0.845  16.259  0.6276 -0.7694 -0.3352
  563MPD2     C 8401   1.928   2.137  15.499 -1.0097  0.0439 -0.0138
  563MPD2    C1 8402   1.959   2.127  15.629 -0.1300 -0.4430 -0.1550
  563MPD2    C2 8403   2.086   2.104  15.667  0.2296 -0.4621  0.2763
  563MPD2    C3 8404   2.187   2.094  15.568 -0.3092  0.0501 -0.0186
  563MPD2    C4 8405   2.154   2.102  15.433 -0.3999 -0.4199 -1.0321
  563MPD2    C5 8406   2.023   2.126  15.401  0.6087  0.1087 -0.0917
  563MPD2     H 8407   2.117   2.089  15.770 -0.0658  1.3237  0.6407
  563MPD2    H1 8408   2.229   2.097  15.354  4.5261 -2.0813  3.8007
  563MPD2    H2 8409   1.829   2.160  15.462 -0.8377  2.8539  1.2863
  563MPD2    H3 8410   1.999   2.149  15.298 -1.1566 -1.3862 -0.0077
  563MPD2     N 8411   2.314   2.065  15.611 -0.0030  0.0566 -0.3204
  563MPD2    H5 8412   2.338   2.058  15.709 -1.8722 -2.2543 -0.0189
  563MPD2    N1 8413   1.849   2.131  15.724 -0.4066 -0.0890  0.2622
  563MPD2    H7 8414   1.757   2.127  15.680  0.1950 -0.4054 -0.9739
  564TMC3    C1 8415   1.766   2.122  15.942  0.7555  0.1913  0.5193
  564TMC3    C2 8416   1.645   2.073  15.903  0.1520  0.5896 -0.3453
  564TMC3    C3 8417   1.564   2.017  15.999  0.3645  0.0897  0.2254
  564TMC3    C4 8418   1.819   2.100  16.069 -0.0103  0.3390  0.5108
  564TMC3    C5 8419   1.734   2.054  16.164  1.4902 -0.3041 -0.1080
  564TMC3    C6 8420   1.607   2.011  16.130  0.2414  0.0611 -0.3007
  564TMC3     C 8421   1.867   2.168  15.853  0.3290 -0.3296  0.4309
  564TMC3     O 8422   1.957   2.228  15.903  0.5753  0.0860  0.0179
  564TMC3     H 8423   1.606   2.090  15.803 -1.6869 -1.8694 -0.0482
  564TMC3    H1 8424   1.926   2.110  16.085  0.3027 -0.8512 -0.8422
  564TMC3    H2 8425   1.542   1.975  16.209  0.5121 -2.1641 -1.0956
  564TMC3    C7 8426   1.793   1.981  16.273  0.0362 -0.4519 -0.5410
  564TMC3    C8 8427   1.467   1.913  15.966 -0.6548  1.1112 -0.2815
  564TMC3    O1 8428   1.906   2.009  16.307  0.6322 -0.2872  0.1264
  564TMC3    O2 8429   1.450   1.832  16.052 -0.0477  0.3255  0.2029
  565TMC3    C1 8430   1.539   4.052   9.713  0.5434 -0.1367  0.1711
  565TMC3    C2 8431   1.563   3.965   9.812  0.3817 -0.5087  0.2730
  565TMC3    C3 8432   1.446   3.919   9.877 -0.3415 -0.8174 -0.2834
  565TMC3    C4 8433   1.406   4.091   9.681 -0.0214 -0.4494 -0.8184
  565TMC3    C5 8434   1.300   4.042   9.746  0.2001 -0.5304 -0.5508
  565TMC3    C6 8435   1.315   3.953   9.850 -0.0943 -0.1470  0.6023
  565TMC3     C 8436   1.640   4.075   9.611  0.5339  0.2971  0.6277
  565TMC3     O 8437   1.753   4.085   9.653 -0.2732  0.7743 -0.1329
  565TMC3     H 8438   1.666   3.935   9.825  1.7633  1.9798 -4.7034
  565TMC3    H1 8439   1.393   4.167   9.605 -0.7106  0.8516  0.5968
  565TMC3    H2 8440   1.239   3.938   9.926  1.4130 -1.1903  1.8821
  565TMC3    C7 8441   1.170   4.085   9.702  0.3187 -0.0523  0.2956
  565TMC3    C8 8442   1.472   3.824   9.988  0.1319  0.3739  0.2717
  565TMC3    O1 8443   1.156   4.175   9.623 -0.5916  0.4225  0.1458
  565TMC3    O2 8444   1.584   3.823  10.031  0.0140  0.3906  0.4017
  566MPD2     C 8445   3.915   0.473  14.194  0.2851 -0.0171 -0.6365
  566MPD2    C1 8446   4.014   0.461  14.097  0.4133 -0.4484 -0.8193
  566MPD2    C2 8447   3.978   0.450  13.971 -0.5783  0.5808  0.5887
  566MPD2    C3 8448   3.844   0.449  13.933 -0.3528 -0.3573  0.4405
  566MPD2    C4 8449   3.747   0.468  14.027  0.3374 -0.0386  0.2444
  566MPD2    C5 8450   3.782   0.479  14.159  0.3515 -0.7327 -1.0703
  566MPD2     H 8451   4.059   0.446  13.899 -0.3214  0.2604  0.9011
  566MPD2    H1 8452   3.642   0.477  14.001  0.1025  0.5913  1.3932
  566MPD2    H2 8453   3.942   0.483  14.298 -1.1726 -3.0453  0.0364
  566MPD2    H3 8454   3.703   0.503  14.229  2.0511 -0.2502  0.6919
  566MPD2     N 8455   3.801   0.420  13.804 -0.7068  0.3680  0.2767
  566MPD2    H5 8456   3.703   0.393  13.797 -0.7425  0.5413  0.1266
  566MPD2    N1 8457   4.149   0.441  14.146  0.4396 -0.3088 -0.1811
  566MPD2    H7 8458   4.171   0.427  14.244  0.0315  0.4319  0.0127
  567TMC3    C1 8459   4.386   0.407  14.127  0.0127 -0.3624  0.0533
  567TMC3    C2 8460   4.495   0.407  14.053  0.8728  0.6646 -0.0963
  567TMC3    C3 8461   4.600   0.335  14.103  0.0560 -0.3548  0.2372
  567TMC3    C4 8462   4.382   0.361  14.261 -0.6727  0.1723  0.9712
  567TMC3    C5 8463   4.497   0.297  14.306 -0.3421  0.4583  0.2114
  567TMC3    C6 8464   4.605   0.282  14.232  0.3985 -0.2646  0.2332
  567TMC3     C 8465   4.264   0.459  14.066 -0.1809 -0.1517  0.3986
  567TMC3     O 8466   4.278   0.500  13.951  0.1055 -0.2832  0.1813
  567TMC3     H 8467   4.498   0.453  13.955 -0.2236  0.4934 -0.2151
  567TMC3    H1 8468   4.291   0.370  14.321 -0.6792  0.4421  0.9214
  567TMC3    H2 8469   4.694   0.232  14.268 -0.9293 -1.7430  1.4646
  567TMC3    C7 8470   4.487   0.254  14.446  0.4009 -0.0451  0.5040
  567TMC3    C8 8471   4.656   0.263  13.994  0.0576 -0.4141 -0.3764
  567TMC3    O1 8472   4.394   0.300  14.514  0.3081 -0.0014 -0.0149
  567TMC3    O2 8473   4.594   0.249  13.887 -0.0721 -0.1206 -0.0218
  568MPD2     C 8474   1.624   0.497  16.192 -0.1125 -0.0708  0.4013
  568MPD2    C1 8475   1.492   0.503  16.239  0.2404 -0.0687 -0.3504
  568MPD2    C2 8476   1.396   0.575  16.167  0.9957 -0.1832  0.7655
  568MPD2    C3 8477   1.443   0.647  16.059  0.5612  0.5868  1.0204
  568MPD2    C4 8478   1.581   0.647  16.026  0.3686 -0.2118 -0.4217
  568MPD2    C5 8479   1.668   0.563  16.086 -0.3347  0.7036  0.0062
  568MPD2     H 8480   1.294   0.590  16.199  0.3814  0.3450 -1.4688
  568MPD2    H1 8481   1.624   0.710  15.948  2.0352  0.6867  1.2305
  568MPD2    H2 8482   1.692   0.432  16.245  0.8186  0.6248  0.0607
  568MPD2    H3 8483   1.768   0.539  16.052 -0.5091 -0.0893  0.0658
  568MPD2     N 8484   1.350   0.745  16.006  0.4149  0.1425  0.1732
  568MPD2    H5 8485   1.253   0.741  16.037  0.8168  1.6357  1.5738
  568MPD2    N1 8486   1.472   0.446  16.366 -0.0279  0.6707  0.4483
  568MPD2    H7 8487   1.553   0.407  16.413 -0.2358 -0.3778 -0.0582
  569TMC3    C1 8488   1.284   0.958  15.937 -0.2125  0.2203  0.0824
  569TMC3    C2 8489   1.219   0.988  16.057 -0.6258 -0.0371  0.1400
  569TMC3    C3 8490   1.186   1.112  16.097  0.1552 -0.1790  1.3770
  569TMC3    C4 8491   1.303   1.074  15.854  0.0699  0.1815 -0.6784
  569TMC3    C5 8492   1.255   1.203  15.895 -0.0726 -0.7798 -0.8204
  569TMC3    C6 8493   1.204   1.221  16.017  0.8227 -0.0879 -0.2740
  569TMC3     C 8494   1.372   0.851  15.924  0.2790 -0.1338  0.3530
  569TMC3     O 8495   1.469   0.878  15.856 -0.5191  0.3751 -0.6599
  569TMC3     H 8496   1.200   0.902  16.120 -1.3999 -0.6094 -0.8762
  569TMC3    H1 8497   1.334   1.062  15.751 -0.0687 -1.2899 -0.5479
  569TMC3    H2 8498   1.163   1.317  16.047  1.6536  0.6263 -1.4045
  569TMC3    C7 8499   1.263   1.311  15.798 -0.1534 -0.1680 -0.5981
  569TMC3    C8 8500   1.138   1.124  16.236  0.9434  1.2535 -0.6936
  569TMC3    O1 8501   1.306   1.287  15.687 -0.0061  0.0430  0.2306
  569TMC3    O2 8502   1.066   1.033  16.273 -0.0249  0.6491  0.3045
  570TMC3    C1 8503   1.036   4.319  15.685  1.0703 -0.4139  0.3174
  570TMC3    C2 8504   1.127   4.341  15.580  0.1967  0.5904  0.0439
  570TMC3    C3 8505   1.182   4.466  15.578 -0.3022  0.4938  0.8361
  570TMC3    C4 8506   0.992   4.407  15.772  1.3246 -0.1679 -0.0003
  570TMC3    C5 8507   1.047   4.531  15.756  0.0484 -0.6065 -1.1871
  570TMC3    C6 8508   1.143   4.561  15.664 -0.0954  0.2635 -1.3014
  570TMC3     C 8509   1.000   4.176  15.710  0.0139 -0.7880 -0.3285
  570TMC3     O 8510   1.017   4.092  15.626  0.4200 -0.0788  0.6111
  570TMC3     H 8511   1.165   4.256  15.525  0.6542  0.4521  0.5705
  570TMC3    H1 8512   0.914   4.396  15.847  1.7703  3.7258  1.0381
  570TMC3    H2 8513   1.205   4.650  15.672  1.6113 -0.9963 -0.6273
  570TMC3    C7 8514   1.021   4.626  15.862  0.6029 -0.3895 -0.1995
  570TMC3    C8 8515   1.285   4.500  15.483  0.7439  1.2586 -0.5705
  570TMC3    O1 8516   0.988   4.587  15.972 -0.3511  0.0312 -0.1976
  570TMC3    O2 8517   1.375   4.570  15.518 -0.1927 -0.2566  0.0417
  571MPD2     C 8518   3.253   1.130   0.710 -0.5958 -0.4343  1.1886
  571MPD2    C1 8519   3.374   1.133   0.779  0.8698 -0.3596 -0.2673
  571MPD2    C2 8520   3.381   1.230   0.880  0.1171  0.1511  0.6985
  571MPD2    C3 8521   3.270   1.316   0.919 -0.1399  0.0927 -0.1145
  571MPD2    C4 8522   3.151   1.299   0.843  0.1569  0.5094  0.5704
  571MPD2    C5 8523   3.139   1.200   0.745 -0.0521  0.8492 -0.2058
  571MPD2     H 8524   3.471   1.235   0.939  0.5401 -0.5015  0.1111
  571MPD2    H1 8525   3.063   1.363   0.844  0.2597  0.6106  2.2898
  571MPD2    H2 8526   3.248   1.062   0.626  1.7606  0.5035  0.2807
  571MPD2    H3 8527   3.050   1.178   0.686  0.9595  2.8826 -2.5022
  571MPD2     N 8528   3.280   1.418   1.017  0.1575 -0.2313 -0.0745
  571MPD2    H5 8529   3.198   1.478   1.019  0.2917 -0.0699  0.8515
  571MPD2    N1 8530   3.476   1.053   0.731 -0.4419  0.1508 -0.5351
  571MPD2    H7 8531   3.465   1.006   0.642  1.1754 -0.4529 -0.4181
  572TMC3    C1 8532   3.367   1.597   1.129  0.2441  0.9940  0.3699
  572TMC3    C2 8533   3.445   1.652   1.222  0.2178  0.0748  0.1359
  572TMC3    C3 8534   3.437   1.782   1.246  0.2352  0.3292 -0.4900
  572TMC3    C4 8535   3.274   1.672   1.059  0.0855  0.1616  0.3132
  572TMC3    C5 8536   3.269   1.800   1.093  0.4395  0.5259 -0.1926
  572TMC3    C6 8537   3.350   1.864   1.183  0.2159 -0.4680  0.1873
  572TMC3     C 8538   3.389   1.457   1.085 -0.5050 -0.4207 -0.0651
  572TMC3     O 8539   3.496   1.403   1.106 -0.8225 -0.2114  0.1379
  572TMC3     H 8540   3.507   1.596   1.292 -0.4084  0.7687  1.2486
  572TMC3    H1 8541   3.204   1.638   0.983  0.1735  2.8408 -0.9502
  572TMC3    H2 8542   3.341   1.966   1.219  2.0826  0.2088 -1.2562
  572TMC3    C7 8543   3.211   1.895   0.995  0.1035  0.1473 -0.2574
  572TMC3    C8 8544   3.529   1.850   1.325  0.3964 -0.7012 -0.2540
  572TMC3    O1 8545   3.190   1.848   0.882 -0.6451 -0.0712  0.1856
  572TMC3    O2 8546   3.489   1.955   1.374  0.5136  0.5108  0.4258
  573MPD2     C 8547   4.155   1.189   0.667  0.1913  0.7096 -0.3284
  573MPD2    C1 8548   4.129   1.282   0.768 -0.3097 -0.6208 -0.2272
  573MPD2    C2 8549   4.002   1.341   0.775 -0.0509  0.0645  0.0515
  573MPD2    C3 8550   3.902   1.309   0.682  0.4131  0.0798 -0.1540
  573MPD2    C4 8551   3.935   1.215   0.583 -0.0735 -0.2369 -0.1665
  573MPD2    C5 8552   4.061   1.165   0.571  0.1270  0.4121  0.2726
  573MPD2     H 8553   3.977   1.414   0.850  0.9914 -0.7606  1.1956
  573MPD2    H1 8554   3.866   1.179   0.507  0.8199 -3.2074  0.4248
  573MPD2    H2 8555   4.246   1.130   0.671  0.7985  1.5366 -1.6929
  573MPD2    H3 8556   4.075   1.086   0.499 -0.3957  0.5644  0.0077
  573MPD2     N 8557   3.765   1.354   0.684  0.1336 -0.4501 -0.0286
  573MPD2    H5 8558   3.706   1.333   0.604  1.7831 -0.7041 -1.1731
  573MPD2    N1 8559   4.236   1.310   0.855  0.2456  0.0182 -0.2162
  573MPD2    H7 8560   4.329   1.280   0.828 -0.2061 -0.8307 -0.8290
  574TMC3    C1 8561   3.583   1.476   0.748 -0.2750 -0.6017 -0.1483
  574TMC3    C2 8562   3.567   1.599   0.795  0.1053  0.0194  0.0196
  574TMC3    C3 8563   3.473   1.683   0.747  0.5366  0.6493 -0.8278
  574TMC3    C4 8564   3.505   1.420   0.649  0.1551  0.3281  0.1473
  574TMC3    C5 8565   3.412   1.510   0.596  0.0818  0.5598  1.1048
  574TMC3    C6 8566   3.390   1.638   0.644  0.1368  0.3328  0.2443
  574TMC3     C 8567   3.705   1.418   0.787  0.7384 -0.3031  0.2086
  574TMC3     O 8568   3.758   1.443   0.892  0.4840  0.0825 -0.5536
  574TMC3     H 8569   3.637   1.637   0.869 -0.0616 -0.4198  0.3994
  574TMC3    H1 8570   3.504   1.313   0.633  1.9783  0.1856  1.0416
  574TMC3    H2 8571   3.326   1.708   0.592  0.6889  0.9765  0.4271
  574TMC3    C7 8572   3.301   1.463   0.516  0.2329 -0.4208  0.1386
  574TMC3    C8 8573   3.491   1.823   0.784  0.2199  0.4301 -0.4810
  574TMC3    O1 8574   3.197   1.529   0.512 -0.4532 -0.8838  0.0954
  574TMC3    O2 8575   3.529   1.848   0.897  0.1117  0.0402 -0.1982
  575TMC3    C1 8576   1.896   3.758  10.733 -0.2100  0.2830  0.0470
  575TMC3    C2 8577   1.939   3.631  10.765 -0.3915  0.0135 -0.3172
  575TMC3    C3 8578   1.886   3.523  10.703  0.3148 -0.2225  0.2684
  575TMC3    C4 8579   1.804   3.773  10.635 -0.6107 -0.2305  0.7357
  575TMC3    C5 8580   1.752   3.662  10.567 -0.9821  0.5090 -0.2546
  575TMC3    C6 8581   1.795   3.536  10.601 -0.7922 -0.5573 -0.2369
  575TMC3     C 8582   1.927   3.876  10.811  0.4610 -0.7436  0.3577
  575TMC3     O 8583   1.915   3.983  10.758 -0.0151 -0.8017  1.0985
  575TMC3     H 8584   2.004   3.614  10.850  0.2361  1.8829 -0.4098
  575TMC3    H1 8585   1.764   3.873  10.624 -1.3010 -0.8740 -2.6473
  575TMC3    H2 8586   1.741   3.452  10.561 -1.4862  0.2341 -0.9698
  575TMC3    C7 8587   1.637   3.689  10.487 -0.3182  0.1540  0.1387
  575TMC3    C8 8588   1.948   3.398  10.723  0.3468  0.1461  0.6227
  575TMC3    O1 8589   1.630   3.806  10.447  0.1074 -0.0389 -0.8470
  575TMC3    O2 8590   2.042   3.390  10.802 -0.0854 -0.0327 -0.0630
  576MPD2     C 8591   1.695   0.197  12.400  0.3440  0.4836 -0.3255
  576MPD2    C1 8592   1.825   0.215  12.439  0.1087 -0.0036  0.6289
  576MPD2    C2 8593   1.845   0.279  12.562 -0.4302  0.7721 -0.4633
  576MPD2    C3 8594   1.742   0.321  12.646  0.4797  0.1791  0.1896
  576MPD2    C4 8595   1.613   0.297  12.606 -0.5375 -0.0687  0.6617
  576MPD2    C5 8596   1.590   0.228  12.487 -0.1362 -0.1825  0.5966
  576MPD2     H 8597   1.948   0.300  12.588 -0.3179  0.1344 -0.3875
  576MPD2    H1 8598   1.523   0.316  12.664 -0.7746  0.2560  0.1823
  576MPD2    H2 8599   1.672   0.150  12.305  1.9613 -0.7728 -0.0972
  576MPD2    H3 8600   1.490   0.205  12.452 -0.2894  0.2148  0.7789
  576MPD2     N 8601   1.777   0.388  12.764 -0.0842  0.1795  0.5082
  576MPD2    H5 8602   1.873   0.410  12.788 -0.1000  0.2352  0.5223
  576MPD2    N1 8603   1.936   0.189  12.351 -0.3338 -0.1467 -0.7202
  576MPD2    H7 8604   2.033   0.201  12.379 -1.1358 -0.2224  2.0908
  577TMC3    C1 8605   2.052   0.089  12.155 -0.6336  0.3867  0.6781
  577TMC3    C2 8606   2.167   0.073  12.224  0.2785 -0.3964  0.0314
  577TMC3    C3 8607   2.280   0.051  12.146  0.3409  0.6796 -0.3108
  577TMC3    C4 8608   2.038   0.097  12.022  0.4123 -0.3507 -1.0109
  577TMC3    C5 8609   2.155   0.079  11.949 -0.1151 -0.2725 -0.1355
  577TMC3    C6 8610   2.274   0.044  12.009  0.2592 -0.8288  0.4371
  577TMC3     C 8611   1.935   0.136  12.223 -1.0222  0.1015  0.0469
  577TMC3     O 8612   1.834   0.101  12.165  0.0356 -0.3278  0.0300
  577TMC3     H 8613   2.163   0.064  12.332  1.3337  1.6181  0.2333
  577TMC3    H1 8614   1.945   0.131  11.979 -2.1535 -3.7449  1.8307
  577TMC3    H2 8615   2.363   0.052  11.949  1.8926  1.0354  3.1346
  577TMC3    C7 8616   2.149   0.093  11.804 -0.4172  0.2462 -1.0174
  577TMC3    C8 8617   2.383   4.706  12.209 -0.2364  0.1726  0.1009
  577TMC3    O1 8618   2.257   0.075  11.744  0.3664  0.0326 -0.2348
  577TMC3    O2 8619   2.390   4.709  12.331 -0.3105 -0.2502 -0.8934
  578MPD2     C 8620   0.169   4.489   1.197 -0.0395 -0.3421 -0.2544
  578MPD2    C1 8621   0.162   4.508   1.058  0.3275 -0.3230  0.0441
  578MPD2    C2 8622   0.278   4.490   0.984  0.5238  0.2120 -0.8038
  578MPD2    C3 8623   0.402   4.480   1.038 -0.2289 -0.2386 -0.0178
  578MPD2    C4 8624   0.412   4.480   1.180 -0.8147  0.4571  0.1091
  578MPD2    C5 8625   0.294   4.476   1.256  0.2760 -0.6373  0.0831
  578MPD2     H 8626   0.278   4.504   0.876 -1.6321 -1.9367 -1.0796
  578MPD2    H1 8627   0.506   4.461   1.231 -0.1890  1.7390 -0.5584
  578MPD2    H2 8628   0.081   4.487   1.260  0.5903 -0.3143  0.6304
  578MPD2    H3 8629   0.297   4.461   1.363  2.0292 -0.4045  0.0772
  578MPD2     N 8630   0.521   4.470   0.960  0.4652  0.1472 -0.3188
  578MPD2    H5 8631   0.515   4.463   0.859 -1.4001  3.1640 -0.4116
  578MPD2    N1 8632   0.032   4.537   1.012  0.0002  0.7828 -0.3710
  578MPD2    H7 8633   4.701   4.576   1.072  0.9616 -0.4236  1.5767
  579TMC3    C1 8634   0.749   4.416   0.929  0.3542 -0.2017  0.5377
  579TMC3    C2 8635   0.875   4.433   0.964 -0.1639  0.3681  0.7279
  579TMC3    C3 8636   0.980   4.346   0.923  0.0399  0.3228 -0.9373
  579TMC3    C4 8637   0.717   4.298   0.862  0.1768 -0.6459 -0.0095
  579TMC3    C5 8638   0.815   4.202   0.843  0.3589 -0.0713  0.8571
  579TMC3    C6 8639   0.946   4.228   0.864 -0.2413  0.3440 -0.0377
  579TMC3     C 8640   0.646   4.484   1.009  0.2219 -0.1711 -0.3896
  579TMC3     O 8641   0.687   4.526   1.115 -0.1774  0.2748 -0.5312
  579TMC3     H 8642   0.903   4.506   1.039 -0.2322  1.2785 -0.1499
  579TMC3    H1 8643   0.612   4.269   0.861  0.5898 -2.1085 -1.7552
  579TMC3    H2 8644   1.030   4.161   0.844 -0.3331  0.2884 -0.2348
  579TMC3    C7 8645   0.769   4.061   0.798  0.1706 -0.0467  0.5107
  579TMC3    C8 8646   1.111   4.346   0.978  0.3601  0.0244 -0.1484
  579TMC3    O1 8647   0.856   3.971   0.809 -0.0523 -0.4099  0.0423
  579TMC3    O2 8648   1.153   4.247   1.038 -0.7569  0.0882 -0.1774
  580TMC3    C1 8649   0.599   3.877  12.718 -1.2234 -0.0842  0.3763
  580TMC3    C2 8650   0.669   3.994  12.740 -0.2208 -0.3297 -0.3955
  580TMC3    C3 8651   0.802   3.982  12.763  0.1259  1.3147  0.4467
  580TMC3    C4 8652   0.652   3.750  12.731 -0.5743  0.2124 -0.0976
  580TMC3    C5 8653   0.787   3.748  12.744 -0.9046 -0.6450  0.4629
  580TMC3    C6 8654   0.860   3.855  12.783  0.2836 -0.6620 -0.7220
  580TMC3     C 8655   0.474   3.904  12.643 -0.2574  0.6950 -0.2139
  580TMC3     O 8656   0.438   4.019  12.613 -0.5111 -0.0471  0.0481
  580TMC3     H 8657   0.618   4.089  12.728 -0.7517 -0.3532  1.6399
  580TMC3    H1 8658   0.593   3.664  12.701 -0.6535 -0.1363  1.0713
  580TMC3    H2 8659   0.965   3.834  12.801  0.1692 -0.7215 -0.1139
  580TMC3    C7 8660   0.845   3.613  12.778  0.1012  0.0045 -0.1815
  580TMC3    C8 8661   0.888   4.093  12.721 -0.4973 -0.3600 -0.2076
  580TMC3    O1 8662   0.903   3.595  12.885  0.5974  0.2619 -0.6191
  580TMC3    O2 8663   0.995   4.116  12.778  0.3255 -0.2193  0.0927
  581MPD2     C 8664   2.600   3.093  14.825 -0.7034 -0.7507  0.3119
  581MPD2    C1 8665   2.494   3.148  14.885  0.2159  0.7134  0.1478
  581MPD2    C2 8666   2.452   3.269  14.839  0.0898 -0.3717 -0.3402
  581MPD2    C3 8667   2.513   3.339  14.742  0.0083  0.8416 -0.0673
  581MPD2    C4 8668   2.639   3.290  14.698 -0.2501 -0.0160 -0.1448
  581MPD2    C5 8669   2.677   3.166  14.741  0.0306 -0.0138 -0.1578
  581MPD2     H 8670   2.360   3.313  14.875  0.4852  1.4273 -1.4884
  581MPD2    H1 8671   2.695   3.331  14.615 -0.2733 -1.9523 -1.1297
  581MPD2    H2 8672   2.634   2.993  14.851  0.6641  0.0180  1.5294
  581MPD2    H3 8673   2.765   3.115  14.704  1.6095  2.5946  0.0404
  581MPD2     N 8674   2.461   3.461  14.687 -0.1188 -0.6485 -0.0439
  581MPD2    H5 8675   2.368   3.485  14.720 -0.3063  0.8910 -1.6711
  581MPD2    N1 8676   2.436   3.076  14.988  0.8117 -0.0767 -0.3416
  581MPD2    H7 8677   2.484   2.993  15.019 -1.0608 -0.4197  1.6326
  582TMC3    C1 8678   2.301   3.069  15.185  0.5509  0.2124 -0.1593
  582TMC3    C2 8679   2.405   3.093  15.278  0.1498 -0.3464  0.2464
  582TMC3    C3 8680   2.366   3.134  15.400  0.2125  0.5891 -0.4354
  582TMC3    C4 8681   2.171   3.090  15.210 -0.5226  0.0943  0.3024
  582TMC3    C5 8682   2.140   3.132  15.338 -0.4908 -0.9262 -0.1668
  582TMC3    C6 8683   2.235   3.154  15.433  0.0568  0.0615 -0.0349
  582TMC3     C 8684   2.320   3.117  15.052  0.6504 -0.5936  0.0925
  582TMC3     O 8685   2.242   3.209  15.015 -0.2906 -0.4192  0.1247
  582TMC3     H 8686   2.509   3.091  15.245  0.2888 -1.1307  0.7379
  582TMC3    H1 8687   2.097   3.073  15.133  0.4145  2.6510 -1.1332
  582TMC3    H2 8688   2.201   3.180  15.532 -2.8441  1.0351 -1.2690
  582TMC3    C7 8689   2.027   3.226  15.345  0.1466 -0.2446  0.7130
  582TMC3    C8 8690   2.448   3.183  15.511  0.3638  0.3177  0.5940
  582TMC3    O1 8691   1.909   3.197  15.330 -0.4089  0.0915 -0.4774
  582TMC3    O2 8692   2.396   3.272  15.584  0.1326  0.3529  0.2080
  583MPD2     C 8693   2.928   0.230  16.855  0.2776  0.7622  0.0504
  583MPD2    C1 8694   2.898   0.318  16.755  0.1253  0.7872  0.7369
  583MPD2    C2 8695   2.795   0.405  16.772 -0.1682  0.7663  0.2436
  583MPD2    C3 8696   2.730   0.411  16.890 -0.7530 -0.2066 -0.2052
  583MPD2    C4 8697   2.765   0.333  16.998  0.3773  0.3705 -0.1668
  583MPD2    C5 8698   2.859   0.238  16.974  0.0458 -0.4202  0.2704
  583MPD2     H 8699   2.769   0.467  16.687  1.0799  1.7931  0.6208
  583MPD2    H1 8700   2.709   0.324  17.091  0.9966  0.5625  0.2221
  583MPD2    H2 8701   3.005   0.154  16.852 -0.4537 -0.0018  0.6958
  583MPD2    H3 8702   2.878   0.161  17.048 -0.4280 -0.3312  0.4855
  583MPD2     N 8703   2.626   0.507  16.891  0.4420 -0.3078 -0.1314
  583MPD2    H5 8704   2.614   0.560  16.805 -0.0589 -0.1111  0.0641
  583MPD2    N1 8705   2.964   0.315  16.631  0.4553  0.3098 -0.0870
  583MPD2    H7 8706   2.944   0.388  16.563  1.2763  1.7684  1.2166
  584TMC3    C1 8707   2.482   0.658  16.984  0.5213  0.7274 -0.0810
  584TMC3    C2 8708   2.527   0.749  16.895 -0.0160  0.1963 -0.6695
  584TMC3    C3 8709   2.494   0.875  16.925 -0.8388  0.4296 -0.8326
  584TMC3    C4 8710   2.388   0.681  17.089  0.4792 -0.1127  1.0219
  584TMC3    C5 8711   2.328   0.807  17.085  0.2791 -0.1884 -0.3006
  584TMC3    C6 8712   2.381   0.901  17.000  0.1823  0.2947 -0.0203
  584TMC3     C 8713   2.563   0.538  17.007  0.1971  0.6452 -0.8134
  584TMC3     O 8714   2.560   0.491  17.117 -0.3155 -0.2408 -0.5207
  584TMC3     H 8715   2.614   0.739  16.831  0.6025  0.2359  0.1589
  584TMC3    H1 8716   2.355   0.604  17.157  0.5780 -0.6041  0.5097
  584TMC3    H2 8717   2.337   1.000  16.996 -0.3752  0.0755  0.7421
  584TMC3    C7 8718   2.230   0.826  17.190 -0.3625 -0.4336 -0.1540
  584TMC3    C8 8719   2.521   0.975  16.822 -0.2622 -0.1846 -0.1689
  584TMC3    O1 8720   2.255   0.766  17.293 -0.4037 -0.1036  0.2345
  584TMC3    O2 8721   2.511   0.940  16.704 -0.4030  0.4181  0.7585
  585MPD2     C 8722   0.839   0.094   0.084 -0.4332 -0.3653 -0.4269
  585MPD2    C1 8723   0.957   0.082   0.020  0.5760  0.3538  0.1150
  585MPD2    C2 8724   1.011   4.694   0.008 -0.0639 -0.1389 -0.7590
  585MPD2    C3 8725   0.943   4.582   0.056 -0.3248  0.5637 -0.0660
  585MPD2    C4 8726   0.826   4.600   0.127 -0.5746 -0.7421 -0.0373
  585MPD2    C5 8727   0.770   4.724   0.133 -0.1603 -0.1314  1.1158
  585MPD2     H 8728   1.099   4.689  17.704 -0.2082 -1.1376 -0.8744
  585MPD2    H1 8729   0.780   4.516   0.178 -3.6839 -0.5424 -2.5219
  585MPD2    H2 8730   0.804   0.196   0.101 -0.5582 -0.3979 -0.4907
  585MPD2    H3 8731   0.688   4.737   0.204 -2.8398  1.3591 -2.2678
  585MPD2     N 8732   0.988   4.446   0.051  0.1763 -0.3188  0.6955
  585MPD2    H5 8733   0.925   4.379   0.093  0.3258  0.8104  2.7180
  585MPD2    N1 8734   1.010   0.204  17.720 -0.7365 -0.7014 -0.2782
  585MPD2    H7 8735   0.945   0.282  17.718 -1.1323 -0.9758  1.8686
  586TMC3    C1 8736   1.131   4.261   0.027  0.0660 -0.1267  0.2364
  586TMC3    C2 8737   1.262   4.216   0.020  0.5961 -0.2134  0.2261
  586TMC3    C3 8738   1.288   4.091   0.067  0.1439  0.3083  0.8445
  586TMC3    C4 8739   1.025   4.184   0.072  0.6485 -0.3806 -0.0236
  586TMC3    C5 8740   1.062   4.061   0.115  0.5471  0.3257  0.0363
  586TMC3    C6 8741   1.189   4.014   0.118 -0.4356  0.4694 -0.9368
  586TMC3     C 8742   1.112   4.403   0.005  0.6597 -0.3386  0.2242
  586TMC3     O 8743   1.206   4.470  17.715  0.1336  0.3067 -0.4304
  586TMC3     H 8744   1.341   4.281  17.743  0.2627 -0.1093 -0.3239
  586TMC3    H1 8745   0.919   4.203   0.060  0.4269 -1.5678  0.0494
  586TMC3    H2 8746   1.203   3.908   0.136  0.7899  0.6386 -0.9572
  586TMC3    C7 8747   0.971   3.956   0.110  0.4101 -0.3383  0.3845
  586TMC3    C8 8748   1.413   4.016   0.053  0.2594 -0.5254 -0.5929
  586TMC3    O1 8749   0.994   3.864   0.188 -0.1854  0.0508  0.0152
  586TMC3    O2 8750   1.415   3.897   0.081  0.0594 -0.2173  0.0534
  587TMC3    C1 8751   4.185   2.583  17.261  0.1612  0.5262  0.6630
  587TMC3    C2 8752   4.174   2.681  17.167  0.1615 -0.2986  0.4650
  587TMC3    C3 8753   4.286   2.731  17.113 -0.3558 -0.3221 -0.7830
  587TMC3    C4 8754   4.307   2.542  17.302 -0.6187 -0.5662 -0.5683
  587TMC3    C5 8755   4.418   2.601  17.258 -0.0984  0.0043  0.4098
  587TMC3    C6 8756   4.407   2.695  17.162 -0.9279 -0.3195  0.1316
  587TMC3     C 8757   4.074   2.498  17.284  0.0031 -0.4106  0.0456
  587TMC3     O 8758   4.100   2.387  17.325  0.6900 -0.0315  0.0437
  587TMC3     H 8759   4.080   2.710  17.122  1.3475  1.6430 -0.7696
  587TMC3    H1 8760   4.323   2.473  17.385 -2.0716  0.6982  0.7575
  587TMC3    H2 8761   4.490   2.755  17.129  1.0224 -3.2622 -0.3429
  587TMC3    C7 8762   4.552   2.575  17.320  1.1317  0.3269  0.4735
  587TMC3    C8 8763   4.286   2.808  16.987  0.1031  0.0926 -0.2758
  587TMC3    O1 8764   4.549   2.519  17.430 -0.0041 -0.0151  0.5547
  587TMC3    O2 8765   4.392   2.803  16.928 -0.4299  0.0262 -0.2376
  588TMC3    C1 8766   1.669   1.396  10.074  0.2836  0.4443 -0.4535
  588TMC3    C2 8767   1.577   1.303  10.110 -0.2325 -0.1785  0.1605
  588TMC3    C3 8768   1.588   1.241  10.234 -0.0615 -0.3837 -0.0707
  588TMC3    C4 8769   1.770   1.423  10.159  0.5575 -0.1584  0.3775
  588TMC3    C5 8770   1.764   1.370  10.285  0.1906 -0.0644 -0.2338
  588TMC3    C6 8771   1.675   1.277  10.325  0.0391 -0.7042 -0.4766
  588TMC3     C 8772   1.688   1.435   9.932  0.6069 -0.2936 -0.3666
  588TMC3     O 8773   1.653   1.360   9.840  0.3338 -0.4358 -0.6728
  588TMC3     H 8774   1.506   1.266  10.037 -0.3116  0.4220 -0.0653
  588TMC3    H1 8775   1.864   1.459  10.120  0.4723 -0.3277  0.0156
  588TMC3    H2 8776   1.672   1.236  10.426  1.1898  2.9116  1.0227
  588TMC3    C7 8777   1.865   1.418  10.377 -0.1555 -0.0227  0.0203
  588TMC3    C8 8778   1.491   1.131  10.263  0.1561 -0.1346  0.5210
  588TMC3    O1 8779   1.920   1.344  10.456 -0.5769  0.0058  0.2900
  588TMC3    O2 8780   1.397   1.126  10.187  0.1118  0.3007 -0.1079
  589TMC3    C1 8781   0.829   2.209   1.497 -0.7368 -0.1772  0.3688
  589TMC3    C2 8782   0.924   2.117   1.479  0.4408  0.4707  0.5445
  589TMC3    C3 8783   0.880   1.999   1.435 -0.1638 -0.8130 -1.2352
  589TMC3    C4 8784   0.703   2.183   1.468 -0.5283  0.3612 -0.2430
  589TMC3    C5 8785   0.662   2.061   1.418  0.5089  0.3401  0.0371
  589TMC3    C6 8786   0.751   1.962   1.409 -0.1821  0.0481 -0.9236
  589TMC3     C 8787   0.876   2.321   1.581  0.1283  0.0122  0.6636
  589TMC3     O 8788   0.984   2.311   1.637  0.4568  0.2514 -0.4616
  589TMC3     H 8789   1.025   2.130   1.514  0.2858 -3.8576  2.5351
  589TMC3    H1 8790   0.630   2.264   1.473  1.6041  2.2353  0.6991
  589TMC3    H2 8791   0.734   1.856   1.394 -0.9753  0.1392 -0.6568
  589TMC3    C7 8792   0.571   2.045   1.305 -0.1036  0.0793 -0.6085
  589TMC3    C8 8793   0.975   1.892   1.420  0.1407  0.1006 -0.0992
  589TMC3    O1 8794   0.585   1.939   1.245 -0.3116 -0.1529 -0.2133
  589TMC3    O2 8795   0.945   1.773   1.444  0.3210  0.0904 -0.6077
  590MPD2     C 8796   0.398   1.162  16.813 -0.2147 -0.9196  0.3644
  590MPD2    C1 8797   0.343   1.280  16.761  0.0416 -0.1017 -0.0969
  590MPD2    C2 8798   0.428   1.366  16.699  0.2023  0.0897 -0.3235
  590MPD2    C3 8799   0.565   1.336  16.681  0.4910 -0.1838  0.9447
  590MPD2    C4 8800   0.612   1.221  16.741 -0.3691  0.1924  0.9785
  590MPD2    C5 8801   0.532   1.141  16.817  0.0182 -0.0960 -0.7597
  590MPD2     H 8802   0.398   1.461  16.654  0.8284  0.6620  0.4685
  590MPD2    H1 8803   0.718   1.199  16.739 -0.3975  0.0604  0.9525
  590MPD2    H2 8804   0.335   1.096  16.871 -2.3776  0.3387 -0.5487
  590MPD2    H3 8805   0.577   1.064  16.879 -2.0493  0.6512  1.6816
  590MPD2     N 8806   0.643   1.417  16.593 -0.6462  0.4570  0.4124
  590MPD2    H5 8807   0.610   1.508  16.562 -1.6491 -0.3417 -0.8453
  590MPD2    N1 8808   0.206   1.323  16.781  0.1029 -0.0448 -0.4159
  590MPD2    H7 8809   0.182   1.412  16.739  1.5519 -0.7552 -2.7200
  591TMC3    C1 8810   0.816   1.472  16.441 -0.4681 -0.0734 -0.0020
  591TMC3    C2 8811   0.862   1.423  16.323 -0.1028 -0.0766 -0.5541
  591TMC3    C3 8812   0.861   1.508  16.224  0.6405  0.4436  0.0697
  591TMC3    C4 8813   0.801   1.603  16.470 -0.4727 -0.0965 -0.5742
  591TMC3    C5 8814   0.822   1.692  16.364 -0.0361  0.8268  0.1145
  591TMC3    C6 8815   0.835   1.639  16.241  0.0642  0.2668 -0.5480
  591TMC3     C 8816   0.758   1.372  16.525 -0.0414  0.4551  0.7015
  591TMC3     O 8817   0.795   1.255  16.510  0.3680  0.3480  0.0359
  591TMC3     H 8818   0.872   1.317  16.300  2.1159 -0.1042  0.5504
  591TMC3    H1 8819   0.759   1.645  16.561 -0.7762  1.9300 -1.6594
  591TMC3    H2 8820   0.815   1.699  16.153 -0.9769 -0.2379 -0.6496
  591TMC3    C7 8821   0.754   1.819  16.371 -0.6256  0.4277 -0.5993
  591TMC3    C8 8822   0.889   1.457  16.084 -0.0249  0.2314 -0.2554
  591TMC3    O1 8823   0.679   1.836  16.463 -0.0146 -0.2263 -0.1502
  591TMC3    O2 8824   0.862   1.341  16.062  0.3048 -1.1745 -0.2500
  592MPD2     C 8825   1.096   3.509  11.790 -1.0697  0.0861  0.5613
  592MPD2    C1 8826   1.116   3.559  11.914 -0.3409 -0.1000  0.1866
  592MPD2    C2 8827   1.126   3.467  12.023  0.2906 -0.4338 -0.3023
  592MPD2    C3 8828   1.101   3.331  11.998  0.1861  0.1147 -0.0051
  592MPD2    C4 8829   1.081   3.287  11.868  0.3760 -0.1838  0.0224
  592MPD2    C5 8830   1.086   3.378  11.765 -0.4232  0.8029 -0.2869
  592MPD2     H 8831   1.126   3.485  12.130  1.1408 -1.1584 -0.1845
  592MPD2    H1 8832   1.045   3.186  11.846 -0.0744  0.4713 -2.2712
  592MPD2    H2 8833   1.078   3.571  11.703  4.6186 -1.0410 -1.4603
  592MPD2    H3 8834   1.061   3.356  11.662  0.3340  0.5654 -0.4239
  592MPD2     N 8835   1.090   3.243  12.112 -0.0992 -0.2717  0.2701
  592MPD2    H5 8836   1.072   3.284  12.204 -0.0007  0.3976 -0.0052
  592MPD2    N1 8837   1.128   3.702  11.926 -0.3345 -0.8364 -0.1007
  592MPD2    H7 8838   1.095   3.762  11.851 -2.1282 -1.3619  0.2739
  593TMC3    C1 8839   1.153   3.905  12.040  0.6051  0.1057  0.0804
  593TMC3    C2 8840   1.166   3.971  12.167  0.0841 -0.9063 -0.4982
  593TMC3    C3 8841   1.202   4.103  12.159 -0.0817  0.0231 -0.1875
  593TMC3    C4 8842   1.166   3.974  11.920  0.3289  0.5318 -0.7531
  593TMC3    C5 8843   1.207   4.103  11.930  0.2180 -0.6099  0.8720
  593TMC3    C6 8844   1.227   4.174  12.046  0.3608  0.0454 -0.7802
  593TMC3     C 8845   1.144   3.763  12.044  0.2655 -0.6879 -1.0427
  593TMC3     O 8846   1.167   3.708  12.151 -0.3722 -0.2651 -0.5291
  593TMC3     H 8847   1.165   3.920  12.262  0.5624  1.1675  0.6011
  593TMC3    H1 8848   1.165   3.923  11.824  0.6831 -2.8676  1.0201
  593TMC3    H2 8849   1.230   4.282  12.038 -0.4227  0.1971  0.9466
  593TMC3    C7 8850   1.224   4.175  11.813 -0.0218  0.3207  0.4077
  593TMC3    C8 8851   1.254   4.161  12.281  0.7847  0.3617  0.3532
  593TMC3    O1 8852   1.308   4.267  11.825  0.5133 -0.1834  0.1160
  593TMC3    O2 8853   1.211   4.114  12.385 -0.2880 -0.0307  0.7841
  594MPD2     C 8854   4.453   1.920  14.075  0.6403 -0.0581  0.2472
  594MPD2    C1 8855   4.487   1.932  14.211  0.2553  0.1071 -0.7541
  594MPD2    C2 8856   4.556   2.041  14.248  0.3502 -0.5863 -0.9381
  594MPD2    C3 8857   4.590   2.142  14.160  0.0987 -0.4210  0.0600
  594MPD2    C4 8858   4.559   2.131  14.029 -0.2452 -0.6293  0.5611
  594MPD2    C5 8859   4.495   2.019  13.987 -0.6028  0.3218 -0.5043
  594MPD2     H 8860   4.569   2.060  14.354  2.0379  0.2767 -1.2966
  594MPD2    H1 8861   4.575   2.207  13.954 -0.6302 -0.5632  0.5448
  594MPD2    H2 8862   4.384   1.841  14.048 -1.6566  1.5868  1.3436
  594MPD2    H3 8863   4.478   2.003  13.881 -1.0346 -2.2594 -0.0501
  594MPD2     N 8864   4.641   2.255  14.220 -0.5544  0.8056 -0.3358
  594MPD2    H5 8865   4.673   2.238  14.315 -0.8340  1.5833 -0.1043
  594MPD2    N1 8866   4.440   1.836  14.306  0.2555  0.3529  0.0537
  594MPD2    H7 8867   4.370   1.767  14.278 -0.4273  2.1388 -2.6410
  595TMC3    C1 8868   0.121   2.656  14.298 -0.0503  0.3836 -0.0252
  595TMC3    C2 8869   0.075   2.563  14.207  0.3685  0.1689  0.2120
  595TMC3    C3 8870   4.710   2.482  14.239 -0.0299  0.1030 -0.1663
  595TMC3    C4 8871   0.066   2.665  14.425 -0.5666  0.2596 -0.9301
  595TMC3    C5 8872   4.701   2.592  14.452 -0.1656  0.2687  0.1417
  595TMC3    C6 8873   4.654   2.493  14.360  0.5059  0.1652  0.3205
  595TMC3     C 8874   0.243   2.733  14.284 -0.1893  0.3053  0.4507
  595TMC3     O 8875   0.246   2.839  14.347 -0.0984 -0.1841 -0.9122
  595TMC3     H 8876   0.116   2.565  14.106  1.8325  0.5016  0.8021
  595TMC3    H1 8877   0.088   2.750  14.488 -0.1976 -1.3885  1.1544
  595TMC3    H2 8878   4.563   2.443  14.390  1.6144 -0.6510  2.3389
  595TMC3    C7 8879   4.616   2.614  14.567 -0.4588 -0.4138 -0.3625
  595TMC3    C8 8880   4.665   2.377  14.151  0.0597 -0.1922  0.1968
  595TMC3    O1 8881   4.495   2.581  14.560 -0.4014  0.4072  0.1766
  595TMC3    O2 8882   4.682   2.397  14.031 -0.0642 -0.3252  0.1495
  596MPD2     C 8883   3.650   0.227  16.929 -0.1267  0.3600 -0.6650
  596MPD2    C1 8884   3.659   0.345  16.861 -0.2505  1.3567  0.2011
  596MPD2    C2 8885   3.709   0.335  16.737  0.0236 -0.6041  0.5840
  596MPD2    C3 8886   3.735   0.218  16.673 -0.5592 -0.1764  0.1227
  596MPD2    C4 8887   3.714   0.103  16.742  0.1229 -0.1354 -0.5597
  596MPD2    C5 8888   3.672   0.109  16.870 -0.1253  0.3627 -0.8788
  596MPD2     H 8889   3.722   0.429  16.684 -0.0517 -1.3948 -0.8150
  596MPD2    H1 8890   3.731   0.006  16.696  1.2390 -0.5104  0.6147
  596MPD2    H2 8891   3.605   0.227  17.028 -1.4285 -0.9074 -1.2590
  596MPD2    H3 8892   3.658   0.018  16.927 -1.0483  0.4674 -0.9334
  596MPD2     N 8893   3.782   0.218  16.538 -0.3932  0.5469  0.5107
  596MPD2    H5 8894   3.818   0.129  16.508 -1.9499 -0.7894  2.6467
  596MPD2    N1 8895   3.619   0.469  16.906 -0.0486 -0.5073  0.4566
  596MPD2    H7 8896   3.653   0.551  16.856  1.0976 -0.3554  1.4853
  597TMC3    C1 8897   3.533   0.640  17.037  0.2524  0.3006  0.1358
  597TMC3    C2 8898   3.605   0.751  16.987 -0.4775 -0.0177 -0.1833
  597TMC3    C3 8899   3.548   0.876  16.977  0.4473  1.4335  0.2805
  597TMC3    C4 8900   3.410   0.663  17.085  0.1146 -0.2245 -0.0587
  597TMC3    C5 8901   3.361   0.790  17.089  0.2446  0.2989 -0.2220
  597TMC3    C6 8902   3.425   0.898  17.031 -0.1181 -1.1230 -0.4179
  597TMC3     C 8903   3.567   0.501  17.024 -0.0971  0.1167  0.3107
  597TMC3     O 8904   3.505   0.420  17.098  0.5727  0.1685 -0.0286
  597TMC3     H 8905   3.705   0.741  16.946  0.5277  1.2089  1.9690
  597TMC3    H1 8906   3.347   0.580  17.115  1.0200 -0.7229  0.4687
  597TMC3    H2 8907   3.389   0.999  17.041  1.1572 -0.5346 -1.8350
  597TMC3    C7 8908   3.224   0.811  17.141  0.0630 -0.4899 -0.4360
  597TMC3    C8 8909   3.624   0.977  16.906  0.2956  0.4742  0.4976
  597TMC3    O1 8910   3.173   0.724  17.209  0.6373  0.6623  0.4116
  597TMC3    O2 8911   3.604   1.090  16.939 -0.2873  0.1100 -0.3786
  598TMC3    C1 8912   1.563   1.672  15.338  0.3891  0.7409  0.0479
  598TMC3    C2 8913   1.522   1.541  15.326  0.2312  0.4641 -0.3347
  598TMC3    C3 8914   1.410   1.510  15.249 -0.5157  0.1454  0.4625
  598TMC3    C4 8915   1.497   1.777  15.283 -0.6037  0.2833  0.3501
  598TMC3    C5 8916   1.392   1.744  15.198  0.5689 -0.8797  0.6118
  598TMC3    C6 8917   1.349   1.614  15.190 -0.0763 -0.7114  0.2559
  598TMC3     C 8918   1.652   1.712  15.451  0.6699 -0.4444 -0.2250
  598TMC3     O 8919   1.705   1.820  15.442 -0.3320 -0.6853 -0.0630
  598TMC3     H 8920   1.585   1.468  15.376 -1.1378 -1.0976 -0.8604
  598TMC3    H1 8921   1.522   1.879  15.307  3.2269 -0.7748  0.8468
  598TMC3    H2 8922   1.260   1.597  15.130  0.9560 -0.7205 -1.2543
  598TMC3    C7 8923   1.385   1.820  15.073  0.4460 -0.2784 -0.3354
  598TMC3    C8 8924   1.368   1.382  15.208 -0.6200  0.4009 -0.5691
  598TMC3    O1 8925   1.314   1.783  14.986 -0.4297 -0.1051  0.3797
  598TMC3    O2 8926   1.296   1.374  15.107  0.0171 -0.2724  0.0815
  599MPD2     C 8927   2.072   3.821  15.842  0.0947 -0.1052 -0.1993
  599MPD2    C1 8928   2.009   3.703  15.867  0.1939  0.5047  1.2979
  599MPD2    C2 8929   1.887   3.705  15.933 -0.0867  0.4827 -0.8617
  599MPD2    C3 8930   1.838   3.829  15.974 -0.1472  0.0677  0.2247
  599MPD2    C4 8931   1.901   3.944  15.950 -0.2639 -0.8583 -0.3998
  599MPD2    C5 8932   2.016   3.939  15.882 -0.2118  0.5846  0.3681
  599MPD2     H 8933   1.832   3.612  15.944 -0.1138  0.6344  0.2350
  599MPD2    H1 8934   1.866   4.041  15.984 -0.9037 -1.5055  0.7927
  599MPD2    H2 8935   2.170   3.829  15.796  0.3950 -1.5008  0.1821
  599MPD2    H3 8936   2.071   4.029  15.856  2.3509 -0.8586  0.8523
  599MPD2     N 8937   1.722   3.844  16.053 -0.1411  0.2143  0.3140
  599MPD2    H5 8938   1.721   3.938  16.091  1.7266 -0.3168  1.6921
  599MPD2    N1 8939   2.073   3.593  15.813 -1.2088  0.0036 -0.1723
  599MPD2    H7 8940   2.167   3.612  15.779 -1.2488 -1.9153 -1.3758
  600TMC3    C1 8941   1.546   3.790  16.194  0.1959 -0.2351 -0.9293
  600TMC3    C2 8942   1.482   3.698  16.273  0.2770  0.0942  0.7761
  600TMC3    C3 8943   1.369   3.740  16.333 -0.6484 -0.8818  0.6865
  600TMC3    C4 8944   1.501   3.921  16.182  0.9550  0.2092 -0.1368
  600TMC3    C5 8945   1.395   3.960  16.256  0.0651 -0.2374  0.3904
  600TMC3    C6 8946   1.321   3.868  16.329 -1.0989  0.0119 -0.8551
  600TMC3     C 8947   1.640   3.745  16.099 -0.4459  0.2591 -0.1553
  600TMC3     O 8948   1.652   3.624  16.094 -0.3775 -0.0027 -0.4536
  600TMC3     H 8949   1.516   3.596  16.280  1.0931  0.2605 -0.6614
  600TMC3    H1 8950   1.534   3.997  16.113  0.1203  1.5462  0.9525
  600TMC3    H2 8951   1.230   3.889  16.384 -1.4838  0.7552 -1.8002
  600TMC3    C7 8952   1.376   4.102  16.270 -0.0638 -0.1532 -1.3755
  600TMC3    C8 8953   1.306   3.648  16.420 -0.3834  0.5030  0.1824
  600TMC3    O1 8954   1.269   4.135  16.323  0.4667 -0.2929 -0.0621
  600TMC3    O2 8955   1.379   3.574  16.482  0.1482 -0.1197 -0.1599
  601MPD2     C 8956   3.131   2.388   0.878 -0.3299  0.1092 -0.2324
  601MPD2    C1 8957   3.131   2.278   0.796  0.4438  0.2393 -0.2928
  601MPD2    C2 8958   3.142   2.149   0.841 -0.6619  0.0079  0.0460
  601MPD2    C3 8959   3.185   2.134   0.973  0.7572 -0.0407  0.1872
  601MPD2    C4 8960   3.182   2.249   1.057 -0.0379 -0.8344 -0.2799
  601MPD2    C5 8961   3.159   2.374   1.007 -0.5431 -0.4520 -0.4178
  601MPD2     H 8962   3.127   2.061   0.780 -0.3976 -0.8373  1.1859
  601MPD2    H1 8963   3.214   2.242   1.160  0.0270  1.1728 -0.1567
  601MPD2    H2 8964   3.110   2.489   0.845  0.2096 -0.5192 -2.4746
  601MPD2    H3 8965   3.166   2.460   1.073  2.5758 -1.7467  0.9305
  601MPD2     N 8966   3.207   2.018   1.042  0.2617 -0.3390  0.0132
  601MPD2    H5 8967   3.200   2.025   1.143 -1.2166 -1.4597 -0.0220
  601MPD2    N1 8968   3.112   2.292   0.660 -0.5612 -0.1716  0.4172
  601MPD2    H7 8969   3.109   2.211   0.599  0.5389 -0.5312  0.8450
  602TMC3    C1 8970   3.091   2.398   0.456 -0.0468 -0.1517  0.6026
  602TMC3    C2 8971   3.162   2.498   0.388 -0.2981 -0.1549 -0.3189
  602TMC3    C3 8972   3.118   2.533   0.259 -0.2667 -0.2393  0.8983
  602TMC3    C4 8973   2.963   2.372   0.411 -0.1921  0.0148 -0.2945
  602TMC3    C5 8974   2.936   2.400   0.286  0.7181 -0.5579 -0.1408
  602TMC3    C6 8975   3.009   2.481   0.205  0.0390 -0.1604 -0.0844
  602TMC3     C 8976   3.100   2.410   0.595  0.1689  0.0136 -0.6237
  602TMC3     O 8977   3.145   2.522   0.621  0.0044 -0.0991  0.0176
  602TMC3     H 8978   3.257   2.524   0.432 -0.6793  0.0150  0.4128
  602TMC3    H1 8979   2.898   2.303   0.463  1.0520  0.5096  1.9214
  602TMC3    H2 8980   3.004   2.476   0.097  2.1804 -0.6306 -0.1700
  602TMC3    C7 8981   2.814   2.352   0.227  0.1629 -0.5988  0.2360
  602TMC3    C8 8982   3.176   2.639   0.190 -0.4534 -0.2089  0.0677
  602TMC3    O1 8983   2.753   2.257   0.270  0.2060 -0.3840  0.1210
  602TMC3    O2 8984   3.295   2.664   0.201 -0.2912  0.9712  0.3383
  603TMC3    C1 8985   1.371   3.269  11.247  0.5023  0.2438 -0.2026
  603TMC3    C2 8986   1.464   3.192  11.316  0.1306  0.7729 -0.2949
  603TMC3    C3 8987   1.578   3.249  11.363 -0.6561  0.4236 -0.0171
  603TMC3    C4 8988   1.399   3.399  11.223 -0.6042 -0.3404  0.2445
  603TMC3    C5 8989   1.527   3.449  11.261 -0.1896  0.2152 -0.5249
  603TMC3    C6 8990   1.612   3.379  11.344 -0.6370 -0.1997 -0.1272
  603TMC3     C 8991   1.239   3.221  11.218 -0.5396  0.8279 -0.3326
  603TMC3     O 8992   1.189   3.265  11.115 -0.5381  0.5602 -0.0171
  603TMC3     H 8993   1.466   3.083  11.315  3.7625  0.8450 -0.5066
  603TMC3    H1 8994   1.322   3.460  11.177 -0.4306  0.8031  1.4645
  603TMC3    H2 8995   1.705   3.430  11.367 -0.6290  0.1266 -0.8804
  603TMC3    C7 8996   1.575   3.569  11.195  0.0433  0.5107 -0.1779
  603TMC3    C8 8997   1.672   3.171  11.436  0.3653  0.1368 -0.1485
  603TMC3    O1 8998   1.689   3.597  11.226 -0.4568 -0.6820 -0.0080
  603TMC3    O2 8999   1.661   3.050  11.426 -0.3332 -0.3012  0.0835
  604MPD2     C 9000   2.858   1.595  16.430 -0.0501 -0.3891 -0.6174
  604MPD2    C1 9001   2.755   1.510  16.394  0.3961 -0.2766  0.1750
  604MPD2    C2 9002   2.762   1.449  16.271  0.2503  1.2337 -0.0949
  604MPD2    C3 9003   2.876   1.465  16.199 -0.4153  0.3844 -0.8761
  604MPD2    C4 9004   2.989   1.537  16.238  0.1702 -0.1333 -0.2411
  604MPD2    C5 9005   2.973   1.608  16.352  0.2177  0.0792 -0.1725
  604MPD2     H 9006   2.683   1.382  16.240 -0.1516  1.7234 -0.1188
  604MPD2    H1 9007   3.068   1.558  16.166 -0.9843 -1.3783 -1.8743
  604MPD2    H2 9008   2.850   1.654  16.521  0.3248  1.4457 -1.7644
  604MPD2    H3 9009   3.058   1.671  16.376  0.7335 -0.0886 -1.5662
  604MPD2     N 9010   2.871   1.407  16.073  0.1355 -0.0068  0.2559
  604MPD2    H5 9011   2.779   1.394  16.033  1.0140  1.1649 -2.1524
  604MPD2    N1 9012   2.644   1.501  16.484 -0.1190  0.0667  0.3757
  604MPD2    H7 9013   2.656   1.560  16.566  0.4725 -1.2166  1.2208
  605TMC3    C1 9014   2.447   1.461  16.584  0.6482  0.3253 -0.4570
  605TMC3    C2 9015   2.528   1.518  16.682  0.4449  0.4161 -0.2534
  605TMC3    C3 9016   2.491   1.635  16.745 -0.4170 -0.3645  0.2529
  605TMC3    C4 9017   2.329   1.511  16.550  0.1676 -0.4114  0.4966
  605TMC3    C5 9018   2.293   1.631  16.605 -0.0353 -0.9583  0.3754
  605TMC3    C6 9019   2.376   1.688  16.702  0.2195  0.2284  0.8427
  605TMC3     C 9020   2.529   1.432  16.467 -0.0534 -0.3730 -0.1454
  605TMC3     O 9021   2.483   1.377  16.369 -0.1949  0.6113 -0.1953
  605TMC3     H 9022   2.619   1.472  16.717  0.6121  1.8620  1.1602
  605TMC3    H1 9023   2.278   1.468  16.465 -0.7006 -0.1946  0.9128
  605TMC3    H2 9024   2.342   1.779  16.748 -2.0472  0.9814 -2.2992
  605TMC3    C7 9025   2.173   1.697  16.565 -0.1170 -0.4356 -0.2668
  605TMC3    C8 9026   2.605   1.727  16.736  0.0005  0.4701 -0.1117
  605TMC3    O1 9027   2.159   1.819  16.583 -0.4201  0.2855 -0.6828
  605TMC3    O2 9028   2.708   1.689  16.685  0.2274  0.1320 -0.4765
  606TMC3    C1 9029   3.455   0.291  17.443  0.3979  0.1809 -0.4157
  606TMC3    C2 9030   3.405   0.265  17.568  0.6141  0.4503  0.4977
  606TMC3    C3 9031   3.363   0.136  17.592  0.0814 -0.0142 -0.1781
  606TMC3    C4 9032   3.470   0.200  17.352 -0.2895 -0.2951  0.0461
  606TMC3    C5 9033   3.440   0.073  17.380  0.0048 -0.4836 -0.4489
  606TMC3    C6 9034   3.375   0.042  17.495  0.1132 -0.0757 -0.0505
  606TMC3     C 9035   3.513   0.426  17.434 -0.4686 -0.1325  0.4682
  606TMC3     O 9036   3.444   0.504  17.494 -0.3548  0.8106 -0.4779
  606TMC3     H 9037   3.372   0.345  17.633 -0.5116  0.9070 -0.6467
  606TMC3    H1 9038   3.510   0.221  17.254 -3.1740  0.6331 -0.9231
  606TMC3    H2 9039   3.358   4.678  17.520 -0.5599  0.2353  0.7825
  606TMC3    C7 9040   3.487   4.710  17.278  0.0068 -0.5602 -0.6013
  606TMC3    C8 9041   3.380   0.086  17.727  0.1863  0.3899 -0.4296
  606TMC3    O1 9042   3.576   4.735  17.199 -0.5470 -0.4372  0.5427
  606TMC3    O2 9043   3.384   4.705  17.744  0.6012 -0.0275  0.3272
  607MPD2     C 9044   1.273   2.781  11.633 -0.0765 -0.4878 -0.0255
  607MPD2    C1 9045   1.284   2.847  11.752  0.0378  0.2718  0.2261
  607MPD2    C2 9046   1.275   2.769  11.868  0.4983  0.7163  0.6566
  607MPD2    C3 9047   1.262   2.628  11.862  0.5290  0.2574 -0.0283
  607MPD2    C4 9048   1.246   2.572  11.742  0.3216 -0.3999  0.0206
  607MPD2    C5 9049   1.252   2.648  11.629  0.0463 -0.4261 -0.5647
  607MPD2     H 9050   1.296   2.821  11.960  2.0676 -1.0373  1.2931
  607MPD2    H1 9051   1.218   2.468  11.732 -1.9695  0.1539  0.6652
  607MPD2    H2 9052   1.259   2.831  11.538  0.2926 -0.7138 -0.1969
  607MPD2    H3 9053   1.238   2.594  11.535 -3.3954  1.4352 -1.1423
  607MPD2     N 9054   1.264   2.558  11.986 -0.1709 -0.5098 -0.2606
  607MPD2    H5 9055   1.262   2.622  12.065  0.6012 -2.1033  1.0370
  607MPD2    N1 9056   1.293   2.986  11.767 -0.0986  0.2044  0.1683
  607MPD2    H7 9057   1.274   3.013  11.863  2.0725  1.0482  0.3598
  608TMC3    C1 9058   1.405   3.184  11.741 -0.4699 -0.8949  0.1250
  608TMC3    C2 9059   1.438   3.169  11.874 -0.4450 -0.2578  0.6827
  608TMC3    C3 9060   1.465   3.286  11.945  1.0146 -0.2149 -0.4054
  608TMC3    C4 9061   1.404   3.313  11.681 -0.0726  0.6231 -0.2210
  608TMC3    C5 9062   1.445   3.423  11.759 -0.3332  0.2794  0.4521
  608TMC3    C6 9063   1.467   3.411  11.894 -0.4427 -0.7743 -0.0229
  608TMC3     C 9064   1.344   3.075  11.675 -0.6753 -0.2944  0.7839
  608TMC3     O 9065   1.353   3.065  11.553  0.5239  0.2981  0.2359
  608TMC3     H 9066   1.447   3.071  11.920  1.8754 -0.9992 -1.3668
  608TMC3    H1 9067   1.377   3.337  11.579  0.0556 -0.6434 -0.5573
  608TMC3    H2 9068   1.474   3.500  11.956  0.3033 -0.9385  0.1339
  608TMC3    C7 9069   1.433   3.550  11.690  0.2361 -0.1293 -0.1224
  608TMC3    C8 9070   1.504   3.266  12.087 -0.2889  0.1406 -0.2302
  608TMC3    O1 9071   1.383   3.555  11.577 -0.0767 -0.6018  0.0743
  608TMC3    O2 9072   1.558   3.357  12.149 -0.0216  0.2869 -0.3677
  609TMC3    C1 9073   4.545   2.367   9.713  0.1700 -0.5242  0.5092
  609TMC3    C2 9074   4.515   2.257   9.640  0.3854  1.3254  0.4907
  609TMC3    C3 9075   4.593   2.142   9.649  0.7403 -0.1064 -0.3312
  609TMC3    C4 9076   4.662   2.366   9.781 -1.0320  0.4475  0.7043
  609TMC3    C5 9077   0.007   2.258   9.785 -0.0556  0.1029  0.7643
  609TMC3    C6 9078   4.711   2.140   9.724  0.4599 -0.6743 -0.4492
  609TMC3     C 9079   4.457   2.475   9.732 -0.2534  0.4296 -0.6296
  609TMC3     O 9080   4.340   2.456   9.702 -0.3586 -0.6128  0.3700
  609TMC3     H 9081   4.425   2.251   9.580  1.6786 -2.3312 -1.1564
  609TMC3    H1 9082   4.695   2.453   9.838 -0.2230 -0.2100  1.2323
  609TMC3    H2 9083   0.042   2.059   9.730 -0.6945 -1.4923  2.0977
  609TMC3    C7 9084   0.132   2.295   9.833  0.0536 -0.2826  0.4814
  609TMC3    C8 9085   4.564   2.030   9.561 -0.3413 -0.4810 -0.5809
  609TMC3    O1 9086   0.162   2.411   9.804 -0.1411 -0.0179 -0.4713
  609TMC3    O2 9087   4.469   2.037   9.485 -0.1675 -0.3108 -0.0485
  610TMC3    C1 9088   1.932   2.739  12.560  0.2334 -0.7676 -0.1884
  610TMC3    C2 9089   1.856   2.779  12.455 -1.0972  0.0284 -0.4737
  610TMC3    C3 9090   1.834   2.704  12.339 -0.4248 -0.1560  0.1304
  610TMC3    C4 9091   2.006   2.614  12.546 -0.4360 -0.2657 -0.2039
  610TMC3    C5 9092   1.993   2.547  12.423 -0.1903  0.0172 -0.1831
  610TMC3    C6 9093   1.896   2.584  12.327 -0.0104  0.4676  0.8626
  610TMC3     C 9094   1.915   2.807  12.689 -0.5147  0.3051 -0.0039
  610TMC3     O 9095   1.833   2.898  12.678  0.5578 -0.2391  0.4179
  610TMC3     H 9096   1.833   2.884  12.441  0.4210  0.4706  0.3766
  610TMC3    H1 9097   2.086   2.587  12.613 -1.9972  0.9373  2.1448
  610TMC3    H2 9098   1.884   2.525  12.237  1.2874  1.8155 -0.1865
  610TMC3    C7 9099   2.084   2.438  12.394 -0.5550 -0.2931  0.0274
  610TMC3    C8 9100   1.801   2.779  12.217  0.0757 -0.2643  0.1149
  610TMC3    O1 9101   2.143   2.394  12.493 -0.1899  0.3918  0.5066
  610TMC3    O2 9102   1.837   2.896  12.215  0.2122  0.2847  0.3282
  611MPD2     C 9103   0.676   3.620  10.113  0.3858 -0.1946 -0.3252
  611MPD2    C1 9104   0.745   3.582  10.222  0.2589 -1.1073 -0.3623
  611MPD2    C2 9105   0.848   3.659  10.270  0.8198  0.1810 -0.5047
  611MPD2    C3 9106   0.894   3.771  10.207  0.6419 -0.0847  0.5736
  611MPD2    C4 9107   0.829   3.810  10.091  0.2444 -0.4551 -0.5891
  611MPD2    C5 9108   0.718   3.734  10.051  0.2480  0.1569  0.0630
  611MPD2     H 9109   0.899   3.623  10.358 -0.3334 -2.1728 -0.7731
  611MPD2    H1 9110   0.866   3.898  10.040 -0.4157 -0.9890 -1.9729
  611MPD2    H2 9111   0.589   3.567  10.075  0.6717  1.3733 -3.1945
  611MPD2    H3 9112   0.654   3.762   9.969 -0.8412  1.1353  1.2497
  611MPD2     N 9113   1.001   3.849  10.257  0.1218  0.0280  0.2096
  611MPD2    H5 9114   1.023   3.927  10.195  1.9922 -1.3888 -0.8990
  611MPD2    N1 9115   0.693   3.468  10.284 -0.3070  0.6326 -0.3191
  611MPD2    H7 9116   0.606   3.434  10.246 -0.2976  0.1665  0.0702
  612TMC3    C1 9117   1.196   3.909  10.373  0.5557  0.0285 -0.2662
  612TMC3    C2 9118   1.261   3.930  10.489  0.1304 -0.0064  0.3749
  612TMC3    C3 9119   1.370   4.010  10.499 -0.1222 -0.0412 -0.4344
  612TMC3    C4 9120   1.241   3.972  10.265 -0.5826  0.2196 -0.3044
  612TMC3    C5 9121   1.357   4.046  10.276  0.6408 -0.8436  0.2580
  612TMC3    C6 9122   1.420   4.074  10.388  0.0299 -0.7955 -0.0658
  612TMC3     C 9123   1.078   3.827  10.367 -0.1372 -0.1407  0.4467
  612TMC3     O 9124   1.067   3.747  10.460 -0.0407 -0.7263  0.0022
  612TMC3     H 9125   1.219   3.896  10.583 -3.1730  2.1478 -0.3418
  612TMC3    H1 9126   1.206   3.942  10.167 -2.1592  2.6858 -0.5243
  612TMC3    H2 9127   1.504   4.142  10.392 -0.7665  0.2177 -0.8297
  612TMC3    C7 9128   1.388   4.135  10.158 -0.3779 -0.6465 -0.6852
  612TMC3    C8 9129   1.460   4.011  10.617  0.2153 -0.3390 -1.0977
  612TMC3    O1 9130   1.295   4.161  10.079  0.1494 -0.6254  0.2608
  612TMC3    O2 9131   1.555   4.085  10.610  0.0392  0.2399 -0.2854
  613MPD2     C 9132   0.084   0.326  16.600 -0.6270 -0.1927 -0.2187
  613MPD2    C1 9133   0.148   0.275  16.486  0.2584 -0.1611 -0.7557
  613MPD2    C2 9134   0.182   0.139  16.486  0.2977  0.5683  0.4181
  613MPD2    C3 9135   0.145   0.056  16.590  0.2974  0.2866  0.6611
  613MPD2    C4 9136   0.080   0.112  16.699 -0.0632  0.7196  0.5256
  613MPD2    C5 9137   0.049   0.243  16.702  0.1328 -0.2618  0.9109
  613MPD2     H 9138   0.247   0.103  16.407 -1.4587  0.2316 -0.8665
  613MPD2    H1 9139   0.052   0.051  16.784 -0.3807 -0.2781 -0.2913
  613MPD2    H2 9140   0.072   0.433  16.610  0.0272  0.1777 -3.4277
  613MPD2    H3 9141   0.008   0.277  16.797 -0.4216 -0.0814  0.6111
  613MPD2     N 9142   0.173   4.662  16.574 -0.3692  0.0651  0.3110
  613MPD2    H5 9143   0.232   4.631  16.497  0.5215  1.2780  0.4872
  613MPD2    N1 9144   0.186   0.343  16.370  1.0938  0.2120 -0.0207
  613MPD2    H7 9145   0.219   0.283  16.294 -0.5840 -0.1836 -0.4240
  614TMC3    C1 9146   0.221   0.501  16.211 -0.0627  0.6061  0.0037
  614TMC3    C2 9147   0.303   0.410  16.165  0.1608  0.0137  0.0129
  614TMC3    C3 9148   0.274   0.340  16.050 -0.6102  0.4132  0.6243
  614TMC3    C4 9149   0.139   0.556  16.127 -0.2177  0.2408  0.0458
  614TMC3    C5 9150   0.123   0.505  16.006  0.1859 -0.0518  0.2399
  614TMC3    C6 9151   0.176   0.392  15.968 -0.8101  0.7753 -0.2794
  614TMC3     C 9152   0.161   0.474  16.343  0.1275  0.5274  0.0909
  614TMC3     O 9153   0.086   0.556  16.399 -0.0258 -0.4907 -0.6501
  614TMC3     H 9154   0.377   0.367  16.231 -1.4410 -1.1014  1.0443
  614TMC3    H1 9155   0.089   0.649  16.151  2.0464  1.1424  1.2528
  614TMC3    H2 9156   0.156   0.341  15.874 -3.8218 -1.0113  1.3194
  614TMC3    C7 9157   0.018   0.567  15.922  0.1733  0.4744  0.0727
  614TMC3    C8 9158   0.262   0.194  16.067  0.1088 -0.0331 -0.5298
  614TMC3    O1 9159   4.679   0.647  15.973 -0.2774 -0.0436  0.0519
  614TMC3    O2 9160   0.277   0.158  16.185 -0.1612 -0.1108 -0.0083
  615MPD2     C 9161   4.455   1.565  16.244 -0.7492  0.1266  0.1801
  615MPD2    C1 9162   4.338   1.635  16.267  0.0138 -0.0031  0.2230
  615MPD2    C2 9163   4.229   1.599  16.188 -0.2066  0.1101 -0.4178
  615MPD2    C3 9164   4.237   1.503  16.092  0.5873 -0.2083 -1.4475
  615MPD2    C4 9165   4.354   1.432  16.070 -0.7518 -0.3701  0.9240
  615MPD2    C5 9166   4.466   1.462  16.148 -0.4348  0.5570  0.3172
  615MPD2     H 9167   4.139   1.655  16.205 -0.8963 -0.6195 -1.6392
  615MPD2    H1 9168   4.353   1.359  15.990  2.0477 -0.2851  0.8212
  615MPD2    H2 9169   4.543   1.580  16.305  0.5686  0.5623 -1.8155
  615MPD2    H3 9170   4.563   1.421  16.121 -0.8807  1.1723 -2.2303
  615MPD2     N 9171   4.131   1.471  16.008  0.3665 -0.8019  0.1715
  615MPD2    H5 9172   4.150   1.394  15.944 -3.0410 -1.6981  0.1985
  615MPD2    N1 9173   4.315   1.733  16.371 -0.2825  0.0277  0.1842
  615MPD2    H7 9174   4.221   1.771  16.370 -0.1549  0.3529  1.3091
  616TMC3    C1 9175   4.357   1.876  16.550 -0.4927  0.5333  1.0079
  616TMC3    C2 9176   4.452   1.956  16.606  0.5033 -0.3298  0.3708
  616TMC3    C3 9177   4.402   2.047  16.697 -0.0826 -0.7101 -0.4312
  616TMC3    C4 9178   4.224   1.866  16.582 -0.0808  0.2412  0.0747
  616TMC3    C5 9179   4.187   1.945  16.686 -0.4795  0.1087  0.4386
  616TMC3    C6 9180   4.271   2.035  16.743  1.0486 -0.4164  0.3946
  616TMC3     C 9181   4.409   1.781  16.458  0.4897 -0.2211 -0.6607
  616TMC3     O 9182   4.531   1.772  16.457  0.1673  0.1629  0.3608
  616TMC3     H 9183   4.560   1.949  16.596  0.4433  0.4165 -0.8126
  616TMC3    H1 9184   4.152   1.802  16.532 -1.0287  1.8881 -0.6730
  616TMC3    H2 9185   4.232   2.103  16.817 -0.6503 -0.2800 -0.6261
  616TMC3    C7 9186   4.045   1.952  16.723  0.0306 -0.0587 -0.3982
  616TMC3    C8 9187   4.439   2.177  16.677 -0.2257 -0.1840  0.8971
  616TMC3    O1 9188   3.987   2.055  16.759  0.2735 -0.2777 -0.6542
  616TMC3    O2 9189   4.373   2.271  16.724  0.0812  0.3200  0.0891
  617MPD2     C 9190   2.872   0.092  13.309 -0.0588 -0.3699 -0.3656
  617MPD2    C1 9191   2.875   0.105  13.440 -0.4174  0.2723 -0.1072
  617MPD2    C2 9192   2.784   0.034  13.521 -0.1929  0.0406  0.5281
  617MPD2    C3 9193   2.694   4.684  13.455  0.1500 -1.0180  0.9654
  617MPD2    C4 9194   2.692   4.675  13.317 -0.4233 -0.2418 -0.3512
  617MPD2    C5 9195   2.776   0.017  13.246  0.3922  0.2759 -0.4324
  617MPD2     H 9196   2.780   0.043  13.629  0.2322  0.9758  0.4722
  617MPD2    H1 9197   2.616   4.613  13.270 -0.8691  0.1374 -0.1363
  617MPD2    H2 9198   2.944   0.155  13.258  1.5670  1.0436  3.7049
  617MPD2    H3 9199   2.771   0.012  13.138  1.2328 -0.0513 -0.4548
  617MPD2     N 9200   2.593   4.612  13.521 -0.0315 -0.5642 -0.5046
  617MPD2    H5 9201   2.535   4.556  13.458  2.5154 -1.2764 -2.2242
  617MPD2    N1 9202   2.982   0.179  13.491 -0.0209  0.2880 -0.4168
  617MPD2    H7 9203   3.033   0.233  13.422  2.2255 -0.6017  0.5394
  618TMC3    C1 9204   3.148   0.266  13.630 -0.6699 -0.2169  0.7352
  618TMC3    C2 9205   3.248   0.212  13.702  0.1924 -0.0525 -0.4210
  618TMC3    C3 9206   3.375   0.244  13.659  0.4395  0.1262  0.3853
  618TMC3    C4 9207   3.177   0.350  13.532 -0.3695 -0.7156 -0.1517
  618TMC3    C5 9208   3.309   0.391  13.506  0.7605 -0.7378  0.0046
  618TMC3    C6 9209   3.406   0.340  13.577  0.0703  0.3918  0.7397
  618TMC3     C 9210   3.025   0.186  13.622  1.1338  0.3051  0.0760
  618TMC3     O 9211   2.974   0.124  13.713 -0.2208  0.4302 -0.5138
  618TMC3     H 9212   3.219   0.146  13.783  1.4394 -1.2239 -0.9255
  618TMC3    H1 9213   3.108   0.413  13.476  1.1778  0.9401 -0.1707
  618TMC3    H2 9214   3.511   0.360  13.562 -0.2488 -0.0788 -2.0803
  618TMC3    C7 9215   3.325   0.370  13.367  0.6668  0.8085  0.0707
  618TMC3    C8 9216   3.480   0.224  13.758  0.3593  0.7823  0.8450
  618TMC3    O1 9217   3.219   0.342  13.307 -0.2633 -0.1832 -0.1642
  618TMC3    O2 9218   3.546   0.325  13.798  0.7135 -0.4543 -0.3975
  619MPD2     C 9219   3.874   1.001  13.879  1.0083 -0.2960 -0.3758
  619MPD2    C1 9220   3.823   1.070  13.773  0.3611 -0.5533 -0.7067
  619MPD2    C2 9221   3.694   1.050  13.729 -0.0210 -0.1794 -0.3761
  619MPD2    C3 9222   3.606   0.984  13.798 -0.8342 -0.9878 -0.0536
  619MPD2    C4 9223   3.659   0.909  13.909  0.6248  0.0561 -0.4298
  619MPD2    C5 9224   3.792   0.911  13.939 -0.0059 -0.1982 -0.4204
  619MPD2     H 9225   3.671   1.088  13.631  1.2510  2.5934  0.3977
  619MPD2    H1 9226   3.597   0.847  13.973  1.3244 -0.6899 -0.4749
  619MPD2    H2 9227   3.973   1.015  13.921 -0.7819  2.4323  2.9717
  619MPD2    H3 9228   3.827   0.853  14.023  0.8418  0.6425 -0.1989
  619MPD2     N 9229   3.466   0.991  13.775  0.4174  0.3158 -0.5431
  619MPD2    H5 9230   3.398   0.944  13.833 -0.6281  1.3450 -0.9293
  619MPD2    N1 9231   3.892   1.158  13.691  0.2048  0.1768  0.1515
  619MPD2    H7 9232   3.839   1.208  13.621 -0.5093  1.9621  1.9494
  620TMC3    C1 9233   4.052   1.297  13.604  0.3320 -0.4079 -0.2436
  620TMC3    C2 9234   4.003   1.273  13.479  0.7791 -0.4883  0.3710
  620TMC3    C3 9235   3.968   1.381  13.403 -0.9564  0.0335  0.0215
  620TMC3    C4 9236   4.082   1.424  13.660 -0.3705  0.3850 -0.0379
  620TMC3    C5 9237   4.040   1.528  13.578  0.4280 -0.2890 -0.9945
  620TMC3    C6 9238   3.995   1.509  13.449  0.6522  0.1231 -0.0308
  620TMC3     C 9239   4.022   1.200  13.708  0.0815 -0.4234  0.3508
  620TMC3     O 9240   4.103   1.167  13.792  0.3832  0.7582  0.5000
  620TMC3     H 9241   3.978   1.170  13.456 -0.6954  0.1336 -0.8504
  620TMC3    H1 9242   4.102   1.437  13.765 -0.5803 -2.7302  0.4019
  620TMC3    H2 9243   3.976   1.602  13.395 -0.0781 -0.2943 -0.4803
  620TMC3    C7 9244   3.962   1.627  13.648 -0.1270  0.7451  0.6185
  620TMC3    C8 9245   3.840   1.361  13.343 -0.1937 -0.2946  0.7139
  620TMC3    O1 9246   3.845   1.628  13.615 -0.2048 -0.6034  0.0537
  620TMC3    O2 9247   3.819   1.250  13.290  0.0469 -0.2889 -0.3401
  621MPD2     C 9248   3.610   1.666  10.032 -0.7702 -0.1592 -0.7558
  621MPD2    C1 9249   3.659   1.687  10.162 -0.8014 -0.1034 -0.1741
  621MPD2    C2 9250   3.749   1.781  10.198  0.4677  0.0165 -0.3874
  621MPD2    C3 9251   3.789   1.863  10.095  0.3136  0.6398  0.1304
  621MPD2    C4 9252   3.725   1.857   9.968  0.4348  0.5531  0.1448
  621MPD2    C5 9253   3.632   1.766   9.938  0.5524  0.5831 -0.3342
  621MPD2     H 9254   3.783   1.791  10.301 -0.7405  0.0630  0.0117
  621MPD2    H1 9255   3.754   1.928   9.891 -0.6977 -0.1094 -0.8973
  621MPD2    H2 9256   3.536   1.593  10.001  0.2024 -1.1800 -0.6474
  621MPD2    H3 9257   3.568   1.769   9.851  0.6325 -1.2069 -0.4349
  621MPD2     N 9258   3.893   1.956  10.126 -0.4757  0.2172  0.2572
  621MPD2    H5 9259   3.922   1.949  10.223 -1.2427 -0.2120  0.4514
  621MPD2    N1 9260   3.625   1.585  10.266 -0.2588 -0.9267 -0.2855
  621MPD2    H7 9261   3.666   1.604  10.357  0.3764  2.0510 -1.1725
  622TMC3    C1 9262   3.528   1.412  10.384  0.4949 -0.6583 -1.0138
  622TMC3    C2 9263   3.524   1.481  10.498  0.4168  0.0224 -0.2185
  622TMC3    C3 9264   3.466   1.419  10.604  0.3431  0.7696  0.7589
  622TMC3    C4 9265   3.474   1.292  10.371  0.0177  0.1028  0.4419
  622TMC3    C5 9266   3.429   1.230  10.482 -0.6812 -0.9839 -0.0629
  622TMC3    C6 9267   3.431   1.287  10.602 -0.2197 -0.1387 -0.4883
  622TMC3     C 9268   3.549   1.479  10.252 -0.4361  0.2689 -0.3454
  622TMC3     O 9269   3.512   1.421  10.152  0.0714 -0.0872  0.3750
  622TMC3     H 9270   3.579   1.573  10.515  2.9529 -1.3316 -1.1535
  622TMC3    H1 9271   3.474   1.242  10.274  4.2171 -2.2360  1.6688
  622TMC3    H2 9272   3.385   1.239  10.688 -0.5213 -1.0991 -1.1844
  622TMC3    C7 9273   3.371   1.098  10.477  0.1514 -0.0009  0.1463
  622TMC3    C8 9274   3.419   1.488  10.725  0.4175  0.6307 -0.8706
  622TMC3    O1 9275   3.341   1.048  10.583 -0.1306  0.6097 -0.3408
  622TMC3    O2 9276   3.390   1.419  10.824 -0.0513  0.5273 -0.3707
  623MPD2     C 9277   2.871   2.372  15.843  0.2422  0.2113 -0.1729
  623MPD2    C1 9278   2.932   2.254  15.811  0.3792  0.6505 -0.2676
  623MPD2    C2 9279   3.029   2.197  15.900 -0.9880 -0.0960  0.4601
  623MPD2    C3 9280   3.076   2.275  16.000 -0.2334 -0.0015 -0.6283
  623MPD2    C4 9281   3.030   2.398  16.024 -0.1670 -0.1919 -0.0892
  623MPD2    C5 9282   2.926   2.438  15.946 -0.6013  0.6827 -0.4424
  623MPD2     H 9283   3.066   2.095  15.895  1.0274  0.6497 -0.1661
  623MPD2    H1 9284   3.066   2.458  16.106 -1.2632 -0.1023  0.3292
  623MPD2    H2 9285   2.791   2.414  15.782  1.7735  0.3583 -2.0831
  623MPD2    H3 9286   2.890   2.539  15.961 -1.0192  0.3592  0.7199
  623MPD2     N 9287   3.152   2.210  16.102 -0.5774 -0.2914  0.4946
  623MPD2    H5 9288   3.171   2.110  16.097  1.5075  0.1194  0.2633
  623MPD2    N1 9289   2.855   2.178  15.726  0.2230 -0.3236  0.2687
  623MPD2    H7 9290   2.763   2.213  15.704 -0.1415 -1.4086  0.0380
  624TMC3    C1 9291   3.350   2.167  16.511  0.0543  0.7593 -0.2233
  624TMC3    C2 9292   3.244   2.092  16.561 -0.0880  0.1335  0.5856
  624TMC3    C3 9293   3.148   2.058  16.481  0.0075  0.4859 -0.3839
  624TMC3    C4 9294   3.337   2.236  16.396 -0.2716 -0.2082 -0.4890
  624TMC3    C5 9295   3.237   2.194  16.311  0.0449 -0.7383  0.3469
  624TMC3    C6 9296   3.140   2.110  16.352  0.2385 -0.1025 -0.4162
  624TMC3     C 9297   3.452   2.206  16.605 -0.5532  0.3765 -0.4545
  624TMC3     O 9298   3.477   2.134  16.702  0.3631  0.3274 -0.1661
  624TMC3     H 9299   3.249   2.040  16.656 -0.3031 -0.0817  0.4769
  624TMC3    H1 9300   3.421   2.294  16.360 -0.4713  0.4894  0.1577
  624TMC3    H2 9301   3.063   2.080  16.282 -0.4166 -2.1800  1.1779
  624TMC3    C7 9302   3.223   2.274  16.199 -0.3170  0.4792  0.7110
  624TMC3    C8 9303   3.031   2.010  16.539 -0.0786 -0.7490  0.0427
  624TMC3    O1 9304   3.254   2.394  16.216  0.2591 -0.1564 -0.3040
  624TMC3    O2 9305   2.972   1.917  16.480 -0.1489 -0.3684 -0.7925
  625MPD2     C 9306   2.953   3.150   0.643  0.0586 -0.7588  0.0808
  625MPD2    C1 9307   3.017   3.258   0.597 -0.4768  0.0557 -0.8174
  625MPD2    C2 9308   3.139   3.291   0.655 -1.0418  0.3284 -0.5488
  625MPD2    C3 9309   3.203   3.216   0.753  0.2005 -0.6499 -0.5194
  625MPD2    C4 9310   3.133   3.109   0.800 -0.0461 -0.3656  0.2885
  625MPD2    C5 9311   3.008   3.081   0.744 -0.5503 -0.2049  0.2479
  625MPD2     H 9312   3.199   3.369   0.608 -1.2540  0.3832 -0.7260
  625MPD2    H1 9313   3.160   3.051   0.888 -0.7503  0.7575  1.2449
  625MPD2    H2 9314   2.855   3.126   0.604 -0.1048  2.3738 -1.4369
  625MPD2    H3 9315   2.955   2.994   0.780 -0.9054  0.9631  2.5222
  625MPD2     N 9316   3.340   3.248   0.785  0.0275  0.0167 -0.2659
  625MPD2    H5 9317   3.377   3.335   0.748 -1.6110  1.2460  0.9736
  625MPD2    N1 9318   2.964   3.350   0.498  0.1960  0.1832 -0.2175
  625MPD2    H7 9319   3.001   3.444   0.485  1.4169 -0.1884  0.5107
  626TMC3    C1 9320   2.783   3.462   0.394 -0.1039 -0.1190 -0.2568
  626TMC3    C2 9321   2.694   3.464   0.287  0.0764  0.4475 -0.2664
  626TMC3    C3 9322   2.609   3.568   0.283  0.2979  0.4102  0.0759
  626TMC3    C4 9323   2.791   3.550   0.486 -0.2519 -0.3938 -0.1919
  626TMC3    C5 9324   2.696   3.649   0.482 -0.3788  0.4498 -1.4129
  626TMC3    C6 9325   2.604   3.659   0.389 -0.2135  0.0510 -0.4487
  626TMC3     C 9326   2.842   3.336   0.425 -0.7038  0.6287 -0.3374
  626TMC3     O 9327   2.772   3.237   0.406 -0.1125  0.2353 -0.0043
  626TMC3     H 9328   2.701   3.387   0.211  0.0811 -1.3025  1.5049
  626TMC3    H1 9329   2.849   3.533   0.576 -0.5811  0.3486  0.1614
  626TMC3    H2 9330   2.533   3.740   0.389  0.9833  1.0871 -0.2572
  626TMC3    C7 9331   2.657   3.678   0.620  0.6202 -1.0822  0.1529
  626TMC3    C8 9332   2.562   3.605   0.151 -0.2304 -0.0728 -0.3549
  626TMC3    O1 9333   2.739   3.715   0.700 -0.0767 -0.1493  0.3847
  626TMC3    O2 9334   2.626   3.558   0.058 -0.5855  0.0671 -0.2830
  627MPD2     C 9335   1.836   3.628  14.257 -0.3022 -0.2300  0.2816
  627MPD2    C1 9336   1.880   3.591  14.384  0.5812  0.0469  0.0402
  627MPD2    C2 9337   1.807   3.500  14.457 -0.0592  0.2656 -0.5081
  627MPD2    C3 9338   1.694   3.445  14.403 -0.2437 -0.6038  0.7764
  627MPD2    C4 9339   1.656   3.478  14.277 -0.3283  0.3168  0.6831
  627MPD2    C5 9340   1.725   3.569  14.204 -0.0558  0.0429 -0.5133
  627MPD2     H 9341   1.845   3.467  14.553 -0.5820 -1.3002 -0.8299
  627MPD2    H1 9342   1.566   3.440  14.229  0.2639 -0.5909  0.3150
  627MPD2    H2 9343   1.888   3.693  14.188 -2.1153 -0.4879 -1.3442
  627MPD2    H3 9344   1.691   3.587  14.103  0.4634 -3.1784 -1.2564
  627MPD2     N 9345   1.618   3.355  14.484 -0.4030  0.6329  0.4619
  627MPD2    H5 9346   1.652   3.337  14.578  1.6300  2.2687  0.0398
  627MPD2    N1 9347   1.998   3.635  14.441  0.4388 -0.1021 -0.1568
  627MPD2    H7 9348   2.018   3.599  14.534  3.9454 -0.8411 -1.2159
  628TMC3    C1 9349   2.211   3.724  14.460  0.0430 -0.1863  0.6325
  628TMC3    C2 9350   2.287   3.623  14.506 -0.1115 -0.2262  0.0932
  628TMC3    C3 9351   2.416   3.649  14.557 -0.2781 -0.0727  0.5322
  628TMC3    C4 9352   2.256   3.852  14.452 -0.1946 -0.4370  0.2305
  628TMC3    C5 9353   2.388   3.868  14.491  1.2173 -0.1460  0.6494
  628TMC3    C6 9354   2.469   3.771  14.552  0.2539  1.1128 -0.5235
  628TMC3     C 9355   2.095   3.694  14.376 -0.1811  0.0706 -0.1234
  628TMC3     O 9356   2.105   3.722  14.257 -0.0339 -0.3161 -0.5685
  628TMC3     H 9357   2.251   3.522  14.491  1.0946 -0.5656 -0.5703
  628TMC3    H1 9358   2.192   3.925  14.404  1.6690 -0.0905 -1.7117
  628TMC3    H2 9359   2.576   3.788  14.557  0.1757  2.0253 -1.8019
  628TMC3    C7 9360   2.436   4.005  14.507 -0.5789 -0.3435 -0.3944
  628TMC3    C8 9361   2.508   3.540  14.583 -0.4818 -0.0681  0.0936
  628TMC3    O1 9362   2.519   4.024  14.595 -0.3285  0.4129 -0.5167
  628TMC3    O2 9363   2.606   3.531  14.514  0.3557 -0.3647 -0.2414
  629MPD2     C 9364   0.083   2.486  16.558  0.0941 -0.3062  0.3261
  629MPD2    C1 9365   0.129   2.358  16.574  0.0278  0.1481 -0.6376
  629MPD2    C2 9366   0.035   2.260  16.594 -0.7013  0.1448  0.0461
  629MPD2    C3 9367   4.645   2.283  16.588 -0.3128 -0.6264  0.7433
  629MPD2    C4 9368   4.599   2.412  16.586 -0.1069 -0.1674  0.0402
  629MPD2    C5 9369   4.691   2.512  16.575 -0.0913 -0.3352  0.3302
  629MPD2     H 9370   0.062   2.156  16.612 -0.6718  0.3627  1.2374
  629MPD2    H1 9371   4.497   2.443  16.608 -0.1692 -0.0821 -0.3647
  629MPD2    H2 9372   0.149   2.571  16.552 -1.2628  0.8472  1.6833
  629MPD2    H3 9373   4.649   2.612  16.579  1.7613  0.4964 -0.6097
  629MPD2     N 9374   4.564   2.176  16.625 -0.5770  0.1305  0.0033
  629MPD2    H5 9375   4.605   2.084  16.615 -1.0284  0.0371 -0.9158
  629MPD2    N1 9376   0.267   2.340  16.579  0.1554  0.2048 -0.1046
  629MPD2    H7 9377   0.319   2.424  16.556  0.6836 -0.0847  0.0549
  630TMC3    C1 9378   0.470   2.227  16.600 -0.0222  0.0343  0.0121
  630TMC3    C2 9379   0.536   2.321  16.523  1.0111  0.0600 -0.5085
  630TMC3    C3 9380   0.675   2.317  16.516  0.2954 -0.1088  0.5057
  630TMC3    C4 9381   0.533   2.120  16.655  0.2095  0.2297 -0.1757
  630TMC3    C5 9382   0.668   2.116  16.633 -0.1545 -0.5513 -0.4111
  630TMC3    C6 9383   0.741   2.204  16.563 -0.2692  0.2463 -0.3146
  630TMC3     C 9384   0.330   2.220  16.598 -0.1782  0.4925  0.4847
  630TMC3     O 9385   0.275   2.128  16.658 -0.0535 -0.2700  0.1555
  630TMC3     H 9386   0.482   2.413  16.501 -0.3915 -0.6210  0.0535
  630TMC3    H1 9387   0.488   2.056  16.731  2.6343 -2.0065 -0.6329
  630TMC3    H2 9388   0.849   2.198  16.555 -0.2935  0.3013 -0.6695
  630TMC3    C7 9389   0.743   2.080  16.756  0.4264 -0.0600 -0.2946
  630TMC3    C8 9390   0.741   2.408  16.426  0.0309  0.0857 -0.2575
  630TMC3    O1 9391   0.689   1.991  16.821  0.1418 -0.4049 -0.3643
  630TMC3    O2 9392   0.865   2.398  16.418 -0.1023 -0.7191 -0.3126
  631MPD2     C 9393   3.144   1.725  15.766 -0.2156  0.6257 -0.2589
  631MPD2    C1 9394   3.232   1.756  15.658  0.3454 -0.1557 -0.2444
  631MPD2    C2 9395   3.349   1.678  15.649 -0.7101  0.0399 -0.0133
  631MPD2    C3 9396   3.388   1.586  15.750 -0.5298  0.7809  0.5803
  631MPD2    C4 9397   3.292   1.554  15.845 -0.2666  0.1400 -0.5251
  631MPD2    C5 9398   3.175   1.624  15.851  0.2101 -0.9430 -0.1646
  631MPD2     H 9399   3.412   1.696  15.562  2.3080  1.3481  2.4594
  631MPD2    H1 9400   3.297   1.474  15.918 -2.9975  1.1160  0.7470
  631MPD2    H2 9401   3.052   1.782  15.773 -1.1231 -0.6761 -1.5778
  631MPD2    H3 9402   3.099   1.592  15.922 -1.1236 -1.6273 -1.8952
  631MPD2     N 9403   3.513   1.519  15.740 -0.2908  0.1275  0.1987
  631MPD2    H5 9404   3.580   1.552  15.671  1.3300 -1.3192  1.0907
  631MPD2    N1 9405   3.187   1.845  15.559 -0.1675 -0.7522  0.5784
  631MPD2    H7 9406   3.108   1.903  15.588 -0.7164 -0.6942 -1.0347
  632TMC3    C1 9407   3.211   2.008  15.388  0.0900 -0.6887 -0.3051
  632TMC3    C2 9408   3.163   2.114  15.464 -0.2192  0.1650  0.2796
  632TMC3    C3 9409   3.096   2.218  15.396 -0.0683  0.0720  0.2860
  632TMC3    C4 9410   3.212   2.020  15.254 -0.6793  0.1988  0.0730
  632TMC3    C5 9411   3.167   2.131  15.195  0.2426 -0.0076  0.2330
  632TMC3    C6 9412   3.096   2.228  15.260 -0.5048  0.6135 -0.1905
  632TMC3     C 9413   3.253   1.874  15.438 -0.0697  0.1803 -0.2569
  632TMC3     O 9414   3.347   1.813  15.386 -0.1630 -0.5206  0.0887
  632TMC3     H 9415   3.153   2.108  15.571 -0.1135  0.6851  0.3148
  632TMC3    H1 9416   3.273   1.944  15.205  1.5216  1.0217  1.5215
  632TMC3    H2 9417   3.053   2.310  15.204 -1.6476  0.1011 -0.0668
  632TMC3    C7 9418   3.176   2.143  15.051 -1.1038  0.5398 -0.7394
  632TMC3    C8 9419   3.077   2.344  15.462 -0.0018 -0.3457 -0.1409
  632TMC3    O1 9420   3.183   2.257  15.007  0.4098  0.1441 -0.0032
  632TMC3    O2 9421   2.982   2.414  15.426  0.4400  0.0248 -0.2109
  633MPD2     C 9422   3.034   0.015  17.311  0.4626  1.0020 -0.0584
  633MPD2    C1 9423   3.040   4.723  17.178 -0.2065 -0.5106 -0.2031
  633MPD2    C2 9424   2.972   4.613  17.135 -0.2658  0.5986  0.1486
  633MPD2    C3 9425   2.889   4.544  17.222 -0.5699 -0.7060 -0.2453
  633MPD2    C4 9426   2.876   4.589  17.351  0.5443  0.8271  0.9207
  633MPD2    C5 9427   2.946   4.696  17.398  0.6808 -0.4050 -0.6564
  633MPD2     H 9428   2.998   4.573  17.038  1.2053 -0.3682  0.9508
  633MPD2    H1 9429   2.824   4.535  17.430 -1.0730 -0.3561 -0.9641
  633MPD2    H2 9430   3.099   0.093  17.348  0.9063 -0.9977  3.3751
  633MPD2    H3 9431   2.946   4.730  17.501 -0.5182 -0.7952 -0.5222
  633MPD2     N 9432   2.839   4.416  17.197 -0.5911  0.4436  0.3931
  633MPD2    H5 9433   2.792   4.360  17.267 -1.3188 -2.9417 -2.8034
  633MPD2    N1 9434   3.120   0.055  17.087 -0.7462  0.3969  0.1457
  633MPD2    H7 9435   3.120   0.023  16.990 -0.0442  2.3768 -0.5049
  634TMC3    C1 9436   3.254   0.215  16.995 -0.4157  0.1420  0.6130
  634TMC3    C2 9437   3.285   0.124  16.899 -0.4113 -0.2340  0.1459
  634TMC3    C3 9438   3.346   0.166  16.781  0.8861  0.3627  0.4554
  634TMC3    C4 9439   3.232   0.348  16.976 -0.2062  1.0620  0.1132
  634TMC3    C5 9440   3.276   0.380  16.846  0.3140  0.2009 -0.6349
  634TMC3    C6 9441   3.334   0.299  16.750  0.1316 -0.2369  0.0507
  634TMC3     C 9442   3.190   0.166  17.111 -0.0955  0.1601  0.1196
  634TMC3     O 9443   3.192   0.241  17.208 -0.3663 -0.3908 -0.0313
  634TMC3     H 9444   3.307   0.022  16.928  1.4744 -0.1375 -0.9445
  634TMC3    H1 9445   3.208   0.412  17.060 -1.3861  1.4226 -0.4998
  634TMC3    H2 9446   3.375   0.346  16.662  0.1678 -0.8699 -0.2708
  634TMC3    C7 9447   3.215   0.499  16.793 -0.2641  0.6324  0.1062
  634TMC3    C8 9448   3.360   0.068  16.676 -0.1339  0.4427  0.4222
  634TMC3    O1 9449   3.252   0.520  16.678 -0.2548  0.0695 -0.2169
  634TMC3    O2 9450   3.325   4.692  16.694  0.3160 -0.1148 -0.6515
  635TMC3    C1 9451   3.688   0.943   0.745  0.5520  0.5671  0.1064
  635TMC3    C2 9452   3.639   0.841   0.660 -0.3914  0.1485  0.5375
  635TMC3    C3 9453   3.731   0.745   0.615 -0.2284 -0.6347 -0.4485
  635TMC3    C4 9454   3.825   0.952   0.778  0.9550 -0.7557 -0.1737
  635TMC3    C5 9455   3.907   0.852   0.726  0.2310  0.2808  0.0506
  635TMC3    C6 9456   3.865   0.756   0.642 -0.1317  0.5179 -0.0961
  635TMC3     C 9457   3.596   1.041   0.800  0.4237 -0.2243  0.5940
  635TMC3     O 9458   3.626   1.087   0.909 -0.1650 -0.6440 -0.3075
  635TMC3     H 9459   3.532   0.826   0.665 -0.2784 -0.7387  0.1909
  635TMC3    H1 9460   3.849   1.042   0.834  0.6276  1.0282 -2.8948
  635TMC3    H2 9461   3.939   0.689   0.600  1.9802  1.5223  2.0153
  635TMC3    C7 9462   4.050   0.848   0.758 -0.5656 -0.7696  0.2647
  635TMC3    C8 9463   3.710   0.680   0.485  0.4950 -0.9666 -0.9489
  635TMC3    O1 9464   4.122   0.784   0.678  0.6518 -0.2867 -0.4290
  635TMC3    O2 9465   3.795   0.604   0.444  0.0154 -0.7317 -0.2201
  636MPD2     C 9466   4.514   0.052  16.109  0.0355  0.9862 -0.2059
  636MPD2    C1 9467   4.571   0.089  16.228 -0.1392 -0.1124 -0.0873
  636MPD2    C2 9468   4.633   4.732  16.301  0.1992  0.7982 -0.5346
  636MPD2    C3 9469   4.628   4.598  16.265  0.3722 -0.2751  0.9973
  636MPD2    C4 9470   4.571   4.567  16.144 -0.8412 -0.9944 -0.2780
  636MPD2    C5 9471   4.524   4.662  16.061 -0.5835  0.9090 -0.6558
  636MPD2     H 9472   4.681   0.027  16.392  0.8406 -1.9524  0.1725
  636MPD2    H1 9473   4.566   4.467  16.101  0.7048 -1.7921  1.3958
  636MPD2    H2 9474   4.464   0.129  16.052 -1.7564  0.2944  0.4354
  636MPD2    H3 9475   4.498   4.632  15.961 -2.8920 -0.1534  0.2717
  636MPD2     N 9476   4.679   4.502  16.357 -0.5662  0.2124 -0.1930
  636MPD2    H5 9477   4.728   4.543  16.436 -1.1237  2.9370 -1.2809
  636MPD2    N1 9478   4.570   0.222  16.270  0.3075 -0.1724  0.1388
  636MPD2    H7 9479   4.563   0.235  16.371 -0.9406  1.0228 -0.1082
  637TMC3    C1 9480   0.035   4.306  16.434 -0.5215 -0.2110  0.4857
  637TMC3    C2 9481   0.038   4.370  16.556 -0.0640  0.1469  0.2338
  637TMC3    C3 9482   0.153   4.431  16.599  0.1718  0.1209 -0.0762
  637TMC3    C4 9483   0.153   4.285  16.369 -0.1389 -0.3548 -0.6355
  637TMC3    C5 9484   0.262   4.368  16.402  0.1477  0.3030  0.0745
  637TMC3    C6 9485   0.266   4.433  16.521  0.9181  0.4307 -0.1547
  637TMC3     C 9486   4.679   4.362  16.344 -0.6362  0.1956  0.3153
  637TMC3     O 9487   4.634   4.297  16.252 -0.1224 -0.3084 -0.0439
  637TMC3     H 9488   4.685   4.407  16.596  0.9532  0.1796  2.5618
  637TMC3    H1 9489   0.156   4.228  16.277  0.9796  0.3961 -1.0672
  637TMC3    H2 9490   0.363   4.478  16.539  0.9905  0.4805 -0.6588
  637TMC3    C7 9491   0.297   4.460  16.297  0.7029 -0.0154  0.2546
  637TMC3    C8 9492   0.126   4.559  16.656  0.6525  0.9974 -0.7751
  637TMC3    O1 9493   0.303   4.573  16.346  0.4411 -0.2711 -0.1707
  637TMC3    O2 9494   0.027   4.568  16.723 -0.2050 -0.0474 -0.7167
  638MPD2     C 9495   4.192   3.984  15.119 -0.3605 -0.0673  0.1309
  638MPD2    C1 9496   4.169   3.888  15.021  0.6340 -0.3978 -0.4280
  638MPD2    C2 9497   4.121   3.760  15.065  0.4469  0.4803 -0.3620
  638MPD2    C3 9498   4.112   3.733  15.202  0.0669 -1.0322 -0.3378
  638MPD2    C4 9499   4.138   3.832  15.289  0.1070 -0.2643  0.0974
  638MPD2    C5 9500   4.169   3.958  15.250 -0.7043  0.3067 -0.2373
  638MPD2     H 9501   4.082   3.694  14.989 -0.8109  1.1787 -0.3155
  638MPD2    H1 9502   4.116   3.818  15.394 -0.7626 -1.0727 -0.1900
  638MPD2    H2 9503   4.220   4.087  15.103 -1.9425  0.5342  1.1985
  638MPD2    H3 9504   4.180   4.035  15.326  1.3137 -0.1513 -0.0595
  638MPD2     N 9505   4.084   3.610  15.251  0.0368 -0.0095 -0.0745
  638MPD2    H5 9506   4.107   3.593  15.348 -1.0410  0.5503  0.2737
  638MPD2    N1 9507   4.197   3.922  14.886 -0.0052  0.3249 -0.1770
  638MPD2    H7 9508   4.198   4.022  14.867 -0.6382  0.1332 -1.2367
  639TMC3    C1 9509   4.009   3.395  15.263 -1.0244  1.0111 -0.3016
  639TMC3    C2 9510   3.896   3.324  15.234  0.1391  0.2571  0.0142
  639TMC3    C3 9511   3.907   3.191  15.245  0.2581  0.6815 -0.0541
  639TMC3    C4 9512   4.130   3.338  15.304 -0.4505  0.0235  0.3146
  639TMC3    C5 9513   4.137   3.194  15.301  0.1536 -0.3511  0.6840
  639TMC3    C6 9514   4.022   3.124  15.269 -0.5564 -0.6587  0.2320
  639TMC3     C 9515   4.017   3.518  15.182  0.2023 -0.2890  0.1489
  639TMC3     O 9516   3.957   3.518  15.075 -0.0262  0.3258  0.0570
  639TMC3     H 9517   3.804   3.360  15.189 -0.1835  0.2875  0.7057
  639TMC3    H1 9518   4.209   3.406  15.333  0.9425 -1.0016 -1.0873
  639TMC3    H2 9519   4.022   3.015  15.268  0.0420 -0.6523 -1.1386
  639TMC3    C7 9520   4.258   3.139  15.257 -0.1189  0.2618  0.5922
  639TMC3    C8 9521   3.817   3.113  15.161 -0.2303  0.4279  0.7468
  639TMC3    O1 9522   4.260   3.017  15.257  0.3797  0.4671 -0.4964
  639TMC3    O2 9523   3.865   3.021  15.090 -0.5466  0.6254  0.4801
  640MPD2     C 9524   3.867   2.988   9.488 -0.0005  0.0498  0.1297
  640MPD2    C1 9525   3.964   3.062   9.550 -1.2922 -0.4526  0.0299
  640MPD2    C2 9526   3.925   3.163   9.629 -0.2092  0.2893  0.3017
  640MPD2    C3 9527   3.791   3.204   9.651  0.0442 -0.1899 -0.0371
  640MPD2    C4 9528   3.697   3.126   9.580 -0.0265 -0.2711 -0.9340
  640MPD2    C5 9529   3.738   3.023   9.504  0.4304  0.6742 -0.5534
  640MPD2     H 9530   4.003   3.224   9.674  1.3510 -1.1920 -0.4168
  640MPD2    H1 9531   3.590   3.143   9.590 -0.3345 -1.8441 -1.6111
  640MPD2    H2 9532   3.888   2.907   9.419 -0.3597 -0.4961  0.6592
  640MPD2    H3 9533   3.654   2.970   9.461  0.8514 -1.0345  0.7183
  640MPD2     N 9534   3.742   3.286   9.760  0.3380 -0.6014  0.3472
  640MPD2    H5 9535   3.641   3.290   9.760  0.4161  1.3670  0.1387
  640MPD2    N1 9536   4.098   3.016   9.534 -0.3740  0.4759 -0.0161
  640MPD2    H7 9537   4.104   2.954   9.454 -0.8219 -0.3877  0.6204
  641TMC3    C1 9538   4.332   3.012   9.554 -0.0372 -0.0398  0.2233
  641TMC3    C2 9539   4.450   3.076   9.593  0.4195  0.1177  0.1159
  641TMC3    C3 9540   4.573   3.018   9.561  0.0737 -0.0019  0.0544
  641TMC3    C4 9541   4.336   2.904   9.467 -0.9633  1.1578  0.1475
  641TMC3    C5 9542   4.454   2.848   9.435  0.1843 -0.4917 -0.6379
  641TMC3    C6 9543   4.573   2.903   9.483  0.3215  0.1436 -0.0866
  641TMC3     C 9544   4.210   3.079   9.588  0.2799  0.2997 -0.8240
  641TMC3     O 9545   4.220   3.187   9.643 -0.0667  0.1771 -0.0834
  641TMC3     H 9546   4.443   3.153   9.668  0.1424 -1.6653  1.9182
  641TMC3    H1 9547   4.250   2.860   9.418  0.2698 -2.1792  0.9977
  641TMC3    H2 9548   4.667   2.861   9.448  1.7024  1.2316  2.2797
  641TMC3    C7 9549   4.455   2.737   9.343  0.0450  0.2937  0.7476
  641TMC3    C8 9550   4.700   3.046   9.631  0.1453  0.0756  0.5541
  641TMC3    O1 9551   4.565   2.713   9.301 -0.3891 -0.3614 -0.0249
  641TMC3    O2 9552   0.057   2.973   9.611 -0.0594  0.0875  0.3421
  642TMC3    C1 9553   1.162   3.900  13.014  0.5589  0.7810  0.5141
  642TMC3    C2 9554   1.228   3.998  12.952 -0.9353  0.1258 -0.0050
  642TMC3    C3 9555   1.315   3.967  12.855  0.4250  0.2063 -0.5508
  642TMC3    C4 9556   1.184   3.770  12.979 -0.0372 -0.5158 -0.3009
  642TMC3    C5 9557   1.268   3.739  12.876  0.5023  0.7650 -0.4443
  642TMC3    C6 9558   1.343   3.841  12.813  1.0255  0.2142  0.4487
  642TMC3     C 9559   1.026   3.924  13.069 -0.2613  0.7307  0.0253
  642TMC3     O 9560   0.951   3.832  13.095  0.7849 -0.1473  0.8500
  642TMC3     H 9561   1.177   4.094  12.954  0.0879  0.7338 -2.8269
  642TMC3    H1 9562   1.122   3.690  13.018 -0.3741  0.6411  1.5576
  642TMC3    H2 9563   1.420   3.818  12.741  0.2133  0.7488 -0.5827
  642TMC3    C7 9564   1.257   3.606  12.825  0.5489 -0.1793 -0.1248
  642TMC3    C8 9565   1.429   4.058  12.827  0.1225 -0.7573  0.2906
  642TMC3    O1 9566   1.266   3.604  12.705 -0.5091 -0.7790 -0.1494
  642TMC3    O2 9567   1.499   4.037  12.731  0.2361 -0.3495 -0.0883
  643TMC3    C1 9568   0.030   2.337   0.447  0.5363  0.7162 -0.0316
  643TMC3    C2 9569   4.677   2.375   0.351  0.4025 -0.6561  0.1292
  643TMC3    C3 9570   4.715   2.356   0.225 -0.5665  0.0120  0.1678
  643TMC3    C4 9571   0.148   2.277   0.415 -0.4180  0.4663  0.5780
  643TMC3    C5 9572   0.181   2.268   0.284 -0.1951 -0.4346 -0.2092
  643TMC3    C6 9573   0.091   2.297   0.187  0.3847  0.0942  0.3329
  643TMC3     C 9574   0.011   2.407   0.580  0.3827  0.3855  0.2785
  643TMC3     O 9575   4.644   2.465   0.592 -0.0650 -0.4709  0.2132
  643TMC3     H 9576   4.582   2.419   0.378  0.1991 -1.1314  0.1878
  643TMC3    H1 9577   0.232   2.277   0.483 -0.1887 -0.1606  0.2962
  643TMC3    H2 9578   0.111   2.272   0.083  0.8363 -0.5458  0.5755
  643TMC3    C7 9579   0.317   2.299   0.241 -0.0490  0.5571 -0.1978
  643TMC3    C8 9580   4.648   2.428   0.123  0.2116 -0.0351 -0.4807
  643TMC3    O1 9581   0.406   2.238   0.296  0.7067  0.3768 -0.6108
  643TMC3    O2 9582   4.630   2.375   0.015 -0.0080  0.9040 -0.0621
  644MPD2     C 9583   0.111   3.973   9.580  0.2313  0.6491  0.4585
  644MPD2    C1 9584   4.736   3.901   9.547  0.5266 -0.4181 -0.1549
  644MPD2    C2 9585   4.618   3.976   9.515 -1.0870  0.0225  0.1109
  644MPD2    C3 9586   4.613   4.113   9.526  0.1381 -0.2312  0.4758
  644MPD2    C4 9587   4.723   4.176   9.586  0.0725  0.2636  0.0626
  644MPD2    C5 9588   0.097   4.104   9.613  0.6849  0.4341  0.2198
  644MPD2     H 9589   4.532   3.932   9.465 -1.0354  2.4307 -2.0838
  644MPD2    H1 9590   4.730   4.284   9.593  1.3022  0.0031  2.7917
  644MPD2    H2 9591   0.207   3.925   9.596  0.3355  1.0474  0.9975
  644MPD2    H3 9592   0.183   4.160   9.647  1.5223 -1.1506  0.7154
  644MPD2     N 9593   4.501   4.181   9.470  0.1595 -1.0946  0.2431
  644MPD2    H5 9594   4.430   4.119   9.433 -0.8335  0.5667 -0.6700
  644MPD2    N1 9595   0.016   3.765   9.527  0.3542  0.2489  1.0041
  644MPD2    H7 9596   0.113   3.735   9.526  0.2483 -0.0888  0.2790
  645TMC3    C1 9597   4.354   4.353   9.435  0.0839 -0.6065  0.0885
  645TMC3    C2 9598   4.245   4.278   9.481 -0.4943 -0.0696 -0.0093
  645TMC3    C3 9599   4.118   4.327   9.455  0.3364 -0.7094  0.3887
  645TMC3    C4 9600   4.337   4.473   9.373  0.3249 -0.0588  0.6851
  645TMC3    C5 9601   4.207   4.515   9.351 -0.2657  0.4519 -0.6265
  645TMC3    C6 9602   4.096   4.448   9.393 -0.1072  0.4604 -0.0084
  645TMC3     C 9603   4.484   4.314   9.469  0.6519  0.6464  0.0893
  645TMC3     O 9604   4.565   4.408   9.485  0.3506 -0.5780  0.0235
  645TMC3     H 9605   4.258   4.180   9.525  0.0347 -0.1514 -0.3501
  645TMC3    H1 9606   4.423   4.528   9.335 -0.4705  1.0101  0.4471
  645TMC3    H2 9607   3.995   4.483   9.374 -0.2758 -1.5061 -2.7688
  645TMC3    C7 9608   4.189   4.636   9.266  0.1258 -0.4828  0.4231
  645TMC3    C8 9609   4.017   4.232   9.469 -0.2289  0.4111 -0.5476
  645TMC3    O1 9610   4.287   4.676   9.205 -0.5808  0.4587 -0.2400
  645TMC3    O2 9611   4.046   4.119   9.440  0.4945 -0.4091  0.0966
  646MPD2     C 9612   4.169   2.421  14.600 -0.6594 -0.7400 -0.3737
  646MPD2    C1 9613   4.092   2.426  14.710  0.9733 -0.9075 -0.0739
  646MPD2    C2 9614   3.963   2.468  14.709  0.5896 -0.4402  0.4256
  646MPD2    C3 9615   3.910   2.520  14.590  0.0390  0.2443  0.0889
  646MPD2    C4 9616   3.982   2.511  14.477 -0.3379  0.3420 -0.2576
  646MPD2    C5 9617   4.110   2.457  14.487 -0.2179 -0.5553 -0.4162
  646MPD2     H 9618   3.895   2.452  14.792  0.6438 -0.7452  0.4097
  646MPD2    H1 9619   3.947   2.540  14.379 -1.6837 -0.7751 -0.1043
  646MPD2    H2 9620   4.276   2.403  14.604 -0.3637  1.0796 -0.2285
  646MPD2    H3 9621   4.168   2.450  14.396 -1.2583 -1.7489 -0.9882
  646MPD2     N 9622   3.775   2.562  14.586 -0.5343  0.2263  0.7992
  646MPD2    H5 9623   3.724   2.532  14.668  0.3598  2.3789  2.1567
  646MPD2    N1 9624   4.161   2.381  14.824 -0.6089  0.8976  0.0712
  646MPD2    H7 9625   4.258   2.360  14.805 -0.9324  0.6489 -1.2966
  647TMC3    C1 9626   4.191   2.299  15.050  0.2157 -0.4898 -0.1483
  647TMC3    C2 9627   4.141   2.205  15.136  0.2108 -0.4051 -0.2492
  647TMC3    C3 9628   4.231   2.144  15.215  0.1288  0.1947 -0.2071
  647TMC3    C4 9629   4.327   2.340  15.051  0.0407  0.2019  0.0407
  647TMC3    C5 9630   4.408   2.271  15.134  0.1056  0.2592  0.1761
  647TMC3    C6 9631   4.361   2.172  15.214  0.3951 -0.6794  0.1247
  647TMC3     C 9632   4.102   2.356  14.951 -0.2806  0.1188  0.1653
  647TMC3     O 9633   3.986   2.356  14.986  0.0531 -0.3726 -0.7248
  647TMC3     H 9634   4.039   2.169  15.129  0.0190  0.1869 -0.5088
  647TMC3    H1 9635   4.360   2.420  14.985 -0.7745  1.1677  0.8064
  647TMC3    H2 9636   4.438   2.113  15.264  1.6984  2.0648  1.3411
  647TMC3    C7 9637   4.549   2.288  15.128  0.2601 -0.5830 -0.1353
  647TMC3    C8 9638   4.170   2.063  15.321 -0.2096 -0.1947 -0.4739
  647TMC3    O1 9639   4.605   2.222  15.211  0.3906 -0.0755 -0.2753
  647TMC3    O2 9640   4.053   2.086  15.356 -0.2010  0.5458  0.5598
  648TMC3    C1 9641   3.828   0.295  16.315  0.4538  0.0191 -0.5229
  648TMC3    C2 9642   3.876   0.167  16.292 -0.2298 -0.2510  0.6794
  648TMC3    C3 9643   3.898   0.127  16.162 -0.5948 -0.2861  0.4338
  648TMC3    C4 9644   3.800   0.383  16.214  0.9397  0.3139  0.0186
  648TMC3    C5 9645   3.828   0.341  16.089  0.4055 -0.4411  0.4241
  648TMC3    C6 9646   3.883   0.218  16.057 -0.2575 -0.0331  0.3214
  648TMC3     C 9647   3.770   0.328  16.449  0.6095  0.0311 -0.3135
  648TMC3     O 9648   3.711   0.435  16.463  0.1217  0.1704  0.4356
  648TMC3     H 9649   3.911   0.105  16.373  0.9068  2.8788  2.6137
  648TMC3    H1 9650   3.767   0.482  16.244  0.8680 -0.5873  2.9234
  648TMC3    H2 9651   3.892   0.187  15.953 -0.1335 -0.6818  0.5270
  648TMC3    C7 9652   3.790   0.436  15.978  0.0153 -0.5865  0.2735
  648TMC3    C8 9653   3.950   4.735  16.147  0.1688  0.2726  0.7627
  648TMC3    O1 9654   3.849   0.441  15.868 -0.2245 -0.4471  0.6697
  648TMC3    O2 9655   3.913   4.660  16.237  0.0248  0.2518 -1.1266
  649TMC3    C1 9656   2.777   1.008  13.031 -0.6685  0.4084  0.1639
  649TMC3    C2 9657   2.893   0.969  13.091 -0.4603  0.1590  0.1393
  649TMC3    C3 9658   2.887   0.894  13.203 -0.4233 -0.5679  0.4890
  649TMC3    C4 9659   2.658   0.977  13.092  0.7671  0.2032 -1.6818
  649TMC3    C5 9660   2.657   0.890  13.197  0.4420  0.2048 -0.1580
  649TMC3    C6 9661   2.772   0.846  13.254  0.1376  0.2259 -0.4595
  649TMC3     C 9662   2.781   1.069  12.904 -0.0440 -0.4678 -0.0744
  649TMC3     O 9663   2.673   1.102  12.860 -0.0771 -0.1194  0.0500
  649TMC3     H 9664   2.993   1.007  13.070 -0.6420  0.8279  0.5009
  649TMC3    H1 9665   2.562   0.997  13.045 -0.0812 -2.2036 -0.9688
  649TMC3    H2 9666   2.775   0.780  13.340 -0.5084  0.8887  0.0796
  649TMC3    C7 9667   2.544   0.889  13.286 -0.5356  0.2621 -0.0600
  649TMC3    C8 9668   3.003   0.844  13.271  0.8408  0.4273  0.3896
  649TMC3    O1 9669   2.463   0.978  13.272  0.4227  0.3609  0.0682
  649TMC3    O2 9670   2.993   0.727  13.301 -0.8781  0.3609 -0.0505
  650TMC3    C1 9671   0.635   2.794  13.142 -0.2418 -0.3644  0.0322
  650TMC3    C2 9672   0.543   2.893  13.177  0.1827 -0.1069 -0.4754
  650TMC3    C3 9673   0.576   3.018  13.135  0.2773 -0.2815  0.7741
  650TMC3    C4 9674   0.751   2.818  13.074  0.3882  0.1192  0.4066
  650TMC3    C5 9675   0.785   2.952  13.041  0.0060  0.5979 -0.3656
  650TMC3    C6 9676   0.690   3.043  13.069 -0.0345 -0.6908 -0.6942
  650TMC3     C 9677   0.625   2.665  13.211  0.2268  0.5416 -0.1208
  650TMC3     O 9678   0.573   2.666  13.322  0.2792  0.4003 -0.2534
  650TMC3     H 9679   0.452   2.878  13.233 -1.0638  0.8139 -2.2324
  650TMC3    H1 9680   0.823   2.746  13.036  0.6263 -0.1618  1.3867
  650TMC3    H2 9681   0.703   3.140  13.024 -1.4906 -1.0875 -1.9672
  650TMC3    C7 9682   0.869   2.971  12.928  0.7608  0.4391 -0.5154
  650TMC3    C8 9683   0.491   3.129  13.160  0.2300 -0.5782  0.4248
  650TMC3    O1 9684   0.857   2.884  12.838  0.0799  0.1754 -0.5479
  650TMC3    O2 9685   0.544   3.240  13.156 -0.6719  0.9726 -0.0284
  651MPD2     C 9686   3.878   0.084  11.273 -1.1045  0.1074 -0.9359
  651MPD2    C1 9687   3.828   0.148  11.164  0.6828  0.3486  0.0206
  651MPD2    C2 9688   3.913   0.230  11.096 -0.3420 -0.0590 -0.4483
  651MPD2    C3 9689   4.041   0.262  11.135  0.1633 -0.1720 -0.1989
  651MPD2    C4 9690   4.088   0.212  11.259 -0.0874 -0.0831  0.6279
  651MPD2    C5 9691   3.999   0.130  11.328  0.0308 -0.1466  0.3410
  651MPD2     H 9692   3.871   0.276  11.007  0.5841  1.4394 -0.1080
  651MPD2    H1 9693   4.183   0.240  11.304  1.3782 -3.5409 -0.2772
  651MPD2    H2 9694   3.827   4.737  11.314  2.0359 -0.4653  1.7635
  651MPD2    H3 9695   4.035   0.079  11.417  2.6432 -1.1195 -1.2629
  651MPD2     N 9696   4.116   0.337  11.034  0.0154  0.8469  0.2681
  651MPD2    H5 9697   4.071   0.356  10.945 -0.8698 -0.3139  0.4704
  651MPD2    N1 9698   3.710   0.099  11.104  0.7439 -0.3195  0.2402
  651MPD2    H7 9699   3.683   0.140  11.015  0.3501 -0.1639  0.4290
  652TMC3    C1 9700   4.526   0.513  10.841  0.3221  0.2268 -1.0259
  652TMC3    C2 9701   4.454   0.428  10.924  0.2758 -0.6330 -1.0585
  652TMC3    C3 9702   4.319   0.420  10.924 -0.2753  0.0686 -0.8525
  652TMC3    C4 9703   4.458   0.605  10.770  0.1660  0.6337  0.0022
  652TMC3    C5 9704   4.317   0.595  10.773  0.2343 -1.2606 -0.0596
  652TMC3    C6 9705   4.244   0.500  10.841 -0.4114  0.3387 -0.2960
  652TMC3     C 9706   4.658   0.549  10.885  1.0164  0.3485  0.1575
  652TMC3     O 9707   4.688   0.496  10.993  0.3402 -0.4743 -0.3670
  652TMC3     H 9708   4.502   0.357  10.991  0.0828  0.1946 -0.0367
  652TMC3    H1 9709   4.498   0.679  10.702  0.1782  0.4191 -0.2251
  652TMC3    H2 9710   4.136   0.490  10.839 -0.3361 -0.9012  1.5861
  652TMC3    C7 9711   4.253   0.722  10.732  0.0985  0.0896 -0.5083
  652TMC3    C8 9712   4.255   0.357  11.040 -0.2606 -0.0183 -0.3752
  652TMC3    O1 9713   4.137   0.704  10.698 -0.4410 -0.3010  0.2141
  652TMC3    O2 9714   4.328   0.336  11.136  1.0160 -0.1286  0.2006
  653MPD2     C 9715   2.625   0.322  17.640  0.5206 -0.7435 -0.4194
  653MPD2    C1 9716   2.602   0.427  17.556  0.2990  0.3452  0.1069
  653MPD2    C2 9717   2.556   0.403  17.425 -0.2750  0.2421 -0.4127
  653MPD2    C3 9718   2.547   0.272  17.382 -0.2450  0.0135 -0.7522
  653MPD2    C4 9719   2.579   0.168  17.463  0.2819 -0.1291  0.0216
  653MPD2    C5 9720   2.622   0.195  17.592  0.2558 -0.4153 -0.2851
  653MPD2     H 9721   2.542   0.489  17.361 -0.9627  1.7207  1.7123
  653MPD2    H1 9722   2.587   0.062  17.442 -1.1360  0.1112 -1.6225
  653MPD2    H2 9723   2.649   0.325  17.746  0.6775  2.4657 -0.5613
  653MPD2    H3 9724   2.640   0.114  17.662 -0.9878 -0.2452  0.2374
  653MPD2     N 9725   2.519   0.258  17.250  0.0332  0.5742 -0.5291
  653MPD2    H5 9726   2.525   0.339  17.190  0.6429  1.1786  0.3455
  653MPD2    N1 9727   2.614   0.561  17.598  0.5751 -0.1212  0.3957
  653MPD2    H7 9728   2.578   0.625  17.528 -0.2998  0.8693  1.7658
  654TMC3    C1 9729   2.417   0.157  17.058 -0.8993  0.4985  0.9926
  654TMC3    C2 9730   2.334   0.259  17.027  0.6103  0.5020  0.2096
  654TMC3    C3 9731   2.265   0.254  16.907  0.1638 -1.0797  0.4054
  654TMC3    C4 9732   2.438   0.051  16.975 -0.1345 -0.9003 -0.6734
  654TMC3    C5 9733   2.401   0.069  16.845  0.0835  0.1582 -0.8020
  654TMC3    C6 9734   2.299   0.158  16.814 -1.0577 -1.0255 -0.2401
  654TMC3     C 9735   2.473   0.145  17.194  0.1687  0.4440 -0.2216
  654TMC3     O 9736   2.469   0.032  17.233 -0.0378 -0.1298 -0.4770
  654TMC3     H 9737   2.320   0.332  17.106  2.7766  0.9612  0.1729
  654TMC3    H1 9738   2.506   4.713  17.008  0.7938  0.9896  1.8884
  654TMC3    H2 9739   2.248   0.154  16.718 -0.7808 -1.7124 -0.3574
  654TMC3    C7 9740   2.406   4.699  16.752  0.8019  0.0687 -0.3537
  654TMC3    C8 9741   2.138   0.327  16.882 -0.2845 -0.5484  0.8216
  654TMC3    O1 9742   2.406   4.712  16.629  0.4100 -0.5964 -0.4931
  654TMC3    O2 9743   2.069   0.288  16.790  0.3927 -0.6060 -0.5762
  655MPD2     C 9744   4.294   0.446  15.845 -0.9942 -0.0178  0.1598
  655MPD2    C1 9745   4.197   0.498  15.761 -0.0618 -0.2437 -0.3330
  655MPD2    C2 9746   4.190   0.446  15.632 -0.2249  0.2773 -0.3993
  655MPD2    C3 9747   4.275   0.345  15.583  0.7126 -0.3318 -0.0260
  655MPD2    C4 9748   4.372   0.301  15.666  0.1940 -0.1953  0.4884
  655MPD2    C5 9749   4.373   0.347  15.797 -0.6947  0.1312  0.0559
  655MPD2     H 9750   4.112   0.479  15.564  0.0754 -0.6523 -1.1947
  655MPD2    H1 9751   4.439   0.219  15.641  1.4384  0.7058  0.8438
  655MPD2    H2 9752   4.317   0.478  15.946 -0.7839  0.7938 -0.1441
  655MPD2    H3 9753   4.450   0.312  15.865 -0.6229  0.3004  0.0602
  655MPD2     N 9754   4.254   0.295  15.451 -0.4297  0.3171 -0.1425
  655MPD2    H5 9755   4.340   0.257  15.414  0.3282  2.0813 -0.1752
  655MPD2    N1 9756   4.105   0.600  15.794 -0.1666  0.5087 -0.3711
  655MPD2    H7 9757   4.037   0.631  15.726 -0.7753 -0.6755 -0.3032
  656TMC3    C1 9758   3.995   0.748  15.943  0.7065 -0.3365 -0.1967
  656TMC3    C2 9759   3.932   0.741  16.062 -0.2725 -0.2299 -0.3121
  656TMC3    C3 9760   3.836   0.835  16.085 -0.4953  0.6096 -0.5449
  656TMC3    C4 9761   3.976   0.841  15.848  0.2392  0.5903 -0.1764
  656TMC3    C5 9762   3.877   0.935  15.871  0.2222 -0.1218 -0.1985
  656TMC3    C6 9763   3.801   0.928  15.991  0.1955 -0.5692  0.4202
  656TMC3     C 9764   4.100   0.652  15.923  0.6073 -0.4089 -0.1276
  656TMC3     O 9765   4.164   0.629  16.027  0.1544  0.2387  0.5135
  656TMC3     H 9766   3.960   0.665  16.134  0.2483 -0.4364 -0.7331
  656TMC3    H1 9767   4.034   0.840  15.757 -2.0171  0.2650 -1.5989
  656TMC3    H2 9768   3.713   0.988  16.008  0.9006  1.1818 -2.0105
  656TMC3    C7 9769   3.823   0.999  15.748 -0.0802 -0.3633 -0.2311
  656TMC3    C8 9770   3.748   0.809  16.194  0.4545  0.4329  0.1394
  656TMC3    O1 9771   3.884   0.968  15.647  0.0657 -0.7253  0.0126
  656TMC3    O2 9772   3.778   0.708  16.259  0.3233  0.2350  0.0536
  657TMC3    C1 9773   3.193   4.364  14.940  0.9998  0.1629 -0.1181
  657TMC3    C2 9774   3.257   4.381  15.062 -0.1467  0.2198 -0.1252
  657TMC3    C3 9775   3.217   4.481  15.142  0.3086  0.1222  1.0244
  657TMC3    C4 9776   3.090   4.440  14.906 -0.5256 -0.5518  0.1976
  657TMC3    C5 9777   3.043   4.528  14.996 -0.1883  0.8635  0.1347
  657TMC3    C6 9778   3.104   4.553  15.110 -0.3712  0.0596  0.4336
  657TMC3     C 9779   3.201   4.246  14.865 -0.0503  0.6012  0.1179
  657TMC3     O 9780   3.110   4.223  14.789  0.1447 -0.2069  0.0675
  657TMC3     H 9781   3.342   4.325  15.099 -0.5349  0.6109  1.3682
  657TMC3    H1 9782   3.035   4.424  14.813  0.1772  1.0893 -0.5031
  657TMC3    H2 9783   3.065   4.626  15.181 -1.0379 -0.1808  0.3131
  657TMC3    C7 9784   2.947   4.620  14.940  0.0907 -0.4226  0.5085
  657TMC3    C8 9785   3.259   4.496  15.283  0.2433 -0.5484  0.2024
  657TMC3    O1 9786   2.865   4.573  14.862 -0.1984 -0.1599 -0.3752
  657TMC3    O2 9787   3.241   4.605  15.335 -0.1228 -0.2034 -0.3759
  658MPD2     C 9788   4.587   4.690  14.849 -0.4319 -0.1179  0.4551
  658MPD2    C1 9789   4.525   0.073  14.842 -0.3503 -0.4930  0.0525
  658MPD2    C2 9790   4.532   0.150  14.724  0.8062  0.6046 -0.3952
  658MPD2    C3 9791   4.586   0.094  14.611  0.4955 -0.3059 -0.6281
  658MPD2    C4 9792   4.660   4.719  14.617  0.0249 -0.4573  0.4451
  658MPD2    C5 9793   4.661   4.654  14.736 -0.0704 -0.7341 -1.1004
  658MPD2     H 9794   4.475   0.242  14.721  0.1937  0.2755  1.3573
  658MPD2    H1 9795   4.708   4.674  14.531  1.5552  0.2953  0.9163
  658MPD2    H2 9796   4.590   4.630  14.939  0.2621 -0.2980  0.3068
  658MPD2    H3 9797   4.712   4.559  14.748 -2.8727 -2.0351  0.5845
  658MPD2     N 9798   4.577   0.154  14.485 -0.3209 -0.7129 -0.1800
  658MPD2    H5 9799   4.626   0.099  14.414  0.7612 -1.5202  1.2069
  658MPD2    N1 9800   4.431   0.101  14.947  0.3917 -0.1023  0.0849
  658MPD2    H7 9801   4.406   0.023  15.007 -0.2363 -0.0953 -0.1700
  659TMC3    C1 9802   4.245   0.212  15.040 -0.9103  0.4773  0.4429
  659TMC3    C2 9803   4.254   0.245  15.171 -0.5152 -0.4520  0.2087
  659TMC3    C3 9804   4.136   0.250  15.238  0.0528 -0.0642 -0.0190
  659TMC3    C4 9805   4.128   0.170  14.985 -0.6732  0.0214  0.8822
  659TMC3    C5 9806   4.013   0.162  15.064  0.8836  0.1658  0.0986
  659TMC3    C6 9807   4.016   0.204  15.189  0.5244  0.0728 -0.3315
  659TMC3     C 9808   4.367   0.219  14.964  0.0133 -0.6318  0.2576
  659TMC3     O 9809   4.402   0.332  14.938  0.0025 -0.4262 -0.1512
  659TMC3     H 9810   4.347   0.288  15.208 -0.1338  0.7887 -2.1361
  659TMC3    H1 9811   4.135   0.152  14.878 -0.3737  1.5615  0.6342
  659TMC3    H2 9812   3.924   0.191  15.244  0.1914  1.1569 -0.6294
  659TMC3    C7 9813   3.886   0.140  14.999 -0.0200  0.4147  0.1255
  659TMC3    C8 9814   4.137   0.286  15.383 -0.7809 -0.0616 -0.5360
  659TMC3    O1 9815   3.791   0.152  15.073 -0.0278 -0.2929 -0.1942
  659TMC3    O2 9816   4.027   0.324  15.424  0.4786  0.3620  0.6471
  660MPD2     C 9817   2.469   4.034  12.497 -0.3130 -0.3313  0.1938
  660MPD2    C1 9818   2.347   4.096  12.519 -0.1790 -0.0597 -0.6232
  660MPD2    C2 9819   2.242   4.037  12.592  0.3064  0.3576 -0.4897
  660MPD2    C3 9820   2.264   3.908  12.651 -0.3814  0.2444 -0.2721
  660MPD2    C4 9821   2.389   3.855  12.624  0.7020 -0.0204 -0.1914
  660MPD2    C5 9822   2.493   3.916  12.556 -0.4050 -0.4359 -0.2388
  660MPD2     H 9823   2.146   4.086  12.589  0.9072  1.5752  0.0862
  660MPD2    H1 9824   2.413   3.751  12.643  1.2000  0.0799 -0.2560
  660MPD2    H2 9825   2.544   4.080  12.433 -1.9034  2.2903  0.2337
  660MPD2    H3 9826   2.587   3.864  12.544  1.1135  2.2806  0.0420
  660MPD2     N 9827   2.160   3.833  12.711  0.3974 -0.0338  0.6868
  660MPD2    H5 9828   2.181   3.738  12.741 -1.6175 -1.0933 -1.1969
  660MPD2    N1 9829   2.328   4.220  12.449 -0.4011  0.0971  0.3990
  660MPD2    H7 9830   2.389   4.248  12.373  1.6981 -0.7253  1.7668
  661TMC3    C1 9831   2.204   4.420  12.399 -0.0813 -0.1355 -0.1216
  661TMC3    C2 9832   2.207   4.395  12.262 -0.4958 -0.3036  0.5508
  661TMC3    C3 9833   2.098   4.447  12.188 -0.0100 -0.5697 -0.4695
  661TMC3    C4 9834   2.096   4.494  12.455  0.0841 -0.4221 -0.1920
  661TMC3    C5 9835   1.991   4.531  12.375  0.2265 -0.1692  1.0100
  661TMC3    C6 9836   1.988   4.505  12.244  0.1444 -0.8457  0.3408
  661TMC3     C 9837   2.234   4.309  12.491 -0.1738  0.3024 -0.5129
  661TMC3     O 9838   2.205   4.326  12.609 -0.0074  0.0416  0.5675
  661TMC3     H 9839   2.281   4.336  12.210  1.1357  0.6791  1.7408
  661TMC3    H1 9840   2.096   4.530  12.558 -0.2454 -0.3939 -0.2030
  661TMC3    H2 9841   1.910   4.551  12.185 -0.6198 -0.9937  1.2561
  661TMC3    C7 9842   1.858   4.543  12.435  0.3291 -0.5992  0.1460
  661TMC3    C8 9843   2.101   4.427  12.044  0.6433 -0.3454 -0.1787
  661TMC3    O1 9844   1.867   4.582  12.550 -0.2356  0.2748 -0.5348
  661TMC3    O2 9845   2.216   4.413  11.996 -0.0731 -0.0456 -0.3551
  662MPD2     C 9846   1.863   3.947  17.567  0.3276  0.3938 -0.5935
  662MPD2    C1 9847   1.767   3.856  17.624 -0.1375 -0.5086 -0.9781
  662MPD2    C2 9848   1.658   3.906  17.681  0.8298 -0.5869 -0.0290
  662MPD2    C3 9849   1.629   4.042  17.685  0.1719  1.0580  0.3940
  662MPD2    C4 9850   1.721   4.124  17.634  0.8785  0.4344 -0.3302
  662MPD2    C5 9851   1.834   4.076  17.576  0.1339 -0.1598 -0.3359
  662MPD2     H 9852   1.583   3.839  17.721 -0.8617  1.8206  0.7867
  662MPD2    H1 9853   1.705   4.231  17.635  0.0506  0.2972  1.8434
  662MPD2    H2 9854   1.956   3.906  17.529 -0.0084 -0.1071 -0.8768
  662MPD2    H3 9855   1.902   4.144  17.526 -1.8399  0.4493 -2.1879
  662MPD2     N 9856   1.513   4.092  17.747 -0.7728 -0.1859  0.8779
  662MPD2    H5 9857   1.502   4.193  17.750 -2.5199 -0.3525 -0.4672
  662MPD2    N1 9858   1.784   3.714  17.635  0.1208  0.4478 -0.4704
  662MPD2    H7 9859   1.716   3.655  17.683  1.2021 -1.0518 -0.7880
  663TMC3    C1 9860   1.866   3.495  17.592 -0.1038 -0.4747  0.6877
  663TMC3    C2 9861   1.854   3.451  17.720  0.1735  0.6045 -0.8441
  663TMC3    C3 9862   1.863   3.313  17.749 -0.0835 -0.3549  0.2562
  663TMC3    C4 9863   1.903   3.415  17.494 -0.0539  0.4498 -0.3447
  663TMC3    C5 9864   1.929   3.290  17.528 -0.8071 -0.6002 -0.0023
  663TMC3    C6 9865   1.909   3.230  17.648  0.1143 -0.1415  0.8116
  663TMC3     C 9866   1.881   3.639  17.571  0.1260  0.2414  0.1846
  663TMC3     O 9867   1.954   3.678  17.478 -0.0401 -0.2161  0.0885
  663TMC3     H 9868   1.841   3.523   0.040  1.4419 -1.4319  1.2170
  663TMC3    H1 9869   1.919   3.450  17.393 -0.7535 -1.2267 -1.0446
  663TMC3    H2 9870   1.956   3.139  17.682 -1.2499 -0.8220  0.8501
  663TMC3    C7 9871   1.954   3.197  17.416 -0.1282  0.1340 -0.0743
  663TMC3    C8 9872   1.946   3.308   0.108  0.3560  0.2920 -0.2497
  663TMC3    O1 9873   2.010   3.247  17.318 -0.3422  0.3627  0.0855
  663TMC3    O2 9874   2.063   3.282   0.093  0.4029 -0.2017  0.3555
  664MPD2     C 9875   0.130   1.772  17.520  0.2374 -0.0684 -0.7925
  664MPD2    C1 9876   0.208   1.805  17.633  0.3327 -0.0765  0.1163
  664MPD2    C2 9877   0.172   1.751  17.749  0.1297  0.3927 -0.4610
  664MPD2    C3 9878   0.068   1.665   0.007 -0.2997  0.1387  0.3613
  664MPD2    C4 9879   4.732   1.632  17.657 -0.4325 -0.0617  0.9025
  664MPD2    C5 9880   0.035   1.673  17.534  0.2179  0.1070  0.0134
  664MPD2     H 9881   0.219   1.785   0.082  1.2129 -0.7321 -0.5922
  664MPD2    H1 9882   4.651   1.560  17.665 -1.4333  0.8865 -0.7817
  664MPD2    H2 9883   0.153   1.793  17.417 -1.3143 -0.0590 -1.1453
  664MPD2    H3 9884   4.721   1.647  17.444  0.1024  0.5639 -0.0520
  664MPD2     N 9885   0.041   1.616   0.138  0.3978  0.0547 -0.0738
  664MPD2    H5 9886   0.079   1.672   0.213  2.1095 -1.4223  0.1737
  664MPD2    N1 9887   0.327   1.879  17.621 -0.1944  0.4677  0.9313
  664MPD2    H7 9888   0.367   1.920  17.705 -1.1421  0.6896  1.2865
  665TMC3    C1 9889   0.004   1.468   0.306 -0.9444  0.2908  0.4934
  665TMC3    C2 9890   0.026   1.341   0.352  0.1496 -0.0693  0.2187
  665TMC3    C3 9891   0.043   1.321   0.486  0.0327  0.1322 -0.5481
  665TMC3    C4 9892   4.737   1.580   0.393  0.7465  0.0727  0.2131
  665TMC3    C5 9893   0.034   1.551   0.523 -0.0563  0.4513  0.5686
  665TMC3    C6 9894   0.059   1.425   0.574  0.0692 -0.2804  0.2143
  665TMC3     C 9895   4.722   1.499   0.165 -0.0274  0.0420  0.1749
  665TMC3     O 9896   4.703   1.400   0.094  0.0466  0.2315 -0.1975
  665TMC3     H 9897   0.018   1.252   0.289 -1.9359 -0.4963  1.0898
  665TMC3    H1 9898   4.709   1.682   0.371 -0.3921 -0.4399 -0.7240
  665TMC3    H2 9899   0.093   1.409   0.676  3.8142 -0.1143 -0.9949
  665TMC3    C7 9900   4.711   1.641   0.618 -0.2186  0.1911 -0.7656
  665TMC3    C8 9901   0.086   1.187   0.525 -0.0967  0.6983  0.5790
  665TMC3    O1 9902   0.038   1.737   0.648 -0.4766 -0.0248  0.0351
  665TMC3    O2 9903   0.138   1.113   0.440 -0.7466  0.2332  0.6292
  666TMC3    C1 9904   4.038   2.139  10.109 -0.8218  0.2991  0.2281
  666TMC3    C2 9905   4.120   2.092  10.205  0.5846 -0.2759  0.2901
  666TMC3    C3 9906   4.219   2.170  10.259 -0.2935 -0.8048  0.0621
  666TMC3    C4 9907   4.063   2.259  10.043  0.2935 -0.2743  0.4981
  666TMC3    C5 9908   4.164   2.337  10.105  0.2200 -0.0082 -0.0971
  666TMC3    C6 9909   4.243   2.301  10.213 -0.1334  0.3034 -0.6802
  666TMC3     C 9910   3.945   2.051  10.040  0.2177 -0.4750 -0.3009
  666TMC3     O 9911   3.916   2.077   9.924  0.4033 -0.1787  0.5421
  666TMC3     H 9912   4.117   1.988  10.237 -2.5178 -0.8151 -1.7729
  666TMC3    H1 9913   3.991   2.292   9.969  0.6364 -0.5567  0.0337
  666TMC3    H2 9914   4.308   2.364  10.273 -0.9779  0.3224  0.2272
  666TMC3    C7 9915   4.163   2.479  10.068  0.3875 -0.8246  0.2136
  666TMC3    C8 9916   4.317   2.107  10.339 -0.0177 -0.8262  0.8053
  666TMC3    O1 9917   4.055   2.533  10.035 -0.2594 -0.4297 -0.0923
  666TMC3    O2 9918   4.300   1.992  10.367 -0.2863 -0.2182  0.9051
  667MPD2     C 9919   1.327   1.946  14.457 -0.3670 -0.2079  0.8849
  667MPD2    C1 9920   1.199   1.967  14.506  0.3519  0.2339  0.2097
  667MPD2    C2 9921   1.099   1.869  14.488 -0.2802  0.1185 -0.3223
  667MPD2    C3 9922   1.137   1.740  14.441 -0.0102 -0.0781 -0.3275
  667MPD2    C4 9923   1.265   1.725  14.385 -0.2828  0.0278 -0.1446
  667MPD2    C5 9924   1.357   1.820  14.401  0.1423 -0.1354  0.1885
  667MPD2     H 9925   0.998   1.884  14.525 -0.6694  0.4728 -1.5129
  667MPD2    H1 9926   1.296   1.626  14.356 -1.7715 -0.5506  0.2217
  667MPD2    H2 9927   1.412   2.010  14.479 -0.7995  0.0134  1.9153
  667MPD2    H3 9928   1.460   1.801  14.372  0.2464  0.7730 -0.0392
  667MPD2     N 9929   1.062   1.619  14.461 -0.6622 -0.1585 -0.7320
  667MPD2    H5 9930   1.110   1.534  14.433  0.1012 -0.6842  2.2596
  667MPD2    N1 9931   1.171   2.067  14.601 -0.3479 -0.6889  0.8026
  667MPD2    H7 9932   1.082   2.058  14.649  0.2319 -0.0472  1.9980
  668TMC3    C1 9933   1.204   2.244  14.748  0.6146 -0.6324  0.1855
  668TMC3    C2 9934   1.273   2.360  14.765 -0.0084 -0.6006  0.4527
  668TMC3    C3 9935   1.293   2.397  14.897  0.0517  0.0522 -1.0933
  668TMC3    C4 9936   1.163   2.159  14.851 -0.5049  0.8956  0.2257
  668TMC3    C5 9937   1.172   2.206  14.979 -0.0821  0.2603 -0.0871
  668TMC3    C6 9938   1.229   2.328  15.000 -0.1065 -0.6620 -0.8048
  668TMC3     C 9939   1.249   2.175  14.629 -0.2434  0.1362  0.2797
  668TMC3     O 9940   1.333   2.225  14.555 -0.3235  0.0161 -0.6309
  668TMC3     H 9941   1.285   2.427  14.681 -0.9556  0.8363  1.4645
  668TMC3    H1 9942   1.113   2.064  14.839 -0.1635  1.0136 -2.1358
  668TMC3    H2 9943   1.242   2.372  15.099  1.6719 -1.3561 -0.7128
  668TMC3    C7 9944   1.112   2.139  15.094 -0.8159  0.2369  0.1777
  668TMC3    C8 9945   1.364   2.520  14.920  0.1165 -0.2396  0.0482
  668TMC3    O1 9946   1.154   2.168  15.205  0.1232 -0.0464  0.1020
  668TMC3    O2 9947   1.380   2.555  15.035  0.2963  0.1806  0.5150
  669TMC3    C1 9948   4.299   1.665  14.717 -0.3275 -0.5077  0.2111
  669TMC3    C2 9949   4.168   1.653  14.666 -0.1449 -0.6352  0.3401
  669TMC3    C3 9950   4.149   1.707  14.547 -0.0133  0.1607 -0.8082
  669TMC3    C4 9951   4.398   1.722  14.649  0.7393  0.5690 -0.4535
  669TMC3    C5 9952   4.380   1.749  14.514  0.1438  0.1325  0.7164
  669TMC3    C6 9953   4.252   1.751  14.463 -0.2069  0.0423 -0.0650
  669TMC3     C 9954   4.331   1.605  14.841 -0.2401 -0.3435 -0.2550
  669TMC3     O 9955   4.449   1.588  14.852 -0.1241  0.1084  0.0457
  669TMC3     H 9956   4.090   1.606  14.724  1.1028  0.2889  2.7908
  669TMC3    H1 9957   4.497   1.722  14.694  0.5913  2.9400 -0.1519
  669TMC3    H2 9958   4.228   1.797  14.369 -1.3130 -0.2573  0.0675
  669TMC3    C7 9959   4.482   1.824  14.438 -0.1158  0.5416  0.4176
  669TMC3    C8 9960   4.025   1.679  14.472 -0.1313 -0.5795 -0.3415
  669TMC3    O1 9961   4.574   1.872  14.504 -0.3044  0.1400 -0.0395
  669TMC3    O2 9962   4.029   1.664  14.349  0.0445  0.0211  0.0397
  670MPD2     C 9963   2.556   4.499  12.934 -0.0774  0.8744  0.9454
  670MPD2    C1 9964   2.647   4.419  12.998  0.3642 -0.6325  0.7073
  670MPD2    C2 9965   2.604   4.345  13.107  0.2257  0.2253 -0.3565
  670MPD2    C3 9966   2.472   4.352  13.155  0.2050  0.2116 -0.0395
  670MPD2    C4 9967   2.383   4.405  13.072 -0.0891 -0.2590 -1.1271
  670MPD2    C5 9968   2.422   4.481  12.969  0.4472 -0.6857 -0.2646
  670MPD2     H 9969   2.664   4.273  13.161  0.5244  1.2585  0.6870
  670MPD2    H1 9970   2.277   4.389  13.090  0.8178 -1.5839  3.0868
  670MPD2    H2 9971   2.571   4.571  12.854 -2.3640  0.7860  0.4564
  670MPD2    H3 9972   2.340   4.532  12.919  0.7908 -1.0120 -1.1656
  670MPD2     N 9973   2.431   4.292  13.276  0.0155 -0.4005  0.8766
  670MPD2    H5 9974   2.336   4.259  13.287  0.9948 -2.4830  3.0636
  670MPD2    N1 9975   2.786   4.427  12.988 -0.3381 -0.2272  0.6821
  670MPD2    H7 9976   2.837   4.344  13.017 -0.9220 -0.7690  0.1689
  671TMC3    C1 9977   2.462   4.166  13.478 -0.3581  0.1421 -0.4746
  671TMC3    C2 9978   2.516   4.184  13.602 -0.0442  0.0682 -0.1699
  671TMC3    C3 9979   2.446   4.148  13.720 -0.1737 -0.4372  0.1710
  671TMC3    C4 9980   2.337   4.107  13.471  0.2153  0.0157  0.5237
  671TMC3    C5 9981   2.272   4.059  13.586 -0.4113  0.0008  0.2208
  671TMC3    C6 9982   2.323   4.078  13.714 -0.1577 -0.4662  0.6913
  671TMC3     C 9983   2.518   4.255  13.376  0.3321  0.4920 -0.1768
  671TMC3     O 9984   2.634   4.285  13.385 -0.0564 -0.0756  0.3912
  671TMC3     H 9985   2.608   4.240  13.616 -1.2054  1.0839  3.4781
  671TMC3    H1 9986   2.288   4.082  13.377 -0.1246 -0.6065  0.8638
  671TMC3    H2 9987   2.267   4.050  13.802  0.8954  1.0540  1.8562
  671TMC3    C7 9988   2.159   3.966  13.564 -0.6935 -0.3125  0.1036
  671TMC3    C8 9989   2.517   4.161  13.851 -1.0275 -0.2120  0.2401
  671TMC3    O1 9990   2.149   3.920  13.450 -0.2464 -0.0042  0.4458
  671TMC3    O2 9991   2.588   4.259  13.862 -0.0774  0.3204  0.3929
  672MPD2     C 9992   2.729   0.172   0.223  0.0088 -0.6426 -0.0712
  672MPD2    C1 9993   2.772   0.061   0.286 -0.3731  0.3457  0.3050
  672MPD2    C2 9994   2.896   0.063   0.342 -0.0904 -0.4530 -0.5957
  672MPD2    C3 9995   2.973   0.179   0.346  0.4543  0.1766  0.5800
  672MPD2    C4 9996   2.927   0.288   0.280  0.0056 -1.2487 -0.3186
  672MPD2    C5 9997   2.806   0.287   0.226 -0.1067 -0.3342  0.0789
  672MPD2     H 9998   2.936   4.717   0.393  0.9093  0.0967 -0.4501
  672MPD2    H1 9999   2.982   0.381   0.287  0.6787 -1.8305  2.1663
  672MPD2    H210000   2.640   0.179   0.161  0.8955 -1.5059 -1.4193
  672MPD2    H310001   2.770   0.374   0.172  0.2957 -0.5645 -0.5580
  672MPD2     N10002   3.110   0.195   0.403  0.2292  0.2134 -0.3680
  672MPD2    H510003   3.147   0.286   0.378  1.4070  0.1755  1.2089
  672MPD2    N110004   2.692   4.689   0.308 -0.5405  0.2403  0.3455
  672MPD2    H710005   2.727   4.622   0.376 -1.8170  0.3064  1.0754
  673TMC3    C110006   2.490   4.576   0.308  1.0596 -0.0808 -0.9586
  673TMC3    C210007   2.544   4.450   0.324  0.0787  0.4592  0.2868
  673TMC3    C310008   2.451   4.348   0.344 -0.1649 -0.3521  0.9101
  673TMC3    C410009   2.351   4.605   0.293 -0.6333  0.2115  0.3883
  673TMC3    C510010   2.267   4.502   0.319  0.6747 -0.6205 -0.2454
  673TMC3    C610011   2.313   4.371   0.330 -0.7319  0.5184  0.0409
  673TMC3     C10012   2.570   4.680   0.245  0.1820 -0.1696  0.7818
  673TMC3     O10013   2.502   0.007   0.169  0.0313  0.4700 -0.2108
  673TMC3     H10014   2.650   4.438   0.307  0.6171  2.9342  1.8890
  673TMC3    H110015   2.318   4.707   0.280  2.4875  1.2932  1.1491
  673TMC3    H210016   2.239   4.293   0.329  0.9177 -1.0344 -0.9447
  673TMC3    C710017   2.120   4.521   0.313  0.0768 -1.1192 -0.4186
  673TMC3    C810018   2.500   4.207   0.323 -0.0220  0.2443 -0.7652
  673TMC3    O110019   2.054   4.423   0.343 -0.2986  0.7931  0.4548
  673TMC3    O210020   2.416   4.115   0.308  0.2045  0.3327  0.3386
  674MPD2     C10021   1.857   0.147  17.450 -0.2689  0.5859  0.0488
  674MPD2    C110022   1.762   0.085  17.522 -0.3371  0.3684  0.8682
  674MPD2    C210023   1.644   0.152  17.538  0.3500 -0.0899  0.0996
  674MPD2    C310024   1.620   0.279  17.479 -0.2897  0.2798  0.2217
  674MPD2    C410025   1.725   0.342  17.415 -1.2286  0.2182 -0.4420
  674MPD2    C510026   1.841   0.273  17.405 -0.1927  0.1681 -0.7708
  674MPD2     H10027   1.567   0.104  17.596  0.7826  0.2682  0.9743
  674MPD2    H110028   1.720   0.441  17.370 -1.8247 -1.4199 -3.9812
  674MPD2    H210029   1.959   0.112  17.441 -0.7016 -1.0317  1.3652
  674MPD2    H310030   1.927   0.317  17.355  0.4811  0.6330  0.7960
  674MPD2     N10031   1.489   0.329  17.488  0.3198  0.4405  0.1191
  674MPD2    H510032   1.412   0.266  17.502 -0.6756  2.0396  1.8412
  674MPD2    N110033   1.797   4.718  17.608 -0.1126  0.4542 -0.1002
  674MPD2    H710034   1.895   4.691  17.612 -0.0671  0.4419 -1.2545
  675TMC3    C110035   1.766   4.531   0.014 -0.1854  0.3493  0.4221
  675TMC3    C210036   1.682   4.479   0.111 -0.3100 -0.1525 -0.0774
  675TMC3    C310037   1.720   4.362   0.179 -0.5067  0.0627  0.3618
  675TMC3    C410038   1.886   4.468  17.745  0.1786  0.6590 -0.1071
  675TMC3    C510039   1.918   4.355   0.057  0.7214  0.2461 -0.4374
  675TMC3    C610040   1.833   4.302   0.148  0.2198  0.0896  0.3545
  675TMC3     C10041   1.720   4.653  17.699 -0.2212 -0.1944 -0.2745
  675TMC3     O10042   1.600   4.657  17.711 -0.6833 -0.0034 -0.0526
  675TMC3     H10043   1.601   4.532   0.160  1.0406  1.3054  0.5953
  675TMC3    H110044   1.953   4.494  17.664  2.2044 -0.1338  1.3151
  675TMC3    H210045   1.866   4.223   0.214  1.9021 -0.5788 -1.2623
  675TMC3    C710046   2.038   4.287   0.019 -0.0058  1.0626 -0.2129
  675TMC3    C810047   1.612   4.285   0.234 -1.1126  0.2976  0.3840
  675TMC3    O110048   2.057   4.175   0.063  0.2391 -0.1761 -0.3073
  675TMC3    O210049   1.500   4.312   0.192  0.2860  0.0314  0.0124
  676MPD2     C10050   0.503   3.170  11.292  0.3216 -0.4307 -0.8232
  676MPD2    C110051   0.424   3.101  11.377 -0.0989 -0.1938 -0.0182
  676MPD2    C210052   0.386   2.967  11.351  0.1913 -0.4105 -0.3958
  676MPD2    C310053   0.425   2.902  11.234  0.4878 -0.0456  0.2213
  676MPD2    C410054   0.484   2.983  11.143 -0.1166 -0.5232 -0.1211
  676MPD2    C510055   0.538   3.108  11.171 -0.0856 -0.9585  0.4018
  676MPD2     H10056   0.318   2.916  11.418 -0.3609 -1.3391 -1.6537
  676MPD2    H110057   0.507   2.959  11.040  0.5447  0.1747 -0.1391
  676MPD2    H210058   0.520   3.277  11.296  0.2727 -0.4674  0.4893
  676MPD2    H310059   0.574   3.167  11.088 -1.5258 -1.9071 -0.9025
  676MPD2     N10060   0.381   2.778  11.191 -0.1729  0.6074  0.1065
  676MPD2    H510061   0.410   2.754  11.097 -3.4625  1.6658 -1.1836
  676MPD2    N110062   0.381   3.149  11.500 -0.6478  0.9081 -0.1914
  676MPD2    H710063   0.317   3.090  11.551 -1.1600  1.9808  0.4095
  677TMC3    C110064   0.350   3.277  11.691 -0.6895 -0.5188  0.4920
  677TMC3    C210065   0.311   3.162  11.744  0.2804  0.0137  0.2785
  677TMC3    C310066   0.264   3.168  11.874 -0.0707  0.0563 -0.0338
  677TMC3    C410067   0.331   3.394  11.757  0.5064  0.8851  0.0130
  677TMC3    C510068   0.281   3.400  11.882  0.2687 -0.1213 -0.1075
  677TMC3    C610069   0.250   3.284  11.944  0.0328 -0.3651 -0.0534
  677TMC3     C10070   0.405   3.271  11.557 -0.5537 -0.2846 -0.6337
  677TMC3     O10071   0.468   3.366  11.508  0.3326 -0.2108 -0.1701
  677TMC3     H10072   0.326   3.062  11.705 -3.1020 -1.2116  2.0847
  677TMC3    H110073   0.370   3.479  11.701 -1.5513 -1.6510 -5.1828
  677TMC3    H210074   0.218   3.277  12.047 -1.5254  1.8053 -0.3844
  677TMC3    C710075   0.266   3.524  11.958  0.2820  0.5866 -0.4796
  677TMC3    C810076   0.333   3.064  11.943 -0.4209  0.5797 -0.0235
  677TMC3    O110077   0.214   3.496  12.067 -0.4000  0.2022  0.1715
  677TMC3    O210078   0.435   3.020  11.891 -0.2274  0.3197 -0.3143
  678MPD2     C10079   1.439   1.712   1.281 -0.6558 -0.0967 -0.1975
  678MPD2    C110080   1.440   1.854   1.286 -0.2938  0.4471  1.0493
  678MPD2    C210081   1.320   1.919   1.310  0.5807 -0.4438  0.4947
  678MPD2    C310082   1.208   1.849   1.337 -0.5472 -0.2637  0.1854
  678MPD2    C410083   1.203   1.712   1.339 -0.1023 -0.5222  0.5235
  678MPD2    C510084   1.324   1.648   1.311 -0.0935 -0.4642 -0.2046
  678MPD2     H10085   1.319   2.026   1.294  1.1723 -0.6842 -1.2226
  678MPD2    H110086   1.113   1.655   1.359 -0.7331  0.0310 -0.7906
  678MPD2    H210087   1.519   1.648   1.245 -2.3581 -2.1576 -0.3052
  678MPD2    H310088   1.304   1.543   1.294  0.7384 -0.7241  0.4156
  678MPD2     N10089   1.095   1.931   1.363  0.0267 -0.8901 -0.2524
  678MPD2    H510090   1.104   2.030   1.345 -1.1833 -0.4893  1.3225
  678MPD2    N110091   1.551   1.935   1.247  0.0618 -0.1908  0.3928
  678MPD2    H710092   1.538   2.036   1.241  2.3917  0.1327  0.9087
  679TMC3    C110093   2.000   2.035   1.132  0.5096  0.9211  0.3165
  679TMC3    C210094   1.910   1.936   1.166 -0.1100  0.1000 -0.3152
  679TMC3    C310095   1.782   1.981   1.204  0.7250  0.0101 -0.4683
  679TMC3    C410096   1.969   2.170   1.139 -0.1284 -0.0514 -0.1850
  679TMC3    C510097   1.842   2.207   1.177  0.6160  0.0898 -0.5279
  679TMC3    C610098   1.750   2.115   1.208 -0.0412  0.1866 -0.7788
  679TMC3     C10099   2.144   2.010   1.133 -0.2524  0.0564 -0.6461
  679TMC3     O10100   2.212   2.109   1.102 -0.5927 -0.1479 -0.4908
  679TMC3     H10101   1.936   1.832   1.154 -0.4494  0.0495 -0.6389
  679TMC3    H110102   2.032   2.250   1.103  1.8735 -2.0254 -1.0956
  679TMC3    H210103   1.665   2.152   1.264  1.5841  0.3849  1.5267
  679TMC3    C710104   1.796   2.344   1.177  0.0485  0.8959 -0.2596
  679TMC3    C810105   1.679   1.879   1.232 -0.7543  0.3789 -0.5834
  679TMC3    O110106   1.680   2.362   1.141  0.1227 -0.0631  0.1155
  679TMC3    O210107   1.716   1.763   1.212  0.4971  0.1323 -0.1099
  680MPD2     C10108   2.119   1.537  13.303 -0.6788 -0.3900 -0.0423
  680MPD2    C110109   2.173   1.474  13.419 -0.4080  0.0426 -0.0478
  680MPD2    C210110   2.300   1.510  13.452  0.1322  0.5997  0.0554
  680MPD2    C310111   2.356   1.620  13.386  0.6399  0.2971 -0.1039
  680MPD2    C410112   2.299   1.686  13.275  0.4934 -0.6342 -0.4206
  680MPD2    C510113   2.180   1.638  13.231 -0.3501  0.1758 -0.3328
  680MPD2     H10114   2.350   1.455  13.530 -2.5255  0.8245  1.9328
  680MPD2    H110115   2.352   1.769  13.230  1.0191 -0.9301 -0.3562
  680MPD2    H210116   2.019   1.520  13.265 -0.7668  1.2288 -0.5530
  680MPD2    H310117   2.115   1.686  13.160  0.8859  1.3387 -0.6681
  680MPD2     N10118   2.479   1.678  13.441 -0.0890  0.1625 -0.8626
  680MPD2    H510119   2.513   1.761  13.393  0.6291  1.7716  2.3973
  680MPD2    N110120   2.112   1.365  13.487  0.2725  0.3315  0.5102
  680MPD2    H710121   2.169   1.322  13.558 -1.4168  0.1455  1.7486
  681TMC3    C110122   1.947   1.234  13.571 -0.2905  0.2357  0.0109
  681TMC3    C210123   1.823   1.253  13.635 -0.5652  0.3232  0.0300
  681TMC3    C310124   1.799   1.173  13.745  0.1620  0.3265  0.3647
  681TMC3    C410125   2.045   1.160  13.626  0.0591 -0.0358 -0.6615
  681TMC3    C510126   2.015   1.080  13.729 -0.0218 -0.2461 -0.4447
  681TMC3    C610127   1.894   1.090  13.794  0.9305  0.0886 -0.4772
  681TMC3     C10128   1.981   1.329  13.469  0.3388  0.3106  0.3627
  681TMC3     O10129   1.898   1.386  13.404  0.2285 -0.5310 -0.6088
  681TMC3     H10130   1.749   1.323  13.597 -0.6908 -0.4527 -1.1643
  681TMC3    H110131   2.142   1.143  13.582  0.1814  1.2932 -0.9278
  681TMC3    H210132   1.858   1.023  13.870 -1.9107 -0.5644 -2.4014
  681TMC3    C710133   2.100   0.968  13.749  0.3152 -0.2734 -0.4243
  681TMC3    C810134   1.702   1.241  13.832 -0.1401 -0.4073  0.2476
  681TMC3    O110135   2.091   0.920  13.862  0.2262  0.0432 -0.5106
  681TMC3    O210136   1.606   1.293  13.770  0.1422 -0.1612  0.3525
  682MPD2     C10137   4.233   3.310  11.120 -0.3781  0.2291  0.0648
  682MPD2    C110138   4.180   3.187  11.124  0.4384  0.4997 -0.1556
  682MPD2    C210139   4.184   3.107  11.231  0.2390  0.2340  0.0733
  682MPD2    C310140   4.243   3.152  11.345 -0.0073 -0.4725  0.6503
  682MPD2    C410141   4.308   3.274  11.343  0.5791  0.5385 -0.0135
  682MPD2    C510142   4.296   3.351  11.232  0.3671  0.2190 -0.4907
  682MPD2     H10143   4.133   3.012  11.227 -0.9543  0.8696  0.0693
  682MPD2    H110144   4.367   3.310  11.426  1.2643 -0.0991 -0.2303
  682MPD2    H210145   4.215   3.374  11.035 -0.5107 -0.1401 -0.1832
  682MPD2    H310146   4.324   3.456  11.233 -0.6649  0.4690  1.1665
  682MPD2     N10147   4.234   3.070  11.457 -0.3162 -0.7231  0.1631
  682MPD2    H510148   4.175   2.988  11.447 -2.0827  0.7015 -1.1296
  682MPD2    N110149   4.108   3.126  11.017  0.0526 -0.0102 -0.1737
  682MPD2    H710150   4.083   3.029  11.036 -0.9762  0.9919  3.5208
  683TMC3    C110151   4.297   2.922  11.888 -0.5027  0.5881  0.3049
  683TMC3    C210152   4.193   2.830  11.887 -0.4653 -0.8743 -0.1391
  683TMC3    C310153   4.127   2.827  11.766 -0.0949  0.0133 -0.0209
  683TMC3    C410154   4.325   3.008  11.789 -0.3668  0.7701  0.5904
  683TMC3    C510155   4.245   3.009  11.680  1.0811  0.4829  0.4369
  683TMC3    C610156   4.137   2.921  11.664 -0.0991 -0.4242 -0.1571
  683TMC3     C10157   4.398   2.916  11.996  0.1296  0.3997  0.4746
  683TMC3     O10158   4.463   3.014  12.020 -0.7549  0.8257 -0.9091
  683TMC3     H10159   4.170   2.774  11.977 -2.7370 -1.4147 -1.0645
  683TMC3    H110160   4.404   3.082  11.796 -0.8017  1.1010  1.9980
  683TMC3    H210161   4.075   2.926  11.575 -2.8150  1.8530  1.8927
  683TMC3    C710162   4.295   3.089  11.573  0.0971  0.3802 -0.8209
  683TMC3    C810163   4.036   2.712  11.734 -0.9682  0.8201 -0.0430
  683TMC3    O110164   4.391   3.158  11.590 -0.0961  0.4484  0.1200
  683TMC3    O210165   3.952   2.731  11.647 -0.4149  0.2705  0.0507
  684MPD2     C10166   2.515   1.772  16.210  0.6740  0.2269 -0.8112
  684MPD2    C110167   2.469   1.869  16.124  0.4323  0.3213 -0.2166
  684MPD2    C210168   2.381   1.967  16.176 -0.3449 -0.5429 -0.4922
  684MPD2    C310169   2.348   1.967  16.313 -0.2083  0.8058  0.3248
  684MPD2    C410170   2.404   1.884  16.404 -0.2816 -0.0597  0.2945
  684MPD2    C510171   2.495   1.793  16.348 -0.6871  0.2610 -0.1632
  684MPD2     H10172   2.348   2.045  16.109 -2.3889  0.6140  1.8835
  684MPD2    H110173   2.361   1.882  16.503  0.1644  0.0709  0.4903
  684MPD2    H210174   2.571   1.685  16.177  3.3371  0.8062  2.1670
  684MPD2    H310175   2.533   1.718  16.417 -0.8839  1.2869  1.0495
  684MPD2     N10176   2.277   2.074  16.368  0.7028  0.2261  0.2980
  684MPD2    H510177   2.297   2.091  16.466  0.0230  2.0390  0.1364
  684MPD2    N110178   2.505   1.891  15.988 -0.3357  0.0467 -0.2808
  684MPD2    H710179   2.452   1.957  15.932  1.0111  2.0567  0.7949
  685TMC3    C110180   2.609   1.866  15.783  0.4052 -0.1708 -0.5867
  685TMC3    C210181   2.509   1.936  15.727 -0.7903 -0.4378  0.9464
  685TMC3    C310182   2.533   2.017  15.620 -0.0559 -0.3189  0.3527
  685TMC3    C410183   2.735   1.881  15.744  0.3484 -0.0119  0.2138
  685TMC3    C510184   2.763   1.973  15.649 -0.1902 -0.0326 -0.3406
  685TMC3    C610185   2.664   2.042  15.579  0.3823  0.3066  0.0215
  685TMC3     C10186   2.593   1.816  15.917  0.0012 -0.0518  0.4813
  685TMC3     O10187   2.680   1.747  15.965  0.3482  0.5790 -0.4512
  685TMC3     H10188   2.408   1.921  15.763 -0.4656 -1.3366  1.4961
  685TMC3    H110189   2.816   1.843  15.805  0.5458  1.9382  1.1745
  685TMC3    H210190   2.686   2.111  15.498  1.9743 -0.2372 -0.0060
  685TMC3    C710191   2.892   2.050  15.683 -0.4314 -0.2107  0.0306
  685TMC3    C810192   2.421   2.048  15.532  0.2208  0.0510 -0.9745
  685TMC3    O110193   2.993   1.982  15.686 -0.1459  0.4033  0.2223
  685TMC3    O210194   2.443   2.057  15.412  0.4004  0.1027 -0.4436
  686MPD2     C10195   3.695   1.767  15.350 -1.1653  0.4106 -0.3347
  686MPD2    C110196   3.745   1.758  15.477  0.0347 -0.4526  0.1366
  686MPD2    C210197   3.821   1.643  15.508 -0.5338  0.0194 -0.7291
  686MPD2    C310198   3.832   1.542  15.417  0.5036  0.3067 -0.0025
  686MPD2    C410199   3.784   1.560  15.287  0.3041 -0.0087  0.3693
  686MPD2    C510200   3.717   1.666  15.258  0.1465 -0.0515  0.0573
  686MPD2     H10201   3.867   1.631  15.606  2.3589  0.9163 -1.9911
  686MPD2    H110202   3.787   1.478  15.216 -0.0096  0.8908 -0.6974
  686MPD2    H210203   3.633   1.849  15.315 -1.7122  0.6236  1.1408
  686MPD2    H310204   3.696   1.680  15.152  0.1708 -0.2581  0.0252
  686MPD2     N10205   3.896   1.415  15.444 -1.0562 -0.3335  0.8270
  686MPD2    H510206   3.907   1.345  15.372  2.5351 -0.7202  1.7557
  686MPD2    N110207   3.696   1.850  15.575  0.3340 -0.0790 -0.3234
  686MPD2    H710208   3.641   1.929  15.545  0.8695  0.6535  0.6260
  687TMC3    C110209   3.895   1.399  15.686  0.1550  0.1891 -0.4074
  687TMC3    C210210   3.758   1.403  15.696 -0.3175 -0.6599 -0.1306
  687TMC3    C310211   3.706   1.436  15.820 -0.6269 -0.4435 -0.1259
  687TMC3    C410212   3.979   1.406  15.792 -0.4239  0.5009  0.3822
  687TMC3    C510213   3.925   1.448  15.908 -0.9125 -0.8868  0.2376
  687TMC3    C610214   3.789   1.462  15.923 -0.7593 -0.3069  0.7158
  687TMC3     C10215   3.962   1.371  15.560 -0.3201 -0.1098  0.2845
  687TMC3     O10216   4.040   1.277  15.569 -0.3008  0.0446  0.0204
  687TMC3     H10217   3.688   1.367  15.620  0.1602  1.1919 -1.4354
  687TMC3    H110218   4.086   1.399  15.777 -0.6678 -1.3889 -0.4079
  687TMC3    H210219   3.753   1.498  16.018 -0.8620 -1.0060  0.9436
  687TMC3    C710220   4.004   1.521  16.006  0.2451 -0.5433  0.0859
  687TMC3    C810221   3.562   1.447  15.841 -0.2177 -0.6132 -0.2878
  687TMC3    O110222   3.945   1.597  16.081 -0.2006 -0.2707 -0.1795
  687TMC3    O210223   3.517   1.416  15.951 -0.3366  0.1769 -0.1044
  688MPD2     C10224   2.870   1.145  17.288 -0.4573  0.3507 -0.8623
  688MPD2    C110225   2.908   1.026  17.348 -0.1964  0.0272 -0.5880
  688MPD2    C210226   3.013   0.952  17.289 -0.5559  1.1400  0.4496
  688MPD2    C310227   3.064   0.989  17.167  0.8263  0.4090 -0.2334
  688MPD2    C410228   3.031   1.113  17.123  0.3033  0.0092 -0.0891
  688MPD2    C510229   2.921   1.185  17.169  0.1730  0.6211 -0.0279
  688MPD2     H10230   3.050   0.860  17.332  0.0111  0.0417 -2.3578
  688MPD2    H110231   3.071   1.143  17.026  1.0213  1.0548  0.5289
  688MPD2    H210232   2.779   1.200  17.307 -0.3824  0.3752 -0.5699
  688MPD2    H310233   2.878   1.272  17.120  1.6668  0.3520 -1.8070
  688MPD2     N10234   3.173   0.929  17.103 -0.1079 -0.6938  0.6349
  688MPD2    H510235   3.231   0.979  17.037  0.0062 -1.9356 -0.1961
  688MPD2    N110236   2.841   0.972  17.458 -0.0976 -0.3152 -0.4918
  688MPD2    H710237   2.865   0.874  17.469 -1.4665 -0.5062  0.7939
  689TMC3    C110238   2.740   0.951  17.659  0.5765  0.5267  0.0850
  689TMC3    C210239   2.720   1.011   0.021 -0.5505 -0.1064  0.0647
  689TMC3    C310240   2.655   0.935   0.112 -0.6014  0.1710  0.5788
  689TMC3    C410241   2.697   0.825  17.625 -0.1700  0.1914 -0.2597
  689TMC3    C510242   2.639   0.752  17.727  0.7451 -0.1618  0.6077
  689TMC3    C610243   2.616   0.805   0.093  0.2844 -0.6150  0.0926
  689TMC3     C10244   2.785   1.043  17.556 -0.3692 -0.9775 -0.5591
  689TMC3     O10245   2.787   1.166  17.570 -0.1593  0.0966  0.3577
  689TMC3     H10246   2.765   1.108   0.038  1.3731 -1.2967  1.7018
  689TMC3    H110247   2.714   0.779  17.528  0.3784 -0.7262  0.2751
  689TMC3    H210248   2.574   0.753   0.178 -1.5267 -2.5026 -1.9636
  689TMC3    C710249   2.630   0.609  17.725 -0.2642  0.7018 -0.0425
  689TMC3    C810250   2.686   0.964   0.257  0.4229  0.1734  0.1960
  689TMC3    O110251   2.622   0.546   0.074 -0.1156 -0.4198  0.6753
  689TMC3    O210252   2.695   0.877   0.340  0.0322 -0.5955 -0.6913
  690MPD2     C10253   4.614   3.006  15.602 -0.3913  1.2198 -0.7392
  690MPD2    C110254   4.701   2.909  15.639  0.3017  0.8353  0.6445
  690MPD2    C210255   0.091   2.927  15.591  0.2168  0.1572  0.1948
  690MPD2    C310256   0.125   3.030  15.500  0.1941 -0.3543  0.3566
  690MPD2    C410257   0.033   3.124  15.457  0.1977 -0.5055  0.7693
  690MPD2    C510258   4.650   3.108  15.512 -0.4160  0.0204 -0.1697
  690MPD2     H10259   0.163   2.857  15.632 -0.9490 -0.9896  0.2691
  690MPD2    H110260   0.061   3.198  15.383  0.0168  0.1429  1.3597
  690MPD2    H210261   4.510   2.998  15.632 -0.2551 -0.7361 -0.7895
  690MPD2    H310262   4.569   3.176  15.488  0.0351  0.2568 -1.0114
  690MPD2     N10263   0.251   3.037  15.434  0.3348 -0.1321  0.4648
  690MPD2    H510264   0.257   3.105  15.359  0.2157  0.4613  0.9943
  690MPD2    N110265   4.650   2.818  15.726  0.0132  0.1373 -0.4226
  690MPD2    H710266   4.552   2.829  15.751 -0.3794 -1.2608 -1.3919
  691TMC3    C110267   4.640   2.607  15.835 -0.1235 -0.0057  0.6407
  691TMC3    C210268   4.508   2.630  15.881 -0.1973 -0.9020  1.1208
  691TMC3    C310269   4.431   2.529  15.934 -0.2863  0.5165 -0.8924
  691TMC3    C410270   4.681   2.475  15.829  0.4169  0.8488 -0.2084
  691TMC3    C510271   4.604   2.379  15.892  0.6340  0.2289 -0.1507
  691TMC3    C610272   4.475   2.405  15.938 -0.4003  0.1622 -0.1768
  691TMC3     C10273   4.724   2.706  15.767 -0.4965 -0.0888  0.1831
  691TMC3     O10274   0.101   2.678  15.746 -0.1818  0.0072  0.5388
  691TMC3     H10275   4.480   2.735  15.880 -0.3170 -0.9481 -0.5715
  691TMC3    H110276   0.037   2.450  15.784 -0.6340 -1.2018 -1.3178
  691TMC3    H210277   4.425   2.319  15.981 -1.0880  0.4399 -0.4325
  691TMC3    C710278   4.646   2.240  15.907  0.6891 -0.1588 -0.0348
  691TMC3    C810279   4.295   2.549  15.989 -0.2653 -0.2556  0.6224
  691TMC3    O110280   4.562   2.150  15.901 -0.1025  0.4127 -0.0019
  691TMC3    O210281   4.241   2.447  16.036 -0.7210 -0.0969 -0.5154
  692TMC3    C110282   2.108   3.365  15.759 -0.5145  0.2378  0.5359
  692TMC3    C210283   2.230   3.372  15.833 -0.4217  0.1159 -0.5351
  692TMC3    C310284   2.279   3.265  15.900 -1.0949 -0.4625  0.0059
  692TMC3    C410285   2.048   3.252  15.745  0.1515  0.2672  0.0380
  692TMC3    C510286   2.099   3.142  15.814  0.0353 -1.0145  0.7012
  692TMC3    C610287   2.203   3.148  15.901 -1.0245 -0.0512 -0.1665
  692TMC3     C10288   2.016   3.474  15.783  0.7893  0.4971  0.6136
  692TMC3     O10289   1.902   3.443  15.791 -0.2547 -0.0375  0.3833
  692TMC3     H10290   2.301   3.449  15.804  0.9569 -1.2149 -0.7054
  692TMC3    H110291   1.951   3.245  15.697  0.6078 -3.0729 -0.4255
  692TMC3    H210292   2.247   3.053  15.928  0.1470  0.6163  0.2510
  692TMC3    C710293   2.019   3.025  15.796 -0.5122  0.3682  0.1723
  692TMC3    C810294   2.330   3.293  16.033 -0.7768  0.2038  0.1913
  692TMC3    O110295   1.940   3.031  15.699 -0.5976  0.1564  0.3048
  692TMC3    O210296   2.358   3.198  16.104 -0.0116 -0.3337 -0.5974
  693MPD2     C10297   1.364   2.221  10.387  0.3188 -0.4595  0.5067
  693MPD2    C110298   1.372   2.166  10.514  0.0500 -0.0692  0.7659
  693MPD2    C210299   1.493   2.116  10.561  0.0449 -0.4936  0.4481
  693MPD2    C310300   1.602   2.122  10.477  0.5771  0.6148 -0.4975
  693MPD2    C410301   1.591   2.170  10.353  0.3431 -0.1500 -0.2617
  693MPD2    C510302   1.470   2.211  10.306  0.4370  0.0827  0.4693
  693MPD2     H10303   1.508   2.087  10.664 -1.9253 -1.2050  0.5310
  693MPD2    H110304   1.675   2.187  10.288  0.9153  0.1432  0.5614
  693MPD2    H210305   1.274   2.268  10.348  0.3602  0.3282  1.3752
  693MPD2    H310306   1.449   2.255  10.209  2.7240 -2.1541 -1.0274
  693MPD2     N10307   1.723   2.078  10.530 -0.0261 -0.7017  0.0071
  693MPD2    H510308   1.707   2.044  10.624  0.5566  2.1507  1.1609
  693MPD2    N110309   1.258   2.182  10.597  0.0110  0.2013  0.6647
  693MPD2    H710310   1.169   2.212  10.558 -1.9559 -5.5704  0.8227
  694TMC3    C110311   1.137   2.185  10.793  0.9621  1.0157  1.1312
  694TMC3    C210312   1.052   2.086  10.749  0.5842  0.3448 -0.3265
  694TMC3    C310313   0.942   2.046  10.833 -0.1411  0.4607  0.0444
  694TMC3    C410314   1.108   2.246  10.914  0.2013 -0.3337  0.5306
  694TMC3    C510315   0.999   2.205  10.993  0.6108  0.0345  0.1077
  694TMC3    C610316   0.921   2.100  10.955  0.5542  0.1962 -0.8132
  694TMC3     C10317   1.268   2.181  10.733 -0.8772 -0.4145 -0.8779
  694TMC3     O10318   1.364   2.210  10.806  0.4813 -0.6218  0.0950
  694TMC3     H10319   1.071   2.033  10.656 -3.8434  0.1286 -1.1449
  694TMC3    H110320   1.183   2.315  10.952 -0.7212  1.0322 -0.1613
  694TMC3    H210321   0.833   2.075  11.012 -0.8352  1.6947 -2.2984
  694TMC3    C710322   1.021   2.244  11.127 -0.6272  0.2887  0.0886
  694TMC3    C810323   0.826   1.993  10.761  0.5401 -0.1319 -0.1632
  694TMC3    O110324   1.079   2.349  11.149 -0.4569 -0.8765  0.0585
  694TMC3    O210325   0.722   1.999  10.826 -0.0817 -0.2340  0.2822
  695MPD2     C10326   2.647   3.398  13.532 -0.3285 -0.1260  0.6897
  695MPD2    C110327   2.558   3.447  13.625  0.1780  0.6841  0.8163
  695MPD2    C210328   2.438   3.501  13.577  0.3544 -0.2564 -0.1172
  695MPD2    C310329   2.420   3.512  13.440  0.0164 -0.3566  0.5244
  695MPD2    C410330   2.511   3.475  13.345 -0.1099 -0.7566  0.6680
  695MPD2    C510331   2.621   3.413  13.395  0.7275  0.2445 -0.0155
  695MPD2     H10332   2.371   3.544  13.650 -0.9219  0.7398 -1.8957
  695MPD2    H110333   2.490   3.483  13.239 -0.1164 -0.5598  0.6846
  695MPD2    H210334   2.734   3.341  13.561 -0.0700  0.4590  1.0702
  695MPD2    H310335   2.688   3.364  13.325  0.6015  0.6275 -0.4089
  695MPD2     N10336   2.294   3.570  13.399 -0.1799  0.0443 -0.4364
  695MPD2    H510337   2.223   3.573  13.471 -0.1132 -1.4360 -0.3153
  695MPD2    N110338   2.571   3.434  13.765  0.3728 -0.4826 -0.5102
  695MPD2    H710339   2.493   3.424  13.829  0.5919  1.6928  0.0983
  696TMC3    C110340   2.130   3.645  13.254 -0.2120 -0.3055 -0.6209
  696TMC3    C210341   2.034   3.583  13.338  0.0265 -0.7940 -0.4316
  696TMC3    C310342   1.921   3.659  13.348  0.6051  0.0181  0.8705
  696TMC3    C410343   2.111   3.764  13.182  0.0247  0.0013 -0.1094
  696TMC3    C510344   1.991   3.822  13.188  0.1677 -1.0741 -0.1456
  696TMC3    C610345   1.892   3.777  13.279 -0.0606 -0.4654  0.5235
  696TMC3     C10346   2.266   3.615  13.273 -1.0221 -0.0677 -0.3163
  696TMC3     O10347   2.352   3.651  13.193  0.1637  0.1523 -0.3525
  696TMC3     H10348   2.055   3.502  13.408  1.1106 -0.8955 -0.8766
  696TMC3    H110349   2.185   3.800  13.113  0.7475 -1.9160 -0.3471
  696TMC3    H210350   1.810   3.838  13.314  0.6089  0.5969  0.2364
  696TMC3    C710351   1.995   3.957  13.143 -0.0135 -0.1447 -0.1447
  696TMC3    C810352   1.812   3.589  13.409  0.5853  0.0308 -0.0706
  696TMC3    O110353   2.020   3.980  13.024  0.0811  0.3905  0.5304
  696TMC3    O210354   1.802   3.469  13.389  0.2021 -0.7619  0.0277
  697MPD2     C10355   1.900   0.725  15.395  0.3159  0.1358  0.4409
  697MPD2    C110356   1.874   0.700  15.270  0.0274 -0.1865 -0.0198
  697MPD2    C210357   1.844   0.809  15.184 -0.1676 -0.7057 -0.3732
  697MPD2    C310358   1.848   0.939  15.230 -0.2616 -0.4533 -0.4592
  697MPD2    C410359   1.874   0.965  15.360 -0.0763 -0.1620  0.1428
  697MPD2    C510360   1.890   0.854  15.449  0.2609 -0.1894 -0.0367
  697MPD2     H10361   1.816   0.793  15.081  0.2200  2.3971 -0.9385
  697MPD2    H110362   1.887   1.066  15.396 -0.1891  0.4718 -1.6233
  697MPD2    H210363   1.922   0.643  15.463 -1.1538 -1.4899 -1.0288
  697MPD2    H310364   1.906   0.862  15.556 -1.6326 -0.5001  0.2655
  697MPD2     N10365   1.814   1.042  15.140  0.2188  0.3801 -0.4808
  697MPD2    H510366   1.807   1.020  15.041 -0.3865 -1.4817 -0.0332
  697MPD2    N110367   1.868   0.569  15.214  0.1094  0.1209 -0.0663
  697MPD2    H710368   1.841   0.571  15.117 -0.5377 -2.4899  0.0740
  698TMC3    C110369   1.746   1.255  15.064 -0.1135  0.4598  0.4751
  698TMC3    C210370   1.753   1.393  15.077 -0.0968  0.1031 -0.8937
  698TMC3    C310371   1.663   1.476  15.006 -0.1368  0.3510 -0.2002
  698TMC3    C410372   1.652   1.196  14.984 -0.1682 -0.0947 -0.4548
  698TMC3    C510373   1.569   1.277  14.914  0.9772 -0.3213  0.7856
  698TMC3    C610374   1.572   1.416  14.928  0.2997  0.2474  0.4126
  698TMC3     C10375   1.796   1.172  15.172  0.0068  0.5106 -0.4604
  698TMC3     O10376   1.820   1.236  15.274 -0.3485 -0.1854  0.1137
  698TMC3     H10377   1.830   1.434  15.142 -1.0950 -2.9601  2.1829
  698TMC3    H110378   1.663   1.094  14.950  0.7816 -0.5102  1.1010
  698TMC3    H210379   1.514   1.473  14.856  1.8637  1.1938 -0.0976
  698TMC3    C710380   1.525   1.240  14.782  0.3709 -0.3003 -0.1034
  698TMC3    C810381   1.708   1.602  14.949  0.4209 -0.1381  0.0775
  698TMC3    O110382   1.424   1.294  14.739 -0.4492  0.0083  0.1000
  698TMC3    O210383   1.619   1.674  14.902  0.3278 -0.3521 -0.1121
  699TMC3    C110384   1.938   3.777  12.788 -0.2245  0.3722 -0.1668
  699TMC3    C210385   1.975   3.643  12.802 -0.2368  0.5625  0.0968
  699TMC3    C310386   1.879   3.556  12.846 -0.4717  0.9643  0.0483
  699TMC3    C410387   1.816   3.825  12.829  0.1105  0.1277 -0.3466
  699TMC3    C510388   1.732   3.737  12.896  0.1734  0.3817  0.3758
  699TMC3    C610389   1.764   3.606  12.901  0.1210 -0.4193  0.1831
  699TMC3     C10390   2.032   3.887  12.739  0.9960 -1.2200  0.5116
  699TMC3     O10391   1.983   3.997  12.724 -0.3172  0.0491 -0.7022
  699TMC3     H10392   2.068   3.609  12.759 -1.3075 -2.4998  0.2388
  699TMC3    H110393   1.785   3.929  12.836  1.6998  0.5045  1.1729
  699TMC3    H210394   1.684   3.547  12.945  1.8758 -1.7775  1.5698
  699TMC3    C710395   1.632   3.788  12.986 -0.2981 -0.4170  0.5177
  699TMC3    C810396   1.921   3.443  12.932 -0.3768  0.2907  0.0786
  699TMC3    O110397   1.544   3.704  13.011 -0.1102 -0.0686 -0.0422
  699TMC3    O210398   1.832   3.366  12.960 -0.4417  0.2434  0.5769
  700TMC3    C110399   0.541   1.189  17.255 -0.0621 -0.0069 -0.1012
  700TMC3    C210400   0.600   1.081  17.196 -0.5182  0.5073  0.6944
  700TMC3    C310401   0.712   1.029  17.264 -0.1083  0.2393 -0.3738
  700TMC3    C410402   0.600   1.254  17.356  0.4869 -0.1877 -0.3897
  700TMC3    C510403   0.711   1.198  17.416 -0.0818  0.7648 -0.0834
  700TMC3    C610404   0.773   1.088  17.366 -0.0952 -0.0810  0.5596
  700TMC3     C10405   0.481   1.281  17.164 -0.0844  0.1825  0.3290
  700TMC3     O10406   0.369   1.310  17.202 -0.2537  0.2723 -0.1055
  700TMC3     H10407   0.555   1.041  17.105 -0.8589  0.0038  1.0846
  700TMC3    H110408   0.548   1.347  17.379  0.1373 -0.4347 -0.1872
  700TMC3    H210409   0.856   1.045  17.421  0.1570 -0.5776 -0.2131
  700TMC3    C710410   0.765   1.271  17.526 -0.3216 -0.0086  0.2087
  700TMC3    C810411   0.769   0.901  17.224  0.4944  0.6555  0.2418
  700TMC3    O110412   0.883   1.258  17.551 -0.1056  0.0854  0.4086
  700TMC3    O210413   0.886   0.873  17.263 -0.1898  0.3472 -0.1417
  701TMC3    C110414   1.011   4.735  15.331  0.6030  0.6230 -0.2992
  701TMC3    C210415   0.985   4.707  15.198  0.3068 -0.2212 -0.1220
  701TMC3    C310416   1.024   0.054  15.094  0.4151 -0.3337 -0.6794
  701TMC3    C410417   1.097   0.096  15.352 -0.4886 -0.7446  0.7063
  701TMC3    C510418   1.148   0.172  15.252 -1.1446  0.1698  0.4098
  701TMC3    C610419   1.117   0.157  15.120  0.2224 -0.0711 -0.7181
  701TMC3     C10420   0.936   4.685  15.445  0.5975  0.4575 -0.4718
  701TMC3     O10421   0.950   0.003  15.550 -0.7141  0.5108  0.7337
  701TMC3     H10422   0.912   4.628  15.186  0.9807 -0.3411 -3.2423
  701TMC3    H110423   1.114   0.119  15.456 -0.8429 -0.5900  0.7270
  701TMC3    H210424   1.169   0.218  15.046  2.0761 -2.9311 -1.7878
  701TMC3    C710425   1.230   0.290  15.290 -0.5077  0.1230 -0.1989
  701TMC3    C810426   1.023   0.005  14.961 -0.1235  0.3473  0.0848
  701TMC3    O110427   1.236   0.375  15.206 -0.6595 -0.1769  0.3756
  701TMC3    O210428   1.116   0.033  14.886  0.2242  0.4746 -0.8783
  702MPD2     C10429   0.174   2.646  10.539  0.0161 -0.2049 -0.5129
  702MPD2    C110430   0.263   2.677  10.634  0.1667  0.4125 -0.1604
  702MPD2    C210431   0.351   2.779  10.610  0.7779  0.2842  0.1862
  702MPD2    C310432   0.349   2.850  10.487 -0.7013 -0.9841 -0.0450
  702MPD2    C410433   0.265   2.801  10.386  0.5036  0.3041 -0.4329
  702MPD2    C510434   0.178   2.696  10.413  0.4248 -0.1166  0.1292
  702MPD2     H10435   0.425   2.810  10.684 -1.0428  0.6314  1.8715
  702MPD2    H110436   0.268   2.851  10.290 -0.2892 -0.4489 -0.8573
  702MPD2    H210437   0.102   2.568  10.561  0.4465  0.2688  2.6322
  702MPD2    H310438   0.110   2.644  10.347  1.0285  0.0223 -0.5914
  702MPD2     N10439   0.423   2.971  10.483  0.3979 -0.2001 -0.2596
  702MPD2    H510440   0.475   2.997  10.566 -0.8728 -2.3750  1.2222
  702MPD2    N110441   0.262   2.622  10.771  0.1935 -0.4422  0.4640
  702MPD2    H710442   0.342   2.651  10.827  0.6188 -1.3964  0.3604
  703TMC3    C110443   0.430   3.202  10.443 -0.2992  0.4663 -0.0000
  703TMC3    C210444   0.416   3.208  10.578 -0.0830  0.1108 -0.0728
  703TMC3    C310445   0.502   3.290  10.653  0.8018 -0.0326 -0.1247
  703TMC3    C410446   0.533   3.271  10.381  0.6541 -0.7667 -0.2399
  703TMC3    C510447   0.624   3.343  10.459 -0.3911 -0.8636  1.0515
  703TMC3    C610448   0.605   3.352  10.594 -0.5716  0.3786  0.0676
  703TMC3     C10449   0.405   3.069  10.388  0.5923  0.1932  0.7112
  703TMC3     O10450   0.354   3.067  10.278  0.1970 -0.1536 -0.0182
  703TMC3     H10451   0.332   3.161  10.630  0.2818 -0.4836 -0.0265
  703TMC3    H110452   0.549   3.258  10.275  1.8559 -0.0379 -0.1409
  703TMC3    H210453   0.679   3.403  10.655  2.4867 -1.9240 -1.7182
  703TMC3    C710454   0.728   3.422  10.412  0.7185  0.4591 -0.3791
  703TMC3    C810455   0.458   3.339  10.789 -0.2218 -0.3645  0.3856
  703TMC3    O110456   0.811   3.473  10.491 -0.2184  0.4310  0.0997
  703TMC3    O210457   0.503   3.446  10.828 -0.7911  0.1743 -0.1631
  704TMC3    C110458   2.655   0.239  12.332 -0.9407  0.1774 -0.2223
  704TMC3    C210459   2.762   0.314  12.293 -0.5950  0.1224  0.4475
  704TMC3    C310460   2.888   0.277  12.332  0.2267  0.2239 -0.6767
  704TMC3    C410461   2.674   0.134  12.417 -0.4907 -0.3246  0.4082
  704TMC3    C510462   2.798   0.104  12.461 -0.2490 -0.3785  0.8740
  704TMC3    C610463   2.910   0.172  12.416  0.4593 -0.3434 -0.5104
  704TMC3     C10464   2.528   0.272  12.296 -0.4315  0.4391 -0.0987
  704TMC3     O10465   2.444   0.271  12.388  0.3872  0.4868 -0.5308
  704TMC3     H10466   2.743   0.395  12.223 -0.1431  1.2568  1.6311
  704TMC3    H110467   2.588   0.071  12.436 -0.2580 -0.1331  2.0386
  704TMC3    H210468   3.013   0.153  12.441  0.5089  0.2051 -0.3061
  704TMC3    C710469   2.822   4.716  12.528 -0.4182  0.9420 -0.1729
  704TMC3    C810470   3.006   0.308  12.247  0.6299  0.3292  0.0063
  704TMC3    O110471   2.937   4.698  12.557  0.2729 -0.2700 -0.1987
  704TMC3    O210472   3.075   0.210  12.226 -0.2129 -0.2023  0.1958
  705MPD2     C10473   2.735   3.415  16.788  0.1748  0.3626 -0.0908
  705MPD2    C110474   2.663   3.502  16.715 -0.4377 -0.0455  0.2941
  705MPD2    C210475   2.549   3.567  16.760 -0.1762  0.3629  0.3065
  705MPD2    C310476   2.496   3.524  16.881  0.2168  0.3836  0.9359
  705MPD2    C410477   2.569   3.434  16.956  0.9413 -0.6456  0.2974
  705MPD2    C510478   2.681   3.378  16.912  0.3477 -0.1220 -0.1435
  705MPD2     H10479   2.493   3.633  16.694  1.2142 -0.5841 -1.8168
  705MPD2    H110480   2.538   3.407  17.056  0.6288 -0.2370  0.3075
  705MPD2    H210481   2.823   3.363  16.752 -0.6200 -0.2537 -1.1600
  705MPD2    H310482   2.743   3.312  16.972  1.2573  3.0597  2.4335
  705MPD2     N10483   2.367   3.552  16.932 -0.6718  0.2631 -0.2387
  705MPD2    H510484   2.349   3.504  17.020 -0.5476 -0.0311 -0.3717
  705MPD2    N110485   2.699   3.514  16.580 -0.4822  0.5662 -0.6626
  705MPD2    H710486   2.662   3.600  16.541 -0.6044  0.6250 -0.4166
  706TMC3    C110487   2.806   3.395  16.135 -0.2069  0.1717 -0.1049
  706TMC3    C210488   2.772   3.520  16.093 -0.0341  0.7075  0.0832
  706TMC3    C310489   2.746   3.611  16.194  0.1389  0.6316  0.1579
  706TMC3    C410490   2.818   3.369  16.269  0.4071 -0.0510 -0.6265
  706TMC3    C510491   2.795   3.470  16.363  0.0445 -0.1234  0.3387
  706TMC3    C610492   2.756   3.595  16.327  0.4761  0.4817 -0.1318
  706TMC3     C10493   2.826   3.290  16.040 -0.9186 -0.0640 -0.1651
  706TMC3     O10494   2.896   3.189  16.066  0.3133  0.3327  0.3246
  706TMC3     H10495   2.766   3.537  15.986  0.3493 -1.6753 -0.3188
  706TMC3    H110496   2.846   3.267  16.294  2.1149 -0.0412 -2.5334
  706TMC3    H210497   2.738   3.679  16.392 -3.3048  0.1250 -0.7134
  706TMC3    C710498   2.776   3.425  16.503 -0.3898  0.2939  0.1759
  706TMC3    C810499   2.717   3.743  16.138  0.2072  0.7966 -0.0753
  706TMC3    O110500   2.808   3.308  16.525  0.5547 -0.2092 -0.3363
  706TMC3    O210501   2.689   3.751  16.016 -0.1646 -0.4121  0.3840
  707TMC3    C110502   0.031   1.934   1.836 -0.0681 -0.4233 -0.0109
  707TMC3    C210503   0.136   1.853   1.847 -0.3910  0.0754  0.2681
  707TMC3    C310504   0.227   1.867   1.950 -0.1484  0.4667  1.0252
  707TMC3    C410505   4.738   2.030   1.928  0.1342  0.5518 -0.3688
  707TMC3    C510506   0.094   2.052   2.023 -0.7344  0.5433 -0.7894
  707TMC3    C610507   0.199   1.965   2.044  0.8326 -0.5139 -0.7502
  707TMC3     C10508   4.670   1.882   1.746 -0.7676 -0.3336 -0.0437
  707TMC3     O10509   4.674   1.765   1.709 -0.4854  0.0316  0.7403
  707TMC3     H10510   0.152   1.775   1.774  0.5792  0.7094 -0.1967
  707TMC3    H110511   4.642   2.079   1.933  0.3025  0.8127  0.2688
  707TMC3    H210512   0.266   1.979   2.128 -0.1078  1.4050 -0.3288
  707TMC3    C710513   0.059   2.133   2.140 -0.0844 -0.5669 -0.3160
  707TMC3    C810514   0.325   1.762   1.975  0.4978 -0.4284 -0.3596
  707TMC3    O110515   0.117   2.108   2.245 -0.1686 -0.2125  0.1816
  707TMC3    O210516   0.389   1.772   2.080 -0.4106 -0.0071 -0.0748
  708MPD2     C10517   0.440   1.442  14.370 -0.5255 -0.0928 -0.6388
  708MPD2    C110518   0.454   1.570  14.317 -0.6783  1.2094  0.0093
  708MPD2    C210519   0.477   1.677  14.400 -0.7031 -0.6091 -0.5578
  708MPD2    C310520   0.468   1.663  14.538 -0.2766 -0.7187  0.5842
  708MPD2    C410521   0.460   1.533  14.589 -0.0795  0.2308 -0.1526
  708MPD2    C510522   0.440   1.427  14.501 -0.3489 -0.1923 -0.3114
  708MPD2     H10523   0.510   1.774  14.364  1.3514 -1.2720 -0.4700
  708MPD2    H110524   0.453   1.518  14.696  3.5561 -0.3057  0.0122
  708MPD2    H210525   0.404   1.361  14.307 -2.4592 -0.0353  0.3832
  708MPD2    H310526   0.438   1.324  14.535  0.7591 -0.0978  0.0717
  708MPD2     N10527   0.472   1.777  14.609  0.2062 -0.1124 -0.5437
  708MPD2    H510528   0.461   1.864  14.559  2.0325 -0.6905 -1.9303
  708MPD2    N110529   0.437   1.581  14.178 -0.2421  0.2805  0.5366
  708MPD2    H710530   0.412   1.500  14.121 -2.7422  2.4032 -1.3654
  709TMC3    C110531   0.378   1.707  13.974  0.3167  0.2781  0.2772
  709TMC3    C210532   0.455   1.633  13.889 -0.2890 -0.2349  0.1120
  709TMC3    C310533   0.515   1.692  13.777  0.3895  0.2285  0.6945
  709TMC3    C410534   0.369   1.840  13.943 -0.2423  0.0423  0.1651
  709TMC3    C510535   0.436   1.905  13.834 -0.1496 -0.5170  0.2778
  709TMC3    C610536   0.515   1.825  13.747 -0.0233 -0.2391  0.0475
  709TMC3     C10537   0.420   1.705  14.117  0.3146  0.1001  0.0984
  709TMC3     O10538   0.436   1.818  14.160 -0.0622 -0.1470 -0.4632
  709TMC3     H10539   0.465   1.527  13.907 -0.8299 -0.9110 -3.5716
  709TMC3    H110540   0.294   1.902  13.991  0.4411  0.7215  0.3556
  709TMC3    H210541   0.564   1.872  13.663  0.8001 -1.8026 -0.3443
  709TMC3    C710542   0.498   2.027  13.869  0.5442 -0.2666 -0.6786
  709TMC3    C810543   0.527   1.597  13.669  0.3639  0.2773 -0.3787
  709TMC3    O110544   0.567   2.085  13.785 -0.3918  0.7841 -0.0178
  709TMC3    O210545   0.523   1.474  13.701  0.1334 -0.1718  0.1804
  710TMC3    C110546   1.351   3.013   0.826 -0.1439  0.0890  0.1220
  710TMC3    C210547   1.419   3.111   0.760 -0.1540 -0.1542  0.2304
  710TMC3    C310548   1.557   3.111   0.769 -0.4042 -0.2082 -0.4298
  710TMC3    C410549   1.420   2.915   0.893  0.5482  0.0074  0.3254
  710TMC3    C510550   1.557   2.913   0.896 -0.8239  0.7430  0.3492
  710TMC3    C610551   1.624   3.019   0.837 -0.2263 -0.2397 -0.6886
  710TMC3     C10552   1.208   3.017   0.845 -0.3039  0.1319 -0.5189
  710TMC3     O10553   1.156   2.932   0.914  0.2347 -0.9520  0.3661
  710TMC3     H10554   1.375   3.185   0.695  0.2660 -0.6385 -0.6118
  710TMC3    H110555   1.361   2.857   0.962 -0.4037  0.6477  0.0484
  710TMC3    H210556   1.732   3.025   0.834 -0.2758  1.4055  0.5321
  710TMC3    C710557   1.625   2.819   0.981 -0.4244 -0.0075  0.4636
  710TMC3    C810558   1.620   3.185   0.663 -0.7535 -0.1847 -0.4037
  710TMC3    O110559   1.563   2.718   1.008 -0.3762 -1.2294  0.5032
  710TMC3    O210560   1.546   3.230   0.577 -0.8443  0.1476 -0.0134
  711TMC3    C110561   1.544   4.152  15.033  0.0017  0.8552  0.6750
  711TMC3    C210562   1.512   4.144  15.162 -0.3710  0.1997 -0.1240
  711TMC3    C310563   1.550   4.248  15.248  0.5877 -0.5059 -0.8107
  711TMC3    C410564   1.620   4.255  14.982  0.6966  0.1182  0.2465
  711TMC3    C510565   1.653   4.353  15.068 -0.1326  0.3130  0.2930
  711TMC3    C610566   1.615   4.356  15.199 -0.2259  0.2465  0.6387
  711TMC3     C10567   1.529   4.029  14.953 -0.2001  0.4660  0.0482
  711TMC3     O10568   1.457   3.940  14.996 -0.5013 -0.4530  0.0589
  711TMC3     H10569   1.465   4.054  15.199 -0.1529 -0.5780 -1.7655
  711TMC3    H110570   1.646   4.267  14.878  1.5873  1.1728  0.5933
  711TMC3    H210571   1.611   4.446  15.260  1.8192  0.0890  1.0216
  711TMC3    C710572   1.761   4.441  15.017  0.5412  0.1264  0.0263
  711TMC3    C810573   1.517   4.230  15.388 -0.7965  0.3624  0.5902
  711TMC3    O110574   1.783   4.453  14.897 -0.1760 -0.2617 -0.1054
  711TMC3    O210575   1.412   4.180  15.420 -0.0154  0.2867  0.4442
  712MPD2     C10576   2.953   0.357  13.922  0.6094  0.3494  0.4153
  712MPD2    C110577   2.877   0.416  13.823  0.9825  0.2839  0.2646
  712MPD2    C210578   2.919   0.543  13.789  0.5060 -0.0586  0.1617
  712MPD2    C310579   3.033   0.598  13.832 -0.7798 -0.0244  0.1874
  712MPD2    C410580   3.106   0.539  13.928  0.4419  0.1064  0.0539
  712MPD2    C510581   3.067   0.414  13.971  0.4867  0.1686  0.0859
  712MPD2     H10582   2.858   0.591  13.713  3.4766  2.0371 -0.8555
  712MPD2    H110583   3.194   0.589  13.967  0.3131 -0.1054  0.6190
  712MPD2    H210584   2.926   0.263  13.969  2.5875 -1.0056 -1.1366
  712MPD2    H310585   3.120   0.370  14.055  1.5255 -0.0130 -0.6709
  712MPD2     N10586   3.083   0.720  13.773  0.3043  0.2706  0.6528
  712MPD2    H510587   3.164   0.764  13.816  0.6156 -0.4174  0.7820
  712MPD2    N110588   2.765   0.365  13.756  0.4411 -0.3373 -0.1575
  712MPD2    H710589   2.731   0.417  13.676  1.9406  1.3969  0.3283
  713TMC3    C110590   3.079   0.913  13.639 -0.2955 -0.1620 -0.0741
  713TMC3    C210591   3.211   0.933  13.676  0.0519  0.4159  0.5872
  713TMC3    C310592   3.265   1.057  13.664  0.2531  0.0624  0.7338
  713TMC3    C410593   3.004   1.009  13.569  0.2318  0.6308 -0.2423
  713TMC3    C510594   3.058   1.131  13.567 -0.3214  0.0452  0.7332
  713TMC3    C610595   3.186   1.156  13.611 -0.5042 -0.2526  0.7693
  713TMC3     C10596   3.016   0.796  13.673  0.2497 -0.1624  0.0763
  713TMC3     O10597   2.925   0.762  13.597 -0.1719  0.3058  0.4580
  713TMC3     H10598   3.275   0.854  13.713  1.7688  2.3543  1.8234
  713TMC3    H110599   2.897   0.997  13.557  0.0809 -1.2413  2.9242
  713TMC3    H210600   3.239   1.245  13.578 -1.8554  0.1556 -0.2840
  713TMC3    C710601   2.983   1.244  13.512 -0.5208  0.3898  0.7700
  713TMC3    C810602   3.409   1.082  13.689 -0.2533  0.5710  0.2940
  713TMC3    O110603   3.049   1.347  13.506 -0.2090 -0.0212  0.5981
  713TMC3    O210604   3.454   1.182  13.627 -0.2071  0.2767 -1.1201
  714MPD2     C10605   0.642   3.973   1.126  0.0408 -0.0092 -0.5206
  714MPD2    C110606   0.570   3.862   1.086 -1.0210 -0.3272 -0.1262
  714MPD2    C210607   0.436   3.872   1.056 -0.4317 -0.3315 -0.5405
  714MPD2    C310608   0.364   3.990   1.075 -0.3245  0.2562  0.2599
  714MPD2    C410609   0.437   4.102   1.114 -0.9350 -0.1347 -0.4074
  714MPD2    C510610   0.575   4.096   1.136 -0.1256 -0.3214  1.5222
  714MPD2     H10611   0.382   3.783   1.026 -1.0005  0.1826 -1.0174
  714MPD2    H110612   0.383   4.194   1.132  1.8442  1.2967  0.6137
  714MPD2    H210613   0.747   3.963   1.148  0.0107  0.9813  0.0505
  714MPD2    H310614   0.625   4.186   1.169  0.0478  0.7085 -1.5326
  714MPD2     N10615   0.223   3.981   1.048  0.3335  0.0854 -0.2176
  714MPD2    H510616   0.180   3.893   1.023 -0.7523  1.0651 -1.8735
  714MPD2    N110617   0.639   3.742   1.071 -0.6651  0.6896  0.2669
  714MPD2    H710618   0.740   3.746   1.082 -0.6145  1.2098 -0.3524
  715TMC3    C110619   0.707   3.540   0.990  0.6976  0.5422 -0.0888
  715TMC3    C210620   0.696   3.408   1.025  0.0811 -0.2579  0.4788
  715TMC3    C310621   0.809   3.340   1.028 -0.7410  0.2674  0.0426
  715TMC3    C410622   0.821   3.598   0.954 -0.2393  0.0134 -0.4141
  715TMC3    C510623   0.936   3.525   0.960 -0.2070 -0.9194  0.5287
  715TMC3    C610624   0.935   3.391   0.998 -0.1017  0.4490  0.2155
  715TMC3     C10625   0.592   3.623   1.024 -0.0184  0.2203 -0.0169
  715TMC3     O10626   0.481   3.572   1.023  0.1312  0.0332 -0.1796
  715TMC3     H10627   0.601   3.368   1.059  0.8655 -0.9322  1.8867
  715TMC3    H110628   0.821   3.703   0.928 -1.8598  0.1141  0.0130
  715TMC3    H210629   1.030   3.340   0.989  0.8264  1.7119  2.6147
  715TMC3    C710630   1.054   3.593   0.927 -0.0356  0.0979 -0.1235
  715TMC3    C810631   0.804   3.205   1.074 -0.8773 -0.1768  0.5461
  715TMC3    O110632   1.053   3.692   0.851 -0.0890 -0.6197 -0.3215
  715TMC3    O210633   0.702   3.138   1.065  0.1463 -0.3168 -1.1060
  716MPD2     C10634   0.092   3.347   9.797  0.4891 -0.1170  0.4863
  716MPD2    C110635   0.078   3.214   9.781 -0.1483  1.3681  0.3460
  716MPD2    C210636   0.179   3.129   9.815  0.1674  0.3803  0.3171
  716MPD2    C310637   0.290   3.176   9.885  0.1229  0.2216 -0.3664
  716MPD2    C410638   0.305   3.311   9.910  0.3597  0.2357 -0.9259
  716MPD2    C510639   0.205   3.398   9.862  0.6137  0.2137  0.1891
  716MPD2     H10640   0.173   3.022   9.801 -0.9482  0.7664 -2.0149
  716MPD2    H110641   0.398   3.346   9.954  0.2478 -2.5262  1.4503
  716MPD2    H210642   0.011   3.408   9.758 -0.4961 -2.3254 -0.8840
  716MPD2    H310643   0.220   3.505   9.867  0.7823  0.2417 -0.9385
  716MPD2     N10644   0.385   3.083   9.931  0.0308 -0.0696 -0.0979
  716MPD2    H510645   0.359   2.987   9.910 -0.0223 -0.6450  2.6072
  716MPD2    N110646   4.703   3.164   9.706  0.0824  0.1274 -0.0296
  716MPD2    H710647   4.629   3.234   9.705 -0.6449 -0.6355  1.1321
  717TMC3    C110648   0.575   2.984  10.034 -0.2397 -0.1030  0.8065
  717TMC3    C210649   0.531   2.864   9.993 -0.1095  0.8613 -0.0135
  717TMC3    C310650   0.564   2.745  10.057  0.0318 -0.4895 -0.7523
  717TMC3    C410651   0.663   2.992  10.142 -0.1764  0.8452 -0.4199
  717TMC3    C510652   0.685   2.872  10.212 -0.2277 -0.1516 -0.2243
  717TMC3    C610653   0.631   2.746  10.174 -0.5646  0.1451 -0.7988
  717TMC3     C10654   0.507   3.109   9.995  0.1518 -0.5155  0.3702
  717TMC3     O10655   0.559   3.215  10.022  0.0442  0.0602  0.0208
  717TMC3     H10656   0.483   2.864   9.895 -0.5674  2.0350  0.2173
  717TMC3    H110657   0.710   3.087  10.168 -0.4744  0.4257  1.6387
  717TMC3    H210658   0.658   2.655  10.225 -1.2456 -0.3092 -1.2502
  717TMC3    C710659   0.768   2.861  10.331  0.1288  0.2831  0.3555
  717TMC3    C810660   0.501   2.625  10.025  0.7002  0.5301 -0.1504
  717TMC3    O110661   0.757   2.757  10.393 -0.2701 -0.2356  0.3991
  717TMC3    O210662   0.410   2.641   9.941  0.3429  0.5833  0.0810
  718MPD2     C10663   4.397   0.423  12.784  0.2606 -0.0737  0.1328
  718MPD2    C110664   4.310   0.531  12.805  0.0966 -0.1553  0.1857
  718MPD2    C210665   4.192   0.539  12.734 -0.3570  0.6716  0.2885
  718MPD2    C310666   4.159   0.447  12.637  0.3920 -0.0406  0.4227
  718MPD2    C410667   4.237   0.334  12.627  0.0772 -0.0616  0.5944
  718MPD2    C510668   4.348   0.322  12.704 -0.4739 -0.1387  0.6163
  718MPD2     H10669   4.138   0.633  12.742 -1.4342  0.2764 -2.2223
  718MPD2    H110670   4.215   0.256  12.555  1.0822  0.3714 -0.1911
  718MPD2    H210671   4.496   0.410  12.826 -0.1836 -2.1954  0.5404
  718MPD2    H310672   4.415   0.238  12.685 -1.4408 -0.8741  0.4669
  718MPD2     N10673   4.048   0.478  12.550 -0.9535  0.3268  0.2016
  718MPD2    H510674   4.006   0.570  12.556 -1.2070  0.3402 -1.9769
  718MPD2    N110675   4.341   0.641  12.888  0.1709 -0.7950  0.3382
  718MPD2    H710676   4.277   0.719  12.876 -0.6027 -1.4179  0.4250
  719TMC3    C110677   4.466   0.806  13.000 -0.1869  0.0230 -0.8166
  719TMC3    C210678   4.351   0.882  12.961  0.0443  0.1573 -0.4718
  719TMC3    C310679   4.352   0.991  12.876  0.2990 -0.1870  0.3257
  719TMC3    C410680   4.588   0.850  12.969  0.1058 -0.4092 -0.5693
  719TMC3    C510681   4.582   0.962  12.880 -0.2665 -0.3951 -0.1980
  719TMC3    C610682   4.477   1.030  12.833  0.3629 -0.4164  0.0976
  719TMC3     C10683   4.454   0.663  12.966 -0.0689 -0.4104 -0.5080
  719TMC3     O10684   4.550   0.587  12.984 -0.5664  0.0912  0.2774
  719TMC3     H10685   4.259   0.837  12.998  0.5005  0.2835  0.8216
  719TMC3    H110686   4.673   0.784  12.983 -0.1447 -0.2376  1.7413
  719TMC3    H210687   4.504   1.107  12.762  2.2565 -1.0364  0.1409
  719TMC3    C710688   4.706   1.011  12.828 -0.1573 -0.2242 -0.3973
  719TMC3    C810689   4.251   0.980  12.773  0.2091  0.6439  0.1704
  719TMC3    O110690   4.719   1.058  12.714  0.0912 -0.5301  0.1945
  719TMC3    O210691   4.202   0.867  12.763 -0.2934 -0.0024  0.5125
  720MPD2     C10692   2.826   2.765  13.896 -0.1117 -0.2591  0.2491
  720MPD2    C110693   2.912   2.698  13.821 -0.5747 -0.0312 -0.4139
  720MPD2    C210694   3.017   2.639  13.886  0.8861  0.1186 -0.2954
  720MPD2    C310695   3.036   2.640  14.019 -0.3552 -0.1598 -0.1346
  720MPD2    C410696   2.944   2.707  14.094 -0.1414 -0.7303 -0.6029
  720MPD2    C510697   2.839   2.764  14.029  0.3425  0.7581  0.6098
  720MPD2     H10698   3.089   2.594  13.819 -0.1934 -0.7241 -0.8778
  720MPD2    H110699   2.948   2.714  14.202  1.7800  0.8802 -0.7730
  720MPD2    H210700   2.748   2.825  13.851 -0.9423 -1.5787 -0.0732
  720MPD2    H310701   2.764   2.812  14.090 -3.0845 -0.0870 -2.9884
  720MPD2     N10702   3.157   2.570  14.068  0.1756 -0.5280  0.0482
  720MPD2    H510703   3.230   2.535  14.006 -0.6052  2.1163 -2.3668
  720MPD2    N110704   2.905   2.691  13.680  0.9044  0.2420 -0.7465
  720MPD2    H710705   2.967   2.624  13.635  0.5535  0.6071 -1.7610
  721TMC3    C110706   3.302   2.485  14.245 -0.1579 -0.6044 -0.4654
  721TMC3    C210707   3.295   2.391  14.345 -0.0541 -0.2851 -0.6549
  721TMC3    C310708   3.398   2.307  14.358  0.0828 -0.6078 -0.6155
  721TMC3    C410709   3.422   2.507  14.172 -0.3073  0.3382 -0.1268
  721TMC3    C510710   3.524   2.425  14.207  0.3540 -0.1575  0.0732
  721TMC3    C610711   3.518   2.322  14.294  0.3247 -0.1786 -0.3869
  721TMC3     C10712   3.175   2.542  14.202  0.6117  0.4895  0.0026
  721TMC3     O10713   3.090   2.562  14.288 -0.6153  0.7117 -0.4265
  721TMC3     H10714   3.203   2.376  14.401  0.3092  1.3719  0.4002
  721TMC3    H110715   3.435   2.588  14.102  0.9580  1.2985  1.2417
  721TMC3    H210716   3.609   2.267  14.316 -0.5492 -0.9728  1.1994
  721TMC3    C710717   3.656   2.467  14.166 -0.4369  0.1787  0.3141
  721TMC3    C810718   3.373   2.177  14.424 -0.2867  0.6079 -0.3986
  721TMC3    O110719   3.671   2.591  14.158  0.5807  0.4073 -0.2197
  721TMC3    O210720   3.421   2.077  14.378  0.2091 -0.3546 -0.4174
  722MPD2     C10721   1.865   0.855  13.470 -0.3898 -0.7265 -0.3395
  722MPD2    C110722   1.825   0.955  13.380 -0.4768 -0.0544  0.3558
  722MPD2    C210723   1.701   0.994  13.384  0.7316  0.2081  0.0092
  722MPD2    C310724   1.607   0.958  13.483  0.3360  0.4134 -0.0333
  722MPD2    C410725   1.648   0.862  13.577  0.8739  0.8401  0.8235
  722MPD2    C510726   1.780   0.813  13.568  0.0622 -0.2814 -0.6855
  722MPD2     H10727   1.671   1.072  13.315 -0.0312 -0.0462  0.0538
  722MPD2    H110728   1.578   0.831  13.654 -0.0335 -0.2321 -0.4316
  722MPD2    H210729   1.962   0.810  13.490 -0.2541  0.0002  0.6313
  722MPD2    H310730   1.814   0.741  13.642 -1.0843 -1.4639 -1.3106
  722MPD2     N10731   1.477   1.015  13.480 -0.2160 -0.3953 -0.0677
  722MPD2    H510732   1.451   1.077  13.403  2.0870  1.0460  0.2903
  722MPD2    N110733   1.911   1.015  13.283 -0.4067  0.0459  0.3104
  722MPD2    H710734   1.864   1.073  13.214  1.4721 -0.8416 -1.7099
  723TMC3    C110735   1.252   1.033  13.530  0.1759 -0.1355  0.0285
  723TMC3    C210736   1.240   1.042  13.395 -0.6275  0.3969  0.5593
  723TMC3    C310737   1.164   1.150  13.352 -0.3621 -0.6166  1.0541
  723TMC3    C410738   1.172   1.101  13.617  0.3802  0.3093  0.3927
  723TMC3    C510739   1.102   1.207  13.570 -0.4753  0.9976 -0.6083
  723TMC3    C610740   1.097   1.231  13.435 -0.1805  0.2612  0.0964
  723TMC3     C10741   1.384   0.995  13.572 -0.0188 -0.8744  0.4539
  723TMC3     O10742   1.393   0.957  13.687  0.2136  0.2011 -0.6170
  723TMC3     H10743   1.303   0.980  13.332 -4.8741 -1.1762 -2.1503
  723TMC3    H110744   1.172   1.086  13.725  0.5619  0.1598  0.3712
  723TMC3    H210745   1.022   1.298  13.395 -0.2179 -0.2040 -0.6038
  723TMC3    C710746   1.041   1.296  13.667  0.7123  0.4058  0.1345
  723TMC3    C810747   1.161   1.191  13.210 -0.2255  0.5249 -0.1697
  723TMC3    O110748   1.020   1.256  13.781  0.0530 -0.0684 -0.0471
  723TMC3    O210749   1.118   1.301  13.176 -0.2297 -0.1212  0.5942
  724TMC3    C110750   1.863   4.650  10.159 -0.1988 -0.2046  0.1094
  724TMC3    C210751   1.859   0.020  10.080  0.4044 -0.3782  0.2629
  724TMC3    C310752   1.974   0.081  10.037 -0.5061  0.5410 -0.1957
  724TMC3    C410753   1.983   4.599  10.205 -0.4589 -0.3072 -0.2648
  724TMC3    C510754   2.093   4.669  10.176 -0.3176  0.3979  0.0225
  724TMC3    C610755   2.097   0.029  10.077 -0.1804  0.6521 -0.4529
  724TMC3     C10756   1.746   4.600  10.223  0.4600 -0.4053 -0.0307
  724TMC3     O10757   1.760   4.533  10.326 -0.0466 -0.3919  0.2180
  724TMC3     H10758   1.762   0.067  10.069  0.2254 -1.6653 -3.6637
  724TMC3    H110759   1.982   4.518  10.277 -2.1947  1.2964  1.5324
  724TMC3    H210760   2.192   0.064  10.038  0.4059  0.2032  0.5532
  724TMC3    C710761   2.211   4.627  10.242 -0.1558  0.3745 -0.1721
  724TMC3    C810762   1.977   0.219   9.991  0.6632 -0.1211  0.3923
  724TMC3    O110763   2.202   4.556  10.344  0.0817  0.3646 -0.5905
  724TMC3    O210764   2.086   0.272  10.002 -0.5021 -0.6348 -0.6009
  725TMC3    C110765   4.135   2.517  12.942 -0.0122  0.7384 -0.3382
  725TMC3    C210766   4.003   2.539  12.905  0.3526  0.0709  0.0598
  725TMC3    C310767   3.934   2.425  12.867 -0.4284  0.3766  0.4206
  725TMC3    C410768   4.188   2.391  12.953  0.1099  0.0995 -0.4606
  725TMC3    C510769   4.115   2.280  12.920 -0.1163  0.3387 -0.0162
  725TMC3    C610770   3.984   2.296  12.877 -0.2396 -0.3895  0.5844
  725TMC3     C10771   4.197   2.625  13.014 -0.8402 -0.1602  0.6539
  725TMC3     O10772   4.119   2.716  13.044  0.0974  0.5104  0.1027
  725TMC3     H10773   3.968   2.641  12.895  2.4660  0.8262  0.2560
  725TMC3    H110774   4.291   2.376  12.985  1.1795  0.1934 -3.7914
  725TMC3    H210775   3.920   2.215  12.844 -1.1636  2.4140 -4.5214
  725TMC3    C710776   4.188   2.158  12.907 -0.5203 -0.3046 -0.0494
  725TMC3    C810777   3.807   2.447  12.794  0.6174  0.6835  0.5073
  725TMC3    O110778   4.296   2.147  12.967 -0.6239 -0.8097 -0.1608
  725TMC3    O210779   3.726   2.356  12.806  0.3227 -0.3383  0.8391
  726MPD2     C10780   1.255   0.428  10.705 -0.6379 -0.5112 -0.3167
  726MPD2    C110781   1.126   0.479  10.680  0.3406 -0.4621  0.3681
  726MPD2    C210782   1.012   0.400  10.713 -0.2114  0.0190  1.4319
  726MPD2    C310783   1.027   0.284  10.788 -0.3537 -0.7913  0.0741
  726MPD2    C410784   1.157   0.234  10.822  0.8131 -0.5800 -0.0455
  726MPD2    C510785   1.264   0.312  10.781  0.3965 -0.3614 -0.6085
  726MPD2     H10786   0.909   0.423  10.685  0.9690  1.7314 -1.5120
  726MPD2    H110787   1.169   0.142  10.879  1.1828  0.3118  1.3173
  726MPD2    H210788   1.342   0.491  10.694 -1.3821  0.5078 -0.3996
  726MPD2    H310789   1.363   0.277  10.808  1.3026  2.4960 -0.2276
  726MPD2     N10790   0.912   0.210  10.826 -0.0801  0.9189 -0.2525
  726MPD2    H510791   0.930   0.128  10.883  2.0050  1.0433 -0.7173
  726MPD2    N110792   1.106   0.602  10.617 -0.6822 -0.4498 -0.7804
  726MPD2    H710793   1.019   0.629  10.572 -0.6726  1.9123  0.5794
  727TMC3    C110794   1.140   0.838  10.566 -0.2945  0.3207  0.0267
  727TMC3    C210795   1.216   0.951  10.589 -0.5197  0.2039 -0.0654
  727TMC3    C310796   1.186   1.064  10.517 -0.1337 -0.6453 -0.7164
  727TMC3    C410797   1.055   0.850  10.461 -0.2775 -0.9599 -0.0511
  727TMC3    C510798   1.027   0.965  10.388  0.4270 -0.1353  0.1369
  727TMC3    C610799   1.088   1.080  10.419 -0.2504  0.0346  0.0891
  727TMC3     C10800   1.192   0.707  10.632 -0.1954 -0.0870 -0.0057
  727TMC3     O10801   1.289   0.719  10.707 -0.3962  0.5458 -0.1322
  727TMC3     H10802   1.303   0.943  10.652  0.5599  0.2710 -1.5617
  727TMC3    H110803   0.990   0.766  10.442 -0.4546 -1.3195  2.1333
  727TMC3    H210804   1.078   1.173  10.363 -0.6439  0.6243  1.1271
  727TMC3    C710805   0.940   0.951  10.273  0.5262 -0.8293 -0.0108
  727TMC3    C810806   1.280   1.175  10.561  0.3671  1.0192 -0.6705
  727TMC3    O110807   0.943   0.836  10.231 -0.4619 -0.4413  0.1383
  727TMC3    O210808   1.326   1.163  10.671 -0.3302 -0.1755  0.1485
  728TMC3    C110809   0.482   3.036  15.427 -0.2470 -0.4049  0.1926
  728TMC3    C210810   0.606   3.038  15.489  0.5260  0.4714 -0.0233
  728TMC3    C310811   0.720   3.062  15.418  0.2846  0.2456 -0.8363
  728TMC3    C410812   0.466   3.074  15.297  0.3524 -0.2591  0.1593
  728TMC3    C510813   0.583   3.095  15.227  0.1873 -0.9468 -0.5160
  728TMC3    C610814   0.709   3.099  15.286 -0.4250 -0.4610  0.0838
  728TMC3     C10815   0.365   3.000  15.495 -0.1206 -0.2494 -0.5033
  728TMC3     O10816   0.379   2.940  15.601 -0.0185  0.9497 -0.2944
  728TMC3     H10817   0.614   3.028  15.597 -1.1212  2.8090  0.3235
  728TMC3    H110818   0.385   3.038  15.235  1.6388 -0.0163 -1.6445
  728TMC3    H210819   0.794   3.103  15.218 -0.4251 -0.3227  0.0924
  728TMC3    C710820   0.573   3.100  15.079 -0.8116 -0.4216 -0.3778
  728TMC3    C810821   0.844   3.018  15.479 -0.2923 -0.0702 -0.1005
  728TMC3    O110822   0.481   3.038  15.032  0.0359 -0.5187  0.3612
  728TMC3    O210823   0.836   2.969  15.593  1.1019 -0.0693  0.4527
  729MPD2     C10824   3.032   4.402  16.369 -0.1048  0.5174  0.7917
  729MPD2    C110825   3.070   4.272  16.403  0.1464  0.4485  0.4371
  729MPD2    C210826   3.009   4.209  16.511 -0.0374  0.6181 -0.0553
  729MPD2    C310827   2.923   4.268  16.600  0.5218 -0.0591  0.1697
  729MPD2    C410828   2.898   4.401  16.570  0.0322 -0.1716  0.3575
  729MPD2    C510829   2.950   4.462  16.461 -0.2654 -0.0224 -0.3301
  729MPD2     H10830   3.033   4.105  16.531  0.2698  0.8999  1.0246
  729MPD2    H110831   2.836   4.457  16.640  1.5865 -0.3084  1.8372
  729MPD2    H210832   3.072   4.465  16.291 -4.7346  0.5980 -1.4709
  729MPD2    H310833   2.924   4.565  16.441  0.8983  0.3114 -0.1732
  729MPD2     N10834   2.870   4.208  16.718 -0.3098 -0.2651 -0.0681
  729MPD2    H510835   2.821   4.278  16.774  0.3148  0.8173 -0.8964
  729MPD2    N110836   3.164   4.211  16.320 -0.6963  0.2928  0.0087
  729MPD2    H710837   3.209   4.273  16.254  0.4178 -0.7769 -0.2205
  730TMC3    C110838   2.858   4.073  16.905 -0.1985  0.0894 -0.1872
  730TMC3    C210839   2.967   4.021  16.971 -0.1137  0.1314  0.0162
  730TMC3    C310840   2.990   4.061  17.101 -0.1747 -0.4100 -0.2403
  730TMC3    C410841   2.779   4.172  16.956  0.2805  0.6940 -0.4848
  730TMC3    C510842   2.813   4.223  17.082 -0.1743 -0.4022  0.6554
  730TMC3    C610843   2.911   4.164  17.154  0.2740  0.6449  0.6801
  730TMC3     C10844   2.894   4.080  16.764 -0.1933  0.2318  0.2174
  730TMC3     O10845   2.955   3.991  16.709 -0.2274  0.2234 -0.1399
  730TMC3     H10846   3.042   3.956  16.927 -1.6750 -0.6744 -1.4360
  730TMC3    H110847   2.702   4.220  16.898  0.3779  1.8024  0.3146
  730TMC3    H210848   2.932   4.202  17.253 -0.3251 -0.1198  1.1042
  730TMC3    C710849   2.848   4.359  17.072  0.3322 -0.6859 -0.0888
  730TMC3    C810850   3.131   4.088  17.107  0.0460 -1.3314  0.0342
  730TMC3    O110851   2.867   4.398  16.955  0.1308 -0.4337  0.8598
  730TMC3    O210852   3.207   3.999  17.070 -0.6445 -0.0195  0.7847
  731MPD2     C10853   3.562   2.156  12.339  0.1528 -0.6757 -0.3773
  731MPD2    C110854   3.664   2.154  12.431  0.0011 -0.0919 -0.4285
  731MPD2    C210855   3.636   2.083  12.548 -0.2595 -0.1477  0.1874
  731MPD2    C310856   3.510   2.027  12.572 -0.4015  0.3220 -0.5994
  731MPD2    C410857   3.411   2.042  12.487  0.6255  0.9902 -0.9638
  731MPD2    C510858   3.435   2.108  12.373  0.1291 -0.2176  0.0150
  731MPD2     H10859   3.710   2.072  12.626 -1.1361 -1.0133  0.9000
  731MPD2    H110860   3.305   2.023  12.501  0.8192  1.0267  0.5795
  731MPD2    H210861   3.571   2.194  12.237 -0.2280  1.4228  0.3844
  731MPD2    H310862   3.359   2.124  12.297  0.9859 -0.3047 -0.8621
  731MPD2     N10863   3.487   1.962  12.700 -0.4520 -0.1142  0.5806
  731MPD2    H510864   3.564   1.973  12.765  0.1983 -1.0229 -0.0400
  731MPD2    N110865   3.781   2.226  12.400  0.0536 -0.1715 -0.4101
  731MPD2    H710866   3.786   2.265  12.306 -1.0687 -1.2774 -0.9265
  732TMC3    C110867   3.977   2.341  12.440  0.1044  0.3225 -0.3325
  732TMC3    C210868   3.936   2.442  12.356 -0.2952  0.6280 -0.8273
  732TMC3    C310869   4.024   2.544  12.336 -0.0517  1.1979  0.6169
  732TMC3    C410870   4.102   2.342  12.500 -0.6250 -0.0983 -0.0340
  732TMC3    C510871   4.181   2.455  12.482  0.2117  0.0065  0.1256
  732TMC3    C610872   4.146   2.551  12.396  0.0623  0.0970  0.1234
  732TMC3     C10873   3.882   2.244  12.490  0.0492  0.4594 -0.5670
  732TMC3     O10874   3.906   2.179  12.594 -0.7532 -0.0716 -0.1864
  732TMC3     H10875   3.832   2.455  12.330  0.1409  2.0837 -1.8676
  732TMC3    H110876   4.122   2.276  12.583 -1.5448  0.3015  0.5041
  732TMC3    H210877   4.198   2.647  12.392  0.6066 -0.1036  2.4177
  732TMC3    C710878   4.277   2.487  12.586  1.0818  0.1124 -1.0210
  732TMC3    C810879   3.993   2.640  12.228 -0.1830  0.7061  0.4211
  732TMC3    O110880   4.293   2.601  12.628  0.0280  0.0672 -0.0848
  732TMC3    O210881   4.066   2.737  12.218 -0.1916 -0.1503 -1.1155
  733TMC3    C110882   3.694   0.486  12.270 -0.4787 -0.0034  0.1605
  733TMC3    C210883   3.799   0.405  12.316  0.0462  0.0140 -0.2575
  733TMC3    C310884   3.912   0.472  12.363  0.1275 -0.5417 -0.2874
  733TMC3    C410885   3.708   0.628  12.261  0.3488  1.1676 -0.3069
  733TMC3    C510886   3.828   0.685  12.297  0.0312  0.5616  0.4912
  733TMC3    C610887   3.928   0.608  12.355 -0.1031  1.0661  0.2762
  733TMC3     C10888   3.570   0.448  12.320  0.2646  0.2068 -0.5772
  733TMC3     O10889   3.510   0.538  12.369 -0.1086 -0.5487  0.0634
  733TMC3     H10890   3.779   0.303  12.348  1.8608 -0.7864 -1.6692
  733TMC3    H110891   3.623   0.693  12.242 -0.3607 -0.5761 -3.1116
  733TMC3    H210892   4.029   0.646  12.363 -0.6228  2.5433 -0.3220
  733TMC3    C710893   3.837   0.828  12.306  0.3246 -1.0104  0.0993
  733TMC3    C810894   4.006   0.399  12.447  0.1779  0.6394 -0.3112
  733TMC3    O110895   3.745   0.898  12.255 -0.3278 -0.1167  0.2828
  733TMC3    O210896   4.044   0.284  12.417  0.6438  0.5547 -0.1686
  734MPD2     C10897   1.573   2.941  12.484 -0.0274  0.1863  0.7078
  734MPD2    C110898   1.503   2.874  12.386  0.0060  0.0155 -0.3249
  734MPD2    C210899   1.470   2.950  12.270  0.4299  0.6208 -0.4995
  734MPD2    C310900   1.495   3.087  12.260 -0.0406 -0.4619 -0.2830
  734MPD2    C410901   1.556   3.148  12.359  0.1568 -0.0957  0.1567
  734MPD2    C510902   1.594   3.075  12.478  0.0251  0.2088  0.2165
  734MPD2     H10903   1.428   2.903  12.181  1.2865 -0.4607 -0.3301
  734MPD2    H110904   1.561   3.256  12.373  0.9031 -0.4460  2.4849
  734MPD2    H210905   1.591   2.899  12.582  0.2957 -1.2535  0.0433
  734MPD2    H310906   1.639   3.126  12.563  1.7457  0.0256 -0.5986
  734MPD2     N10907   1.477   3.141  12.132 -0.3329  0.0456 -0.2420
  734MPD2    H510908   1.422   3.085  12.067 -0.2378  1.1603 -1.2963
  734MPD2    N110909   1.472   2.742  12.387  0.1243 -0.2408 -0.0682
  734MPD2    H710910   1.517   2.678  12.452 -0.0925  0.0336  0.3513
  735TMC3    C110911   1.372   2.544  12.290  0.3216 -0.2678  0.0573
  735TMC3    C210912   1.264   2.498  12.213  0.1091  0.6311  0.4200
  735TMC3    C310913   1.272   2.388  12.134 -0.1790 -0.1834 -0.4097
  735TMC3    C410914   1.490   2.478  12.283 -0.1889 -0.6123 -0.0288
  735TMC3    C510915   1.495   2.359  12.206  0.2199 -0.0906 -0.2361
  735TMC3    C610916   1.385   2.311  12.145  0.1784 -0.2650 -0.5068
  735TMC3     C10917   1.370   2.688  12.304 -0.2751  0.0180  0.1014
  735TMC3     O10918   1.286   2.735  12.231 -0.4480  0.1021 -0.1435
  735TMC3     H10919   1.168   2.548  12.223 -0.2248  0.0864 -0.0747
  735TMC3    H110920   1.578   2.524  12.327 -1.5000 -1.4521  3.5218
  735TMC3    H210921   1.403   2.237  12.067  0.7233  1.1153 -1.7047
  735TMC3    C710922   1.620   2.337  12.137 -0.2080 -0.4891 -0.0605
  735TMC3    C810923   1.261   2.426  11.999  0.6010 -0.2210  0.8432
  735TMC3    O110924   1.685   2.440  12.134 -0.2206 -0.1526 -0.0189
  735TMC3    O210925   1.259   2.336  11.915  0.3704 -0.3721 -0.2025
  736MPD2     C10926   1.775   2.051  11.980 -0.8165  0.0056 -0.4901
  736MPD2    C110927   1.751   2.188  11.992  0.4003  0.3552 -0.4808
  736MPD2    C210928   1.831   2.280  11.925 -1.0116  0.1895 -0.0665
  736MPD2    C310929   1.926   2.234  11.835 -0.4871 -0.2824 -0.3767
  736MPD2    C410930   1.921   2.102  11.805 -0.2424 -1.1338 -0.2419
  736MPD2    C510931   1.859   2.013  11.885 -0.0353  0.8310 -0.2804
  736MPD2     H10932   1.805   2.384  11.937  1.0055  0.7825 -0.8845
  736MPD2    H110933   1.978   2.063  11.721  0.0127 -0.3216 -0.4464
  736MPD2    H210934   1.713   1.980  12.034 -0.0353 -0.0333  0.3575
  736MPD2    H310935   1.860   1.905  11.869 -4.3514  0.2800  3.2061
  736MPD2     N10936   2.006   2.326  11.760  0.1129  0.2302 -0.0737
  736MPD2    H510937   2.065   2.265  11.703 -1.0611 -0.7536 -0.2448
  736MPD2    N110938   1.643   2.214  12.080 -0.2004 -0.1263  0.0796
  736MPD2    H710939   1.583   2.138  12.109 -1.1307 -0.1736 -1.9937
  737TMC3    C110940   2.114   2.527  11.688  0.0959 -0.4872  0.2800
  737TMC3    C210941   2.124   2.657  11.703 -0.6058 -0.5157 -0.1718
  737TMC3    C310942   2.234   2.723  11.666 -0.0851  0.4603 -0.4678
  737TMC3    C410943   2.205   2.458  11.618  0.7188 -0.2817  0.0041
  737TMC3    C510944   2.311   2.527  11.564 -0.0610  0.7812  0.1310
  737TMC3    C610945   2.338   2.664  11.595  0.1816 -1.0575  0.7696
  737TMC3     C10946   2.005   2.461  11.762 -0.1029 -0.2984  0.6820
  737TMC3     O10947   1.935   2.535  11.832 -0.1129  0.2523 -0.3243
  737TMC3     H10948   2.060   2.707  11.774 -0.0425 -0.6962  0.4607
  737TMC3    H110949   2.201   2.350  11.607 -0.4482 -0.3167  0.7865
  737TMC3    H210950   2.429   2.722  11.582 -0.4051  0.0414  1.5354
  737TMC3    C710951   2.411   2.458  11.489  0.4970 -0.1698 -0.8748
  737TMC3    C810952   2.223   2.868  11.661  0.0890  0.1921  0.1629
  737TMC3    O110953   2.413   2.334  11.498  0.1502  0.7730  0.9779
  737TMC3    O210954   2.323   2.938  11.648 -0.0556 -0.1801 -0.5122
  738MPD2     C10955   1.842   1.840  14.821 -0.4983 -0.7449  0.1426
  738MPD2    C110956   1.913   1.731  14.866  0.0133  0.3449  0.1465
  738MPD2    C210957   2.048   1.708  14.830 -0.1020 -0.4748 -0.3340
  738MPD2    C310958   2.119   1.802  14.753  0.2527  0.1518 -0.0594
  738MPD2    C410959   2.045   1.902  14.701 -0.2113 -0.5126 -0.1641
  738MPD2    C510960   1.910   1.919  14.728 -0.3655 -0.1360  0.3690
  738MPD2     H10961   2.104   1.627  14.875  0.1663  0.3325  0.7825
  738MPD2    H110962   2.088   1.976  14.634 -0.7866  1.5473  1.7057
  738MPD2    H210963   1.736   1.851  14.841 -0.3991  1.6110 -0.6370
  738MPD2    H310964   1.864   2.000  14.672 -0.2761 -0.5869 -0.3536
  738MPD2     N10965   2.256   1.794  14.727 -0.0446 -0.2380  0.3501
  738MPD2    H510966   2.298   1.876  14.684 -0.0898  1.5748  3.7342
  738MPD2    N110967   1.850   1.623  14.937 -0.1839 -0.1671 -0.4516
  738MPD2    H710968   1.911   1.546  14.962  2.2010  2.2677  1.2435
  739TMC3    C110969   2.478   1.715  14.735  0.7464  0.2849  0.7745
  739TMC3    C210970   2.505   1.792  14.623  0.7544 -0.0358 -0.4288
  739TMC3    C310971   2.638   1.818  14.594  0.4588  0.1167  0.5548
  739TMC3    C410972   2.579   1.660  14.812  0.4633 -0.5841 -0.0034
  739TMC3    C510973   2.705   1.697  14.779 -0.2392  0.0770  0.3812
  739TMC3    C610974   2.738   1.777  14.674 -0.8229 -0.3679 -1.0238
  739TMC3     C10975   2.344   1.697  14.779  0.5429 -0.7850  0.4135
  739TMC3     O10976   2.320   1.605  14.862  0.4805  0.1959  0.0146
  739TMC3     H10977   2.421   1.804  14.556 -0.0575  4.0287  1.3173
  739TMC3    H110978   2.552   1.602  14.900 -3.2465  1.5108  0.2233
  739TMC3    H210979   2.841   1.771  14.641 -0.2718  2.7618  0.0889
  739TMC3    C710980   2.819   1.634  14.844 -0.1152 -0.4300 -0.3503
  739TMC3    C810981   2.665   1.876  14.466  0.5134 -0.5170  0.1058
  739TMC3    O110982   2.928   1.692  14.829 -0.0706 -0.4612 -0.4141
  739TMC3    O210983   2.572   1.876  14.382  0.1356  0.3229  0.2266
  740TMC3    C110984   2.432   3.185  14.363 -0.4043 -0.5935 -0.4739
  740TMC3    C210985   2.524   3.104  14.424 -0.6108 -0.0156  0.5956
  740TMC3    C310986   2.617   3.043  14.341  0.6683 -0.3228  0.4210
  740TMC3    C410987   2.421   3.196  14.227  0.4228 -0.6351 -0.0444
  740TMC3    C510988   2.518   3.140  14.145  0.2633  0.1032 -0.5440
  740TMC3    C610989   2.618   3.063  14.203  0.1198  0.6452 -0.1545
  740TMC3     C10990   2.311   3.220  14.430  0.2727 -0.0733 -0.2544
  740TMC3     O10991   2.256   3.310  14.379 -0.1947  0.8843  0.1311
  740TMC3     H10992   2.539   3.088  14.530  2.0197 -0.1190  0.2019
  740TMC3    H110993   2.328   3.229  14.182  0.6711  0.6410  0.3923
  740TMC3    H210994   2.697   3.022  14.141  1.6820 -0.0185  2.2891
  740TMC3    C710995   2.502   3.142  14.000 -0.4841  1.0030  0.0518
  740TMC3    C810996   2.706   2.930  14.379  0.9292 -0.3533  0.1013
  740TMC3    O110997   2.393   3.184  13.959 -0.0235 -0.3592 -0.6536
  740TMC3    O210998   2.808   2.910  14.318 -0.4771  0.5367  0.2543
  741TMC3    C110999   2.343   2.209  14.160  0.2710  0.3499 -0.5857
  741TMC3    C211000   2.206   2.242  14.164 -0.7505  0.1727 -0.0151
  741TMC3    C311001   2.146   2.225  14.279 -0.1220  0.3069  0.9963
  741TMC3    C411002   2.415   2.180  14.273  0.4104 -0.1812  0.0509
  741TMC3    C511003   2.350   2.182  14.391  0.5006  0.5062  0.0497
  741TMC3    C611004   2.214   2.188  14.388 -0.3922  0.0973 -0.5132
  741TMC3     C11005   2.399   2.193  14.026 -0.4723 -0.2760 -0.8890
  741TMC3     O11006   2.312   2.172  13.939  0.4736  0.2317 -0.4005
  741TMC3     H11007   2.147   2.253  14.073 -0.7332  2.5361  0.2563
  741TMC3    H111008   2.515   2.139  14.273  0.2898 -0.4423  2.9437
  741TMC3    H211009   2.156   2.184  14.479 -0.8047  2.8657 -0.6362
  741TMC3    C711010   2.408   2.133  14.510 -0.0405  0.0744 -0.0529
  741TMC3    C811011   2.007   2.181  14.268 -0.0259  0.0595 -0.5790
  741TMC3    O111012   2.347   2.064  14.591  0.0685  0.0687 -0.4480
  741TMC3    O211013   1.935   2.257  14.210  0.0257 -0.1832 -0.9041
  742TMC3    C111014   2.585   0.706  15.411 -0.0851  0.1773  0.4111
  742TMC3    C211015   2.503   0.671  15.312  0.1660  0.2291 -0.6031
  742TMC3    C311016   2.523   0.564  15.237  0.7699  0.2431 -0.3041
  742TMC3    C411017   2.694   0.634  15.446 -0.4282  0.0470  0.1766
  742TMC3    C511018   2.729   0.541  15.361  0.2562 -0.2708  0.0184
  742TMC3    C611019   2.646   0.493  15.255  0.8255  0.0458 -0.5463
  742TMC3     C11020   2.535   0.805  15.507 -0.6618  0.9785  0.0687
  742TMC3     O11021   2.610   0.848  15.597 -0.0693  0.8091  0.2291
  742TMC3     H11022   2.438   0.749  15.275 -0.5942 -0.1421 -0.0578
  742TMC3    H111023   2.748   0.651  15.538 -1.4585 -1.7106  1.0873
  742TMC3    H211024   2.688   0.420  15.186  0.9048 -0.6446  0.2351
  742TMC3    C711025   2.860   0.473  15.365  0.3512  0.6852  0.3640
  742TMC3    C811026   2.453   0.535  15.118 -0.1331  0.3440  0.7719
  742TMC3    O111027   2.886   0.385  15.281 -0.0231  0.8478  0.1552
  742TMC3    O211028   2.497   0.439  15.052  0.0805  0.5057  0.2312
  743MPD2     C11029   0.956   0.828   1.385 -0.8770 -0.5143 -0.2547
  743MPD2    C111030   0.871   0.916   1.326  0.3963  0.5329  0.4896
  743MPD2    C211031   0.912   0.980   1.210  0.2460  0.8581  0.7559
  743MPD2    C311032   1.040   0.971   1.158 -0.1606 -0.1556 -0.0449
  743MPD2    C411033   1.129   0.895   1.228 -0.6665 -0.0281  0.0777
  743MPD2    C511034   1.084   0.818   1.335 -0.1414 -0.3160 -0.8415
  743MPD2     H11035   0.852   1.058   1.163 -0.0335  0.3729  0.2981
  743MPD2    H111036   1.234   0.894   1.202 -0.7424 -0.2702 -0.2250
  743MPD2    H211037   0.929   0.774   1.475 -1.2985  2.3887  1.3845
  743MPD2    H311038   1.157   0.751   1.380  0.4969 -0.1705 -1.6459
  743MPD2     N11039   1.077   1.052   1.045  0.2186  0.1594 -0.2186
  743MPD2    H511040   1.009   1.123   1.019  0.0516 -0.0264 -0.2989
  743MPD2    N111041   0.734   0.923   1.373 -0.1467 -0.0404 -0.6524
  743MPD2    H711042   0.713   0.870   1.457  0.7563 -1.2752 -1.2101
  744TMC3    C111043   0.501   0.970   1.351 -1.0176  0.5148 -0.0681
  744TMC3    C211044   0.471   1.035   1.470 -0.4999 -0.1923  0.4025
  744TMC3    C311045   0.364   1.117   1.473 -0.8858 -0.2249 -0.3350
  744TMC3    C411046   0.412   0.968   1.246  0.3656  0.1747 -0.4281
  744TMC3    C511047   0.299   1.044   1.261 -0.6124 -0.8806 -0.2509
  744TMC3    C611048   0.284   1.130   1.368 -0.4605  0.2279 -0.2612
  744TMC3     C11049   0.636   0.975   1.297 -0.1204  0.2086  0.2213
  744TMC3     O11050   0.645   1.003   1.175 -0.2873  0.0670 -0.4769
  744TMC3     H11051   0.557   1.039   1.536  0.8445 -1.2130 -1.3135
  744TMC3    H111052   0.439   0.923   1.151 -1.2476  1.0927 -1.3246
  744TMC3    H211053   0.191   1.184   1.382 -0.2594  0.4733  0.1187
  744TMC3    C711054   0.202   1.059   1.157  0.7572  0.3222 -0.1585
  744TMC3    C811055   0.353   1.222   1.577  0.3644 -0.0027  0.5903
  744TMC3    O111056   0.123   1.154   1.157 -0.0114  0.1970  0.7342
  744TMC3    O211057   0.250   1.287   1.565  0.0441  0.8663  0.7418
  745TMC3    C111058   2.580   0.242  13.719 -1.1196  0.5988  0.4736
  745TMC3    C211059   2.479   0.199  13.801 -0.3052 -0.5749 -0.2240
  745TMC3    C311060   2.358   0.185  13.749 -0.3532  0.1178  0.2785
  745TMC3    C411061   2.572   0.265  13.587 -0.5094  0.3598  0.0632
  745TMC3    C511062   2.447   0.266  13.537  0.3708 -0.5089 -0.3438
  745TMC3    C611063   2.344   0.237  13.623  0.1810  0.0931  0.1015
  745TMC3     C11064   2.703   0.251  13.787 -0.1693  0.1396  0.0274
  745TMC3     O11065   2.730   0.173  13.876  0.0559  0.5823 -0.4146
  745TMC3     H11066   2.496   0.150  13.896  2.8663  0.0305 -0.4644
  745TMC3    H111067   2.659   0.294  13.529  0.2308  1.4568  1.7234
  745TMC3    H211068   2.241   0.239  13.590  1.3703 -2.0780 -3.7290
  745TMC3    C711069   2.412   0.333  13.413  0.2076  1.4484 -0.6922
  745TMC3    C811070   2.257   0.242  13.837  0.1363  0.2509 -0.2763
  745TMC3    O111071   2.301   0.377  13.399 -0.1416  0.2884  0.2248
  745TMC3    O211072   2.152   0.277  13.789 -0.7740 -0.2615 -0.3273
  746TMC3    C111073   0.241   2.581  11.179  0.2125 -0.4582 -0.6886
  746TMC3    C211074   0.235   2.604  11.045 -0.0466  0.1404 -0.2240
  746TMC3    C311075   0.153   2.534  10.967  0.3310 -0.7893 -0.4417
  746TMC3    C411076   0.172   2.480  11.244  0.5965 -0.3888 -0.2169
  746TMC3    C511077   0.083   2.416  11.160 -0.3959 -0.4801 -0.9071
  746TMC3    C611078   0.063   2.448  11.024  0.4362 -0.3973 -0.0301
  746TMC3     C11079   0.301   2.690  11.258  0.5657  0.1853 -0.3599
  746TMC3     O11080   0.255   2.699  11.368  0.1347 -0.4683  0.7924
  746TMC3     H11081   0.291   2.686  11.001 -0.2882  0.7357  0.5622
  746TMC3    H111082   0.166   2.476  11.352 -0.0988 -1.4693 -0.2949
  746TMC3    H211083   4.728   2.393  10.969 -0.1032  1.3568 -1.0540
  746TMC3    C711084   4.695   2.389  11.225  0.2672  0.5925  0.1011
  746TMC3    C811085   0.146   2.568  10.827  0.3217  0.7246 -0.0736
  746TMC3    O111086   4.597   2.371  11.154  0.2086  0.8438 -0.0051
  746TMC3    O211087   0.034   2.545  10.777  0.0778 -0.4360 -0.0640
  747TMC3    C111088   3.176   2.899  10.940 -0.2992  0.0583 -0.3575
  747TMC3    C211089   3.132   2.771  10.973 -0.2123 -0.4090  0.2361
  747TMC3    C311090   3.066   2.757  11.087  0.2540  0.0775  0.1819
  747TMC3    C411091   3.162   3.004  11.026  0.2188 -0.5132 -0.2649
  747TMC3    C511092   3.098   2.978  11.140  0.0653  0.5459  0.5511
  747TMC3    C611093   3.040   2.862  11.170  0.8121 -0.1926  0.9233
  747TMC3     C11094   3.223   2.927  10.806 -0.2773  0.5305  0.6272
  747TMC3     O11095   3.301   3.025  10.801  0.3223  0.1800  0.7763
  747TMC3     H11096   3.146   2.694  10.898  0.0124 -0.6489  0.5282
  747TMC3    H111097   3.208   3.101  11.010 -0.2647 -0.0466  1.1842
  747TMC3    H211098   2.996   2.861  11.269 -2.4209 -0.4637 -0.5165
  747TMC3    C711099   3.075   3.093  11.232 -0.5713  0.5087  0.5064
  747TMC3    C811100   2.999   2.626  11.105 -0.2335  0.5169 -0.4620
  747TMC3    O111101   2.974   3.084  11.294 -0.0687 -0.6685 -0.6412
  747TMC3    O211102   3.038   2.539  11.030  0.1075  0.0911 -0.1738
  748MPD2     C11103   3.790   2.986   1.333  0.0672 -0.2115  0.0804
  748MPD2    C111104   3.900   2.967   1.417  0.5636 -0.4620 -0.6567
  748MPD2    C211105   4.022   2.964   1.358  0.4228  0.2607 -0.7123
  748MPD2    C311106   4.035   2.981   1.225  0.5337 -0.0294  0.3188
  748MPD2    C411107   3.918   3.002   1.148 -0.1346  0.8509  0.0816
  748MPD2    C511108   3.795   3.001   1.197  0.3966  0.7910 -1.0062
  748MPD2     H11109   4.105   2.932   1.420  0.1577  0.6641 -0.1462
  748MPD2    H111110   3.916   3.010   1.040  0.0961 -0.4754 -0.0239
  748MPD2    H211111   3.692   2.977   1.377  1.3821 -1.4329  2.7555
  748MPD2    H311112   3.717   3.025   1.126  0.1771 -0.4404 -1.1825
  748MPD2     N11113   4.164   2.986   1.170  0.3211  0.6397 -0.4162
  748MPD2    H511114   4.239   2.965   1.234 -1.1003 -1.0497  0.6719
  748MPD2    N111115   3.879   2.967   1.563 -0.1168  0.2906  0.2762
  748MPD2    H711116   3.781   2.971   1.585 -0.0706  1.0048  0.3595
  749TMC3    C111117   4.344   3.037   1.014  0.0307  0.0265 -0.7122
  749TMC3    C211118   4.430   2.947   1.072 -0.0035 -0.1666 -0.0823
  749TMC3    C311119   4.564   2.955   1.031 -0.3437  0.0067  0.8937
  749TMC3    C411120   4.384   3.110   0.909 -0.1054 -0.1086  0.0502
  749TMC3    C511121   4.512   3.109   0.864  0.5445 -0.2376 -0.4669
  749TMC3    C611122   4.611   3.043   0.933 -0.1876  0.9554 -0.1471
  749TMC3     C11123   4.201   3.037   1.045  0.7061 -0.4888 -0.1206
  749TMC3     O11124   4.128   3.088   0.963 -0.3342 -0.4205 -0.0225
  749TMC3     H11125   4.403   2.881   1.154  0.6957  0.2589  0.4902
  749TMC3    H111126   4.313   3.178   0.863 -0.3202  0.8836  1.8616
  749TMC3    H211127   4.712   3.037   0.895 -0.6245  0.0447 -1.1642
  749TMC3    C711128   4.555   3.188   0.746 -0.1559 -0.0196  0.0870
  749TMC3    C811129   4.667   2.887   1.112  0.5270 -0.3204  0.4500
  749TMC3    O111130   4.659   3.253   0.757 -0.1146 -0.1413 -0.4001
  749TMC3    O211131   0.040   2.929   1.100 -0.1298  0.4981  0.1651
  750MPD2     C11132   0.038   4.054  11.424  0.0142 -0.2906  0.7537
  750MPD2    C111133   0.036   3.933  11.490 -0.4386  0.1088 -0.1698
  750MPD2    C211134   0.014   3.817  11.413  0.0222 -0.5637  0.0844
  750MPD2    C311135   4.724   3.826  11.274  0.5066 -0.0041  0.1120
  750MPD2    C411136   4.728   3.951  11.217  0.2895  0.5609 -0.0376
  750MPD2    C511137   0.013   4.065  11.291  0.4408 -0.6049 -0.1692
  750MPD2     H11138   0.019   3.724  11.469  1.3552  0.6195  1.9275
  750MPD2    H111139   4.705   3.969  11.113 -1.8570 -2.4671 -0.0827
  750MPD2    H211140   0.032   4.147  11.479  0.1667  1.0151 -1.4434
  750MPD2    H311141   0.011   4.161  11.241 -1.2099 -1.7908 -2.4074
  750MPD2     N11142   4.688   3.721  11.196  0.2080 -0.0664 -0.0412
  750MPD2    H511143   4.664   3.728  11.098 -1.4215 -0.2318  0.3395
  750MPD2    N111144   0.063   3.943  11.626  0.3801 -0.7555 -0.3604
  750MPD2    H711145   0.066   4.041  11.655 -0.0055 -0.3245 -1.7759
  751TMC3    C111146   4.679   3.503  11.124 -0.1689  0.3039  0.8733
  751TMC3    C211147   4.609   3.384  11.136 -0.0507 -0.4435 -0.0845
  751TMC3    C311148   4.618   3.296  11.033 -1.3335  0.2015 -0.7403
  751TMC3    C411149   0.015   3.535  11.015 -0.1594 -0.2412 -0.6716
  751TMC3    C511150   0.019   3.443  10.909 -0.1028  0.0663  0.3213
  751TMC3    C611151   4.697   3.323  10.922 -0.9361  0.0972 -0.0151
  751TMC3     C11152   4.684   3.591  11.240  0.3009  0.3903 -0.2346
  751TMC3     O11153   4.664   3.537  11.350  0.0216  0.5108  0.3581
  751TMC3     H11154   4.563   3.355  11.230 -0.1166 -1.8244 -0.5362
  751TMC3    H111155   0.063   3.632  11.011  0.3134 -0.4396  0.0932
  751TMC3    H211156   4.703   3.254  10.839 -0.5200  0.7768 -0.5479
  751TMC3    C711157   0.104   3.486  10.801 -0.7507 -0.3650  0.2767
  751TMC3    C811158   4.532   3.179  11.022  0.7106  0.1732 -0.9819
  751TMC3    O111159   0.185   3.577  10.820  0.5345 -0.3460  0.1120
  751TMC3    O211160   4.503   3.136  11.134  0.1749 -0.2647 -0.5082
  752TMC3    C111161   3.471   3.741  17.286 -0.1319  0.1945 -0.5831
  752TMC3    C211162   3.481   3.623  17.350 -0.4049 -0.2967  0.2771
  752TMC3    C311163   3.380   3.581  17.435 -0.3377  0.0518 -0.4586
  752TMC3    C411164   3.364   3.822  17.311 -0.2331  0.0253 -0.4721
  752TMC3    C511165   3.264   3.783  17.393  0.0546  0.9655  0.1592
  752TMC3    C611166   3.274   3.665  17.454 -0.5376  0.1209  0.6354
  752TMC3     C11167   3.577   3.787  17.202 -0.2223  0.7673  0.4103
  752TMC3     O11168   3.692   3.759  17.240  0.1044  0.2349 -0.3641
  752TMC3     H11169   3.556   3.548  17.329  1.7480  1.6514  0.9956
  752TMC3    H111170   3.357   3.911  17.250  0.0932  1.5394  1.7015
  752TMC3    H211171   3.193   3.634  17.519 -0.6818  2.3272  1.4920
  752TMC3    C711172   3.141   3.864  17.419 -0.0880  0.6963  0.4091
  752TMC3    C811173   3.388   3.460  17.519  0.5224 -0.2466 -0.5865
  752TMC3    O111174   3.035   3.799  17.434  0.0876 -0.1952  0.6415
  752TMC3    O211175   3.319   3.457  17.619 -0.2316 -0.1262  0.0593
  753TMC3    C111176   0.967   0.485  13.322  0.0860  0.0268  0.1723
  753TMC3    C211177   1.019   0.463  13.445 -0.4110 -0.0798  0.6075
  753TMC3    C311178   1.056   0.334  13.475  0.9486 -0.8227  0.2158
  753TMC3    C411179   0.948   0.386  13.231  0.1877  0.0057 -0.2979
  753TMC3    C511180   0.978   0.259  13.265 -0.2895 -0.4251 -0.4901
  753TMC3    C611181   1.037   0.234  13.387  0.5496 -0.5789  1.1231
  753TMC3     C11182   0.964   0.617  13.260  0.1578  0.3940 -0.7400
  753TMC3     O11183   1.006   0.626  13.151 -0.4075  0.3640 -0.1648
  753TMC3     H11184   1.062   0.541  13.506  1.6720  0.3374 -1.4138
  753TMC3    H111185   0.905   0.413  13.135 -2.0411 -1.0750  0.4142
  753TMC3    H211186   1.058   0.129  13.406  0.7356 -0.6714  0.4201
  753TMC3    C711187   0.920   0.153  13.188 -0.9233 -0.1764  0.2730
  753TMC3    C811188   1.084   0.288  13.608  0.7946  0.1458 -0.8403
  753TMC3    O111189   0.830   0.194  13.109  0.0529  0.4508  0.2394
  753TMC3    O211190   1.147   0.185  13.623 -0.7871  0.3931 -0.9158
  754MPD2     C11191   0.284   3.722  13.399  0.2785 -0.4466  0.5883
  754MPD2    C111192   0.286   3.586  13.403 -0.1095  0.9985  0.0276
  754MPD2    C211193   0.160   3.523  13.399 -0.2110 -0.2805 -0.1104
  754MPD2    C311194   0.042   3.593  13.398  0.3247 -0.4599 -0.5152
  754MPD2    C411195   0.045   3.727  13.380  0.2492 -0.8258  0.0673
  754MPD2    C511196   0.161   3.787  13.389 -0.3152 -0.3833 -0.0421
  754MPD2     H11197   0.169   3.415  13.392  2.4059 -0.0839  0.2325
  754MPD2    H111198   4.693   3.780  13.358  0.0187 -1.4045 -0.3568
  754MPD2    H211199   0.377   3.777  13.406 -0.9188  1.2861  2.7041
  754MPD2    H311200   0.157   3.896  13.391 -0.5321 -0.3756 -0.8368
  754MPD2     N11201   4.657   3.531  13.414 -0.1878  0.2454  0.9496
  754MPD2    H511202   4.573   3.588  13.413 -1.1060 -1.1273  1.0503
  754MPD2    N111203   0.413   3.527  13.412 -0.4000 -0.4474 -0.1322
  754MPD2    H711204   0.495   3.576  13.379 -1.3553  0.6809 -0.8511
  755MPD2     C11205   3.703   3.668  13.487  0.0403  1.4584 -0.4363
  755MPD2    C111206   3.821   3.723  13.540 -0.4495 -0.4432 -0.0513
  755MPD2    C211207   3.930   3.658  13.501 -0.2497 -0.6261 -0.0251
  755MPD2    C311208   3.934   3.539  13.430  0.0759 -0.2151 -0.1670
  755MPD2    C411209   3.817   3.494  13.373  0.4438 -0.3353 -0.4817
  755MPD2    C511210   3.699   3.563  13.397 -0.0869  0.1089 -0.2316
  755MPD2     H11211   4.025   3.694  13.541  0.4858  1.1453 -3.3917
  755MPD2    H111212   3.823   3.407  13.309 -2.3727 -0.3561 -0.7263
  755MPD2    H211213   3.609   3.717  13.512 -0.9495 -0.5036 -0.3470
  755MPD2    H311214   3.609   3.518  13.358 -1.4256  1.7183  0.9815
  755MPD2     N11215   4.053   3.466  13.404 -0.1511 -0.2281  0.1339
  755MPD2    H511216   4.043   3.370  13.373 -0.4771 -0.1349 -0.0562
  755MPD2    N111217   3.841   3.846  13.611 -0.2916 -0.0339  0.9512
  755MPD2    H711218   3.937   3.866  13.635 -0.2806  1.8423 -0.6382
  756MPD2     C11219   4.692   0.624   9.950 -0.0830 -0.0762 -0.0068
  756MPD2    C111220   4.626   0.507   9.988 -0.6394  0.2849  0.1294
  756MPD2    C211221   4.522   0.450   9.907 -0.0600  0.2793  0.4763
  756MPD2    C311222   4.491   0.508   9.782  0.1555  0.1093 -0.3120
  756MPD2    C411223   4.560   0.622   9.744  0.3751  0.2253  1.0795
  756MPD2    C511224   4.667   0.672   9.825 -0.4441 -0.3334 -0.4163
  756MPD2     H11225   4.467   0.365   9.945  1.1526 -0.8572 -0.3176
  756MPD2    H111226   4.541   0.673   9.650  0.5404  1.2665  1.6094
  756MPD2    H211227   0.022   0.680  10.011  0.3082 -2.0238  1.3471
  756MPD2    H311228   4.717   0.761   9.791  0.6080  0.7168  3.8514
  756MPD2     N11229   4.387   0.447   9.711 -0.3334 -0.1806  0.7878
  756MPD2    H511230   4.336   0.368   9.749 -0.8344  0.3609  1.2269
  756MPD2    N111231   4.650   0.449  10.110 -0.3058  0.2064 -0.6493
  756MPD2    H711232   4.599   0.366  10.138 -0.9458 -0.3011 -3.2957
  757MPD2     C11233   3.791   4.499   9.785 -0.2909 -0.2523  0.3029
  757MPD2    C111234   3.931   4.501   9.778 -0.2745 -1.3471 -0.7911
  757MPD2    C211235   3.996   4.618   9.741  0.4895 -0.3571  0.0188
  757MPD2    C311236   3.924   4.735   9.711  0.0857 -0.0426  0.0134
  757MPD2    C411237   3.787   4.729   9.708  0.5002  0.5640  1.1181
  757MPD2    C511238   3.721   4.613   9.746  0.8129 -0.0923 -0.3016
  757MPD2     H11239   4.104   4.621   9.747  0.5994 -2.4737 -1.1322
  757MPD2    H111240   3.728   0.069   9.666 -0.2962  0.4346  2.0073
  757MPD2    H211241   3.730   4.418   9.822  0.5722 -0.7969  0.5420
  757MPD2    H311242   3.613   4.624   9.744  0.8360  0.5953  1.6914
  757MPD2     N11243   4.001   0.103   9.667  0.6057  0.7143 -0.6889
  757MPD2    H511244   4.102   0.095   9.668  0.6935  1.8165 -0.7024
  757MPD2    N111245   3.999   4.384   9.826 -0.4924 -0.5421  0.3042
  757MPD2    H711246   3.937   4.310   9.856 -1.3705 -0.0002 -0.1588
  758MPD2     C11247   4.534   3.255  15.905  0.1459 -0.2219  0.4917
  758MPD2    C111248   4.625   3.184  15.988 -0.0044 -0.0785  0.1236
  758MPD2    C211249   4.589   3.169  16.118 -0.3218 -0.7957 -0.2436
  758MPD2    C311250   4.468   3.202  16.163 -0.2433 -0.7091 -0.5073
  758MPD2    C411251   4.377   3.265  16.085 -0.5225  0.5257  0.1624
  758MPD2    C511252   4.407   3.288  15.954 -0.1000 -0.0696 -0.1222
  758MPD2     H11253   4.663   3.117  16.178 -1.7411 -0.8764  1.4507
  758MPD2    H111254   4.284   3.299  16.128  0.2884  0.3422  2.0607
  758MPD2    H211255   4.552   3.260  15.799 -2.0441 -1.3180  0.0542
  758MPD2    H311256   4.338   3.337  15.886 -0.6488  1.4185  1.5043
  758MPD2     N11257   4.435   3.205  16.303 -0.1375 -0.1116 -0.0759
  758MPD2    H511258   4.339   3.233  16.321 -0.1843 -0.2236 -0.1454
  758MPD2    N111259   0.012   3.148  15.934 -0.2201  0.1924 -0.5078
  758MPD2    H711260   0.028   3.183  15.840 -2.0253  0.6832 -0.6455
  759MPD2     C11261   3.486   2.762  10.651  0.1300 -0.3926  0.0838
  759MPD2    C111262   3.460   2.688  10.533 -0.3247  1.0353 -0.0539
  759MPD2    C211263   3.516   2.735  10.418  0.6576  0.5231  0.0707
  759MPD2    C311264   3.582   2.851  10.404  0.1606  0.3254 -0.3327
  759MPD2    C411265   3.593   2.932  10.515 -0.8288  0.8712  0.4622
  759MPD2    C511266   3.543   2.883  10.632  0.9921 -0.9314  0.0606
  759MPD2     H11267   3.514   2.669  10.331 -1.1094  0.8472 -0.1421
  759MPD2    H111268   3.637   3.031  10.524 -0.0603  0.5995 -0.3255
  759MPD2    H211269   3.459   2.725  10.749  0.0284  1.0937  0.6097
  759MPD2    H311270   3.562   2.937  10.725 -0.3594 -3.1449  1.6233
  759MPD2     N11271   3.647   2.880  10.286 -0.6225  0.4756  0.4399
  759MPD2    H511272   3.635   2.816  10.209  1.0357  0.2156  0.3884
  759MPD2    N111273   3.381   2.574  10.530 -0.0742  0.0968 -0.4619
  759MPD2    H711274   3.363   2.535  10.439 -1.6798  1.3812 -0.6916
  760MPD2     C11275   3.095   3.635  12.174 -0.2290  0.5971  0.6288
  760MPD2    C111276   3.212   3.664  12.102 -0.2855 -0.3790 -0.1235
  760MPD2    C211277   3.298   3.557  12.086 -0.0468 -0.4641  0.0506
  760MPD2    C311278   3.275   3.431  12.141 -0.0021 -0.1452  0.5430
  760MPD2    C411279   3.162   3.415  12.219 -0.5031 -0.2997 -0.5951
  760MPD2    C511280   3.066   3.512  12.221 -0.0174  0.3103  0.4140
  760MPD2     H11281   3.389   3.577  12.031  0.3318 -1.4341  0.3190
  760MPD2    H111282   3.132   3.320  12.262  0.4733 -0.2851  0.1238
  760MPD2    H211283   3.008   3.700  12.173 -0.9651 -0.4026 -1.2673
  760MPD2    H311284   2.971   3.495  12.269  0.0163  2.4354  1.2098
  760MPD2     N11285   3.365   3.325  12.130  0.1531  0.3978 -0.1381
  760MPD2    H511286   3.351   3.243  12.187 -0.3224  1.6902  1.5919
  760MPD2    N111287   3.254   3.789  12.052 -0.7964  0.1383  0.4557
  760MPD2    H711288   3.342   3.790  12.002 -1.1172  2.0235 -0.0381
  761MPD2     C11289   4.300   2.792  10.799 -0.8338 -0.0036 -0.3888
  761MPD2    C111290   4.342   2.807  10.930  0.4873 -0.1579 -0.2879
  761MPD2    C211291   4.406   2.931  10.960 -0.9110 -0.5856  0.3619
  761MPD2    C311292   4.431   3.024  10.861  0.3148 -0.3317 -0.0808
  761MPD2    C411293   4.396   3.002  10.732 -0.0826  0.1185  0.1758
  761MPD2    C511294   4.329   2.886  10.703 -0.2968 -0.7386  0.1708
  761MPD2     H11295   4.437   2.952  11.062 -1.0386  0.0832  0.2649
  761MPD2    H111296   4.405   3.075  10.653 -3.8363  0.4270  0.0517
  761MPD2    H211297   4.246   2.703  10.772 -1.9524  0.6049 -0.1715
  761MPD2    H311298   4.292   2.866  10.603  0.1426 -3.4924  0.5598
  761MPD2     N11299   4.498   3.145  10.895  0.0604 -0.3906  0.0952
  761MPD2    H511300   4.519   3.205  10.816  0.8948 -0.0891  0.5462
  761MPD2    N111301   4.318   2.699  11.023  0.0468 -0.0964  0.6778
  761MPD2    H711302   4.260   2.629  10.978  0.2617 -0.2090  0.5764
  762MPD2     C11303   0.160   3.232  11.201 -0.6082 -0.4157  0.3427
  762MPD2    C111304   0.164   3.123  11.120 -0.2460 -0.1784  0.5033
  762MPD2    C211305   0.233   3.120  11.000 -0.3220  0.1827 -0.6411
  762MPD2    C311306   0.309   3.235  10.964 -0.4759 -0.6652 -0.1364
  762MPD2    C411307   0.310   3.345  11.053  0.0846 -0.0540 -0.4628
  762MPD2    C511308   0.239   3.341  11.169  0.1136  0.3895 -0.0902
  762MPD2     H11309   0.241   3.042  10.925 -0.1155 -1.8748  1.5271
  762MPD2    H111310   0.361   3.439  11.035  1.0429 -0.3182  0.8169
  762MPD2    H211311   0.101   3.232  11.292 -2.2536 -1.7981 -0.7120
  762MPD2    H311312   0.253   3.430  11.228 -3.4133 -0.8152  2.5488
  762MPD2     N11313   0.382   3.237  10.845 -0.2083 -0.0215 -0.5765
  762MPD2    H511314   0.386   3.146  10.800  0.6416 -0.7136  0.9221
  762MPD2    N111315   0.086   3.019  11.164  0.3508 -0.4038  0.2289
  762MPD2    H711316   0.056   3.031  11.260  0.9521  1.0127  0.2355
  763MPD2     C11317   2.021   3.277  16.325 -0.0766  0.6329  0.0014
  763MPD2    C111318   1.962   3.345  16.222 -1.1265  0.3642  0.3172
  763MPD2    C211319   1.952   3.481  16.227 -0.2112  0.3224 -0.2401
  763MPD2    C311320   2.002   3.551  16.335  0.4726  0.4817 -0.4679
  763MPD2    C411321   2.047   3.486  16.451  0.2625 -0.0610  0.0715
  763MPD2    C511322   2.060   3.351  16.435 -0.3276  0.5560 -0.2780
  763MPD2     H11323   1.889   3.540  16.161 -0.4780  0.2326 -0.0661
  763MPD2    H111324   2.060   3.531  16.549  0.0174  0.4064 -0.1118
  763MPD2    H211325   2.030   3.169  16.331 -0.0608  0.6132 -0.3995
  763MPD2    H311326   2.089   3.293  16.521 -1.3238  1.6386  0.7912
  763MPD2     N11327   2.005   3.692  16.321  0.2984  0.7269 -0.6127
  763MPD2    H511328   2.006   3.727  16.225  0.9090  1.0740 -0.4793
  763MPD2    N111329   1.897   3.287  16.114 -0.2685  0.6481 -0.1287
  763MPD2    H711330   1.842   3.358  16.066 -1.7746  0.7368  1.7122
  764MPD2     C11331   4.311   4.519  17.313  0.3617 -0.1109  0.3939
  764MPD2    C111332   4.195   4.592  17.337 -0.4154 -0.1377  0.0430
  764MPD2    C211333   4.120   4.562  17.454  0.0563  0.8599 -0.5877
  764MPD2    C311334   4.173   4.471  17.546 -0.1737 -0.2371 -0.5504
  764MPD2    C411335   4.283   4.394  17.515 -0.1951  0.4799  0.2172
  764MPD2    C511336   4.352   4.415  17.395 -0.0938 -0.1070  0.4680
  764MPD2     H11337   4.036   4.625  17.479 -0.0726  0.1067  0.8751
  764MPD2    H111338   4.320   4.320  17.585 -0.0829  1.4231  1.1516
  764MPD2    H211339   4.368   4.524  17.221  1.6517 -0.2980  1.1853
  764MPD2    H311340   4.433   4.349  17.367 -2.9803 -3.8877  0.9152
  764MPD2     N11341   4.107   4.449  17.670  0.5255  0.0197 -0.4278
  764MPD2    H511342   4.040   4.521  17.696  2.4606  1.3183  0.9306
  764MPD2    N111343   4.136   4.682  17.243  0.3652  0.3198 -0.5720
  764MPD2    H711344   4.035   4.693  17.240  0.1033 -2.1968 -1.3570
  765MPD2     C11345   3.863   2.807  16.045 -0.1355  0.2416  0.2575
  765MPD2    C111346   3.947   2.892  15.977 -0.0782 -0.2185  0.1142
  765MPD2    C211347   4.076   2.843  15.945  0.2924 -0.0938  0.2538
  765MPD2    C311348   4.119   2.723  15.993 -0.4166  0.3228 -0.2180
  765MPD2    C411349   4.034   2.652  16.070 -0.6481  0.1697 -1.0481
  765MPD2    C511350   3.902   2.686  16.085 -0.0243 -0.3380  0.6311
  765MPD2     H11351   4.144   2.904  15.887 -1.8217  2.6753  0.7014
  765MPD2    H111352   4.064   2.568  16.131  0.0534 -0.1934 -1.8957
  765MPD2    H211353   3.762   2.843  16.061 -0.5779 -0.4794 -0.9579
  765MPD2    H311354   3.842   2.615  16.140 -2.5216 -0.0067 -1.6720
  765MPD2     N11355   4.250   2.678  15.970 -0.0486 -0.1700 -0.1086
  765MPD2    H511356   4.316   2.737  15.920 -1.8689  1.3554 -0.7074
  765MPD2    N111357   3.904   3.022  15.944  0.2016  0.0474  0.5323
  765MPD2    H711358   3.813   3.050  15.979 -0.3049 -1.0430  0.0813
  766MPD2     C11359   3.426   2.970  15.552 -0.0332 -0.5609 -0.8850
  766MPD2    C111360   3.550   3.020  15.527  0.0737 -0.0423 -0.1475
  766MPD2    C211361   3.633   2.963  15.434 -0.5283 -0.0843  0.3333
  766MPD2    C311362   3.592   2.850  15.363 -0.3305 -0.3589  0.3228
  766MPD2    C411363   3.456   2.814  15.370  0.3163 -0.2996  0.3326
  766MPD2    C511364   3.377   2.876  15.460  0.6727  0.1680 -0.1772
  766MPD2     H11365   3.735   2.999  15.426  0.3987 -2.6755  0.5683
  766MPD2    H111366   3.408   2.737  15.311  2.7606 -1.4550 -0.1386
  766MPD2    H211367   3.361   3.010  15.630  1.0284  1.2176 -0.9237
  766MPD2    H311368   3.280   2.836  15.485  0.6419 -0.4200 -1.2418
  766MPD2     N11369   3.675   2.781  15.277 -0.2095 -0.3149 -0.2083
  766MPD2    H511370   3.628   2.712  15.220  0.5185  0.2484 -1.5003
  766MPD2    N111371   3.599   3.116  15.611 -0.1209 -0.1239  0.4694
  766MPD2    H711372   3.550   3.133  15.698 -2.6162  0.5519 -1.0545
  767MPD2     C11373   3.456   3.104  15.201  0.1515  0.0806  0.5046
  767MPD2    C111374   3.577   3.087  15.135  0.5542  0.4829 -0.3811
  767MPD2    C211375   3.585   3.016  15.016  0.2881  0.5213  0.3982
  767MPD2    C311376   3.475   2.974  14.959 -0.0876 -0.1016 -0.7654
  767MPD2    C411377   3.346   2.997  15.022  0.2899 -0.3915  0.0487
  767MPD2    C511378   3.341   3.054  15.145  0.6942 -0.7489 -0.4901
  767MPD2     H11379   3.676   3.000  14.959  1.0965 -2.1405  2.3653
  767MPD2    H111380   3.247   2.979  14.981 -0.2368  1.7603  0.4244
  767MPD2    H211381   3.454   3.146  15.301 -1.1839  1.8154 -0.2745
  767MPD2    H311382   3.243   3.061  15.189  0.2263  1.7582 -1.9343
  767MPD2     N11383   3.485   2.899  14.831  0.6603 -0.5077  0.0256
  767MPD2    H511384   3.577   2.885  14.790  1.3221 -2.1719  2.0685
  767MPD2    N111385   3.689   3.143  15.189 -0.0358 -0.3325 -0.2500
  767MPD2    H711386   3.675   3.192  15.277  1.2037  0.4903 -0.5084
  768MPD2     C11387   4.155   1.532  11.171 -0.0919  0.4678  0.1244
  768MPD2    C111388   4.230   1.643  11.212  0.2233  0.4041  0.2131
  768MPD2    C211389   4.360   1.625  11.251  0.1205  0.0700 -0.2868
  768MPD2    C311390   4.413   1.495  11.267  0.6595  0.9621 -1.1764
  768MPD2    C411391   4.332   1.384  11.234 -0.2294  0.2582 -0.2975
  768MPD2    C511392   4.209   1.402  11.179 -0.6503  0.0970  0.2283
  768MPD2     H11393   4.424   1.707  11.282 -1.3086  0.1320  2.4964
  768MPD2    H111394   4.371   1.285  11.257  0.9836  0.6942 -0.4605
  768MPD2    H211395   4.052   1.547  11.141  0.3464  2.3794 -0.4427
  768MPD2    H311396   4.153   1.315  11.148 -0.4676  0.1878 -0.3481
  768MPD2     N11397   4.544   1.469  11.321  0.0565  0.3778  0.1940
  768MPD2    H511398   4.555   1.372  11.349  0.7700  0.7823  1.3175
  768MPD2    N111399   4.173   1.770  11.220 -0.2802 -0.3500 -0.0433
  768MPD2    H711400   4.230   1.834  11.275 -1.8588 -0.1695  1.3949
  769MPD2     C11401   0.911   4.341  14.649 -0.3266  0.6021 -0.6266
  769MPD2    C111402   0.802   4.373  14.728  0.0518  0.7548  0.4156
  769MPD2    C211403   0.810   4.478  14.819  0.0655  0.1352  0.1474
  769MPD2    C311404   0.927   4.554  14.829 -0.1757  0.5925  0.6119
  769MPD2    C411405   1.038   4.510  14.755  0.2310  0.4375  1.0076
  769MPD2    C511406   1.029   4.411  14.664  0.8677  0.0315  0.9914
  769MPD2     H11407   0.732   4.511  14.886 -0.5990 -1.6216  0.2141
  769MPD2    H111408   1.138   4.549  14.765  0.8061 -0.7039 -0.2580
  769MPD2    H211409   0.897   4.268  14.570  0.3395 -0.8191  0.5461
  769MPD2    H311410   1.116   4.378  14.608  1.3183  2.4190  0.2714
  769MPD2     N11411   0.927   4.650  14.936 -0.2858 -0.0431 -0.5315
  769MPD2    H511412   0.846   4.646  14.996  0.6465  2.0624  0.8738
  769MPD2    N111413   0.683   4.310  14.702 -0.1445 -0.4887  0.2715
  769MPD2    H711414   0.683   4.240  14.628  0.7641 -2.0807  1.7914
  770MPD2     C11415   4.636   3.975  15.047  0.4812  0.5433 -0.1172
  770MPD2    C111416   0.030   3.981  15.008  0.0822 -0.1880  0.2098
  770MPD2    C211417   0.066   4.081  14.914  0.0666 -0.3205  0.1834
  770MPD2    C311418   4.707   4.164  14.867  0.1391  0.4007  0.5330
  770MPD2    C411419   4.577   4.161  14.912 -0.1652 -0.1766  0.1486
  770MPD2    C511420   4.542   4.065  15.010 -0.0815 -0.1868  0.3987
  770MPD2     H11421   0.168   4.077  14.878 -0.5251  0.2023 -1.5157
  770MPD2    H111422   4.501   4.226  14.870 -0.7831 -0.6652  0.5189
  770MPD2    H211423   4.606   3.891  15.109  1.0504 -0.4339 -1.1741
  770MPD2    H311424   4.442   4.062  15.053 -0.1538  1.7977  0.3933
  770MPD2     N11425   4.729   4.257  14.756  0.4605  0.0855 -0.0151
  770MPD2    H511426   4.643   4.308  14.738  1.4071  0.6070 -3.1341
  770MPD2    N111427   0.114   3.877  15.053 -0.5533  0.2559 -0.9455
  770MPD2    H711428   0.064   3.804  15.101  0.6625 -1.1915 -1.8961
  771MPD2     C11429   1.763   2.673  13.989 -0.6606  0.0594  0.3384
  771MPD2    C111430   1.699   2.724  13.877 -0.5006  0.4664  0.5023
  771MPD2    C211431   1.622   2.630  13.804 -0.3093  0.3784 -0.5899
  771MPD2    C311432   1.595   2.497  13.839 -0.1060  0.0401  0.2611
  771MPD2    C411433   1.661   2.455  13.948 -0.1019 -0.0931  0.3297
  771MPD2    C511434   1.741   2.546  14.015  0.5993  0.3590  0.0157
  771MPD2     H11435   1.578   2.671  13.714 -4.0166  1.1713  1.5879
  771MPD2    H111436   1.643   2.355  13.985 -1.8505  0.4396  0.9227
  771MPD2    H211437   1.824   2.732  14.055 -0.2958 -0.7925  0.7565
  771MPD2    H311438   1.782   2.524  14.113 -1.0498 -0.9758  0.3952
  771MPD2     N11439   1.506   2.425  13.760 -0.0756 -0.1108  0.7913
  771MPD2    H511440   1.456   2.484  13.694 -0.1320 -0.1778  0.7739
  771MPD2    N111441   1.707   2.855  13.825 -0.3344  0.0997  0.1131
  771MPD2    H711442   1.652   2.883  13.745 -0.7357  1.6039  0.9303
  772MPD2     C11443   1.290   3.308  13.470  1.2739 -0.4346  0.0608
  772MPD2    C111444   1.311   3.223  13.581 -0.1919 -0.4260  0.5564
  772MPD2    C211445   1.204   3.188  13.658 -0.0360  0.1597 -0.3548
  772MPD2    C311446   1.080   3.245  13.631 -0.3487  0.3494 -0.2370
  772MPD2    C411447   1.061   3.316  13.516  0.5390  0.7264  0.6353
  772MPD2    C511448   1.169   3.349  13.433 -0.0101 -0.5039  0.0732
  772MPD2     H11449   1.228   3.135  13.749  2.5190  1.9499  0.0104
  772MPD2    H111450   0.962   3.349  13.487  0.1993  0.7146  1.8033
  772MPD2    H211451   1.372   3.338  13.405  0.8942  0.5096  0.0196
  772MPD2    H311452   1.143   3.409  13.347  0.1020 -0.5127  0.0343
  772MPD2     N11453   0.964   3.226  13.710  0.2611  0.4345 -0.9144
  772MPD2    H511454   0.874   3.263  13.680 -0.2240 -0.3805 -0.4738
  772MPD2    N111455   1.439   3.186  13.618 -0.2674  0.7808  0.5311
  772MPD2    H711456   1.447   3.099  13.669  0.4035  0.8078  0.4736
  773MPD2     C11457   0.262   3.338   0.569  0.6094  0.1777 -0.0614
  773MPD2    C111458   0.178   3.247   0.506 -0.2457 -0.3619 -0.1022
  773MPD2    C211459   0.181   3.118   0.548 -0.1866  0.1230 -0.4362
  773MPD2    C311460   0.273   3.075   0.646  0.5556 -0.0223  0.3679
  773MPD2    C411461   0.340   3.173   0.720  0.1916  0.2685 -0.2160
  773MPD2    C511462   0.332   3.306   0.686  0.3814 -0.0767  0.6078
  773MPD2     H11463   0.127   3.047   0.487 -0.9137  0.3110 -0.0151
  773MPD2    H111464   0.399   3.148   0.807 -0.0105  2.0551  0.4337
  773MPD2    H211465   0.254   3.445   0.550  1.3877  0.2677  0.1070
  773MPD2    H311466   0.382   3.384   0.742  2.0545  0.8887 -2.2409
  773MPD2     N11467   0.280   2.939   0.675 -0.0267 -0.2807  0.3263
  773MPD2    H511468   0.214   2.882   0.624 -0.5658 -0.3386  1.0884
  773MPD2    N111469   0.098   3.271   0.394 -0.4202  0.2709 -0.0387
  773MPD2    H711470   0.021   3.209   0.373 -0.1861 -1.3148  3.7205
  774MPD2     C11471   4.468   2.760  13.611 -0.4926 -0.1383 -0.0562
  774MPD2    C111472   4.469   2.871  13.695  0.0417  0.3846  0.4702
  774MPD2    C211473   4.559   2.969  13.684  0.6069  0.4205 -1.1246
  774MPD2    C311474   4.667   2.955  13.607 -0.0482  1.1336 -0.2630
  774MPD2    C411475   4.671   2.851  13.524 -0.1418  0.0334  0.9003
  774MPD2    C511476   4.577   2.755  13.531 -0.5422  0.4568 -0.8816
  774MPD2     H11477   4.557   3.050  13.757 -3.7362  0.6887 -1.5587
  774MPD2    H111478   0.012   2.843  13.453 -0.8739  3.6894 -0.3507
  774MPD2    H211479   4.392   2.683  13.618 -0.0544 -0.3444  2.1946
  774MPD2    H311480   4.581   2.663  13.475  1.0117 -0.3420  0.5255
  774MPD2     N11481   0.041   3.036  13.627 -0.2952 -0.2403  0.1969
  774MPD2    H511482   0.042   3.097  13.708 -1.8255 -0.7724  0.6102
  774MPD2    N111483   4.375   2.873  13.799  0.1297 -0.3259  0.4299
  774MPD2    H711484   4.325   2.787  13.820 -2.3406  1.5830  2.3265
  775MPD2     C11485   1.241   4.475  15.120  0.4751  0.2437  0.4349
  775MPD2    C111486   1.295   4.525  15.239 -0.4283 -0.5125 -0.2808
  775MPD2    C211487   1.398   4.623  15.241 -0.8011 -1.0954  0.2347
  775MPD2    C311488   1.432   4.687  15.123 -0.0110  0.0242 -0.0046
  775MPD2    C411489   1.371   4.637  15.006 -0.9069  0.0743  0.0177
  775MPD2    C511490   1.287   4.528  15.006  0.1243  0.1727  0.2321
  775MPD2     H11491   1.439   4.658  15.335 -0.8170  3.8575 -1.6401
  775MPD2    H111492   1.391   4.675  14.906 -1.5038 -2.2147 -0.9823
  775MPD2    H211493   1.161   4.402  15.113  0.1851  0.4675  1.3495
  775MPD2    H311494   1.244   4.502  14.910 -0.7715 -1.2297  1.0115
  775MPD2     N11495   1.536   0.042  15.117  0.3594  0.2739 -0.3355
  775MPD2    H511496   1.559   0.080  15.026 -0.0401  0.6528 -0.2773
  775MPD2    N111497   1.233   4.486  15.358 -0.0476  0.3361  1.0275
  775MPD2    H711498   1.164   4.413  15.349  0.5070 -0.3132  2.0266
  776MPD2     C11499   0.288   4.519  12.129 -0.1881  0.2783  0.0503
  776MPD2    C111500   0.223   4.460  12.022  0.4092  0.1505 -0.5127
  776MPD2    C211501   0.172   4.539  11.921  0.1683 -0.8904  0.5539
  776MPD2    C311502   0.188   4.678  11.933 -0.0751  0.9935 -0.0268
  776MPD2    C411503   0.246   4.732  12.044  0.4249 -0.0836 -0.8992
  776MPD2    C511504   0.294   4.657  12.142 -0.2368 -0.0450 -0.3838
  776MPD2     H11505   0.109   4.493  11.846  1.3371  1.7480 -2.0650
  776MPD2    H111506   0.253   0.100  12.050 -0.9723 -0.0619  0.3427
  776MPD2    H211507   0.334   4.457  12.204 -1.2144 -1.7688 -1.0136
  776MPD2    H311508   0.341   4.716  12.220 -0.4978 -1.7469  1.0734
  776MPD2     N11509   0.124   0.026  11.847 -0.4102 -0.2906  0.4609
  776MPD2    H511510   0.135   0.124  11.872 -1.2482 -0.3385  1.0279
  776MPD2    N111511   0.205   4.321  12.032 -0.5633  0.1249 -0.0578
  776MPD2    H711512   0.248   4.267  12.105 -1.9954  0.5473  1.0969
  777MPD2     C11513   4.352   1.802   0.944 -0.1214 -0.4184  0.0314
  777MPD2    C111514   4.486   1.812   0.952 -0.0960  0.0121  0.4196
  777MPD2    C211515   4.567   1.757   0.850  0.2354 -0.3906  0.1209
  777MPD2    C311516   4.503   1.691   0.741 -0.1072 -0.0134 -0.1967
  777MPD2    C411517   4.367   1.683   0.735  0.3807 -0.1748 -0.0147
  777MPD2    C511518   4.296   1.746   0.840 -0.4494 -0.0843  0.0820
  777MPD2     H11519   4.675   1.760   0.857  0.0765  2.9775  1.0165
  777MPD2    H111520   4.313   1.628   0.659 -2.7494 -4.0857  5.0597
  777MPD2    H211521   4.279   1.843   1.013  0.0731 -1.1721  0.6833
  777MPD2    H311522   4.191   1.722   0.853 -1.0677  0.2835 -4.4260
  777MPD2     N11523   4.576   1.624   0.645  0.4402 -0.0447  0.2922
  777MPD2    H511524   4.530   1.553   0.589 -1.7772 -0.1924  2.3089
  777MPD2    N111525   4.541   1.884   1.061 -0.2577 -0.7019 -1.0687
  777MPD2    H711526   4.478   1.946   1.110  1.9464  0.8998 -0.2872
  778MPD2     C11527   1.489   2.786  14.915 -0.0051  0.2634 -0.2635
  778MPD2    C111528   1.498   2.694  14.811 -0.6134  0.3579  0.1002
  778MPD2    C211529   1.592   2.716  14.707 -0.2265 -0.5441  0.1117
  778MPD2    C311530   1.666   2.833  14.697 -0.6399 -0.3177  0.0113
  778MPD2    C411531   1.652   2.925  14.795  0.5478 -0.3203 -0.2282
  778MPD2    C511532   1.570   2.901  14.904  0.1685 -0.0804 -0.3120
  778MPD2     H11533   1.598   2.637  14.632  1.3172 -1.2989  1.0248
  778MPD2    H111534   1.698   3.023  14.794 -0.5658  0.1980 -0.3146
  778MPD2    H211535   1.423   2.775  15.000  0.2209  2.0290  0.1512
  778MPD2    H311536   1.581   2.966  14.989 -1.2618  2.2724 -1.9459
  778MPD2     N11537   1.740   2.858  14.582 -0.6651 -0.3916 -0.0153
  778MPD2    H511538   1.737   2.780  14.518  1.2440 -0.5955  0.1261
  778MPD2    N111539   1.425   2.572  14.811  0.3838  0.1622 -0.0623
  778MPD2    H711540   1.441   2.513  14.730 -3.0176  1.3931 -1.6091
  779MPD2     C11541   0.831   1.530  14.207 -0.0933 -0.4197  0.6108
  779MPD2    C111542   0.953   1.509  14.150  0.6145 -0.4806 -0.1421
  779MPD2    C211543   1.026   1.622  14.116  0.4297 -0.2536  0.1472
  779MPD2    C311544   0.980   1.749  14.132  0.2975 -0.4635 -0.4304
  779MPD2    C411545   0.851   1.772  14.180 -0.0271  0.4637  0.1497
  779MPD2    C511546   0.784   1.659  14.217 -0.2357 -0.1577 -0.0409
  779MPD2     H11547   1.122   1.595  14.073  0.6624 -0.6213  0.8859
  779MPD2    H111548   0.811   1.867  14.212 -0.2968  0.7822 -1.1456
  779MPD2    H211549   0.761   1.454  14.239  1.0768 -2.1133 -0.8678
  779MPD2    H311550   0.684   1.676  14.254 -0.5726 -0.0061 -1.0045
  779MPD2     N11551   1.063   1.855  14.101 -0.1663  0.4524 -0.0349
  779MPD2    H511552   1.154   1.830  14.065  0.0495  0.7113  0.3366
  779MPD2    N111553   1.015   1.380  14.127  0.6460 -0.4038 -0.1703
  779MPD2    H711554   1.103   1.383  14.077  0.5402 -0.6854 -0.3680
  780MPD2     C11555   1.078   0.731   0.850 -0.0893  0.5947 -0.3871
  780MPD2    C111556   0.941   0.718   0.820  0.0658  0.6455  0.3806
  780MPD2    C211557   0.892   0.769   0.702  0.2754 -0.2164  0.4991
  780MPD2    C311558   0.973   0.841   0.613 -1.3294 -0.0504  0.1503
  780MPD2    C411559   1.103   0.865   0.653 -0.2550  0.7489  0.7277
  780MPD2    C511560   1.154   0.806   0.767 -0.8271  0.7375 -0.1780
  780MPD2     H11561   0.787   0.759   0.675  0.5823  1.0114 -1.1857
  780MPD2    H111562   1.181   0.919   0.600 -1.4482  0.8894 -0.8980
  780MPD2    H211563   1.131   0.685   0.932  0.8456  0.9001 -0.8188
  780MPD2    H311564   1.259   0.822   0.788 -0.9141  0.8983  0.1347
  780MPD2     N11565   0.917   0.878   0.483  0.6152  0.2939  0.2709
  780MPD2    H511566   0.834   0.824   0.459  0.7916  0.0139  0.2905
  780MPD2    N111567   0.864   0.646   0.905 -0.5518  0.3162  0.7462
  780MPD2    H711568   0.908   0.592   0.979 -0.5248  0.4230  0.8082
  781MPD2     C11569   2.189   3.524  12.088 -0.3156 -0.0992  0.0172
  781MPD2    C111570   2.290   3.448  12.052  0.2420 -0.5229 -0.3917
  781MPD2    C211571   2.355   3.473  11.931 -0.2192 -0.4860  0.3539
  781MPD2    C311572   2.312   3.580  11.855  0.3015 -0.0762 -0.8169
  781MPD2    C411573   2.205   3.656  11.892  1.6011  0.0578  0.0137
  781MPD2    C511574   2.146   3.627  12.009 -0.0878  0.5166 -0.6632
  781MPD2     H11575   2.444   3.418  11.902 -0.2114  0.2675 -1.0368
  781MPD2    H111576   2.171   3.740  11.834 -1.6844 -1.2208  0.0723
  781MPD2    H211577   2.136   3.508  12.182  1.1891  0.4088  0.9461
  781MPD2    H311578   2.057   3.682  12.036  0.1336  0.2500  0.5992
  781MPD2     N11579   2.380   3.630  11.741 -0.0723  0.4583 -0.0571
  781MPD2    H511580   2.334   3.705  11.691 -1.1538 -1.1348 -1.4733
  781MPD2    N111581   2.348   3.346  12.133 -0.0849  0.1129  0.5513
  781MPD2    H711582   2.426   3.294  12.094  0.4544 -0.1356  1.9459
  782MPD2     C11583   0.302   4.382  10.429 -0.3171  0.6799 -0.0046
  782MPD2    C111584   0.433   4.368  10.466  0.1915 -0.5000 -0.9584
  782MPD2    C211585   0.477   4.443  10.566  0.0935  0.3538  0.7123
  782MPD2    C311586   0.393   4.535  10.628  0.3005  0.0938  0.1327
  782MPD2    C411587   0.258   4.550  10.580 -0.2273 -0.3681  0.4765
  782MPD2    C511588   0.214   4.470  10.479  0.2766 -0.3095 -0.2869
  782MPD2     H11589   0.583   4.432  10.584 -0.6600  1.6696  5.8166
  782MPD2    H111590   0.197   4.628  10.624 -1.1215 -0.3357 -0.8091
  782MPD2    H211591   0.268   4.320  10.347 -2.2849  0.4431  0.9862
  782MPD2    H311592   0.119   4.466  10.427 -0.1609  0.4205  0.4574
  782MPD2     N11593   0.452   4.616  10.730 -0.6662  0.1348 -0.4821
  782MPD2    H511594   0.552   4.607  10.743 -0.5271  0.8039 -1.1084
  782MPD2    N111595   0.521   4.270  10.409  0.0056 -0.3773  0.1992
  782MPD2    H711596   0.614   4.259  10.449  0.7302  1.0329 -1.0780
  783MPD2     C11597   0.084   3.407  10.440 -0.3118 -0.0896  0.2129
  783MPD2    C111598   0.127   3.472  10.557 -0.0809 -0.1759 -0.4718
  783MPD2    C211599   0.230   3.567  10.543 -0.1209  0.4121 -0.1235
  783MPD2    C311600   0.278   3.600  10.418 -0.6402  0.1524  0.1056
  783MPD2    C411601   0.228   3.542  10.304  0.4953 -0.4501  0.5304
  783MPD2    C511602   0.133   3.444  10.319  0.1674 -0.0630  0.8288
  783MPD2     H11603   0.283   3.615  10.624 -0.1280  1.6665 -0.8589
  783MPD2    H111604   0.272   3.557  10.205  1.1902  0.5079  0.9806
  783MPD2    H211605   4.736   3.346  10.449 -1.6893  2.0013  0.9995
  783MPD2    H311606   0.110   3.397  10.224 -0.4982  1.2892  0.3250
  783MPD2     N11607   0.381   3.696  10.413  0.0987 -0.4154 -0.0819
  783MPD2    H511608   0.424   3.726  10.500  2.5930  1.5543 -1.9573
  783MPD2    N111609   0.066   3.435  10.683 -0.1482  0.0124 -0.0691
  783MPD2    H711610   4.731   3.367  10.680  0.3471 -0.6804  2.5897
  784MPD2     C11611   2.843   3.834   0.286  0.3457 -0.0088 -0.1874
  784MPD2    C111612   2.890   3.925   0.370 -0.6236 -0.0787 -0.0851
  784MPD2    C211613   2.823   4.049   0.388 -0.7435 -0.1754 -0.0059
  784MPD2    C311614   2.703   4.076   0.323  0.5615 -0.0476 -0.2965
  784MPD2    C411615   2.664   3.985   0.221  0.2680 -0.0782  0.1577
  784MPD2    C511616   2.742   3.881   0.202  0.7609 -0.0434 -0.8639
  784MPD2     H11617   2.850   4.127   0.457 -4.7136  0.1556  1.1720
  784MPD2    H111618   2.577   3.999   0.158  0.8352 -1.8961 -1.0126
  784MPD2    H211619   2.882   3.735   0.269  2.3230  0.9197 -0.9669
  784MPD2    H311620   2.722   3.822   0.113 -2.1479 -1.3877  0.6945
  784MPD2     N11621   2.637   4.193   0.347  0.5136  0.4205  0.0207
  784MPD2    H511622   2.682   4.260   0.408  1.8604 -1.3336  0.9661
  784MPD2    N111623   3.002   3.901   0.451  0.2367  0.4367  0.1901
  784MPD2    H711624   3.037   3.988   0.490  2.6725  0.0245 -1.0889
  785MPD2     C11625   2.904   3.125  10.801 -0.3331 -0.9404 -0.3580
  785MPD2    C111626   2.854   3.249  10.829 -1.0365  0.1917  0.0986
  785MPD2    C211627   2.715   3.260  10.806 -0.4560  0.3351 -0.0041
  785MPD2    C311628   2.646   3.167  10.731 -1.0831  0.0952 -0.7724
  785MPD2    C411629   2.711   3.056  10.685  0.2609  0.5068 -0.6125
  785MPD2    C511630   2.838   3.035  10.718 -0.0849 -0.3240  0.5734
  785MPD2     H11631   2.663   3.353  10.826 -0.0101  0.2794  1.4056
  785MPD2    H111632   2.656   2.984  10.625 -0.2186  0.2625  0.1169
  785MPD2    H211633   3.007   3.104  10.823 -0.1813 -0.8722 -0.9805
  785MPD2    H311634   2.889   2.941  10.703  0.2748  0.0879 -0.7354
  785MPD2     N11635   2.511   3.187  10.699 -0.3275 -0.1385  0.1263
  785MPD2    H511636   2.473   3.271  10.742 -0.2176 -0.0691  0.0883
  785MPD2    N111637   2.917   3.342  10.908 -0.6389  0.7816  0.0217
  785MPD2    H711638   2.859   3.420  10.937 -1.9936 -0.4047  0.5137
  786MPD2     C11639   2.054   0.569  14.796  0.1008  0.9340 -0.5402
  786MPD2    C111640   2.171   0.496  14.770  0.2488  0.0940  0.0939
  786MPD2    C211641   2.268   0.505  14.873  0.0988 -0.1887 -0.2363
  786MPD2    C311642   2.245   0.580  14.990 -0.0171 -0.2268 -0.1084
  786MPD2    C411643   2.132   0.662  14.999  0.1536  0.1943 -0.0236
  786MPD2    C511644   2.036   0.655  14.903 -0.5074 -0.7370 -0.9858
  786MPD2     H11645   2.361   0.455  14.852 -1.4443 -2.3431 -2.0016
  786MPD2    H111646   2.123   0.726  15.085  0.6031  0.1587  0.0526
  786MPD2    H211647   1.971   0.562  14.727  0.2371  1.4319 -0.7588
  786MPD2    H311648   1.940   0.705  14.919 -0.3435 -0.1991 -1.7122
  786MPD2     N11649   2.337   0.602  15.101  0.4059 -0.0833  0.1210
  786MPD2    H511650   2.294   0.647  15.180 -2.2287 -0.6619 -0.9907
  786MPD2    N111651   2.167   0.409  14.655  0.0694  0.2401  0.1541
  786MPD2    H711652   2.079   0.410  14.606  0.5837  2.0512 -0.7151
  787MPD2     C11653   2.745   4.678  14.382  0.8351  0.0428  0.2333
  787MPD2    C111654   2.679   4.739  14.279 -0.5721 -0.5449  0.4844
  787MPD2    C211655   2.702   4.688  14.152  0.7038  0.4838  0.3862
  787MPD2    C311656   2.776   4.576  14.130  0.3533 -0.1055  0.2994
  787MPD2    C411657   2.849   4.520  14.236  0.4209 -0.5755 -0.1658
  787MPD2    C511658   2.832   4.570  14.360 -0.4993  0.0696  0.0927
  787MPD2     H11659   2.663   4.737  14.064  0.0446  0.2683  0.5571
  787MPD2    H111660   2.922   4.441  14.223 -0.1604 -0.8901 -1.4903
  787MPD2    H211661   2.719   4.699  14.485 -0.4392  2.9059 -0.6736
  787MPD2    H311662   2.886   4.530  14.445  2.0399 -1.7829 -2.3814
  787MPD2     N11663   2.781   4.527  13.997 -0.1563  0.1359 -0.2743
  787MPD2    H511664   2.727   4.586  13.933 -1.7775  0.1712  1.1221
  787MPD2    N111665   2.574   0.096  14.306  0.0829  0.1292 -0.2981
  787MPD2    H711666   2.570   0.131  14.401 -0.4707  0.8233 -0.5752
  788MPD2     C11667   4.007   3.705   0.840  0.0190  0.1272  0.1767
  788MPD2    C111668   3.910   3.663   0.752  0.2014 -0.2820  0.1078
  788MPD2    C211669   3.879   3.734   0.635  0.7001 -0.4100 -0.3014
  788MPD2    C311670   3.942   3.855   0.612  0.0865  0.1647  0.3268
  788MPD2    C411671   4.048   3.889   0.695  1.0200 -0.2057 -0.1825
  788MPD2    C511672   4.076   3.816   0.810  0.2305  0.2665  0.7918
  788MPD2     H11673   3.801   3.706   0.565  2.0368 -1.1679 -1.4930
  788MPD2    H111674   4.100   3.984   0.683  1.1534 -0.0025  1.9462
  788MPD2    H211675   4.024   3.651   0.933  1.1510 -1.3910 -0.9218
  788MPD2    H311676   4.150   3.852   0.880 -1.8614  1.3273  2.4923
  788MPD2     N11677   3.917   3.931   0.499 -0.1190 -0.3121 -0.3006
  788MPD2    H511678   3.991   3.989   0.460  0.8019 -1.5195 -0.3537
  788MPD2    N111679   3.852   3.538   0.781  0.2473  0.1516 -0.3565
  788MPD2    H711680   3.886   3.490   0.864 -0.2723  2.6703  1.2981
  789MPD2     C11681   4.220   2.973  16.755 -0.2448  0.2856 -0.2937
  789MPD2    C111682   4.148   2.972  16.873 -0.7480  0.8262  0.3904
  789MPD2    C211683   4.028   3.046  16.874  0.6422  0.0888  0.9382
  789MPD2    C311684   3.984   3.122  16.764  0.2041  0.2009 -0.4588
  789MPD2    C411685   4.056   3.111  16.641 -0.5859  0.2733 -0.0331
  789MPD2    C511686   4.175   3.036  16.643  0.3483  0.3614 -0.6687
  789MPD2     H11687   3.979   3.042  16.970  0.6328 -0.8578  0.8862
  789MPD2    H111688   4.031   3.165  16.551 -0.1627  0.1418 -0.2326
  789MPD2    H211689   4.311   2.914  16.746 -0.1216 -0.1844  4.0090
  789MPD2    H311690   4.234   3.030  16.552  0.9051  1.4038 -0.3726
  789MPD2     N11691   3.878   3.217  16.778 -0.3406 -0.2787 -0.1808
  789MPD2    H511692   3.862   3.280  16.701  0.1324 -0.4311 -0.4053
  789MPD2    N111693   4.180   2.893  16.980 -0.0960 -0.3767  0.7379
  789MPD2    H711694   4.108   2.890  17.051  0.0450  1.6437  0.9806
  790MPD2     C11695   0.360   0.102  13.529  0.6324  0.3660 -0.0531
  790MPD2    C111696   0.409   4.715  13.488 -1.1379  0.1132  0.1943
  790MPD2    C211697   0.444   4.701  13.356  0.0794 -0.1842  0.0926
  790MPD2    C311698   0.428   0.070  13.275  0.2765 -0.1927  0.0604
  790MPD2    C411699   0.383   0.194  13.311  0.0916 -0.1292  0.8475
  790MPD2    C511700   0.344   0.208  13.444 -0.1794 -0.0871  0.9538
  790MPD2     H11701   0.471   4.608  13.306  0.1413  0.5363 -1.2251
  790MPD2    H111702   0.368   0.282  13.251 -1.7270 -0.0893  1.3340
  790MPD2    H211703   0.320   0.103  13.629  1.8017 -3.1484  0.4725
  790MPD2    H311704   0.293   0.297  13.478 -1.6561 -0.6043  0.0724
  790MPD2     N11705   0.461   0.049  13.142 -0.3617 -0.5220  0.0174
  790MPD2    H511706   0.460   4.694  13.107  0.5189 -1.5892  2.9062
  790MPD2    N111707   0.440   4.618  13.583  0.0393  0.3445  0.3708
  790MPD2    H711708   0.444   4.657  13.677 -1.3381  0.4157  0.3941
  791MPD2     C11709   4.681   4.735  12.536 -0.7496 -0.1930 -0.2571
  791MPD2    C111710   0.005   4.646  12.625 -0.7351  0.3339 -0.0074
  791MPD2    C211711   4.681   4.535  12.672 -0.4912  0.1155 -0.3764
  791MPD2    C311712   4.554   4.518  12.632 -0.1681  0.0664  1.1079
  791MPD2    C411713   4.493   4.603  12.545  0.5062 -0.2694  0.4166
  791MPD2    C511714   4.556   4.711  12.496 -0.1469 -0.2546  0.3606
  791MPD2     H11715   4.721   4.463  12.742 -0.6702  0.6353  0.2581
  791MPD2    H111716   4.394   4.589  12.503  0.3950  0.5159  0.4269
  791MPD2    H211717   4.731   0.080  12.492 -0.8303 -0.0913 -0.1487
  791MPD2    H311718   4.517   0.024  12.410  1.5208  1.5458  0.7263
  791MPD2     N11719   4.486   4.410  12.691  0.2937  0.5114 -0.1210
  791MPD2    H511720   4.541   4.351  12.752 -0.7616 -0.4434 -0.0912
  791MPD2    N111721   0.134   4.688  12.667  0.0545 -0.1390  0.3454
  791MPD2    H711722   0.155   0.047  12.656 -1.0646  0.1648  0.8820
  792MPD2     C11723   0.506   0.118  11.642  0.1776  0.0967 -0.2106
  792MPD2    C111724   0.420   0.192  11.562 -0.1353  0.8033  0.2219
  792MPD2    C211725   0.310   0.128  11.511  0.0436 -0.3029  0.1177
  792MPD2    C311726   0.288   4.732  11.532 -0.3450 -0.5094 -0.2229
  792MPD2    C411727   0.374   4.660  11.609  0.6332 -0.5344 -0.4882
  792MPD2    C511728   0.488   4.723  11.652  0.6494  0.1010  0.3053
  792MPD2     H11729   0.237   0.176  11.446 -0.8699 -3.2251 -1.0104
  792MPD2    H111730   0.351   4.562  11.649  2.9384 -0.5742  0.7388
  792MPD2    H211731   0.596   0.165  11.679  0.2842 -0.7309  0.5851
  792MPD2    H311732   0.556   4.670  11.718 -0.3526 -1.8881 -0.2484
  792MPD2     N11733   0.190   4.651  11.478 -0.6672 -0.2717  0.0033
  792MPD2    H511734   0.195   4.550  11.488 -0.7814 -0.2633  0.1517
  792MPD2    N111735   0.453   0.323  11.529 -0.1275 -0.0709  0.8975
  792MPD2    H711736   0.537   0.354  11.575  0.1628  1.3063 -0.5959
  793MPD2     C11737   4.305   0.124  10.738  0.0149  0.2721 -0.1727
  793MPD2    C111738   4.439   0.122  10.748  0.2232  0.2326  0.3390
  793MPD2    C211739   4.493   0.059  10.858 -0.0554 -0.2754 -0.2861
  793MPD2    C311740   4.418   4.732  10.949 -0.7256 -0.0754  0.0289
  793MPD2    C411741   4.281   0.014  10.951  0.5403 -0.0251  0.5385
  793MPD2    C511742   4.228   0.082  10.846  0.1852 -0.3987 -0.4483
  793MPD2     H11743   4.600   0.047  10.868 -0.0131  0.0544 -0.3519
  793MPD2    H111744   4.215   4.721  11.030  0.9059 -2.0552 -0.0080
  793MPD2    H211745   4.256   0.175  10.656  2.3308  0.9385 -1.1174
  793MPD2    H311746   4.120   0.087  10.835  0.0589  1.9429  1.8013
  793MPD2     N11747   4.491   4.652  11.034 -0.5740  0.3967 -0.1771
  793MPD2    H511748   4.587   4.640  11.003  0.0038  0.2458  1.6790
  793MPD2    N111749   4.536   0.179  10.655  0.0234 -0.5632 -0.2467
  793MPD2    H711750   4.633   0.169  10.682 -0.3607  1.5007  2.0315
  794MPD2     C11751   4.435   3.857  17.660 -0.5432 -0.6285  0.0476
  794MPD2    C111752   4.479   3.750  17.593  0.0161 -0.0709  0.1414
  794MPD2    C211753   4.464   3.754  17.458 -0.3862  0.0003 -0.1626
  794MPD2    C311754   4.408   3.858  17.385  0.1214  0.1323  1.0151
  794MPD2    C411755   4.363   3.966  17.453 -0.8551 -0.8552  0.3837
  794MPD2    C511756   4.386   3.967  17.593 -0.5416 -0.3490  0.4090
  794MPD2     H11757   4.497   3.664  17.407  0.3809 -0.4450  1.1100
  794MPD2    H111758   4.322   4.056  17.409  0.9566 -0.4046 -0.3799
  794MPD2    H211759   4.440   3.860   0.010  0.5456  0.0562 -0.0225
  794MPD2    H311760   4.342   4.049  17.648 -0.3124 -1.3612  2.0890
  794MPD2     N11761   4.377   3.847  17.243 -0.3679 -0.1374  0.5594
  794MPD2    H511762   4.324   3.926  17.209 -0.5322  0.8356  3.0771
  794MPD2    N111763   4.536   3.636  17.655  0.4849 -0.1189  0.1818
  794MPD2    H711764   4.576   3.559  17.603  0.6297  1.6086 -2.2501
  795MPD2     C11765   2.629   1.448  13.208  0.3889 -0.6833 -0.2164
  795MPD2    C111766   2.585   1.323  13.243  0.1441 -1.0321 -0.5115
  795MPD2    C211767   2.659   1.247  13.331 -0.4412  0.1235  0.2716
  795MPD2    C311768   2.785   1.292  13.374 -0.3614  0.2776  0.5936
  795MPD2    C411769   2.836   1.418  13.327 -0.7675 -0.6996  0.0161
  795MPD2    C511770   2.755   1.490  13.239 -0.5975 -0.2339  0.2714
  795MPD2     H11771   2.617   1.160  13.381  0.3124 -1.5295 -1.9947
  795MPD2    H111772   2.925   1.463  13.368  0.0276 -1.9537 -0.3494
  795MPD2    H211773   2.575   1.508  13.135  1.0318  1.0262  0.7325
  795MPD2    H311774   2.795   1.582  13.198  0.6028  0.1647  2.3481
  795MPD2     N11775   2.859   1.213  13.462  0.5513 -0.2366 -0.0025
  795MPD2    H511776   2.812   1.131  13.500  0.2663 -0.8320 -1.6731
  795MPD2    N111777   2.459   1.274  13.208  0.7862 -0.3002 -0.1643
  795MPD2    H711778   2.434   1.183  13.246 -1.4083  0.7608  0.9224
  796MPD2     C11779   1.895   2.552  15.908  0.8212  0.5549 -0.2078
  796MPD2    C111780   1.934   2.606  16.027 -0.6692  0.3516 -0.6009
  796MPD2    C211781   1.977   2.734  16.024  0.4557 -0.1830 -0.7950
  796MPD2    C311782   1.969   2.805  15.904  0.2102  0.5890 -0.0702
  796MPD2    C411783   1.910   2.755  15.793 -0.5446  0.3502 -0.2320
  796MPD2    C511784   1.877   2.629  15.799  0.6892 -0.0387  0.3206
  796MPD2     H11785   2.004   2.787  16.115 -0.6063 -0.7305 -0.1661
  796MPD2    H111786   1.893   2.814  15.704 -1.8189  0.8399  0.3425
  796MPD2    H211787   1.856   2.452  15.895  0.7522  0.4745  0.6169
  796MPD2    H311788   1.837   2.597  15.704 -1.8297 -0.5983  1.5567
  796MPD2     N11789   2.034   2.932  15.896 -0.6598 -0.1001  0.1288
  796MPD2    H511790   2.086   2.944  15.983 -0.1476  3.0125 -0.5831
  796MPD2    N111791   1.940   2.526  16.146  0.5940  0.2253  0.6549
  796MPD2    H711792   1.915   2.428  16.141 -0.6549  0.4698  1.8595
  797MPD2     C11793   2.597   2.310   0.041 -0.4467 -0.4807  0.3021
  797MPD2    C111794   2.665   2.432   0.051  0.2678 -0.6777 -1.0674
  797MPD2    C211795   2.646   2.528  17.717  0.5090  0.4567  0.5533
  797MPD2    C311796   2.547   2.507  17.621  0.2007  0.2065 -0.0162
  797MPD2    C411797   2.475   2.395  17.614  0.3627 -0.4343 -0.4099
  797MPD2    C511798   2.506   2.290  17.698 -0.4717  0.1510  0.0748
  797MPD2     H11799   2.697   2.623  17.728 -1.1512  1.6015 -1.7522
  797MPD2    H111800   2.393   2.383  17.544  0.0540  2.2393 -0.5270
  797MPD2    H211801   2.597   2.237   0.122  2.3909 -1.0675 -0.2363
  797MPD2    H311802   2.438   2.206  17.708 -1.3932  1.0712  1.5564
  797MPD2     N11803   2.536   2.618  17.533 -0.0470 -0.2106 -0.3442
  797MPD2    H511804   2.590   2.698  17.564  0.2043 -0.6168  0.2792
  797MPD2    N111805   2.771   2.451   0.141 -0.0558  0.7954  0.2256
  797MPD2    H711806   2.826   2.536   0.132 -1.8130  2.0638  1.5651
  798MPD2     C11807   3.138   2.888  17.513  0.0282  0.5109  0.1426
  798MPD2    C111808   3.011   2.860  17.554 -0.4455 -0.3003 -0.0421
  798MPD2    C211809   2.994   2.793  17.671  0.5184 -0.7180  0.0991
  798MPD2    C311810   3.107   2.769  17.753 -0.5999  0.1747 -0.1387
  798MPD2    C411811   3.236   2.797  17.713  0.8981 -0.3659  0.0365
  798MPD2    C511812   3.240   2.865  17.594  0.1630  1.2104  0.1790
  798MPD2     H11813   2.897   2.758  17.707 -1.7970  2.4067 -3.0803
  798MPD2    H111814   3.329   2.768   0.001  0.9155 -1.2859 -0.5748
  798MPD2    H211815   3.162   2.936  17.420  3.3085 -2.8506 -0.7616
  798MPD2    H311816   3.337   2.899  17.559  0.8334 -1.2244 -0.3924
  798MPD2     N11817   3.084   2.693   0.107 -0.0666 -0.3007 -0.1657
  798MPD2    H511818   2.987   2.685   0.136 -0.0393  0.0526  0.0312
  798MPD2    N111819   2.906   2.890  17.465 -0.1034 -0.0390  0.6208
  798MPD2    H711820   2.932   2.917  17.371  3.1151 -1.7486  1.0132
  799MPD2     C11821   2.492   4.297  14.484 -0.2045 -0.1481  0.2885
  799MPD2    C111822   2.425   4.224  14.389 -0.8224  0.4480  0.1414
  799MPD2    C211823   2.372   4.291  14.281 -0.0379 -0.2037 -0.1347
  799MPD2    C311824   2.405   4.421  14.252  0.6067 -0.2406  0.3431
  799MPD2    C411825   2.462   4.495  14.353  0.3494 -0.0515  0.4263
  799MPD2    C511826   2.508   4.429  14.467 -0.5297  0.1044 -0.1188
  799MPD2     H11827   2.317   4.229  14.212 -0.7038  1.3121 -0.9576
  799MPD2    H111828   2.466   4.603  14.354  2.8140 -0.1442 -0.2667
  799MPD2    H211829   2.528   4.254  14.577  0.0087  2.1535  1.2762
  799MPD2    H311830   2.568   4.478  14.544  1.9949  0.4959 -2.3239
  799MPD2     N11831   2.381   4.486  14.128 -0.0338  0.2428 -0.1250
  799MPD2    H511832   2.411   4.582  14.117  0.3128  0.0062 -1.2521
  799MPD2    N111833   2.389   4.088  14.410 -0.1582  0.0919  0.1543
  799MPD2    H711834   2.316   4.059  14.346 -1.8116 -0.4411  2.2868
  800MPD2     C11835   2.254   0.687  14.103 -0.5926  0.1743  0.2002
  800MPD2    C111836   2.378   0.628  14.102 -0.0469 -0.1196 -0.3052
  800MPD2    C211837   2.388   0.498  14.058  0.9245  0.8814  0.2861
  800MPD2    C311838   2.288   0.436  13.998 -0.0917  0.2552 -0.2825
  800MPD2    C411839   2.164   0.497  13.998 -0.0953  1.2907 -0.2631
  800MPD2    C511840   2.142   0.623  14.050  0.1193 -0.1841 -0.9132
  800MPD2     H11841   2.487   0.454  14.065  0.5794  0.5160  2.6823
  800MPD2    H111842   2.076   0.448  13.957 -1.1484  3.4664 -0.6272
  800MPD2    H211843   2.254   0.788  14.143 -1.6760  0.4960 -0.6149
  800MPD2    H311844   2.042   0.663  14.042  0.7974  1.8997  1.1786
  800MPD2     N11845   2.325   0.312  13.935 -0.4336 -0.4004  0.3041
  800MPD2    H511846   2.425   0.292  13.938 -0.8831 -2.6368  0.1731
  800MPD2    N111847   2.496   0.711  14.137  0.1660  0.4292  0.1860
  800MPD2    H711848   2.489   0.798  14.188 -3.0439  1.3503 -1.8363
  801MPD2     C11849   2.642   1.388  14.170 -0.1746  0.2110 -0.0633
  801MPD2    C111850   2.613   1.284  14.254 -0.4359 -0.5016 -0.5171
  801MPD2    C211851   2.515   1.304  14.350  0.1537 -0.6353 -0.3504
  801MPD2    C311852   2.447   1.426  14.356 -0.4063 -0.6685 -0.7781
  801MPD2    C411853   2.484   1.524  14.273 -0.6010  0.1047  0.9347
  801MPD2    C511854   2.579   1.508  14.180  0.2730 -0.0817  0.4544
  801MPD2     H11855   2.487   1.223  14.416 -1.2044  0.9922  1.0555
  801MPD2    H111856   2.460   1.629  14.286  1.0244  0.4954  0.7434
  801MPD2    H211857   2.721   1.375  14.097  1.5616 -0.7671  1.9891
  801MPD2    H311858   2.596   1.587  14.107 -1.6857 -1.2712 -1.3143
  801MPD2     N11859   2.345   1.440  14.455 -0.1010 -0.3247 -1.1506
  801MPD2    H511860   2.342   1.375  14.533 -0.5853 -1.3984 -2.0678
  801MPD2    N111861   2.674   1.158  14.249  0.1862 -0.5960  0.3561
  801MPD2    H711862   2.642   1.095  14.322  0.1862 -2.0331 -0.8820
  802MPD2     C11863   1.881   1.854   0.358 -0.6174  0.1403  0.0586
  802MPD2    C111864   1.781   1.808   0.270 -0.5984 -0.5889 -0.0212
  802MPD2    C211865   1.813   1.705   0.183 -0.8275  0.3811 -0.4263
  802MPD2    C311866   1.936   1.647   0.189  0.1258  0.0651 -0.2054
  802MPD2    C411867   2.026   1.677   0.287 -0.2237 -0.8064  0.1679
  802MPD2    C511868   1.996   1.780   0.371 -0.0080  0.1910 -0.9500
  802MPD2     H11869   1.741   1.682   0.105 -1.1611  0.5678 -0.1704
  802MPD2    H111870   2.127   1.645   0.309 -1.2123 -2.2507  2.6322
  802MPD2    H211871   1.859   1.916   0.444 -1.3018  0.5306 -0.3954
  802MPD2    H311872   2.065   1.815   0.446 -0.6325 -0.0258 -0.2734
  802MPD2     N11873   1.964   1.563   0.073  0.3815  0.8316  0.3612
  802MPD2    H511874   1.900   1.539  17.756 -1.7470  2.3886  1.6624
  802MPD2    N111875   1.652   1.856   0.271 -0.0335  0.4390 -0.3890
  802MPD2    H711876   1.588   1.823   0.200  0.1774 -0.7341 -0.0347
  803MPD2     C11877   3.677   4.458  12.052 -0.1581 -0.3583  0.1518
  803MPD2    C111878   3.536   4.479  12.056  0.5794 -0.0231  0.2029
  803MPD2    C211879   3.455   4.391  12.136  0.1669 -0.2234 -0.0860
  803MPD2    C311880   3.513   4.296  12.222  0.7746 -0.2135  0.1367
  803MPD2    C411881   3.647   4.287  12.218  0.5046 -0.3612  0.2930
  803MPD2    C511882   3.730   4.364  12.138 -0.1615  0.3960  0.0712
  803MPD2     H11883   3.346   4.395  12.136  0.1998  0.7943 -0.7091
  803MPD2    H111884   3.688   4.220  12.292  0.3180 -0.7649  0.0320
  803MPD2    H211885   3.738   4.520  11.988  3.5703 -1.4211  2.6860
  803MPD2    H311886   3.834   4.335  12.145 -0.5841 -1.0701  0.1741
  803MPD2     N11887   3.444   4.213  12.312  0.0980  0.2202 -0.2051
  803MPD2    H511888   3.497   4.142  12.360  0.1643 -0.2143 -0.9307
  803MPD2    N111889   3.470   4.585  11.982 -0.3544  0.3319 -0.1823
  803MPD2    H711890   3.369   4.592  11.991 -0.3120 -1.2723  1.4441
  804MPD2     C11891   2.686   1.160  16.655 -0.3911  0.3605 -0.5298
  804MPD2    C111892   2.673   1.173  16.792  0.5335  0.3968  0.0667
  804MPD2    C211893   2.749   1.272  16.856  0.0158 -0.1972  0.2804
  804MPD2    C311894   2.851   1.338  16.785  0.0800  0.3756  0.5900
  804MPD2    C411895   2.875   1.312  16.654  0.0905 -0.4027 -0.3734
  804MPD2    C511896   2.792   1.232  16.586  0.2147  0.8267 -0.8488
  804MPD2     H11897   2.728   1.298  16.958 -0.0996  0.1569  0.1637
  804MPD2    H111898   2.952   1.367  16.601  1.0515  0.3640  1.8557
  804MPD2    H211899   2.631   1.092  16.591 -0.5541  0.7813 -0.8405
  804MPD2    H311900   2.790   1.230  16.477 -1.8162  0.6633 -0.7987
  804MPD2     N11901   2.919   1.443  16.855 -0.0157 -0.1436 -0.0863
  804MPD2    H511902   2.880   1.479  16.942  0.7089  1.8916 -0.6022
  804MPD2    N111903   2.592   1.080  16.875 -0.3883  0.0495 -0.3800
  804MPD2    H711904   2.582   1.105  16.972 -0.5582 -0.7533 -0.1944
  805MPD2     C11905   1.561   4.221  15.689  0.6009 -0.1600 -0.6562
  805MPD2    C111906   1.649   4.260  15.594  0.4535  0.1562 -0.5164
  805MPD2    C211907   1.777   4.306  15.625  0.2008  0.5896 -0.3717
  805MPD2    C311908   1.819   4.302  15.756  0.6141  0.2529 -0.0265
  805MPD2    C411909   1.729   4.263  15.856 -0.6000 -0.0168 -0.1110
  805MPD2    C511910   1.600   4.225  15.825  0.1623  0.0425  0.0967
  805MPD2     H11911   1.846   4.330  15.545  1.2872 -0.9915  0.1049
  805MPD2    H111912   1.748   4.281  15.962 -0.6048  0.4347 -0.1863
  805MPD2    H211913   1.463   4.181  15.666  0.9231 -0.9227 -0.6971
  805MPD2    H311914   1.533   4.197  15.906  2.1140 -2.4550  0.8265
  805MPD2     N11915   1.947   4.351  15.778 -0.7055  0.3026  0.2552
  805MPD2    H511916   1.984   4.392  15.692 -1.0094  0.7318  0.3301
  805MPD2    N111917   1.630   4.263  15.456 -0.6438 -0.4404  0.8230
  805MPD2    H711918   1.708   4.294  15.399 -1.0040 -2.9436 -1.0219
  806MPD2     C11919   1.403   3.904   0.516  0.1153  0.2710  0.3468
  806MPD2    C111920   1.541   3.906   0.541  0.1450  0.2216  0.0716
  806MPD2    C211921   1.617   4.003   0.476  0.2004 -0.1920  0.3140
  806MPD2    C311922   1.558   4.101   0.396  0.3155  0.3067 -0.0865
  806MPD2    C411923   1.420   4.101   0.376 -0.0195 -0.8113 -0.1919
  806MPD2    C511924   1.348   3.997   0.428 -0.3056  0.5204 -1.1561
  806MPD2     H11925   1.725   3.998   0.478  0.1062 -2.5333 -0.9351
  806MPD2    H111926   1.370   4.177   0.318  2.2073 -0.7575 -2.0583
  806MPD2    H211927   1.336   3.834   0.564  0.5841  1.2423  2.4296
  806MPD2    H311928   1.240   4.000   0.423 -0.3775 -2.4921 -1.1925
  806MPD2     N11929   1.647   4.191   0.331 -0.4629  0.3612 -0.0730
  806MPD2    H511930   1.747   4.181   0.342 -0.5516 -0.3758  0.0692
  806MPD2    N111931   1.592   3.814   0.640  1.0823  0.5708  0.4133
  806MPD2    H711932   1.522   3.754   0.683  2.2473 -1.3142 -0.2993
  807MPD2     C11933   1.400   3.223   1.084 -0.1649  0.1234  0.4081
  807MPD2    C111934   1.528   3.230   1.111 -0.5379 -1.6632 -0.0020
  807MPD2    C211935   1.583   3.135   1.190  0.9966 -0.0485  0.0555
  807MPD2    C311936   1.505   3.038   1.257  0.1825 -0.1801  0.5025
  807MPD2    C411937   1.369   3.034   1.228  0.5520  0.0949 -0.9242
  807MPD2    C511938   1.317   3.123   1.141  0.5086  0.1590 -0.9545
  807MPD2     H11939   1.691   3.128   1.198  0.9042  0.1788  1.5332
  807MPD2    H111940   1.309   2.953   1.268 -0.4599  1.6852  0.7655
  807MPD2    H211941   1.359   3.295   1.014  2.0220 -0.7613 -1.7742
  807MPD2    H311942   1.213   3.129   1.112  0.0933 -1.7828  0.1084
  807MPD2     N11943   1.567   2.946   1.348  0.5476 -0.1913  0.8028
  807MPD2    H511944   1.665   2.963   1.367  0.9412  2.0009 -3.0854
  807MPD2    N111945   1.610   3.326   1.055 -0.0857 -0.7488 -0.1642
  807MPD2    H711946   1.704   3.319   1.093 -0.2939  1.3093  0.6961
  808MPD2     C11947   2.395   1.281   9.513 -0.9275 -0.4835 -0.7317
  808MPD2    C111948   2.433   1.297   9.645  1.0953  0.8122  0.5656
  808MPD2    C211949   2.514   1.409   9.672  0.1291  0.2490 -0.3895
  808MPD2    C311950   2.560   1.493   9.571 -0.1053 -0.0439 -0.0210
  808MPD2    C411951   2.516   1.475   9.441  0.4896  0.2286  0.1369
  808MPD2    C511952   2.441   1.363   9.414 -0.4724 -0.4045 -0.1813
  808MPD2     H11953   2.539   1.426   9.776  0.2552  1.0753 -0.5544
  808MPD2    H111954   2.540   1.541   9.358 -0.5034 -1.7534 -1.7131
  808MPD2    H211955   2.332   1.197   9.488 -0.5799 -0.7259 -0.7776
  808MPD2    H311956   2.425   1.334   9.311 -2.8990  0.6397 -0.0902
  808MPD2     N11957   2.640   1.607   9.592 -0.0568 -0.6094 -0.2930
  808MPD2    H511958   2.672   1.651   9.506  1.7283 -0.5155  0.4178
  808MPD2    N111959   2.406   1.209   9.749 -1.1088  0.4307 -0.0034
  808MPD2    H711960   2.439   1.223   9.844  0.6251  0.1996 -0.5591
  809MPD2     C11961   3.382   1.388   9.341 -0.1743 -0.3150 -0.3798
  809MPD2    C111962   3.287   1.329   9.420  0.4861 -1.1033  0.4102
  809MPD2    C211963   3.193   1.412   9.477  0.1285  0.3600  0.1593
  809MPD2    C311964   3.197   1.552   9.460  0.3322  0.4385 -0.3031
  809MPD2    C411965   3.292   1.601   9.378  0.3186  0.3754  1.1417
  809MPD2    C511966   3.372   1.520   9.306 -0.8739 -0.0436 -0.1233
  809MPD2     H11967   3.106   1.375   9.530  1.6386 -2.7474  0.3953
  809MPD2    H111968   3.319   1.705   9.365  0.8022  0.1917  0.6601
  809MPD2    H211969   3.471   1.336   9.306 -0.9926 -0.3758 -2.4046
  809MPD2    H311970   3.455   1.562   9.251 -0.9212  2.1287  1.4971
  809MPD2     N11971   3.095   1.632   9.512  0.2670 -0.4341 -0.3107
  809MPD2    H511972   3.029   1.577   9.566  0.4812  0.5658  0.9888
  809MPD2    N111973   3.276   1.191   9.454 -0.0876 -0.1498  0.1938
  809MPD2    H711974   3.201   1.172   9.520 -2.0079  0.0981 -1.9355
  810MPD2     C11975   2.269   0.717  10.869  0.8023 -0.2712  0.2852
  810MPD2    C111976   2.139   0.740  10.833  0.3995  0.0866 -0.2332
  810MPD2    C211977   2.091   0.876  10.833 -0.7080  0.6648  0.1304
  810MPD2    C311978   2.174   0.980  10.874 -0.0606  0.3265 -0.3167
  810MPD2    C411979   2.302   0.947  10.904  0.1568  0.2043 -0.0201
  810MPD2    C511980   2.353   0.818  10.898  0.3522 -0.3284 -0.2742
  810MPD2     H11981   1.991   0.897  10.794 -0.1950  0.5632 -1.2511
  810MPD2    H111982   2.367   1.026  10.941 -0.3743 -0.6713  2.7650
  810MPD2    H211983   2.308   0.616  10.879  2.3216  0.5094  2.0004
  810MPD2    H311984   2.459   0.805  10.919  0.2558  0.4974  0.7376
  810MPD2     N11985   2.138   1.117  10.871  0.7579  0.1838 -0.0061
  810MPD2    H511986   2.214   1.177  10.902  0.9560 -0.3332  0.5061
  810MPD2    N111987   2.056   0.635  10.788  0.3381 -0.1350 -0.4276
  810MPD2    H711988   1.961   0.657  10.756  0.9157  1.8132 -0.8019
  811MPD2     C11989   1.400   0.633  10.356  0.4648  0.2173  0.8988
  811MPD2    C111990   1.505   0.669  10.432  0.1435 -0.0476 -0.2182
  811MPD2    C211991   1.538   0.805  10.437  0.2985 -0.3440 -0.2810
  811MPD2    C311992   1.476   0.904  10.356 -0.9430  0.2354 -0.2063
  811MPD2    C411993   1.362   0.863  10.289 -0.0005 -0.2422  0.2397
  811MPD2    C511994   1.327   0.727  10.283  0.1255  0.8528  1.2001
  811MPD2     H11995   1.619   0.843  10.498 -0.3303  0.6303 -0.0573
  811MPD2    H111996   1.299   0.933  10.235 -0.2750 -0.2762  0.5177
  811MPD2    H211997   1.376   0.527  10.356 -0.1367  0.3584  0.4374
  811MPD2    H311998   1.236   0.690  10.236  1.6269 -1.1447 -0.1174
  811MPD2     N11999   1.538   1.031  10.342  0.7269 -0.2746 -0.3678
  811MPD2    H512000   1.623   1.043  10.395  0.3009  0.6273  0.1108
  811MPD2    N112001   1.583   0.569  10.503 -0.2560 -0.2080  0.3560
  811MPD2    H712002   1.552   0.475  10.483 -0.4513 -0.1627  0.4503
  812MPD2     C12003   1.402   0.161  11.998  0.6537  0.0862  0.2542
  812MPD2    C112004   1.273   0.202  12.026 -0.1374 -0.2465  0.0201
  812MPD2    C212005   1.217   0.167  12.151  0.3231 -1.0906  0.1411
  812MPD2    C312006   1.287   0.096  12.249 -0.4491  0.4267  0.3097
  812MPD2    C412007   1.410   0.057  12.217 -0.3031  0.4034  0.2742
  812MPD2    C512008   1.471   0.096  12.102  0.4656 -0.1249  0.2181
  812MPD2     H12009   1.120   0.205  12.181  0.3576  0.3140 -1.5224
  812MPD2    H112010   1.466   0.017  12.300  0.6651  0.2979 -0.4248
  812MPD2    H212011   1.453   0.191  11.907  0.6172 -0.6510 -0.0053
  812MPD2    H312012   1.578   0.082  12.100  0.5680  0.7708 -0.5703
  812MPD2     N12013   1.214   0.049  12.358 -0.6019 -1.4909 -0.2419
  812MPD2    H512014   1.113   0.061  12.354 -0.7213 -2.3420  0.3106
  812MPD2    N112015   1.197   0.287  11.943 -0.3319  0.2779  0.3064
  812MPD2    H712016   1.229   0.321  11.853 -0.1452  0.6613  0.5219
  813MPD2     C12017   0.199   1.482  12.950  0.2724  1.0603 -0.6917
  813MPD2    C112018   0.242   1.607  12.984 -0.0465  0.4547  0.2783
  813MPD2    C212019   0.199   1.658  13.106 -0.3210  0.1935  0.5893
  813MPD2    C312020   0.124   1.578  13.200  0.5053 -0.7917 -0.2478
  813MPD2    C412021   0.089   1.454  13.158  0.3719 -0.2166 -1.0758
  813MPD2    C512022   0.123   1.408  13.034 -0.0671  0.5047 -0.3409
  813MPD2     H12023   0.238   1.755  13.133 -0.5345  0.3907  0.1892
  813MPD2    H112024   0.027   1.398  13.227 -0.3301  0.3180 -1.2622
  813MPD2    H212025   0.221   1.442  12.851  0.6111 -0.6879  0.0952
  813MPD2    H312026   0.091   1.308  13.004  0.1472  1.0829 -2.5167
  813MPD2     N12027   0.093   1.623  13.331 -0.5448 -0.1495 -0.5348
  813MPD2    H512028   0.138   1.704  13.372 -0.4778 -1.4141  1.8463
  813MPD2    N112029   0.337   1.662  12.892 -0.2785  0.8627 -0.7798
  813MPD2    H712030   0.357   1.614  12.804  0.5962  0.8160 -0.5572
  814MPD2     C12031   1.279   3.085  12.847  0.6367 -0.4237 -0.3789
  814MPD2    C112032   1.238   3.170  12.740  0.2151  0.0737  0.0499
  814MPD2    C212033   1.237   3.309  12.762 -0.3541 -0.1576 -0.2387
  814MPD2    C312034   1.261   3.369  12.890 -0.3366 -0.5466 -0.1013
  814MPD2    C412035   1.284   3.281  12.989 -0.1060 -0.1207 -0.3959
  814MPD2    C512036   1.292   3.146  12.965 -0.1405 -0.7154 -0.3902
  814MPD2     H12037   1.218   3.367  12.673 -2.2863 -1.3928 -0.6443
  814MPD2    H112038   1.300   3.322  13.088  0.0097 -0.6881 -0.1824
  814MPD2    H212039   1.281   2.977  12.845  0.3641 -0.4690  3.1111
  814MPD2    H312040   1.321   3.088  13.052 -0.6072 -3.3899 -2.0392
  814MPD2     N12041   1.256   3.508  12.918  0.7371 -0.1775 -0.2199
  814MPD2    H512042   1.267   3.544  13.012 -0.3431  0.5218 -0.3659
  814MPD2    N112043   1.192   3.125  12.616  0.5260 -0.5353 -0.0535
  814MPD2    H712044   1.166   3.192  12.544 -1.7022 -0.7093  0.6104
  815MPD2     C12045   1.136   1.920  12.244  0.1106  0.8127  0.3587
  815MPD2    C112046   1.116   1.808  12.162 -0.0890  0.0359 -0.5732
  815MPD2    C212047   1.016   1.721  12.210 -0.2564 -0.1052 -0.3125
  815MPD2    C312048   0.955   1.724  12.333  0.2458  0.0800 -0.6955
  815MPD2    C412049   0.988   1.831  12.413  0.3305  1.2189  0.8140
  815MPD2    C512050   1.069   1.932  12.360  0.4935  0.0342  0.1299
  815MPD2     H12051   0.989   1.636  12.149  1.0153  0.3089 -1.4459
  815MPD2    H112052   0.942   1.855  12.508 -1.1036 -1.6835  0.8427
  815MPD2    H212053   1.205   1.998  12.215 -1.3169  2.6528  1.9558
  815MPD2    H312054   1.077   2.019  12.425  0.1552  1.2904 -1.5345
  815MPD2     N12055   0.866   1.624  12.364  0.1841  0.1875  0.7895
  815MPD2    H512056   0.879   1.543  12.304 -0.9396 -0.7167  1.7632
  815MPD2    N112057   1.176   1.784  12.041  1.3175  0.2535 -0.5159
  815MPD2    H712058   1.147   1.701  11.991  1.1603 -0.8405  1.3904
  816MPD2     C12059   0.629   0.680  16.972 -0.2974  0.5425  0.1947
  816MPD2    C112060   0.731   0.740  17.041  0.9200 -0.3989  0.3545
  816MPD2    C212061   0.863   0.718  16.999 -0.3726 -0.7751  0.9434
  816MPD2    C312062   0.893   0.635  16.891  0.7637  0.1911 -0.6887
  816MPD2    C412063   0.786   0.566  16.834 -0.4359 -0.1025 -0.7583
  816MPD2    C512064   0.658   0.586  16.872  0.4631  0.0894  0.4596
  816MPD2     H12065   0.942   0.771  17.051 -0.3332  0.0386  0.0578
  816MPD2    H112066   0.800   0.498  16.750 -2.8369  0.4918 -1.6513
  816MPD2    H212067   0.524   0.695  16.995 -0.1284  0.4866  0.9725
  816MPD2    H312068   0.581   0.530  16.821 -2.2388  2.8067  1.5231
  816MPD2     N12069   1.030   0.616  16.854 -0.3062 -0.0422 -0.7541
  816MPD2    H512070   1.099   0.681  16.890 -1.0976  0.7719 -0.7236
  816MPD2    N112071   0.689   0.843  17.129 -0.5197 -0.0285 -0.3971
  816MPD2    H712072   0.591   0.870  17.125 -0.9224 -1.1299  1.5712
  817MPD2     C12073   0.634   2.992   9.669  0.6526  0.0316 -0.0910
  817MPD2    C112074   0.518   2.927   9.630 -0.5197 -0.2941 -0.0140
  817MPD2    C212075   0.416   3.004   9.587 -0.0674 -0.0047 -0.0150
  817MPD2    C312076   0.421   3.141   9.569  0.2356  0.2128  0.2514
  817MPD2    C412077   0.539   3.201   9.604  0.1259  0.1884 -0.3788
  817MPD2    C512078   0.643   3.124   9.645  0.1187  0.0404  0.4337
  817MPD2     H12079   0.325   2.958   9.551 -0.0403 -1.1756  1.4232
  817MPD2    H112080   0.564   3.306   9.593  2.0782 -0.1681  0.6542
  817MPD2    H212081   0.718   2.934   9.706  1.3346  0.7093 -0.5916
  817MPD2    H312082   0.738   3.174   9.659  0.8830 -1.6099  1.0729
  817MPD2     N12083   0.308   3.218   9.517  0.0036 -0.2961  0.3072
  817MPD2    H512084   0.227   3.161   9.495  1.4412 -1.6530 -1.4658
  817MPD2    N112085   0.501   2.787   9.639  0.1475 -0.5290  0.1506
  817MPD2    H712086   0.409   2.745   9.634  0.4113 -1.0968  0.0862
  818MPD2     C12087   4.320   2.896  10.321 -0.2728 -0.3829  0.0371
  818MPD2    C112088   4.195   2.839  10.317 -0.0436 -0.2101  0.0503
  818MPD2    C212089   4.178   2.722  10.243 -0.6190 -0.3639 -0.4520
  818MPD2    C312090   4.281   2.670  10.175 -0.5631  0.4151 -0.0742
  818MPD2    C412091   4.400   2.741  10.168 -0.0531  0.1374 -0.2824
  818MPD2    C512092   4.416   2.859  10.230  0.1999  0.5368  0.2767
  818MPD2     H12093   4.080   2.676  10.234 -0.4307 -1.2036  1.6902
  818MPD2    H112094   4.479   2.706  10.103 -0.3267 -2.3982  0.7637
  818MPD2    H212095   4.346   2.970  10.396 -0.4158  0.0300 -0.3235
  818MPD2    H312096   4.512   2.911  10.230  2.1884 -3.1751  3.6413
  818MPD2     N12097   4.272   2.541  10.116  0.0647 -0.6065 -0.5066
  818MPD2    H512098   4.361   2.496  10.102  0.4356  0.6783 -2.2552
  818MPD2    N112099   4.091   2.893  10.403  0.0509  0.6270 -0.5347
  818MPD2    H712100   4.015   2.826  10.415 -0.6281  1.3821 -0.6271
  819MPD2     C12101   2.821   4.256  15.667 -0.2889  0.1181  0.1876
  819MPD2    C112102   2.738   4.151  15.687 -0.4280  0.0693  1.2049
  819MPD2    C212103   2.772   4.064  15.791  0.0005 -0.1249 -0.9713
  819MPD2    C312104   2.896   4.073  15.850 -0.9903  0.3567 -0.2713
  819MPD2    C412105   2.982   4.176  15.822  0.8295 -0.0060  0.1522
  819MPD2    C512106   2.936   4.266  15.732 -0.1744 -0.0904  0.2345
  819MPD2     H12107   2.704   3.984  15.819  0.4245 -0.1575 -0.0598
  819MPD2    H112108   3.080   4.194  15.866  0.0745 -0.6287  2.0913
  819MPD2    H212109   2.802   4.336  15.596  0.6989  0.2874  0.1182
  819MPD2    H312110   2.998   4.348  15.701 -1.8238  1.9517  2.3026
  819MPD2     N12111   2.936   3.960  15.919  0.1422 -0.3368 -0.1765
  819MPD2    H512112   2.867   3.885  15.916  1.3236 -1.3330 -2.1928
  819MPD2    N112113   2.612   4.156  15.616 -0.2501  0.3662 -0.7126
  819MPD2    H712114   2.600   4.236  15.556  0.2380  1.0951  0.1629
  820MPD2     C12115   2.059   4.531  15.031  0.1374 -0.3587 -0.1916
  820MPD2    C112116   1.981   4.483  15.131 -0.6902 -0.0663  0.4694
  820MPD2    C212117   2.037   4.441  15.252  0.0408 -0.2186  0.1077
  820MPD2    C312118   2.175   4.442  15.268 -0.0792  0.4374 -0.1253
  820MPD2    C412119   2.251   4.502  15.166 -0.5296  0.1385  0.0816
  820MPD2    C512120   2.199   4.548  15.049 -1.0116  0.1650 -0.2378
  820MPD2     H12121   1.978   4.407  15.336  0.0449 -0.6954 -0.0796
  820MPD2    H112122   2.357   4.515  15.182 -0.8599  0.5518  1.9863
  820MPD2    H212123   2.023   4.575  14.938 -0.6283  0.0803  0.3111
  820MPD2    H312124   2.262   4.581  14.968 -0.8263  1.0140  0.2535
  820MPD2     N12125   2.240   4.384  15.384 -0.2074  0.4538  0.2937
  820MPD2    H512126   2.339   4.366  15.380 -0.2086  0.1327  1.7974
  820MPD2    N112127   1.849   4.448  15.126 -0.5333  0.4290  0.2653
  820MPD2    H712128   1.813   4.407  15.212 -1.9950 -0.3413 -0.7200
  821MPD2     C12129   2.420   0.507  13.175  0.0997  0.7823 -0.3504
  821MPD2    C112130   2.525   0.428  13.218 -0.6732  0.0424 -0.0041
  821MPD2    C212131   2.636   0.413  13.137 -0.8696 -0.5811 -0.3257
  821MPD2    C312132   2.650   0.502  13.024  0.6103  0.1694 -0.5897
  821MPD2    C412133   2.548   0.590  12.986  0.1770  0.3132  0.1657
  821MPD2    C512134   2.438   0.594  13.067  0.0954 -0.4141 -0.0339
  821MPD2     H12135   2.713   0.343  13.168 -1.0023 -0.5510  0.0725
  821MPD2    H112136   2.559   0.665  12.909 -0.3898 -1.7151 -1.9061
  821MPD2    H212137   2.326   0.523  13.227  0.9269  1.7357  0.8641
  821MPD2    H312138   2.364   0.672  13.056  1.4665  0.7636 -0.9268
  821MPD2     N12139   2.772   0.522  12.955 -0.1199  0.3361 -0.5412
  821MPD2    H512140   2.793   0.603  12.896 -0.7437  1.5496  0.9107
  821MPD2    N112141   2.524   0.358  13.341 -0.5576  0.5341 -0.5036
  821MPD2    H712142   2.606   0.300  13.354 -1.0962 -0.4822 -1.6242
  822MPD2     C12143   3.647   0.669  15.822  0.3708 -0.2448 -0.5305
  822MPD2    C112144   3.608   0.612  15.941 -0.5487 -0.9909  0.2900
  822MPD2    C212145   3.487   0.653  15.991 -0.0448 -0.4915 -0.0600
  822MPD2    C312146   3.413   0.758  15.942  0.3834 -0.1383  1.0533
  822MPD2    C412147   3.458   0.820  15.830 -1.1363  0.3284  0.0956
  822MPD2    C512148   3.567   0.766  15.768  0.4075 -0.0988  0.6248
  822MPD2     H12149   3.465   0.605  16.085 -0.1621 -1.5826 -0.6431
  822MPD2    H112150   3.401   0.904  15.792 -0.6470  1.5544  2.0584
  822MPD2    H212151   3.745   0.647  15.781  0.9911 -0.8689  1.2920
  822MPD2    H312152   3.605   0.818  15.680  0.8497  0.4919  1.1676
  822MPD2     N12153   3.311   0.811  16.024 -0.0190  0.1609 -0.4078
  822MPD2    H512154   3.287   0.755  16.105 -2.3754  1.2242 -0.3942
  822MPD2    N112155   3.674   0.512  16.012  0.4075  0.1319  0.1775
  822MPD2    H712156   3.627   0.489  16.099 -3.8653 -0.9509 -2.3718
  823MPD2     C12157   2.866   0.874  16.768  0.4188  0.1443 -0.3389
  823MPD2    C112158   2.942   0.816  16.670  0.0016 -0.3813  0.1836
  823MPD2    C212159   3.013   0.700  16.699 -0.8018  0.4981 -0.1398
  823MPD2    C312160   3.022   0.652  16.828  0.0374  0.5808 -0.2368
  823MPD2    C412161   2.942   0.705  16.924  0.0221  0.4221 -0.1642
  823MPD2    C512162   2.867   0.819  16.895  0.0592  0.5498  0.3100
  823MPD2     H12163   3.078   0.655  16.625  2.1008  0.6965  2.2560
  823MPD2    H112164   2.954   0.665  17.025 -1.3473 -1.0037 -0.5556
  823MPD2    H212165   2.822   0.971  16.745 -0.1073 -0.0311 -0.0600
  823MPD2    H312166   2.833   0.882  16.976 -3.0205  0.2265 -0.7512
  823MPD2     N12167   3.113   0.549  16.866  0.0284 -0.0582  0.1063
  823MPD2    H512168   3.099   0.512  16.960  2.3841  0.8512  0.7977
  823MPD2    N112169   2.944   0.869  16.537 -0.2396 -0.9700 -0.2941
  823MPD2    H712170   2.903   0.961  16.526 -1.2462 -1.4798 -0.8112
  824MPD2     C12171   4.155   4.546  16.162  0.8120 -0.5155 -0.3119
  824MPD2    C112172   4.112   4.601  16.040  0.8043 -0.3430  0.2976
  824MPD2    C212173   4.159   4.548  15.922  0.3622 -0.0707  0.1828
  824MPD2    C312174   4.249   4.438  15.924  0.4996 -0.0812 -0.1871
  824MPD2    C412175   4.294   4.388  16.043 -0.3264 -0.2527 -0.6335
  824MPD2    C512176   4.244   4.436  16.161  0.5179  0.1511  0.0200
  824MPD2     H12177   4.124   4.578  15.824 -0.6300  2.0068  1.1769
  824MPD2    H112178   4.353   4.297  16.050  2.2435  1.4309 -0.6064
  824MPD2    H212179   4.124   4.590  16.256 -0.7549 -2.7312  0.2191
  824MPD2    H312180   4.280   4.398  16.256  3.3345 -1.3322 -1.6196
  824MPD2     N12181   4.290   4.383  15.803 -0.2270  0.3102 -0.4538
  824MPD2    H512182   4.246   4.423  15.721 -1.8616 -0.2461  0.1547
  824MPD2    N112183   4.029   4.714  16.041 -0.1851 -0.0381  0.7514
  824MPD2    H712184   4.045   0.035  15.961 -1.8408 -0.9352 -0.2609
  825MPD2     C12185   0.119   4.335  15.125  0.6918 -0.5124 -0.2976
  825MPD2    C112186   0.029   4.415  15.189 -0.0750  0.6747  0.9816
  825MPD2    C212187   0.015   4.550  15.156  0.8393  0.0855  0.6352
  825MPD2    C312188   0.118   4.611  15.078  0.3318 -0.2854 -1.2314
  825MPD2    C412189   0.222   4.535  15.026  0.1867 -0.1467 -0.2928
  825MPD2    C512190   0.213   4.400  15.045 -0.6793  0.1028  0.1385
  825MPD2     H12191   4.678   4.610  15.203  0.9243  0.2516  0.5639
  825MPD2    H112192   0.310   4.572  14.975 -0.7909  0.8393 -1.2492
  825MPD2    H212193   0.129   4.231  15.152  2.2220  0.0602  1.3452
  825MPD2    H312194   0.279   4.337  14.986  0.8705  1.1365  0.7710
  825MPD2     N12195   0.127   0.014  15.061 -0.2744  0.3330 -0.1843
  825MPD2    H512196   0.202   0.049  15.002 -0.1079 -1.7019 -1.1923
  825MPD2    N112197   4.683   4.348  15.280  0.2131  0.2358  0.2976
  825MPD2    H712198   4.695   4.247  15.288  2.7102  0.1894 -3.8642
  826MPD2     C12199   4.173   4.377  13.972  0.7354  0.1336  0.0796
  826MPD2    C112200   4.148   4.363  13.836  0.3950  0.5515 -0.3330
  826MPD2    C212201   4.066   4.456  13.774 -0.8508 -0.5164 -0.2249
  826MPD2    C312202   4.006   4.555  13.844  0.0110  0.5760 -0.5544
  826MPD2    C412203   4.021   4.565  13.981  0.0367  0.1369 -0.2324
  826MPD2    C512204   4.102   4.475  14.052  0.5476 -0.0597 -0.2866
  826MPD2     H12205   4.049   4.449  13.667  0.3132 -2.0996 -0.3027
  826MPD2    H112206   3.991   4.654  14.037  0.1588  1.4821 -2.2970
  826MPD2    H212207   4.247   4.313  14.018  0.2961 -0.8425 -0.5865
  826MPD2    H312208   4.108   4.492  14.159  0.3045 -1.4157 -0.0587
  826MPD2     N12209   3.927   4.662  13.783 -0.9072  0.0667 -0.4039
  826MPD2    H512210   3.906   0.001  13.842  0.0635 -2.4902  3.3822
  826MPD2    N112211   4.200   4.247  13.765 -0.2615 -0.2229  0.2272
  826MPD2    H712212   4.267   4.191  13.817  0.2750  0.6094  0.4297
  827MPD2     C12213   4.629   1.670  10.556  0.0571  0.1210 -0.7700
  827MPD2    C112214   4.659   1.540  10.565 -0.3005 -0.1366 -0.4363
  827MPD2    C212215   4.575   1.448  10.496 -0.9350  0.1407  0.6669
  827MPD2    C312216   4.473   1.492  10.411 -0.0123 -0.6357  0.3700
  827MPD2    C412217   4.445   1.625  10.407 -0.6864  0.3084 -0.0728
  827MPD2    C512218   4.523   1.711  10.474 -0.3963  0.2478  0.4844
  827MPD2     H12219   4.588   1.340  10.498 -1.0115  0.1212  0.0442
  827MPD2    H112220   4.364   1.659  10.343 -0.8072 -0.0421 -0.1024
  827MPD2    H212221   4.686   1.742  10.614  1.8307 -0.5151 -1.7099
  827MPD2    H312222   4.494   1.815  10.467 -0.4135  0.1680 -0.6469
  827MPD2     N12223   4.386   1.391  10.354 -0.9199  0.8209  0.0620
  827MPD2    H512224   4.398   1.294  10.382 -2.4725  0.5304 -0.2642
  827MPD2    N112225   0.031   1.499  10.632  0.5328 -0.3131  0.6062
  827MPD2    H712226   0.089   1.566  10.681  1.5516 -1.1850  0.5963
  828MPD2     C12227   3.503   0.780  11.979  0.8327 -0.1089  0.6946
  828MPD2    C112228   3.406   0.840  11.907 -0.1107  0.3374 -0.3280
  828MPD2    C212229   3.381   0.796  11.778 -0.3810  0.1131 -0.3779
  828MPD2    C312230   3.459   0.695  11.720 -0.7313  0.7918 -0.3130
  828MPD2    C412231   3.548   0.629  11.799 -0.0052 -0.1159  0.4623
  828MPD2    C512232   3.568   0.675  11.930  0.1839 -0.4375  0.3777
  828MPD2     H12233   3.308   0.845  11.715  1.0605  2.9431  0.1691
  828MPD2    H112234   3.611   0.546  11.769 -0.7015  0.2943 -2.1412
  828MPD2    H212235   3.543   0.815  12.074  0.8322  0.0777  0.6265
  828MPD2    H312236   3.649   0.627  11.983 -0.0366 -0.2034  0.9266
  828MPD2     N12237   3.451   0.659  11.587 -0.0970 -0.2717  0.2313
  828MPD2    H512238   3.516   0.589  11.552  0.4762  0.9908 -1.2063
  828MPD2    N112239   3.331   0.955  11.950 -0.3892  0.3648  0.1200
  828MPD2    H712240   3.267   0.988  11.878 -0.7615 -0.0539  0.2606
  829MPD2     C12241   2.608   1.562  11.705 -1.1675 -0.2410  0.0292
  829MPD2    C112242   2.541   1.435  11.729 -0.1092 -0.7584 -0.1920
  829MPD2    C212243   2.608   1.334  11.797  0.2937 -0.2747  0.3002
  829MPD2    C312244   2.734   1.351  11.834 -0.1698 -0.2585 -0.0067
  829MPD2    C412245   2.801   1.472  11.800 -0.0429  0.4199  0.2463
  829MPD2    C512246   2.736   1.574  11.742  0.1201 -0.5380  0.6172
  829MPD2     H12247   2.563   1.242  11.832 -0.5716 -0.3337 -0.9291
  829MPD2    H112248   2.897   1.498  11.844  0.7366 -1.2880 -0.4418
  829MPD2    H212249   2.554   1.639  11.651 -0.6601  2.0713  2.8220
  829MPD2    H312250   2.794   1.665  11.731 -0.1706 -0.7653 -2.5631
  829MPD2     N12251   2.797   1.251  11.909 -0.1653  0.2775 -0.0583
  829MPD2    H512252   2.734   1.199  11.970 -0.1445  1.0197  0.6016
  829MPD2    N112253   2.410   1.416  11.676  0.1214 -0.2923 -0.1439
  829MPD2    H712254   2.374   1.491  11.618 -0.5070 -1.6053 -1.4387
  830MPD2     C12255   3.120   3.385  15.545 -0.2213 -0.3591  0.3128
  830MPD2    C112256   3.221   3.442  15.628  0.5913  0.2777  0.2079
  830MPD2    C212257   3.345   3.446  15.578  0.8455  0.3863 -0.3543
  830MPD2    C312258   3.379   3.418  15.443  0.5031  0.0581  0.8838
  830MPD2    C412259   3.280   3.366  15.367  0.2849  0.7364 -0.1002
  830MPD2    C512260   3.155   3.340  15.422 -0.4741 -0.0990  0.9131
  830MPD2     H12261   3.415   3.485  15.650  1.3644  0.6997 -1.0224
  830MPD2    H112262   3.296   3.333  15.265  0.2368  0.5220 -0.0372
  830MPD2    H212263   3.014   3.391  15.567 -0.5255  0.8117 -1.5072
  830MPD2    H312264   3.075   3.293  15.365 -1.6887  2.0815  0.8173
  830MPD2     N12265   3.494   3.466  15.379 -0.1952  0.4303 -0.2513
  830MPD2    H512266   3.495   3.454  15.278 -0.9102 -1.7736  0.0018
  830MPD2    N112267   3.202   3.481  15.764 -0.2638 -0.5963  0.1489
  830MPD2    H712268   3.282   3.502  15.822 -0.3899  1.5752 -0.4826
  831MPD2     C12269   3.516   0.980  16.406  0.1957  0.8567 -0.2171
  831MPD2    C112270   3.567   0.877  16.334 -0.4237  0.7374 -0.7160
  831MPD2    C212271   3.506   0.747  16.339 -0.1463 -0.4860 -0.4690
  831MPD2    C312272   3.394   0.729  16.413  0.5342  0.2132  0.1583
  831MPD2    C412273   3.351   0.828  16.495  0.1359  0.0624  0.4840
  831MPD2    C512274   3.404   0.950  16.476 -0.1843  0.1380  0.7967
  831MPD2     H12275   3.542   0.666  16.276 -1.9535 -1.3253 -0.4259
  831MPD2    H112276   3.275   0.810  16.570  0.2443  2.3852  1.1365
  831MPD2    H212277   3.535   1.087  16.404 -0.1598  0.9045 -0.9681
  831MPD2    H312278   3.355   1.028  16.534 -2.1586 -0.8518  0.4819
  831MPD2     N12279   3.311   0.612  16.400  0.4098  0.1803  0.1045
  831MPD2    H512280   3.219   0.622  16.443  1.0510 -0.2407  1.5813
  831MPD2    N112281   3.663   0.906  16.240  0.4497 -0.0709  0.0537
  831MPD2    H712282   3.682   1.004  16.219  1.2648 -0.0764  0.7423
  832MPD2     C12283   1.640   1.754  17.395  0.4971  0.4220 -0.7974
  832MPD2    C112284   1.619   1.884  17.344  0.8797 -1.5716 -0.1527
  832MPD2    C212285   1.535   1.902  17.232 -0.3111  0.3056 -0.2254
  832MPD2    C312286   1.456   1.790  17.188 -0.3265  0.1472 -0.6296
  832MPD2    C412287   1.467   1.665  17.250  0.7835  0.5346 -0.8031
  832MPD2    C512288   1.553   1.656  17.353 -0.0586 -0.4408  0.3580
  832MPD2     H12289   1.529   2.001  17.188  1.6519  0.2781 -0.5589
  832MPD2    H112290   1.405   1.583  17.217  2.0691 -1.1316  0.9258
  832MPD2    H212291   1.704   1.741  17.482  1.3377 -1.1620 -1.6699
  832MPD2    H312292   1.565   1.559  17.400 -2.0899 -0.7114  0.3201
  832MPD2     N12293   1.361   1.798  17.080  0.1023 -0.2086  0.2844
  832MPD2    H512294   1.307   1.713  17.069 -1.2471  1.0785 -3.0545
  832MPD2    N112295   1.702   1.988  17.391 -0.0460 -0.1265 -0.0719
  832MPD2    H712296   1.776   1.962  17.455  1.4975  2.6153 -0.7366
  833MPD2     C12297   3.891   3.124  12.933  0.5373 -0.7140  0.2506
  833MPD2    C112298   3.973   3.226  12.979  0.0248  0.1762 -0.0472
  833MPD2    C212299   4.112   3.214  12.971 -0.1183 -0.1197  0.4954
  833MPD2    C312300   4.169   3.095  12.932  0.4522 -0.1800  0.3637
  833MPD2    C412301   4.085   2.991  12.892  0.2784 -0.2029  0.7232
  833MPD2    C512302   3.947   3.004  12.892 -0.5012  0.4573 -0.6191
  833MPD2     H12303   4.174   3.302  12.986  0.3985 -1.0125  3.6799
  833MPD2    H112304   4.132   2.896  12.868  1.8841  1.5042 -2.9402
  833MPD2    H212305   3.784   3.137  12.921  0.8469  0.6882 -1.0469
  833MPD2    H312306   3.879   2.932  12.846  1.4108 -0.6272 -1.7396
  833MPD2     N12307   4.310   3.080  12.906  0.7107  0.0405 -0.1132
  833MPD2    H512308   4.338   3.007  12.842  2.3829 -0.4800  1.2214
  833MPD2    N112309   3.907   3.348  12.993 -0.2872 -0.0653  0.3116
  833MPD2    H712310   3.815   3.362  12.952 -0.1761 -1.5814 -0.4441
  834MPD2     C12311   4.484   2.627  12.201  0.2812  0.0072 -0.2951
  834MPD2    C112312   4.474   2.764  12.178  0.0747  0.6855 -0.6556
  834MPD2    C212313   4.515   2.853  12.272  0.3856 -0.0297 -0.3055
  834MPD2    C312314   4.546   2.811  12.400 -0.7919  0.2646  0.9928
  834MPD2    C412315   4.559   2.678  12.425 -0.1972  0.2723 -0.6366
  834MPD2    C512316   4.535   2.590  12.321 -0.4662 -0.1053  0.2836
  834MPD2     H12317   4.502   2.959  12.254  0.3210  0.1434  0.7141
  834MPD2    H112318   4.590   2.641  12.522  0.1403  0.3598 -0.7121
  834MPD2    H212319   4.485   2.553  12.122 -1.4547  0.5998 -0.8669
  834MPD2    H312320   4.544   2.482  12.331  1.2758  0.1733  1.9032
  834MPD2     N12321   4.569   2.914  12.498 -0.5050 -0.1039  0.5089
  834MPD2    H512322   4.555   3.011  12.469 -0.4364 -0.1027  0.4815
  834MPD2    N112323   4.403   2.797  12.061 -0.2495 -0.0323 -0.1239
  834MPD2    H712324   4.360   2.717  12.016 -0.5556  0.1438 -0.1452
  835MPD2     C12325   3.632   0.901  11.090 -0.3452 -0.5014  0.1399
  835MPD2    C112326   3.514   0.942  11.152 -0.5176 -0.7362  0.2295
  835MPD2    C212327   3.518   0.971  11.284 -0.1877 -0.9057 -0.1486
  835MPD2    C312328   3.628   0.957  11.359  0.1002 -0.6836  0.0360
  835MPD2    C412329   3.741   0.908  11.297 -0.4732  0.1683  0.7913
  835MPD2    C512330   3.748   0.882  11.164 -0.0956  0.2373  0.0081
  835MPD2     H12331   3.427   1.005  11.333  0.3467 -1.8197  1.4747
  835MPD2    H112332   3.826   0.883  11.359  0.2927  1.0221  0.0726
  835MPD2    H212333   3.655   0.883  10.986 -2.0839  0.7608 -0.4576
  835MPD2    H312334   3.833   0.846  11.108 -0.0290  0.1093  0.1910
  835MPD2     N12335   3.634   0.997  11.492  0.0666 -0.0070  0.4539
  835MPD2    H512336   3.726   0.985  11.534  1.1833  1.0066 -1.6582
  835MPD2    N112337   3.393   0.962  11.084 -0.6523 -0.0814  0.1569
  835MPD2    H712338   3.312   0.973  11.145  0.4359  2.7207  1.0937
  836MPD2     C12339   3.221   1.517  11.924 -0.7740  0.3110 -0.0823
  836MPD2    C112340   3.309   1.453  12.011  0.8606  0.2296 -0.1294
  836MPD2    C212341   3.290   1.465  12.149 -0.4372  0.4703 -0.3240
  836MPD2    C312342   3.188   1.539  12.204 -0.4099  0.0429 -0.0490
  836MPD2    C412343   3.102   1.601  12.125  0.2422 -0.6867 -0.1291
  836MPD2    C512344   3.122   1.587  11.989  0.0863  0.2072 -0.7295
  836MPD2     H12345   3.366   1.422  12.212  0.5985  0.4874 -1.5549
  836MPD2    H112346   3.022   1.665  12.161  1.0952  1.6281 -2.2802
  836MPD2    H212347   3.239   1.511  11.817  1.7743  1.8180  0.2733
  836MPD2    H312348   3.057   1.651  11.930  2.1579  1.4489 -1.6860
  836MPD2     N12349   3.159   1.553  12.341 -0.4209 -0.7414 -0.7103
  836MPD2    H512350   3.078   1.608  12.367  0.3409  0.2003 -0.3339
  836MPD2    N112351   3.411   1.379  11.948  0.4627 -0.4334  0.3213
  836MPD2    H712352   3.410   1.382  11.846 -1.3964 -1.4860  0.3038
  837MPD2     C12353   2.071   1.609  10.511  0.1502 -0.9435 -0.4324
  837MPD2    C112354   2.003   1.634  10.393  1.2058  0.0548 -0.4023
  837MPD2    C212355   2.022   1.750  10.327 -0.5688 -0.2588  0.3592
  837MPD2    C312356   2.116   1.842  10.370  1.3192 -0.4582 -0.3966
  837MPD2    C412357   2.190   1.819  10.483  1.3675 -0.1620 -0.3105
  837MPD2    C512358   2.164   1.703  10.548 -0.0881 -1.0255  0.0053
  837MPD2     H12359   1.976   1.764  10.230  0.8090 -0.0423 -0.2648
  837MPD2    H112360   2.280   1.875  10.506  0.7855  0.3936  0.6091
  837MPD2    H212361   2.050   1.521  10.571  0.6852  0.4175  1.7814
  837MPD2    H312362   2.215   1.686  10.642 -0.0954 -0.6984  0.0677
  837MPD2     N12363   2.143   1.940  10.269 -0.6926  0.0151 -0.7962
  837MPD2    H512364   2.086   1.931  10.186  0.6769  1.1907 -1.8582
  837MPD2    N112365   1.904   1.543  10.342 -0.0712  0.5247 -0.4245
  837MPD2    H712366   1.860   1.592  10.264  0.8435  2.3248  0.1852
  838MPD2     C12367   1.027   4.415  12.363  0.3317 -0.0949 -0.3615
  838MPD2    C112368   0.915   4.350  12.320 -0.7491  0.1386  0.3481
  838MPD2    C212369   0.844   4.275  12.406  0.4564  0.1543 -0.2316
  838MPD2    C312370   0.894   4.244  12.530  0.2528  0.7425  0.4091
  838MPD2    C412371   1.011   4.316  12.578  0.1394 -0.2535  0.6634
  838MPD2    C512372   1.066   4.409  12.494 -0.1181  0.0440  0.3088
  838MPD2     H12373   0.757   4.221  12.370 -0.9878  2.5685 -0.4463
  838MPD2    H112374   1.048   4.304  12.679 -2.7337  0.8959  1.8694
  838MPD2    H212375   1.085   4.469  12.289 -1.1647  1.1562 -0.6395
  838MPD2    H312376   1.163   4.455  12.509  0.8704 -1.1946 -2.2341
  838MPD2     N12377   0.831   4.146  12.605 -0.0341  0.9389  0.0787
  838MPD2    H512378   0.747   4.102  12.568 -0.6037  0.7781  1.5698
  838MPD2    N112379   0.867   4.352  12.189 -0.8627 -0.6554  0.4367
  838MPD2    H712380   0.771   4.319  12.178 -0.8737  0.7219 -3.8017
  839MPD2     C12381   0.362   3.739  12.141  0.0312  0.2356  0.0311
  839MPD2    C112382   0.385   3.739  12.003  0.3824 -0.5116  0.2555
  839MPD2    C212383   0.458   3.846  11.951  0.0898  0.3540  0.1449
  839MPD2    C312384   0.497   3.956  12.030  0.3533 -0.8975 -0.1384
  839MPD2    C412385   0.467   3.950  12.164 -0.4829 -0.3627  0.7785
  839MPD2    C512386   0.407   3.839  12.218  0.2198 -0.1165  0.1089
  839MPD2     H12387   0.502   3.831  11.853 -0.8691 -0.7691 -0.1103
  839MPD2    H112388   0.498   4.025  12.236  0.0553 -0.0865  0.2634
  839MPD2    H212389   0.303   3.662  12.188  3.4237 -2.1283  0.4533
  839MPD2    H312390   0.389   3.843  12.325 -0.1008  1.4089 -0.0060
  839MPD2     N12391   0.574   4.064  11.983 -0.5349  0.2743 -0.5129
  839MPD2    H512392   0.595   4.132  12.055 -1.3775 -0.2180  0.2091
  839MPD2    N112393   0.339   3.632  11.913 -0.2334  0.5211  0.1349
  839MPD2    H712394   0.363   3.641  11.814 -1.8762 -2.2283 -0.5131
  840MPD2     C12395   0.565   1.779  10.385  0.0535  0.2396  0.1857
  840MPD2    C112396   0.569   1.757  10.520  0.1949  0.5750 -0.0855
  840MPD2    C212397   0.648   1.839  10.601  0.6353  0.3923 -0.2738
  840MPD2    C312398   0.741   1.925  10.547  0.2940 -0.3894  0.4275
  840MPD2    C412399   0.738   1.949  10.410  0.5858 -0.1399  0.6583
  840MPD2    C512400   0.649   1.876  10.332 -0.9083  0.0621  0.1512
  840MPD2     H12401   0.634   1.825  10.708  0.2871  2.1345 -0.0967
  840MPD2    H112402   0.799   2.027  10.366 -0.8987  0.5105 -0.2680
  840MPD2    H212403   0.498   1.723  10.320 -0.2126 -0.6337  1.2204
  840MPD2    H312404   0.652   1.887  10.225  0.6551  0.4031  0.2317
  840MPD2     N12405   0.845   1.977  10.631  0.2101  0.4972 -0.3415
  840MPD2    H512406   0.923   2.024  10.587  0.8234  0.4082  0.6551
  840MPD2    N112407   0.487   1.650  10.568  0.0548 -1.2382 -0.1513
  840MPD2    H712408   0.422   1.611  10.500 -1.0951 -0.5591  0.5569
  841MPD2     C12409   0.950   0.618  14.454 -0.3812 -0.0600 -0.1204
  841MPD2    C112410   0.823   0.673  14.438  0.6901  0.6118 -0.4529
  841MPD2    C212411   0.803   0.808  14.427  0.0971 -0.6062  0.0165
  841MPD2    C312412   0.911   0.888  14.440 -1.2792  0.1875 -0.6392
  841MPD2    C412413   1.039   0.836  14.460  0.1307 -0.1810  0.4939
  841MPD2    C512414   1.057   0.699  14.463  0.4346  0.2603  0.2038
  841MPD2     H12415   0.704   0.850  14.413  0.3550  0.2335  0.7260
  841MPD2    H112416   1.117   0.907  14.487 -0.4934 -0.0929  2.0868
  841MPD2    H212417   0.980   0.514  14.451 -3.0749 -0.8194 -0.8853
  841MPD2    H312418   1.160   0.667  14.471  0.5349  0.1654 -1.6736
  841MPD2     N12419   0.881   1.019  14.456  0.2507  0.4014  0.2956
  841MPD2    H512420   0.780   1.028  14.462 -0.0820 -1.3446 -2.8416
  841MPD2    N112421   0.700   0.589  14.442  0.0102  0.0960 -0.1369
  841MPD2    H712422   0.608   0.633  14.437 -0.1175  0.2227  2.8630
  842MPD2     C12423   1.044   2.243  16.907 -0.0647 -0.3738 -0.1334
  842MPD2    C112424   0.936   2.157  16.903  0.6369 -0.2429  0.0995
  842MPD2    C212425   0.901   2.084  17.014  0.2843 -0.4637  0.4345
  842MPD2    C312426   0.959   2.108  17.132  0.7700  0.0556 -0.1360
  842MPD2    C412427   1.063   2.197  17.134  0.1617 -0.2387  0.4459
  842MPD2    C512428   1.106   2.264  17.022 -0.3708  0.5687 -0.0741
  842MPD2     H12429   0.803   2.040  17.000  0.3971 -0.2053 -1.1760
  842MPD2    H112430   1.111   2.227  17.226 -1.4838 -0.4684  1.3751
  842MPD2    H212431   1.067   2.303  16.819 -3.5283  1.7531  0.4239
  842MPD2    H312432   1.181   2.342  17.022 -2.3498  2.4564 -1.1614
  842MPD2     N12433   0.909   2.079  17.260 -0.1276 -0.5830  0.0371
  842MPD2    H512434   0.955   2.125  17.338 -1.4194  0.4215  0.2137
  842MPD2    N112435   0.856   2.160  16.782 -0.5209 -0.4608 -0.0967
  842MPD2    H712436   0.872   2.233  16.713  1.0410  0.0978  0.8646
  843MPD2     C12437   2.297   3.197  17.629  0.1044  0.2137  1.2724
  843MPD2    C112438   2.404   3.119  17.667  0.2064 -0.0332 -0.3891
  843MPD2    C212439   2.534   3.167  17.655 -0.4882 -0.4450  0.1608
  843MPD2    C312440   2.552   3.297  17.614 -0.3779 -0.2115  0.0267
  843MPD2    C412441   2.448   3.376  17.578  0.6022 -0.2017  0.1106
  843MPD2    C512442   2.320   3.325  17.587  0.5376  0.4519 -0.1555
  843MPD2     H12443   2.621   3.116  17.695 -0.1519  0.1911  0.2237
  843MPD2    H112444   2.451   3.484  17.566 -1.8753 -0.1977 -0.5264
  843MPD2    H212445   2.198   3.153  17.629  0.0236  0.3896 -0.9435
  843MPD2    H312446   2.238   3.389  17.558  2.0310  2.1297 -0.6078
  843MPD2     N12447   2.680   3.361  17.633 -0.0216  0.3881  0.2703
  843MPD2    H512448   2.683   3.458  17.661 -0.0535  0.6125 -0.5156
  843MPD2    N112449   2.376   2.987  17.714  0.2349 -0.2430 -0.4068
  843MPD2    H712450   2.281   2.955  17.703 -0.7509  1.3281  3.3098
  844MPD2     C12451   1.094   1.201  16.521 -0.6925 -0.0932  0.5852
  844MPD2    C112452   1.178   1.273  16.436 -0.8419  0.2572 -0.4286
  844MPD2    C212453   1.253   1.372  16.485 -0.2763  0.0300  0.4447
  844MPD2    C312454   1.253   1.410  16.622 -0.1741  0.5995 -0.3069
  844MPD2    C412455   1.162   1.345  16.707  0.0164  0.0924 -0.0111
  844MPD2    C512456   1.086   1.242  16.652  0.0405  0.5942 -0.7870
  844MPD2     H12457   1.316   1.423  16.413 -2.0056 -0.9587 -1.8054
  844MPD2    H112458   1.150   1.364  16.813 -1.1985  0.7444 -0.2561
  844MPD2    H212459   1.037   1.120  16.476  0.9469 -2.2535  2.3973
  844MPD2    H312460   1.018   1.190  16.719 -0.4368  2.0596 -0.1371
  844MPD2     N12461   1.322   1.524  16.676  0.0894 -0.2314 -0.1615
  844MPD2    H512462   1.319   1.546  16.775 -1.1332  0.3795 -0.3331
  844MPD2    N112463   1.183   1.242  16.298  0.4667 -0.0213  0.6302
  844MPD2    H712464   1.223   1.318  16.245 -0.3327 -0.5231 -0.6901
  845MPD2     C12465   1.724   2.532  16.562 -0.1691 -0.1703  0.2634
  845MPD2    C112466   1.740   2.488  16.690 -0.2107 -0.1627  0.7834
  845MPD2    C212467   1.697   2.359  16.720 -0.1184 -0.1444  0.2389
  845MPD2    C312468   1.649   2.269  16.625 -0.7160 -0.0315  0.2075
  845MPD2    C412469   1.635   2.319  16.499  0.4170  0.7495 -0.8295
  845MPD2    C512470   1.664   2.450  16.465 -0.0538  0.0710  0.5915
  845MPD2     H12471   1.701   2.320  16.821  0.1584 -0.1343  0.2314
  845MPD2    H112472   1.596   2.262  16.415 -1.9460  1.0399  0.0743
  845MPD2    H212473   1.757   2.631  16.535  1.0187 -0.2269  1.5485
  845MPD2    H312474   1.645   2.471  16.361  2.3114 -0.6331  0.0194
  845MPD2     N12475   1.614   2.140  16.668  0.7662 -0.0649  0.5081
  845MPD2    H512476   1.613   2.122  16.768 -0.0546 -1.4997  0.2369
  845MPD2    N112477   1.788   2.575  16.790 -0.4262  0.1958  0.2126
  845MPD2    H712478   1.790   2.676  16.780  1.6771  0.1424  0.0733
  846MPD2     C12479   2.626   3.049  13.517 -0.5030 -0.3742  0.0009
  846MPD2    C112480   2.747   3.070  13.588 -0.9501  0.2455 -1.1247
  846MPD2    C212481   2.735   3.077  13.723  0.2045 -0.1827  0.0075
  846MPD2    C312482   2.610   3.076  13.788  0.2776  0.3724  0.9159
  846MPD2    C412483   2.493   3.063  13.716  0.4799 -0.5404 -0.5594
  846MPD2    C512484   2.505   3.050  13.581 -0.6436  0.1554 -0.4792
  846MPD2     H12485   2.822   3.111  13.778  1.2903  0.3775 -2.0889
  846MPD2    H112486   2.393   3.063  13.758  1.3143 -1.4838  1.4019
  846MPD2    H212487   2.628   3.058  13.408 -2.0825 -0.6674 -0.0544
  846MPD2    H312488   2.414   3.060  13.522 -0.3018  0.6180 -0.9291
  846MPD2     N12489   2.608   3.095  13.927  0.2887 -0.2811  0.0991
  846MPD2    H512490   2.702   3.090  13.966  0.0082 -0.7440  0.7141
  846MPD2    N112491   2.873   3.085  13.523 -0.2161 -0.1977  0.5855
  846MPD2    H712492   2.949   3.140  13.563 -0.2345 -0.0994  0.4845
  847MPD2     C12493   2.961   3.761  14.517  0.0024  0.4933  0.5247
  847MPD2    C112494   3.089   3.759  14.481  0.3102  0.5857  0.2076
  847MPD2    C212495   3.170   3.646  14.499 -0.3864 -0.1952 -0.7119
  847MPD2    C312496   3.117   3.527  14.547 -0.0286 -0.1899  0.0765
  847MPD2    C412497   2.985   3.529  14.587  0.1647 -0.0158  0.3769
  847MPD2    C512498   2.911   3.646  14.572  0.5002 -0.0215  0.4815
  847MPD2     H12499   3.275   3.655  14.474  0.2954 -0.4674  2.0125
  847MPD2    H112500   2.940   3.442  14.632  2.0487 -0.3977  1.5283
  847MPD2    H212501   2.900   3.850  14.503  0.6254  0.7080 -0.8173
  847MPD2    H312502   2.808   3.641  14.604  0.2738  0.6427 -0.1326
  847MPD2     N12503   3.215   3.430  14.573 -0.2093  0.9947  0.3175
  847MPD2    H512504   3.312   3.450  14.552 -0.3828 -0.3416 -1.8437
  847MPD2    N112505   3.161   3.872  14.439 -0.2006  0.0926 -0.0708
  847MPD2    H712506   3.254   3.852  14.403  0.2093 -0.3626  1.2251
  848MPD2     C12507   1.188   2.040  16.284  0.0480  0.0704 -0.5725
  848MPD2    C112508   1.218   2.117  16.396  0.1177  0.2939  0.0984
  848MPD2    C212509   1.281   2.238  16.377 -0.0147  0.2095  0.6508
  848MPD2    C312510   1.304   2.290  16.244  0.4331 -0.0103 -0.3641
  848MPD2    C412511   1.282   2.209  16.136 -0.8497 -0.2443 -0.0467
  848MPD2    C512512   1.220   2.089  16.158 -0.1770  0.6889  0.4761
  848MPD2     H12513   1.324   2.292  16.460 -1.6365  0.8994  1.0314
  848MPD2    H112514   1.286   2.248  16.035 -0.0926 -1.6954 -0.5859
  848MPD2    H212515   1.162   1.935  16.289 -2.0207  0.5253 -2.0135
  848MPD2    H312516   1.199   2.018  16.079 -1.2189 -1.2625  2.4748
  848MPD2     N12517   1.351   2.423  16.223  0.1294  0.6002  0.5642
  848MPD2    H512518   1.388   2.440  16.130 -1.3213  4.0288  0.5990
  848MPD2    N112519   1.207   2.070  16.523  0.3499 -0.5383  0.3617
  848MPD2    H712520   1.246   2.122  16.602  0.1520 -0.5945  0.4963
  849MPD2     C12521   0.616   2.257  14.032 -0.2145 -0.4169  0.1578
  849MPD2    C112522   0.542   2.145  14.076  0.5889 -0.0745 -0.3135
  849MPD2    C212523   0.514   2.132  14.213  0.5191  0.1854 -0.2763
  849MPD2    C312524   0.536   2.240  14.296 -0.5976  0.1209  0.0731
  849MPD2    C412525   0.615   2.343  14.252  0.0644  0.4826  0.2833
  849MPD2    C512526   0.649   2.349  14.119  0.2743 -0.5456  0.2762
  849MPD2     H12527   0.462   2.050  14.261  0.4971 -0.5301 -1.5157
  849MPD2    H112528   0.640   2.417  14.328  0.7639  0.5562 -0.0164
  849MPD2    H212529   0.648   2.275  13.929  1.0964 -1.4202  0.3992
  849MPD2    H312530   0.701   2.441  14.095 -0.9092 -0.0597 -0.4218
  849MPD2     N12531   0.499   2.232  14.435  0.0977 -0.2788  0.3389
  849MPD2    H512532   0.525   2.314  14.488 -1.1881 -0.8611  1.8598
  849MPD2    N112533   0.492   2.044  14.002 -0.2982 -0.4127 -0.3224
  849MPD2    H712534   0.463   1.964  14.057 -0.5695  1.3997  2.1545
  850MPD2     C12535   3.582   4.570  14.731 -0.0499 -0.5445  1.2069
  850MPD2    C112536   3.554   4.668  14.821  0.0337 -0.5144 -0.5887
  850MPD2    C212537   3.651   0.017  14.861  0.1522 -0.3556  0.5572
  850MPD2    C312538   3.780   4.730  14.830 -0.5206  0.8669 -0.0151
  850MPD2    C412539   3.810   4.622  14.750 -0.2911 -0.1649 -0.5339
  850MPD2    C512540   3.710   4.538  14.694 -0.6988 -0.5522  0.5287
  850MPD2     H12541   3.629   0.107  14.918 -1.3112  1.0079 -2.1619
  850MPD2    H112542   3.911   4.617  14.713  0.1894  2.2410  0.4015
  850MPD2    H212543   3.500   4.510  14.693  0.4121 -0.7354  0.5143
  850MPD2    H312544   3.724   4.458  14.622  1.1221  1.2200 -1.0914
  850MPD2     N12545   3.893   0.068  14.882 -0.2441 -0.0882 -0.2291
  850MPD2    H512546   3.981   0.040  14.840 -1.1576 -1.6513 -1.1205
  850MPD2    N112547   3.420   4.668  14.868  0.1620 -0.3507  0.2781
  850MPD2    H712548   3.357   4.623  14.803  0.7971  0.2259 -0.7408
  851MPD2     C12549   3.821   4.400  15.600  0.0636  0.0954  0.3514
  851MPD2    C112550   3.763   4.388  15.478 -0.3118  0.6424 -0.1243
  851MPD2    C212551   3.747   4.255  15.421 -0.1863 -0.6203  0.7349
  851MPD2    C312552   3.807   4.147  15.485 -0.0940  0.5526  0.0252
  851MPD2    C412553   3.876   4.161  15.608  0.7076 -0.2921 -0.1237
  851MPD2    C512554   3.874   4.288  15.661  0.3915  0.2815  0.6038
  851MPD2     H12555   3.685   4.227  15.336 -0.5352  2.2419  0.0356
  851MPD2    H112556   3.915   4.084  15.674  2.8555  2.9439  2.3918
  851MPD2    H212557   3.837   4.497  15.645 -1.8270  0.2571  0.6729
  851MPD2    H312558   3.915   4.309  15.759  0.7142  2.4985 -0.0090
  851MPD2     N12559   3.814   4.023  15.413 -0.1454 -0.6508  0.8273
  851MPD2    H512560   3.767   4.035  15.324 -0.8436 -1.1524  1.1292
  851MPD2    N112561   3.698   4.502  15.415  0.0851 -0.7951 -0.4146
  851MPD2    H712562   3.705   4.596  15.452  1.6013 -0.7226 -0.8853
  852MPD2     C12563   2.380   3.637  10.044 -0.0912 -0.0184  0.0723
  852MPD2    C112564   2.443   3.653  10.170  0.4067  0.1921 -0.5028
  852MPD2    C212565   2.558   3.739  10.168  1.0101 -1.2535 -0.1443
  852MPD2    C312566   2.610   3.801  10.055  0.1260 -0.1724  0.3182
  852MPD2    C412567   2.535   3.786   9.934  0.1292 -0.2052 -0.0801
  852MPD2    C512568   2.429   3.698   9.926 -0.0994 -0.1863  0.1018
  852MPD2     H12569   2.614   3.758  10.259  2.1385 -0.0976 -1.0739
  852MPD2    H112570   2.564   3.831   9.840 -2.6550  2.1383  0.1563
  852MPD2    H212571   2.286   3.583  10.040  0.4214 -1.0833  2.4902
  852MPD2    H312572   2.364   3.688   9.840  1.0753  0.0297 -0.8055
  852MPD2     N12573   2.734   3.860  10.064 -0.8750  0.0956 -0.2955
  852MPD2    H512574   2.779   3.864  10.156  1.2088 -1.4868 -1.2288
  852MPD2    N112575   2.397   3.593  10.287 -0.3074  0.1208 -0.4256
  852MPD2    H712576   2.430   3.630  10.376 -0.0191  2.3259 -1.4520
  853MPD2     C12577   0.289   2.066  12.574 -0.1363  0.4269  0.6047
  853MPD2    C112578   0.372   2.178  12.583  0.1240 -0.3723 -0.6773
  853MPD2    C212579   0.444   2.203  12.460  0.0835  0.5221 -0.2404
  853MPD2    C312580   0.420   2.136  12.345 -0.2655 -0.5764 -0.1515
  853MPD2    C412581   0.345   2.015  12.344  0.0919 -0.3402 -0.3649
  853MPD2    C512582   0.280   1.979  12.465  0.3024  0.3590 -0.2457
  853MPD2     H12583   0.503   2.293  12.454 -0.6294  1.1987  2.5626
  853MPD2    H112584   0.343   1.951  12.257 -1.4454 -1.6511  0.6188
  853MPD2    H212585   0.224   2.045  12.657 -1.4918  1.9416 -0.0910
  853MPD2    H312586   0.206   1.900  12.469 -0.8942  1.4029 -2.2420
  853MPD2     N12587   0.474   2.179  12.226 -0.7545  0.3194  0.3487
  853MPD2    H512588   0.456   2.124  12.142  2.3773 -0.2625  0.0686
  853MPD2    N112589   0.374   2.259  12.700 -0.1518  0.2243 -0.5320
  853MPD2    H712590   0.330   2.214  12.779  0.5846  0.6981  0.1464
  854MPD2     C12591   2.184   2.280  12.071 -0.0347 -0.0540  0.1290
  854MPD2    C112592   2.183   2.298  12.205 -0.2141  0.1124  0.0858
  854MPD2    C212593   2.271   2.223  12.283 -0.5157 -0.3430  0.5295
  854MPD2    C312594   2.358   2.138  12.227 -0.0226  0.5306 -0.8045
  854MPD2    C412595   2.360   2.113  12.090 -0.1786 -0.9775 -0.2032
  854MPD2    C512596   2.266   2.181  12.012  0.3469 -0.5039  0.2406
  854MPD2     H12597   2.287   2.260  12.384 -0.4226  0.4647  0.2243
  854MPD2    H112598   2.423   2.047  12.032 -0.6283 -1.5526 -0.0426
  854MPD2    H212599   2.122   2.340  12.006 -0.5919 -1.2974 -0.5009
  854MPD2    H312600   2.270   2.180  11.904 -1.6322  2.6365  0.1375
  854MPD2     N12601   2.458   2.070  12.290  0.4884  0.6761 -0.0803
  854MPD2    H512602   2.521   2.031  12.221  0.6576  1.0180 -0.1205
  854MPD2    N112603   2.105   2.405  12.260  0.1540 -0.0564 -0.2697
  854MPD2    H712604   2.049   2.458  12.194  0.7719  1.1312  0.1575
  855MPD2     C12605   3.036   2.038  13.230 -1.0123  0.0088  0.6895
  855MPD2    C112606   2.897   2.010  13.222  0.3146 -0.0689  0.4073
  855MPD2    C212607   2.838   2.007  13.094  0.2277  0.5919  0.2154
  855MPD2    C312608   2.914   2.027  12.976  0.4432 -0.1982  0.0708
  855MPD2    C412609   3.043   2.069  12.995  0.4625  0.5568 -0.1430
  855MPD2    C512610   3.104   2.073  13.117  0.0707 -0.7062 -0.1902
  855MPD2     H12611   2.733   1.983  13.095  0.9548 -2.4618  2.0698
  855MPD2    H112612   3.100   2.102  12.908 -0.7909  0.3981 -1.0233
  855MPD2    H212613   3.097   2.038  13.319  0.6103  0.5921 -0.4120
  855MPD2    H312614   3.210   2.095  13.127 -0.2768 -0.2841  2.4645
  855MPD2     N12615   2.866   2.006  12.842 -0.1510  0.0420 -0.4352
  855MPD2    H512616   2.931   2.011  12.763 -0.6444  0.8053 -0.7927
  855MPD2    N112617   2.819   1.982  13.333  0.6494  0.7692 -0.0858
  855MPD2    H712618   2.726   1.945  13.315  0.2645  1.3604  0.6760
  856MPD2     C12619   4.391   2.927  14.456 -0.0690 -0.3182  0.0222
  856MPD2    C112620   4.399   3.050  14.392 -0.1762  0.3926  0.0733
  856MPD2    C212621   4.287   3.099  14.332  0.0813 -0.1448 -0.2069
  856MPD2    C312622   4.168   3.030  14.347 -0.7413 -0.7548 -0.6489
  856MPD2    C412623   4.162   2.903  14.400 -0.8648  0.4371 -0.6213
  856MPD2    C512624   4.278   2.851  14.460  0.6173  0.1889 -0.0234
  856MPD2     H12625   4.294   3.192  14.277 -0.4925  0.2859  0.4418
  856MPD2    H112626   4.072   2.842  14.401  0.4968 -1.5480  1.5532
  856MPD2    H212627   4.476   2.888  14.510 -1.5090 -0.9228  1.8715
  856MPD2    H312628   4.283   2.752  14.503  0.5685  0.0786 -0.2753
  856MPD2     N12629   4.056   3.083  14.283  0.7119 -0.1797 -0.2082
  856MPD2    H512630   3.975   3.022  14.276 -0.4512  1.3319  0.1829
  856MPD2    N112631   4.511   3.130  14.391  0.8089  0.0556 -0.0233
  856MPD2    H712632   4.514   3.219  14.342 -0.2880 -1.0979 -2.1775
  857MPD2     C12633   1.294   1.074  12.720  0.3932 -0.1356  0.3205
  857MPD2    C112634   1.270   0.953  12.786 -0.2003 -0.7197  0.3642
  857MPD2    C212635   1.225   0.958  12.921  0.9868  0.0533  0.0495
  857MPD2    C312636   1.204   1.085  12.986  0.3454  0.1584 -0.0092
  857MPD2    C412637   1.237   1.198  12.912  0.1762  0.4366 -0.3235
  857MPD2    C512638   1.270   1.189  12.784 -0.1646  0.1039  0.2728
  857MPD2     H12639   1.205   0.871  12.982 -0.7311  1.4507  1.4883
  857MPD2    H112640   1.236   1.294  12.961  0.0421  0.3660 -0.1861
  857MPD2    H212641   1.325   1.076  12.616  0.9741 -1.2523  0.4735
  857MPD2    H312642   1.302   1.280  12.736 -1.9073  0.7036  0.2434
  857MPD2     N12643   1.187   1.084  13.126 -0.6369  0.4712  0.5751
  857MPD2    H512644   1.204   0.995  13.171  1.7738  0.3742 -0.5492
  857MPD2    N112645   1.283   0.831  12.727  0.0988  0.2562  0.2834
  857MPD2    H712646   1.261   0.748  12.782 -1.1752  1.1963  1.1976
  858MPD2     C12647   2.112   4.566  16.542  0.0816 -0.3458  0.9713
  858MPD2    C112648   2.094   4.443  16.604 -0.1519 -0.3314 -0.3529
  858MPD2    C212649   2.034   4.437  16.727  0.2034  0.1128  0.4213
  858MPD2    C312650   2.001   4.557  16.791 -0.0036  0.1226 -0.1618
  858MPD2    C412651   2.034   4.676  16.735 -0.4613  0.4063  0.9925
  858MPD2    C512652   2.083   4.684  16.607 -0.6676  0.5178  0.5476
  858MPD2     H12653   2.019   4.340  16.772  0.8071  0.3515  1.1412
  858MPD2    H112654   2.003   0.033  16.770 -0.0383 -0.0072  2.5079
  858MPD2    H212655   2.141   4.583  16.439  3.6596 -1.2157  1.8604
  858MPD2    H312656   2.099   0.042  16.564 -2.6966 -0.0109 -1.4492
  858MPD2     N12657   1.919   4.566  16.910  0.2982 -0.2044  0.0386
  858MPD2    H512658   1.884   4.659  16.931 -0.1729 -0.2964 -0.3518
  858MPD2    N112659   2.137   4.330  16.530 -0.4123  0.1396 -0.3465
  858MPD2    H712660   2.178   4.346  16.439 -0.4134  1.6796 -0.0717
  859MPD2     C12661   0.623   1.929  15.830 -0.2423 -0.7500  0.1191
  859MPD2    C112662   0.567   1.897  15.705  0.6044  0.1635 -0.5211
  859MPD2    C212663   0.532   1.770  15.678 -0.2404 -1.0820 -1.0011
  859MPD2    C312664   0.554   1.663  15.771 -0.3595  0.0529  0.2346
  859MPD2    C412665   0.600   1.695  15.897 -0.6180 -0.7658 -0.2277
  859MPD2    C512666   0.645   1.824  15.919  0.9761  0.0824 -0.0490
  859MPD2     H12667   0.500   1.737  15.580 -1.2466 -1.9388 -0.3845
  859MPD2    H112668   0.621   1.614  15.966  2.1716  0.5961  0.5053
  859MPD2    H212669   0.649   2.029  15.862 -1.2922 -0.9580  1.6536
  859MPD2    H312670   0.699   1.855  16.007  1.0207  0.6424 -0.2753
  859MPD2     N12671   0.554   1.527  15.743  0.5261  0.3782 -0.2969
  859MPD2    H512672   0.584   1.456  15.810  0.8333  1.4835  0.7443
  859MPD2    N112673   0.558   2.001  15.616 -0.4382 -0.3861  0.2582
  859MPD2    H712674   0.583   2.094  15.650 -0.2782 -0.9269  1.6160
  860MPD2     C12675   3.867   2.820  12.030  0.1467 -0.3734  0.5925
  860MPD2    C112676   3.814   2.701  12.074  0.4918 -0.4183  0.5190
  860MPD2    C212677   3.696   2.662  12.020  0.1821 -0.2526  0.2949
  860MPD2    C312678   3.627   2.735  11.924  0.4453 -0.2676  0.2345
  860MPD2    C412679   3.687   2.852  11.879 -0.1224 -0.1788 -0.1823
  860MPD2    C512680   3.809   2.898  11.931 -0.2885  0.7227  0.1166
  860MPD2     H12681   3.639   2.578  12.057  1.8621 -1.8456 -0.7729
  860MPD2    H112682   3.642   2.906  11.796 -2.0501 -1.8587 -0.2599
  860MPD2    H212683   3.960   2.861  12.068 -0.6905  2.3831 -0.2805
  860MPD2    H312684   3.858   2.991  11.906  1.4363  0.0988  1.1565
  860MPD2     N12685   3.506   2.674  11.875  0.7914 -1.0806  0.5174
  860MPD2    H512686   3.465   2.591  11.918  2.3924 -1.1342  1.9262
  860MPD2    N112687   3.883   2.609  12.157 -0.0918 -0.1402  0.9279
  860MPD2    H712688   3.832   2.524  12.179  0.1753 -0.9104 -1.3830
  861MPD2     C12689   1.633   0.876  11.021  0.2083 -0.1631 -0.2856
  861MPD2    C112690   1.523   0.844  11.104 -0.3793 -0.1012 -0.1273
  861MPD2    C212691   1.398   0.887  11.061  0.5528 -0.0567  0.6456
  861MPD2    C312692   1.383   0.983  10.961 -0.3687  1.2700  0.1701
  861MPD2    C412693   1.496   1.018  10.888  0.6641 -0.1098  0.1941
  861MPD2    C512694   1.618   0.971  10.919 -0.5006 -0.6403 -0.8944
  861MPD2     H12695   1.310   0.847  11.110  1.4850 -1.4621  1.1529
  861MPD2    H112696   1.496   1.098  10.814 -0.1505 -1.4281 -1.2174
  861MPD2    H212697   1.734   0.841  11.038 -0.2265 -1.1495  0.2932
  861MPD2    H312698   1.701   1.003  10.857  0.3652  0.0444  0.6192
  861MPD2     N12699   1.265   1.048  10.934  0.0858 -0.2333 -0.1663
  861MPD2    H512700   1.287   1.115  10.861  0.2368  0.3901  0.4504
  861MPD2    N112701   1.536   0.761  11.217  0.0846  0.7720  0.2138
  861MPD2    H712702   1.457   0.713  11.258 -0.1881  0.9121 -0.1505
  862MPD2     C12703   0.647   1.142  10.523  0.1987 -0.1500  0.0778
  862MPD2    C112704   0.765   1.153  10.587  0.5313  0.9434 -0.6050
  862MPD2    C212705   0.807   1.036  10.661  0.3180  0.0578 -0.2478
  862MPD2    C312706   0.741   0.916  10.652  0.3429 -0.7101  0.7519
  862MPD2    C412707   0.625   0.916  10.584 -0.3688 -0.0328 -0.4523
  862MPD2    C512708   0.574   1.021  10.519 -0.0683  0.3510  0.4513
  862MPD2     H12709   0.912   1.021  10.683  0.4241 -0.8272 -1.2873
  862MPD2    H112710   0.570   0.825  10.568 -2.9673  1.3280  0.7687
  862MPD2    H212711   0.619   1.231  10.466 -3.8445 -1.2879  0.3067
  862MPD2    H312712   0.479   1.000  10.470 -0.4843  1.8498  0.6202
  862MPD2     N12713   0.782   0.797  10.730  0.4384  0.1672  0.0016
  862MPD2    H512714   0.728   0.713  10.711  2.4514 -1.5354  1.7490
  862MPD2    N112715   0.843   1.262  10.575  0.1957  0.1413  0.1991
  862MPD2    H712716   0.813   1.334  10.509  0.1084  0.6625  0.8152
  863MPD2     C12717   4.482   3.012  17.214 -0.1779 -0.6176  0.2692
  863MPD2    C112718   4.577   3.051  17.119  0.4894 -0.6036 -0.4877
  863MPD2    C212719   4.710   3.048  17.156 -0.0769 -0.2982  0.8944
  863MPD2    C312720   0.006   3.023  17.287 -0.3211  0.4106  0.3498
  863MPD2    C412721   4.648   2.993  17.383 -0.0793  0.2596 -0.2419
  863MPD2    C512722   4.517   2.982  17.344 -0.6457  0.0799  1.1532
  863MPD2     H12723   0.051   3.072  17.089 -0.3961  1.8479  1.2712
  863MPD2    H112724   4.681   2.947  17.476 -0.5996  0.1542 -0.1087
  863MPD2    H212725   4.377   3.001  17.188 -0.7039  1.7431  1.4595
  863MPD2    H312726   4.436   2.946  17.406  0.4207 -0.4327  2.2554
  863MPD2     N12727   0.145   3.017  17.329  0.1186 -0.3015 -0.1012
  863MPD2    H512728   0.164   3.002  17.428 -0.7685 -0.6403  0.0163
  863MPD2    N112729   4.528   3.099  16.994 -0.1429  0.1814 -0.0219
  863MPD2    H712730   4.429   3.120  16.992 -0.7097 -2.4938 -0.1615
  864MPD2     C12731   0.457   4.436  16.815 -0.4315  0.0893 -0.5346
  864MPD2    C112732   0.551   4.386  16.729 -0.4421  0.4696 -0.0059
  864MPD2    C212733   0.663   4.462  16.699 -0.4188  0.4181  0.4860
  864MPD2    C312734   0.674   4.593  16.744 -0.4135 -0.3643  0.1508
  864MPD2    C412735   0.576   4.643  16.828  0.6952  0.2257  1.1615
  864MPD2    C512736   0.476   4.559  16.867  0.0166 -0.3937  0.0210
  864MPD2     H12737   0.728   4.425  16.621  0.9336  4.0350 -0.0644
  864MPD2    H112738   0.576   0.003  16.868  0.8436  1.8026 -2.7471
  864MPD2    H212739   0.378   4.367  16.844 -0.1850  0.0858  0.1264
  864MPD2    H312740   0.403   4.598  16.937  0.1856  0.1238 -0.0941
  864MPD2     N12741   0.789   4.670  16.707 -0.4096 -0.1629  0.2489
  864MPD2    H512742   0.787   0.023  16.747 -0.0094 -1.1274  2.5275
  864MPD2    N112743   0.526   4.251  16.682  0.1382 -0.3527  0.3875
  864MPD2    H712744   0.444   4.196  16.710 -0.3686  0.4528  0.4849
  865MPD2     C12745   1.097   0.248  15.842  0.0892 -0.7780 -0.0139
  865MPD2    C112746   1.044   0.131  15.893 -0.4357 -0.4839  0.0133
  865MPD2    C212747   1.015   0.134  16.031  0.3145 -0.3016  0.1093
  865MPD2    C312748   1.050   0.243  16.111 -0.1215  0.0218 -0.5243
  865MPD2    C412749   1.105   0.350  16.050  0.3149  0.3468  0.6783
  865MPD2    C512750   1.121   0.356  15.915  0.0978  0.6454  0.6931
  865MPD2     H12751   0.967   0.043  16.066 -0.5455 -0.3015 -1.0584
  865MPD2    H112752   1.115   0.447  16.098 -0.9526  0.3131  1.0068
  865MPD2    H212753   1.121   0.253  15.736 -1.0575  0.4943 -0.2069
  865MPD2    H312754   1.160   0.443  15.865 -1.2048  2.4444  2.8046
  865MPD2     N12755   1.023   0.250  16.249 -0.1702 -0.6273  0.7174
  865MPD2    H512756   1.051   0.329  16.307 -3.2978  0.7571  0.3918
  865MPD2    N112757   1.056   0.012  15.820  0.7932 -0.6136  0.2244
  865MPD2    H712758   1.076   0.020  15.721 -1.0101 -1.4173 -0.2069
  866MPD2     C12759   2.275   0.957  11.248 -0.0438  0.2561 -0.4848
  866MPD2    C112760   2.257   1.089  11.209 -0.1704  0.3856 -0.1249
  866MPD2    C212761   2.123   1.148  11.215 -0.2361  0.2313 -0.6262
  866MPD2    C312762   2.013   1.066  11.235 -0.8673  0.0511  0.6714
  866MPD2    C412763   2.045   0.935  11.276 -0.6828 -0.1845  0.0763
  866MPD2    C512764   2.170   0.890  11.302 -0.5096  0.1050 -0.0105
  866MPD2     H12765   2.091   1.250  11.196  3.4922  1.5134  0.0368
  866MPD2    H112766   1.958   0.879  11.307  0.7548 -1.7762  1.2315
  866MPD2    H212767   2.370   0.918  11.283  1.0021  0.3677 -3.1999
  866MPD2    H312768   2.194   0.797  11.353  0.2701  0.7402  0.7818
  866MPD2     N12769   1.876   1.104  11.223  0.0546 -0.1055  0.0918
  866MPD2    H512770   1.811   1.031  11.251 -1.3231  1.1398  0.1191
  866MPD2    N112771   2.369   1.166  11.180  0.0431 -0.0719  0.6951
  866MPD2    H712772   2.457   1.116  11.179 -0.6353 -1.2672  2.0885
  867MPD2     C12773   4.112   4.131  16.486  0.5791 -0.2510 -1.1598
  867MPD2    C112774   4.121   4.127  16.623 -0.0031 -0.0059 -0.0575
  867MPD2    C212775   4.095   4.247  16.696 -1.1642 -0.3492  0.2384
  867MPD2    C312776   4.043   4.356  16.629  0.1841 -0.5514  0.2978
  867MPD2    C412777   4.034   4.355  16.493 -0.5863  0.0181 -0.3667
  867MPD2    C512778   4.073   4.245  16.424  0.1739 -0.3956  0.3934
  867MPD2     H12779   4.093   4.244  16.804  0.5763 -0.3853  0.2618
  867MPD2    H112780   3.992   4.435  16.433 -0.4775  0.9208  0.7620
  867MPD2    H212781   4.140   4.046  16.425  1.3332 -0.6783 -0.2372
  867MPD2    H312782   4.058   4.246  16.317  1.0824 -1.0257  0.2602
  867MPD2     N12783   3.995   4.472  16.694 -0.0644  0.6068  0.1714
  867MPD2    H512784   3.935   4.533  16.640 -2.1480 -0.1966  1.5982
  867MPD2    N112785   4.175   4.013  16.685 -0.6276  0.4476  0.8976
  867MPD2    H712786   4.183   3.930  16.627 -0.9724  0.8507  0.2719
  868MPD2     C12787   1.646   4.082  13.211 -0.3205 -0.4512 -0.5295
  868MPD2    C112788   1.603   3.966  13.160 -0.0142  0.2353  0.7810
  868MPD2    C212789   1.489   3.909  13.208 -0.2101 -0.1668  0.1372
  868MPD2    C312790   1.415   3.976  13.306 -0.4514 -0.1617  0.1585
  868MPD2    C412791   1.459   4.093  13.366 -0.7285 -0.3668  0.0939
  868MPD2    C512792   1.575   4.146  13.313 -0.0108  0.1915 -0.7184
  868MPD2     H12793   1.445   3.824  13.157 -0.6144  1.3283 -2.0054
  868MPD2    H112794   1.406   4.148  13.443 -0.6877 -0.1320 -0.0441
  868MPD2    H212795   1.742   4.121  13.178 -0.3220 -0.1433 -0.1742
  868MPD2    H312796   1.620   4.237  13.351  0.2398  0.6672 -2.1604
  868MPD2     N12797   1.295   3.911  13.337 -0.2975 -0.1176 -0.3334
  868MPD2    H512798   1.284   3.811  13.320  0.9770 -0.3964  0.4839
  868MPD2    N112799   1.670   3.902  13.052 -0.3341  0.6892  0.6239
  868MPD2    H712800   1.753   3.954  13.024 -2.4985  2.7718 -1.8268
  869MPD2     C12801   2.242   1.509   0.964 -0.5664 -0.2292  0.6738
  869MPD2    C112802   2.225   1.626   0.905 -0.1469 -0.2539 -0.6170
  869MPD2    C212803   2.337   1.686   0.840 -0.1985 -0.0351  0.9867
  869MPD2    C312804   2.461   1.629   0.847 -0.0476 -0.3447  0.8596
  869MPD2    C412805   2.477   1.518   0.922  0.7097 -0.0533 -0.2673
  869MPD2    C512806   2.363   1.459   0.980  0.3541  0.2341 -0.6240
  869MPD2     H12807   2.336   1.790   0.809 -2.0110 -0.7853 -1.5365
  869MPD2    H112808   2.575   1.476   0.940  0.2618 -0.3882  1.4065
  869MPD2    H212809   2.161   1.449   1.002 -2.1857  1.4739 -0.0953
  869MPD2    H312810   2.369   1.360   1.026 -0.3794  0.1781 -0.6544
  869MPD2     N12811   2.589   1.690   0.821 -0.4635 -0.0350 -0.3408
  869MPD2    H512812   2.677   1.648   0.851 -0.1087  0.7859 -0.2436
  869MPD2    N112813   2.096   1.678   0.913 -0.8301 -0.4199 -0.2834
  869MPD2    H712814   2.042   1.630   0.985  0.0255  2.2512  2.1441
  870MPD2     C12815   2.718   0.655   0.948  0.3346 -0.0835  0.3684
  870MPD2    C112816   2.661   0.615   0.827 -0.4108 -0.7295  0.0034
  870MPD2    C212817   2.555   0.689   0.779 -0.3517  0.0938  0.2349
  870MPD2    C312818   2.507   0.801   0.850  0.4948 -0.9119 -0.0257
  870MPD2    C412819   2.577   0.842   0.963 -0.2520 -0.0731 -0.1927
  870MPD2    C512820   2.686   0.772   1.007  0.1611  0.4639  0.4005
  870MPD2     H12821   2.492   0.659   0.697 -0.0964  0.3421 -0.0496
  870MPD2    H112822   2.547   0.924   1.028 -0.1539 -0.3699  0.2244
  870MPD2    H212823   2.795   0.593   0.992 -1.3006 -1.4415  1.3363
  870MPD2    H312824   2.729   0.790   1.105  0.8611  1.6745 -0.1256
  870MPD2     N12825   2.402   0.875   0.794 -0.5022  0.5254  0.2746
  870MPD2    H512826   2.362   0.840   0.708  1.5651  0.0344 -0.4893
  870MPD2    N112827   2.702   0.493   0.776 -0.4831  0.3020  0.4435
  870MPD2    H712828   2.767   0.446   0.838  2.2081  0.4282 -2.2548
  871MPD2     C12829   3.496   0.137  16.331 -0.0166  0.0154  0.3514
  871MPD2    C112830   3.466   0.060  16.446 -0.1534 -0.5581 -0.6644
  871MPD2    C212831   3.452   4.666  16.426 -0.0572  0.3427 -0.1024
  871MPD2    C312832   3.492   4.608  16.306 -0.1131 -0.0684  0.0247
  871MPD2    C412833   3.539   4.678  16.199 -0.1342 -0.4176 -0.1016
  871MPD2    C512834   3.550   0.077  16.217 -0.5686 -0.2721  0.7566
  871MPD2     H12835   3.428   4.601  16.509 -0.5339  0.3171 -0.2600
  871MPD2    H112836   3.580   4.625  16.114  0.3984 -0.1667 -0.0068
  871MPD2    H212837   3.493   0.245  16.336  1.6418  0.0555  0.6641
  871MPD2    H312838   3.593   0.133  16.134 -0.0803 -0.6341  0.7621
  871MPD2     N12839   3.492   4.467  16.301  0.6875  0.5721 -0.1029
  871MPD2    H512840   3.467   4.427  16.391  0.6580 -1.5650 -1.0635
  871MPD2    N112841   3.425   0.125  16.565 -0.4685  0.4414 -0.3172
  871MPD2    H712842   3.451   0.223  16.568 -2.5976  1.0310 -1.3991
  872MPD2     C12843   4.155   2.358  14.101 -0.7184 -0.3026  0.1131
  872MPD2    C112844   4.081   2.478  14.107  0.1561  0.5163  0.2205
  872MPD2    C212845   3.947   2.482  14.131  0.0590  0.2797 -0.0045
  872MPD2    C312846   3.879   2.365  14.144  0.2438  0.3952 -0.3938
  872MPD2    C412847   3.952   2.241  14.135  0.2683 -0.3944  0.3818
  872MPD2    C512848   4.084   2.246  14.114 -0.5013 -0.5822 -0.4566
  872MPD2     H12849   3.890   2.574  14.136  1.3314  0.8981  3.4012
  872MPD2    H112850   3.894   2.151  14.148  0.1595 -0.6302 -1.8052
  872MPD2    H212851   4.255   2.356  14.058 -0.9951  0.3585 -0.5671
  872MPD2    H312852   4.137   2.152  14.108 -2.1854 -1.4481 -1.8793
  872MPD2     N12853   3.743   2.359  14.161  0.4319  0.3089  0.4926
  872MPD2    H512854   3.708   2.265  14.151 -0.2150  0.4939  1.0109
  872MPD2    N112855   4.148   2.602  14.102  0.4552 -0.1853  0.2251
  872MPD2    H712856   4.097   2.690  14.098  0.2079 -0.4413 -2.0246
  873MPD2     C12857   0.256   2.225   1.218  0.5270  0.1346  0.1262
  873MPD2    C112858   0.364   2.140   1.203 -0.6329  0.0021  0.0262
  873MPD2    C212859   0.353   2.047   1.101 -0.1632  0.2372  0.5138
  873MPD2    C312860   0.254   2.052   1.007 -0.3792  0.5784 -0.2084
  873MPD2    C412861   0.155   2.140   1.025  0.0033 -0.1498  0.5116
  873MPD2    C512862   0.153   2.226   1.125  0.1254  0.3771  0.1733
  873MPD2     H12863   0.437   1.983   1.077  0.5352  1.5794 -0.6587
  873MPD2    H112864   0.086   2.156   0.943  2.0907 -0.3000 -1.2823
  873MPD2    H212865   0.247   2.292   1.302  1.8122 -1.1977  1.3161
  873MPD2    H312866   0.075   2.301   1.129 -1.0291 -0.9182  1.8211
  873MPD2     N12867   0.253   1.971   0.883 -0.0635 -0.4038  0.4165
  873MPD2    H512868   0.165   1.979   0.832 -0.8739  0.2010  1.8882
  873MPD2    N112869   0.473   2.142   1.290  0.0298  0.8691 -0.7273
  873MPD2    H712870   0.473   2.214   1.362  0.8224  1.4261 -1.2868
  874MPD2     C12871   0.633   2.644  16.154 -0.2817 -0.2584 -0.5114
  874MPD2    C112872   0.717   2.576  16.243  0.1010  0.3083 -0.1747
  874MPD2    C212873   0.849   2.611  16.229 -0.0853  0.3976  0.8594
  874MPD2    C312874   0.904   2.696  16.136  0.1578  0.6627 -0.2958
  874MPD2    C412875   0.822   2.757  16.048  0.4552  0.2705 -0.5507
  874MPD2    C512876   0.689   2.727  16.052  0.0935 -0.2551  0.1324
  874MPD2     H12877   0.923   2.567  16.295 -2.5276 -0.1468  3.2383
  874MPD2    H112878   0.859   2.818  15.967  0.2506 -1.2532 -1.7949
  874MPD2    H212879   0.528   2.621  16.159 -0.5302  0.7823 -1.1050
  874MPD2    H312880   0.622   2.781  15.986  0.9163  1.6187  0.8415
  874MPD2     N12881   1.044   2.727  16.142 -0.7772  0.0056 -0.6357
  874MPD2    H512882   1.097   2.675  16.211 -0.5618 -2.1310 -2.4183
  874MPD2    N112883   0.665   2.484  16.339  0.2229 -0.5409  0.1860
  874MPD2    H712884   0.565   2.465  16.336  0.1428 -0.2903  1.0646
  875MPD2     C12885   1.632   1.023  14.328 -0.5360 -0.0449 -0.3948
  875MPD2    C112886   1.511   1.078  14.371  0.1613  0.4157 -0.4768
  875MPD2    C212887   1.513   1.129  14.500  0.1196  0.8499 -0.5081
  875MPD2    C312888   1.624   1.125  14.581  0.5845 -0.4946  0.8138
  875MPD2    C412889   1.737   1.060  14.539  0.7674  0.2334 -0.3098
  875MPD2    C512890   1.742   1.016  14.412 -0.0185 -0.6244  0.1870
  875MPD2     H12891   1.418   1.154  14.546 -0.2902 -0.2956 -0.7405
  875MPD2    H112892   1.823   1.060  14.605 -0.3458 -0.7682  1.1507
  875MPD2    H212893   1.646   0.984  14.228 -0.0148  1.0525 -0.7385
  875MPD2    H312894   1.833   0.976  14.369  1.1595  1.1679  1.0305
  875MPD2     N12895   1.620   1.167  14.719  0.3966 -0.0662  0.4375
  875MPD2    H512896   1.702   1.150  14.777 -0.6467  0.1678  1.9798
  875MPD2    N112897   1.387   1.080  14.303 -0.2381 -0.2373 -0.1136
  875MPD2    H712898   1.310   1.133  14.342 -0.2159  0.3060 -0.8040
  876MPD2     C12899   0.576   2.252  16.159 -0.5628 -0.2524 -0.5212
  876MPD2    C112900   0.694   2.220  16.096 -0.2061  0.7453 -0.2220
  876MPD2    C212901   0.775   2.109  16.143 -0.1298 -0.1363  0.3388
  876MPD2    C312902   0.723   2.025  16.236 -0.1463  0.2798  0.7126
  876MPD2    C412903   0.600   2.059  16.289 -0.2174  0.4316 -0.7589
  876MPD2    C512904   0.525   2.169  16.255  0.0358 -0.3584 -0.1143
  876MPD2     H12905   0.868   2.080  16.095  0.1271  0.9512  0.1846
  876MPD2    H112906   0.539   1.998  16.355 -0.7019 -1.0394 -2.5606
  876MPD2    H212907   0.515   2.332  16.119 -1.1729  0.7635  2.4568
  876MPD2    H312908   0.435   2.186  16.312  0.6181  0.8503  0.4425
  876MPD2     N12909   0.792   1.910  16.270  0.2417 -0.6537  0.2280
  876MPD2    H512910   0.874   1.891  16.214  1.7171  0.9447  1.8565
  876MPD2    N112911   0.733   2.316  15.994  0.2962  0.1416 -0.2600
  876MPD2    H712912   0.664   2.384  15.966  1.2364  0.9702 -0.5742
  877MPD2     C12913   0.541   2.611  15.379  0.7316 -0.5623  0.0026
  877MPD2    C112914   0.662   2.680  15.383 -0.0823  0.4473 -0.7919
  877MPD2    C212915   0.722   2.728  15.267  0.1662  0.0852  0.2359
  877MPD2    C312916   0.646   2.734  15.149 -0.8807  0.1646  0.2547
  877MPD2    C412917   0.517   2.677  15.150  0.0022  0.3767  0.5448
  877MPD2    C512918   0.469   2.610  15.261  0.2670  0.2078 -0.2686
  877MPD2     H12919   0.824   2.767  15.270  0.6604 -1.1830  0.0037
  877MPD2    H112920   0.460   2.668  15.058 -1.2550 -0.1609  1.3739
  877MPD2    H212921   0.496   2.559  15.462 -0.4680 -1.5398 -1.2585
  877MPD2    H312922   0.379   2.549  15.265 -0.5125  1.4525  1.1926
  877MPD2     N12923   0.692   2.789  15.029 -0.0786  0.2914  0.6179
  877MPD2    H512924   0.622   2.781  14.956 -0.7465  1.1229  1.1591
  877MPD2    N112925   0.736   2.681  15.504  0.9128  0.5139  0.2132
  877MPD2    H712926   0.822   2.734  15.496  1.1673  0.1801  0.7203
  878MPD2     C12927   0.513   1.455  13.182  0.7012 -0.5899  0.4782
  878MPD2    C112928   0.582   1.565  13.190  0.1881  0.2678 -0.6550
  878MPD2    C212929   0.593   1.640  13.312  0.2885  0.0538 -0.2608
  878MPD2    C312930   0.543   1.577  13.424  0.0136 -0.4717  0.6085
  878MPD2    C412931   0.475   1.458  13.420 -0.4057 -0.1306 -0.0198
  878MPD2    C512932   0.453   1.409  13.294 -0.1708 -0.3026 -0.1389
  878MPD2     H12933   0.635   1.737  13.333  0.6533 -0.4896  1.5373
  878MPD2    H112934   0.422   1.408  13.500 -0.2217  0.9219  0.7596
  878MPD2    H212935   0.498   1.415  13.082 -1.6498 -1.4510  1.1686
  878MPD2    H312936   0.378   1.332  13.289 -1.3894  0.8875 -0.3337
  878MPD2     N12937   0.545   1.652  13.544 -0.0434  0.0325  0.5969
  878MPD2    H512938   0.565   1.751  13.536 -1.2998  0.3405  1.3254
  878MPD2    N112939   0.635   1.609  13.065  0.3278  0.2733  0.0985
  878MPD2    H712940   0.615   1.542  12.991 -1.9549  0.6860  0.3202
  879MPD2     C12941   1.252   3.167  17.213 -0.6017 -0.5123 -0.0486
  879MPD2    C112942   1.138   3.107  17.258 -0.5025  0.7513 -0.6807
  879MPD2    C212943   1.073   3.018  17.180 -0.6152  0.4316 -0.6272
  879MPD2    C312944   1.124   2.985  17.056 -0.3476  0.2613  0.7803
  879MPD2    C412945   1.243   3.047  17.012  0.0057  0.2034  0.3240
  879MPD2    C512946   1.304   3.146  17.088 -0.1237 -0.5057  0.3903
  879MPD2     H12947   0.979   2.978  17.217 -1.0008  1.5227 -0.4208
  879MPD2    H112948   1.282   3.012  16.917 -0.4002  1.7431 -0.4164
  879MPD2    H212949   1.303   3.239  17.276  1.2838  0.6266 -2.8252
  879MPD2    H312950   1.398   3.178  17.044 -0.6394  2.6617  1.6336
  879MPD2     N12951   1.053   2.897  16.966 -0.2380  0.6766  0.3599
  879MPD2    H512952   1.082   2.895  16.869 -0.5744  0.3384  0.2659
  879MPD2    N112953   1.097   3.134  17.396 -0.3143 -0.0213 -0.3137
  879MPD2    H712954   1.141   3.210  17.447 -0.1230 -0.8049  0.6941
  880MPD2     C12955   1.710   0.080   0.322 -0.7551 -0.2401  0.1432
  880MPD2    C112956   1.800   0.146   0.247  0.2730  0.3906 -0.1729
  880MPD2    C212957   1.922   0.083   0.232 -0.0219  0.7199 -0.1063
  880MPD2    C312958   1.946   4.698   0.283 -0.3177 -0.2976 -0.3753
  880MPD2    C412959   1.846   4.633   0.352  0.0630 -0.1109  0.4482
  880MPD2    C512960   1.730   4.701   0.380 -0.0475 -0.2155  0.2516
  880MPD2     H12961   2.006   0.130   0.183 -0.7574  2.7779  0.5886
  880MPD2    H112962   1.857   4.534   0.395  1.2794 -0.5913 -0.9450
  880MPD2    H212963   1.614   0.127   0.336 -0.7661 -0.4760  0.8429
  880MPD2    H312964   1.648   4.646   0.426  0.9551 -4.0190 -2.4427
  880MPD2     N12965   2.072   4.638   0.264 -0.1213 -0.1120  0.2246
  880MPD2    H512966   2.147   4.694   0.226  1.0899 -2.6701 -1.1321
  880MPD2    N112967   1.759   0.260   0.176  0.7638  0.0346 -0.0706
  880MPD2    H712968   1.665   0.291   0.197  0.2636  0.3621 -2.8120
  881MPD2     C12969   1.925   1.025  17.151  1.1659 -0.8481 -1.0028
  881MPD2    C112970   2.010   0.944  17.218  0.1682 -0.3396 -0.1455
  881MPD2    C212971   1.973   0.878  17.333  0.2150 -0.7325 -0.5162
  881MPD2    C312972   1.848   0.889  17.390  0.4584  0.2299 -0.6414
  881MPD2    C412973   1.763   0.963  17.317  0.4374  0.1198  0.0767
  881MPD2    C512974   1.805   1.037  17.208  0.4316  0.2129 -0.8025
  881MPD2     H12975   2.048   0.821  17.386  3.4011  2.1435 -1.9109
  881MPD2    H112976   1.660   0.966  17.350  0.5572  0.0338  0.4675
  881MPD2    H212977   1.968   1.071  17.063  0.8710  0.4095 -0.4887
  881MPD2    H312978   1.730   1.100  17.161 -0.5698 -2.2467 -2.5323
  881MPD2     N12979   1.804   0.816  17.505 -0.7473  0.1274  0.5961
  881MPD2    H512980   1.712   0.832  17.545 -2.5456 -0.9052 -3.0763
  881MPD2    N112981   2.125   0.902  17.142 -0.9060 -0.2855 -0.2384
  881MPD2    H712982   2.135   0.948  17.052 -0.4880 -3.0756 -1.6138
  882MPD2     C12983   0.749   2.777  14.196  0.1691 -0.6436 -0.6336
  882MPD2    C112984   0.675   2.801  14.313  0.1384  0.3087  0.1312
  882MPD2    C212985   0.535   2.774  14.314 -0.2425 -0.3754  0.4356
  882MPD2    C312986   0.475   2.719  14.196 -0.1558  0.2606 -0.1829
  882MPD2    C412987   0.548   2.692  14.086 -0.7252  0.2040 -0.2444
  882MPD2    C512988   0.683   2.728  14.085  0.6663 -0.0856  0.4397
  882MPD2     H12989   0.479   2.797  14.405 -1.7576  0.6758 -0.7546
  882MPD2    H112990   0.501   2.655  13.995 -2.9165 -1.5211  1.5950
  882MPD2    H212991   0.854   2.803  14.186  0.4881 -1.7838 -0.3104
  882MPD2    H312992   0.742   2.707  13.996 -2.6537 -0.2334 -1.7200
  882MPD2     N12993   0.339   2.688  14.197  0.2424  0.2951 -0.5883
  882MPD2    H512994   0.301   2.633  14.120  0.4157  0.6571 -0.9282
  882MPD2    N112995   0.748   2.851  14.425  0.2601  0.1667 -0.0110
  882MPD2    H712996   0.847   2.868  14.409 -0.5154  3.5990 -1.2322
  883MPD2     C12997   2.773   2.468  16.239 -0.6017  0.0734  0.1505
  883MPD2    C112998   2.815   2.598  16.252 -0.0027  0.2239  0.4290
  883MPD2    C212999   2.912   2.633  16.345 -0.1893  0.0988 -0.0745
  883MPD2    C313000   2.968   2.530  16.424 -0.4316  0.4232 -0.0746
  883MPD2    C413001   2.921   2.400  16.412  0.1818 -0.2603  0.4795
  883MPD2    C513002   2.819   2.371  16.321 -0.3252 -0.3941 -1.0413
  883MPD2     H13003   2.959   2.731  16.350 -1.8742  0.8414  1.0100
  883MPD2    H113004   2.961   2.321  16.473 -0.5194 -1.7202 -0.9582
  883MPD2    H213005   2.688   2.459  16.172 -0.7790  0.5153  0.3192
  883MPD2    H313006   2.771   2.274  16.316 -1.8429  0.4051 -2.0960
  883MPD2     N13007   3.062   2.566  16.524 -0.2779  0.0554  0.1947
  883MPD2    H513008   3.081   2.665  16.534 -0.4225  0.1109 -0.0865
  883MPD2    N113009   2.768   2.703  16.174  0.5220 -0.3044  0.3071
  883MPD2    H713010   2.816   2.792  16.187  0.9316 -0.7125  1.6375
  884MPD2     C13011   0.005   3.143  15.095  0.1834 -0.5287 -0.3556
  884MPD2    C113012   4.698   3.271  15.142  0.6677 -0.1430  0.4070
  884MPD2    C213013   4.574   3.301  15.184  0.3529  0.5874 -0.1306
  884MPD2    C313014   4.488   3.195  15.191  0.1820  0.2283  0.3644
  884MPD2    C413015   4.529   3.065  15.156 -0.2777  0.8011  0.0901
  884MPD2    C513016   4.657   3.043  15.113 -0.4764  0.0075  0.0980
  884MPD2     H13017   4.553   3.405  15.205 -1.6130 -0.0049  0.8152
  884MPD2    H113018   4.469   2.976  15.173 -1.3452  0.8807 -3.1508
  884MPD2    H213019   0.107   3.121  15.066 -0.4377 -1.0517 -2.1528
  884MPD2    H313020   4.692   2.942  15.095  1.0422  0.9194 -2.0379
  884MPD2     N13021   4.360   3.229  15.234  0.0056  0.1027  0.3605
  884MPD2    H513022   4.344   3.325  15.264 -4.1237 -0.3275 -0.4202
  884MPD2    N113023   0.049   3.386  15.132  0.1923  0.1745 -0.0078
  884MPD2    H713024   0.009   3.479  15.138  1.0711  0.5489  0.0036
  885MPD2     C13025   2.267   3.797   0.046 -0.1524  0.1690 -0.5820
  885MPD2    C113026   2.390   3.742   0.032  0.4026  0.3910  0.2293
  885MPD2    C213027   2.453   3.749  17.667  0.4869  0.2928  0.2782
  885MPD2    C313028   2.390   3.806  17.557 -0.0673  0.6732 -0.3523
  885MPD2    C413029   2.260   3.850  17.574  0.3713 -0.0817 -0.1364
  885MPD2    C513030   2.196   3.848  17.697 -0.1170 -0.4181  1.1779
  885MPD2     H13031   2.550   3.709  17.641  0.5959  0.7422 -0.0200
  885MPD2    H113032   2.207   3.898  17.492  1.0793  1.8231  0.5262
  885MPD2    H213033   2.213   3.797   0.140  2.6911 -0.3547  1.0601
  885MPD2    H313034   2.098   3.892  17.712  0.1230  1.0304 -1.5123
  885MPD2     N13035   2.465   3.818  17.434  0.1917  0.4245  0.2639
  885MPD2    H513036   2.560   3.784  17.444 -0.5607 -1.4612  1.0877
  885MPD2    N113037   2.449   3.684   0.148 -0.3330 -0.9319 -0.3690
  885MPD2    H713038   2.406   3.704   0.238  3.1810  3.6770  0.2522
  886MPD2     C13039   4.204   1.688  15.661 -0.5731 -0.4205 -0.1477
  886MPD2    C113040   4.324   1.694  15.596 -0.1587  0.5079  0.0040
  886MPD2    C213041   4.337   1.798  15.507  0.3753 -0.2046 -0.2088
  886MPD2    C313042   4.233   1.880  15.475 -0.4400  0.7570  0.8594
  886MPD2    C413043   4.113   1.874  15.542 -0.6985  0.7468 -0.5205
  886MPD2    C513044   4.102   1.783  15.646 -0.3865 -0.2701 -0.2781
  886MPD2     H13045   4.428   1.819  15.452  0.8420 -1.0300  0.2596
  886MPD2    H113046   4.032   1.944  15.529 -0.1760  1.6910  1.2772
  886MPD2    H213047   4.210   1.632  15.754 -0.3805 -1.3108 -0.6907
  886MPD2    H313048   4.017   1.761  15.710  1.0265 -1.1477  1.3123
  886MPD2     N13049   4.260   1.972  15.369 -0.1917 -0.5364 -0.0373
  886MPD2    H513050   4.349   1.968  15.322 -0.4601 -2.5737 -0.3782
  886MPD2    N113051   4.439   1.620  15.632  0.6252 -0.2038 -0.1111
  886MPD2    H713052   4.523   1.648  15.582  0.2371  2.2404  0.6126
  887MPD2     C13053   0.267   1.888  15.962 -0.8340  0.2925 -0.2712
  887MPD2    C113054   0.134   1.868  15.922  0.1239  0.1176 -0.3434
  887MPD2    C213055   0.056   1.978  15.918 -0.5980 -0.3909  0.2548
  887MPD2    C313056   0.114   2.104  15.934  0.7733  0.1846  0.0537
  887MPD2    C413057   0.247   2.117  15.965  0.4969  0.1475  0.3952
  887MPD2    C513058   0.325   2.008  15.983  0.1176  0.2783  0.2298
  887MPD2     H13059   4.691   1.969  15.894 -0.7357  2.2775 -0.1633
  887MPD2    H113060   0.292   2.212  15.988 -1.7788  1.1107  0.8973
  887MPD2    H213061   0.342   1.810  15.961 -0.6302  0.4819  1.0010
  887MPD2    H313062   0.429   2.010  16.013 -0.0620  1.6204  0.7390
  887MPD2     N13063   0.041   2.229  15.923 -0.1712  0.1566 -0.1716
  887MPD2    H513064   0.099   2.312  15.931 -0.8045  0.4925  0.9289
  887MPD2    N113065   0.066   1.744  15.909 -0.7186  0.1494 -0.0313
  887MPD2    H713066   4.709   1.761  15.886 -0.4358  1.9183  0.0574
  888MPD2     C13067   1.510   1.964  14.840 -0.0812  0.2793  0.0696
  888MPD2    C113068   1.515   2.011  14.967  0.1724  0.1020 -0.4904
  888MPD2    C213069   1.584   2.124  14.985  0.3342 -0.0282  0.2219
  888MPD2    C313070   1.639   2.200  14.883  0.1431 -0.3750  0.3224
  888MPD2    C413071   1.626   2.151  14.754 -0.0804  0.2914 -0.7326
  888MPD2    C513072   1.563   2.034  14.736  0.6637 -0.2399 -0.3895
  888MPD2     H13073   1.594   2.161  15.086  1.3941  1.4566 -0.4322
  888MPD2    H113074   1.657   2.189  14.657  0.0237 -1.1544 -1.2630
  888MPD2    H213075   1.463   1.870  14.813  1.3900 -1.5936  4.0118
  888MPD2    H313076   1.556   1.992  14.636  2.9544 -2.4273  0.3601
  888MPD2     N13077   1.705   2.317  14.926 -0.0610  0.0506  0.4279
  888MPD2    H513078   1.724   2.343  15.023 -0.1255 -1.0234  0.7244
  888MPD2    N113079   1.473   1.931  15.076  0.3087  0.4288  0.1959
  888MPD2    H713080   1.507   1.961  15.167  0.8656  2.8346 -0.8135
  889MPD2     C13081   0.908   1.520  13.803  0.1925 -0.0925  0.2085
  889MPD2    C113082   1.014   1.536  13.718  0.0146 -0.1135  0.3892
  889MPD2    C213083   1.050   1.663  13.678  0.5226 -0.2037  0.4055
  889MPD2    C313084   1.003   1.768  13.745 -0.4405  0.1466 -0.5928
  889MPD2    C413085   0.892   1.762  13.831 -0.2987 -0.3185 -1.6166
  889MPD2    C513086   0.844   1.633  13.847 -0.0344  0.6059 -0.1646
  889MPD2     H13087   1.135   1.673  13.610 -1.2033 -0.9030 -1.8505
  889MPD2    H113088   0.851   1.848  13.881  1.5266  0.5147 -1.5474
  889MPD2    H213089   0.850   1.430  13.820  0.6635  0.0479  2.5307
  889MPD2    H313090   0.753   1.629  13.905  0.8309 -2.0735  0.9833
  889MPD2     N13091   1.060   1.898  13.730 -0.0847  0.2705  0.8469
  889MPD2    H513092   1.009   1.977  13.769 -2.0248 -1.2790  1.4527
  889MPD2    N113093   1.041   1.430  13.630  0.6730 -0.1251  0.4805
  889MPD2    H713094   1.085   1.457  13.542 -0.1287  0.1684  0.1716
  890MPD2     C13095   0.629   3.290  14.613  0.2355 -0.6681  0.4322
  890MPD2    C113096   0.735   3.333  14.682  0.3921 -0.1501  0.5194
  890MPD2    C213097   0.751   3.291  14.816 -0.4891  0.0881 -0.3446
  890MPD2    C313098   0.660   3.210  14.878  0.3164 -0.1995 -0.0976
  890MPD2    C413099   0.556   3.166  14.795 -0.0595  0.5818  0.3382
  890MPD2    C513100   0.542   3.203  14.668  0.4117  0.2919  0.3040
  890MPD2     H13101   0.830   3.327  14.881  0.1289 -1.5939 -0.1728
  890MPD2    H113102   0.478   3.099  14.830  2.3824 -2.5522 -0.2833
  890MPD2    H213103   0.608   3.319  14.511  1.5289 -2.7102 -0.4143
  890MPD2    H313104   0.454   3.174  14.611 -0.0716  0.3335  1.0254
  890MPD2     N13105   0.665   3.182  15.015 -0.1161 -0.6192 -0.5197
  890MPD2    H513106   0.750   3.220  15.056 -1.1001  1.7216 -0.7049
  890MPD2    N113107   0.823   3.422  14.617  0.1386  0.4638 -0.0278
  890MPD2    H713108   0.794   3.460  14.527  1.2371  0.0229 -0.5600
  891MPD2     C13109   3.594   2.534  16.656  0.5086 -0.2375 -0.9855
  891MPD2    C113110   3.591   2.396  16.651  0.1119 -0.1364  0.4336
  891MPD2    C213111   3.685   2.320  16.724 -0.5677 -0.1823 -0.2105
  891MPD2    C313112   3.776   2.390  16.798 -0.9318  0.5690  0.4455
  891MPD2    C413113   3.781   2.529  16.800  0.1311 -0.8037 -0.0099
  891MPD2    C513114   3.691   2.599  16.733  0.2469 -0.0954 -0.6230
  891MPD2     H13115   3.697   2.212  16.719  2.7985  0.2413 -1.4439
  891MPD2    H113116   3.854   2.587  16.855 -2.0791  2.4929 -0.5605
  891MPD2    H213117   3.519   2.591  16.602  0.1500  0.3465  0.1431
  891MPD2    H313118   3.706   2.706  16.741 -4.0093  0.6126 -2.1723
  891MPD2     N13119   3.870   2.311  16.867 -0.2795  0.3378 -0.2343
  891MPD2    H513120   3.851   2.212  16.880  2.1967 -0.2173 -0.8772
  891MPD2    N113121   3.493   2.335  16.579 -0.1091  0.4572 -0.3744
  891MPD2    H713122   3.437   2.389  16.515 -0.7114  0.6785  0.3432
  892MPD2     C13123   4.544   2.668  15.068  0.0004  0.8183  0.0598
  892MPD2    C113124   4.445   2.683  14.967  0.3300 -0.8426  0.6387
  892MPD2    C213125   4.483   2.680  14.835 -0.3547  0.7568  0.4727
  892MPD2    C313126   4.626   2.666  14.809  0.5179  0.0997 -0.2256
  892MPD2    C413127   4.718   2.671  14.907  0.3091 -0.4787 -0.3212
  892MPD2    C513128   4.675   2.668  15.032  0.1388  0.1799  0.1613
  892MPD2     H13129   4.415   2.695  14.751  0.2539  0.9761  0.0174
  892MPD2    H113130   0.084   2.654  14.895  0.4070  0.0447 -0.1761
  892MPD2    H213131   4.517   2.669  15.173  1.1891  1.2181  0.3640
  892MPD2    H313132   4.739   2.674  15.119  1.4072 -1.4122 -0.6564
  892MPD2     N13133   4.684   2.649  14.677  0.1392  0.7285 -0.2061
  892MPD2    H513134   0.044   2.654  14.664  0.3855 -3.2368  0.2139
  892MPD2    N113135   4.308   2.701  14.992  0.3312  0.0493 -0.4737
  892MPD2    H713136   4.256   2.739  14.914  2.0677  0.4192 -1.4505
  893MPD2     C13137   1.829   0.270   1.508 -0.4357  0.2864  0.7484
  893MPD2    C113138   1.765   0.360   1.429  0.5861 -0.8519 -0.4017
  893MPD2    C213139   1.652   0.317   1.352  0.1502  0.3591 -0.3497
  893MPD2    C313140   1.610   0.185   1.368 -0.1785  0.0525  0.7415
  893MPD2    C413141   1.676   0.105   1.455 -0.2559 -0.4870  0.0438
  893MPD2    C513142   1.787   0.139   1.521  0.1800 -0.3082 -0.9526
  893MPD2     H13143   1.589   0.383   1.293  0.4696  1.5657  0.6438
  893MPD2    H113144   1.629   0.010   1.478 -2.3611  0.2852 -1.0449
  893MPD2    H213145   1.908   0.301   1.575 -0.4835 -0.0534  0.9609
  893MPD2    H313146   1.841   0.069   1.583 -1.8416 -1.3979 -0.4289
  893MPD2     N13147   1.491   0.124   1.319  0.1658  0.1297  0.0844
  893MPD2    H513148   1.461   0.035   1.356 -0.3780  0.4125  0.3252
  893MPD2    N113149   1.815   0.493   1.426  0.5040 -0.0588  0.2724
  893MPD2    H713150   1.887   0.526   1.490  0.5097  1.5959 -0.5648
  894MPD2     C13151   4.203   3.428   0.901  0.8966 -0.3499  0.1388
  894MPD2    C113152   4.216   3.493   1.022 -0.5932  0.3942 -0.1232
  894MPD2    C213153   4.295   3.607   1.044  0.2772 -0.0411  0.1831
  894MPD2    C313154   4.367   3.657   0.933 -0.3935  1.1593  0.2303
  894MPD2    C413155   4.359   3.593   0.809  0.1147  0.5151  0.3121
  894MPD2    C513156   4.282   3.478   0.804 -0.0766  0.2468  0.3115
  894MPD2     H13157   4.290   3.656   1.141 -1.0776  1.1628 -0.4911
  894MPD2    H113158   4.413   3.616   0.718  2.0302  0.3868  1.4126
  894MPD2    H213159   4.136   3.347   0.876 -0.7124  1.3586 -1.0579
  894MPD2    H313160   4.267   3.436   0.705 -0.2092  0.2898  0.3132
  894MPD2     N13161   4.450   3.772   0.964 -0.4708  0.5344 -0.3134
  894MPD2    H513162   4.422   3.822   1.048 -0.2269 -1.4558  0.9595
  894MPD2    N113163   4.136   3.454   1.131  0.4931 -0.1261 -0.4559
  894MPD2    H713164   4.150   3.486   1.226  1.9997 -0.1551 -0.6726
  895MPD2     C13165   3.836   1.898  14.075  0.4914 -0.3235  0.2533
  895MPD2    C113166   3.776   1.884  13.950  0.2177  0.7474 -0.0336
  895MPD2    C213167   3.839   1.818  13.847 -0.1976  0.2350 -0.4504
  895MPD2    C313168   3.959   1.755  13.856  0.1378 -0.5766 -0.4567
  895MPD2    C413169   4.016   1.766  13.979  0.5376 -0.7243 -0.8304
  895MPD2    C513170   3.961   1.836  14.089 -0.2880 -0.0678  0.5437
  895MPD2     H13171   3.781   1.826  13.755  0.4912  1.7091 -0.7500
  895MPD2    H113172   4.107   1.711  13.999  1.2522  0.4564 -0.8484
  895MPD2    H213173   3.784   1.942  14.159  0.6361  2.5367 -1.1770
  895MPD2    H313174   4.015   1.844  14.183 -0.8954  0.4926  0.8474
  895MPD2     N13175   4.024   1.669  13.762 -0.0504  0.2222 -0.3131
  895MPD2    H513176   4.120   1.635  13.772  0.1466  0.8541 -0.0839
  895MPD2    N113177   3.659   1.953  13.916  0.2870 -0.4642 -0.0745
  895MPD2    H713178   3.623   1.934  13.823 -0.5853 -2.1598  0.6150
  896MPD2     C13179   1.556   4.574   1.085  0.6899 -0.0588 -0.3839
  896MPD2    C113180   1.499   4.637   0.971 -1.2001  0.3640 -0.2625
  896MPD2    C213181   1.373   4.592   0.931  0.1143 -0.1007  0.4752
  896MPD2    C313182   1.308   4.491   0.995 -0.5608 -0.3849 -0.2204
  896MPD2    C413183   1.367   4.429   1.102 -0.2995  0.0539  0.4517
  896MPD2    C513184   1.494   4.465   1.137 -0.1387  0.0062 -0.1436
  896MPD2     H13185   1.329   4.616   0.835 -2.5130  1.8197  2.1698
  896MPD2    H113186   1.311   4.353   1.155  1.5822  0.7548  3.4663
  896MPD2    H213187   1.653   4.607   1.122  0.2599 -1.4663  1.9731
  896MPD2    H313188   1.535   4.416   1.224 -0.7693 -0.8512 -0.3335
  896MPD2     N13189   1.180   4.457   0.949  0.1557  0.4873  0.6074
  896MPD2    H513190   1.130   4.518   0.886 -1.3886  0.4968  1.8284
  896MPD2    N113191   1.562   0.001   0.907  0.4727  0.0294 -0.0732
  896MPD2    H713192   1.659   0.023   0.929 -0.0584  2.3419  0.0071
  897MPD2     C13193   2.431   2.678  10.541 -0.0874 -0.9237 -0.2135
  897MPD2    C113194   2.437   2.568  10.460 -0.5811 -0.3770 -0.1373
  897MPD2    C213195   2.383   2.449  10.503 -0.3998 -0.1028  0.3341
  897MPD2    C313196   2.310   2.435  10.618  0.3291 -0.0109  0.1994
  897MPD2    C413197   2.305   2.541  10.702 -0.5348 -0.8311  0.0437
  897MPD2    C513198   2.365   2.666  10.659 -0.0268  0.8945 -1.4141
  897MPD2     H13199   2.364   2.371  10.429  0.6159  0.5746 -0.6259
  897MPD2    H113200   2.256   2.541  10.799 -1.8375 -3.1128 -0.6170
  897MPD2    H213201   2.481   2.773  10.523 -0.1840 -1.0332 -1.0616
  897MPD2    H313202   2.358   2.746  10.731  0.2196 -1.6693  1.4830
  897MPD2     N13203   2.242   2.314  10.641 -0.4447 -0.1948  0.0888
  897MPD2    H513204   2.240   2.243  10.569 -2.0298  0.6797 -0.7334
  897MPD2    N113205   2.506   2.595  10.346 -0.3735 -0.1154  0.5034
  897MPD2    H713206   2.536   2.689  10.325  0.8941 -0.3768  1.1335
  898MPD2     C13207   3.480   2.119   0.829  0.0749 -0.6275 -0.0553
  898MPD2    C113208   3.464   2.052   0.705  0.1861  0.0221  0.4788
  898MPD2    C213209   3.462   2.131   0.591 -0.2732  0.3641  0.0092
  898MPD2    C313210   3.492   2.261   0.602 -0.3427 -0.3343 -0.6108
  898MPD2    C413211   3.524   2.321   0.727  0.1601  0.4002  0.3296
  898MPD2    C513212   3.512   2.249   0.837 -0.5726 -0.5837 -0.0459
  898MPD2     H13213   3.451   2.074   0.499  0.4185 -0.9439  0.7376
  898MPD2    H113214   3.547   2.427   0.732  0.6545  0.3715 -1.6269
  898MPD2    H213215   3.477   2.066   0.923 -1.9146 -0.1339  0.1588
  898MPD2    H313216   3.528   2.294   0.935 -0.8531  0.2118 -0.3676
  898MPD2     N13217   3.502   2.335   0.487 -0.2934  0.2936 -0.3972
  898MPD2    H513218   3.465   2.299   0.399  0.7338 -0.0589 -0.6840
  898MPD2    N113219   3.459   1.915   0.688 -0.1717 -0.5892 -0.3529
  898MPD2    H713220   3.439   1.865   0.602  0.1982 -1.1935 -0.0890
  899MPD2     C13221   0.643   2.601  17.749 -0.0694  0.2113  0.1618
  899MPD2    C113222   0.512   2.643  17.723 -0.0362  0.1248  0.2483
  899MPD2    C213223   0.405   2.568   0.013 -0.2900  0.5980 -0.2911
  899MPD2    C313224   0.428   2.454   0.092 -0.2200 -0.0011  0.1666
  899MPD2    C413225   0.560   2.416   0.118 -0.2818 -0.0908  0.0323
  899MPD2    C513226   0.661   2.482   0.060  0.6474  0.4405 -0.2203
  899MPD2     H13227   0.305   2.605  17.757 -1.0612 -0.8747  1.2920
  899MPD2    H113228   0.587   2.328   0.174 -1.3509 -0.2210  0.3424
  899MPD2    H213229   0.733   2.643  17.706 -0.2265 -0.7432 -1.1048
  899MPD2    H313230   0.764   2.459   0.085  0.1403 -3.2478 -1.6071
  899MPD2     N13231   0.313   2.398   0.146 -0.5398  0.0953  0.4523
  899MPD2    H513232   0.222   2.423   0.109 -0.4148 -0.6701 -0.3794
  899MPD2    N113233   0.474   2.752  17.644 -0.6338 -0.0677 -0.3520
  899MPD2    H713234   0.374   2.761  17.630 -0.5231  1.1255 -0.4233
  900MPD2     C13235   0.209   4.296  12.565 -0.0306 -0.2369  0.1000
  900MPD2    C113236   0.128   4.199  12.607 -0.2419 -0.1799 -0.6711
  900MPD2    C213237   0.017   4.175  12.535 -0.2095 -0.4152  0.1906
  900MPD2    C313238   4.725   4.241  12.413  0.1741  0.7166 -0.3794
  900MPD2    C413239   0.071   4.345  12.382 -0.1152  0.0491  1.0541
  900MPD2    C513240   0.179   4.380  12.459  0.2453 -0.1233  0.1777
  900MPD2     H13241   4.690   4.092  12.557 -0.3956 -0.4299 -0.4282
  900MPD2    H113242   0.064   4.410  12.295 -0.1063 -2.0393 -0.5282
  900MPD2    H213243   0.290   4.315  12.636  0.2376 -0.9265 -0.0271
  900MPD2    H313244   0.244   4.458  12.422  1.1700 -1.2823 -0.6513
  900MPD2     N13245   4.603   4.222  12.343  0.4610  0.0508  0.0714
  900MPD2    H513246   4.546   4.149  12.384  0.9440 -0.4352 -0.1241
  900MPD2    N113247   0.165   4.123  12.718  0.1742 -0.3369  0.0603
  900MPD2    H713248   0.260   4.140  12.749  0.3486  1.6836 -1.5960
  901MPD2     C13249   0.114   3.120  13.144  0.7276 -0.8124 -0.4881
  901MPD2    C113250   0.245   3.166  13.137  0.7791 -0.3889  0.2403
  901MPD2    C213251   0.257   3.298  13.120  0.0868  0.4420 -0.4308
  901MPD2    C313252   0.159   3.385  13.090 -0.4930  0.3705  0.2350
  901MPD2    C413253   0.029   3.327  13.092  0.1035  0.1007 -0.4824
  901MPD2    C513254   0.009   3.192  13.105  0.2174  0.0452 -0.0545
  901MPD2     H13255   0.355   3.344  13.123  0.2270  0.2640 -1.9927
  901MPD2    H113256   4.688   3.396  13.075 -0.3316  0.4459  2.8897
  901MPD2    H213257   0.091   3.015  13.152  0.4712 -0.7084  0.1906
  901MPD2    H313258   4.650   3.150  13.110 -0.0384  0.5801 -0.5709
  901MPD2     N13259   0.189   3.522  13.071 -0.0577 -0.0289  0.5256
  901MPD2    H513260   0.285   3.547  13.092  0.2603 -1.7944  1.2165
  901MPD2    N113261   0.358   3.085  13.147 -0.1660 -0.3753 -0.9009
  901MPD2    H713262   0.341   2.985  13.152 -1.5900 -0.1508 -1.3564
  902MPD2     C13263   4.081   1.851  12.739 -0.5748  0.2460  0.7976
  902MPD2    C113264   4.160   1.937  12.817  0.2320  0.1180 -0.1639
  902MPD2    C213265   4.277   1.891  12.871  0.4259 -0.0271 -0.7221
  902MPD2    C313266   4.308   1.754  12.857 -0.6502  0.2861  0.1933
  902MPD2    C413267   4.237   1.680  12.771 -0.0315  0.7235 -0.1101
  902MPD2    C513268   4.122   1.724  12.708  0.1404  0.0253 -0.1798
  902MPD2     H13269   4.342   1.943  12.941 -0.7736 -0.7148  0.9103
  902MPD2    H113270   4.244   1.572  12.768 -2.1321  0.6406 -1.7346
  902MPD2    H213271   3.988   1.884  12.695  0.2603  0.0587 -1.1098
  902MPD2    H313272   4.056   1.655  12.656  1.5818 -1.3491 -0.2080
  902MPD2     N13273   4.424   1.692  12.908 -0.7134  0.0790  0.5188
  902MPD2    H513274   4.450   1.611  12.854  0.7889  0.6174  0.4376
  902MPD2    N113275   4.117   2.068  12.833  0.0872 -0.5622 -0.4788
  902MPD2    H713276   4.033   2.097  12.784 -0.5570  0.4195  1.2237
  903MPD2     C13277   4.708   2.321  12.809 -0.2482 -0.4767 -0.1111
  903MPD2    C113278   4.648   2.217  12.741 -0.6962 -0.0612  0.4493
  903MPD2    C213279   4.527   2.230  12.672  0.0016  0.3382  0.6530
  903MPD2    C313280   4.460   2.350  12.689 -0.2605 -0.0251  0.2535
  903MPD2    C413281   4.521   2.455  12.756 -0.7204  0.2874 -0.0431
  903MPD2    C513282   4.648   2.447  12.808  0.0609 -0.4266  0.0605
  903MPD2     H13283   4.486   2.151  12.610  2.7414  0.4566 -1.2902
  903MPD2    H113284   4.463   2.546  12.768 -2.7757 -1.1910  1.0744
  903MPD2    H213285   0.063   2.318  12.862 -0.9172 -2.6740  0.9982
  903MPD2    H313286   4.678   2.538  12.857 -0.8115 -0.7983  1.2731
  903MPD2     N13287   4.345   2.368  12.617 -0.3897 -0.0308 -0.2365
  903MPD2    H513288   4.330   2.302  12.542  0.2835  0.8922 -1.1855
  903MPD2    N113289   4.721   2.091  12.732 -0.1406 -0.0003  0.0904
  903MPD2    H713290   0.058   2.073  12.796  1.2145  1.1149 -1.2402
  904MPD2     C13291   3.635   1.366  13.913 -0.0366 -0.3816  0.1862
  904MPD2    C113292   3.609   1.274  14.018 -0.4996  0.8670  0.0177
  904MPD2    C213293   3.715   1.249  14.111  0.2048 -0.3166 -0.6766
  904MPD2    C313294   3.834   1.316  14.096 -0.0821 -0.2065  0.0534
  904MPD2    C413295   3.863   1.395  13.984  0.4410 -0.0743 -0.1867
  904MPD2    C513296   3.760   1.422  13.906 -0.0240 -0.6570 -0.2367
  904MPD2     H13297   3.702   1.184  14.196  0.0646  0.9383  0.2549
  904MPD2    H113298   3.953   1.455  13.971  0.5940 -0.4708 -0.9078
  904MPD2    H213299   3.567   1.382  13.831  2.4284  1.0185 -1.5762
  904MPD2    H313300   3.773   1.495  13.827 -0.8013  0.2010  0.4248
  904MPD2     N13301   3.932   1.295  14.193  0.1923  0.5802  0.3756
  904MPD2    H513302   3.906   1.221  14.258  2.3486 -1.7858 -1.4774
  904MPD2    N113303   3.482   1.204  14.032 -0.3376  0.3595  0.4972
  904MPD2    H713304   3.478   1.122  14.092  1.3402 -0.8816 -1.0823
  905MPD2     C13305   3.330   1.407  13.371  0.2627 -0.2581 -1.1833
  905MPD2    C113306   3.391   1.460  13.485  0.1632 -0.0784  0.1283
  905MPD2    C213307   3.529   1.471  13.475 -0.6413 -0.2130 -0.0268
  905MPD2    C313308   3.605   1.425  13.375 -0.4626  0.8099 -0.0128
  905MPD2    C413309   3.545   1.358  13.271 -0.0467  0.0517  0.1054
  905MPD2    C513310   3.407   1.355  13.270  0.1213  0.0451  0.0009
  905MPD2     H13311   3.582   1.513  13.560  1.4049 -1.8258 -0.5060
  905MPD2    H113312   3.601   1.316  13.188  2.0166 -0.1448  1.5922
  905MPD2    H213313   3.222   1.400  13.361  0.1501 -0.3716  0.1684
  905MPD2    H313314   3.351   1.319  13.184 -1.1591 -0.6100  1.1017
  905MPD2     N13315   3.751   1.453  13.390 -0.0313 -0.4357 -0.3775
  905MPD2    H513316   3.783   1.513  13.466  1.3019  1.1223 -2.1651
  905MPD2    N113317   3.317   1.509  13.593  0.0189 -0.1176  0.1586
  905MPD2    H713318   3.216   1.501  13.587  0.0419  1.8994 -2.7065
  906MPD2     C13319   1.079   2.239  11.421  0.3011  0.5163  0.4222
  906MPD2    C113320   1.015   2.139  11.346 -0.0175  0.8323 -0.2820
  906MPD2    C213321   0.972   2.024  11.404  0.2973  0.5375 -0.5256
  906MPD2    C313322   0.980   2.010  11.540 -0.5559 -0.7549 -0.5083
  906MPD2    C413323   1.047   2.107  11.614  0.0480  0.1455 -0.3918
  906MPD2    C513324   1.108   2.214  11.552  0.0741  0.3743 -0.0904
  906MPD2     H13325   0.923   1.949  11.344  1.0080 -0.2874 -0.0856
  906MPD2    H113326   1.061   2.091  11.721  2.0929  0.1924 -0.6456
  906MPD2    H213327   1.119   2.326  11.370 -0.5222  0.3627 -0.4921
  906MPD2    H313328   1.170   2.282  11.609  0.1825  0.0045  0.2309
  906MPD2     N13329   0.925   1.903  11.617 -0.4764 -0.4584  0.0600
  906MPD2    H513330   0.924   1.903  11.718  0.0713  1.8170  0.0848
  906MPD2    N113331   0.985   2.146  11.208 -0.5462 -0.2406 -0.2906
  906MPD2    H713332   0.941   2.064  11.168 -1.4992  1.3542 -2.5388
  907MPD2     C13333   4.501   0.611  15.461  0.7019  0.4907 -0.0509
  907MPD2    C113334   4.630   0.562  15.451 -0.4954 -0.1395  0.5600
  907MPD2    C213335   4.711   0.538  15.561 -0.0395  0.2709  0.3600
  907MPD2    C313336   4.672   0.564  15.686  0.0207 -0.1661  0.5817
  907MPD2    C413337   4.548   0.623  15.696  0.0319 -0.3776 -0.7959
  907MPD2    C513338   4.464   0.637  15.586  0.5849  1.0779 -0.0247
  907MPD2     H13339   0.064   0.487  15.540 -0.0643  0.4818 -0.2600
  907MPD2    H113340   4.495   0.642  15.789  0.2519 -0.0195 -0.7409
  907MPD2    H213341   4.427   0.635  15.385 -0.2248  1.3041  1.1078
  907MPD2    H313342   4.366   0.680  15.597 -0.5925 -1.0271 -2.2993
  907MPD2     N13343   0.018   0.527  15.792 -0.1346  0.0826 -0.7545
  907MPD2    H513344   0.103   0.480  15.762  1.1501  2.1169 -0.3581
  907MPD2    N113345   4.688   0.515  15.331 -0.6112 -0.3974 -0.4246
  907MPD2    H713346   0.040   0.472  15.336  0.9560  2.9966 -0.4048
  908MPD2     C13347   2.651   2.113   9.470  0.3466 -0.6006  0.6200
  908MPD2    C113348   2.587   2.074   9.587  0.0454  0.3750  0.1746
  908MPD2    C213349   2.600   2.158   9.697 -0.3694  0.1226  0.2758
  908MPD2    C313350   2.673   2.277   9.695 -0.1437 -0.4380  0.0057
  908MPD2    C413351   2.725   2.317   9.578  0.1123 -0.2589  0.6425
  908MPD2    C513352   2.706   2.241   9.468 -0.3802  0.8415 -0.4621
  908MPD2     H13353   2.549   2.134   9.790 -1.2155 -2.2931 -0.7929
  908MPD2    H113354   2.769   2.415   9.564 -2.8686  0.7341 -1.7193
  908MPD2    H213355   2.641   2.055   9.380  0.9366  0.6776 -0.2685
  908MPD2    H313356   2.738   2.291   9.378 -0.5779  1.3414 -0.2612
  908MPD2     N13357   2.675   2.355   9.813 -0.1663  0.3280 -0.3949
  908MPD2    H513358   2.637   2.314   9.898 -1.5693 -0.2770 -1.3223
  908MPD2    N113359   2.514   1.951   9.590  1.1466 -0.3518  0.5554
  908MPD2    H713360   2.532   1.899   9.504  2.5342  1.4881 -0.2674
  909MPD2     C13361   2.656   4.268  12.190  0.3655 -0.5354  0.2784
  909MPD2    C113362   2.624   4.305  12.058  0.3055  0.0693 -0.0971
  909MPD2    C213363   2.547   4.424  12.038 -0.4277 -0.9383  0.0257
  909MPD2    C313364   2.507   4.496  12.145 -0.3270  0.1710 -0.5955
  909MPD2    C413365   2.540   4.456  12.273 -0.1645  0.5214  0.1975
  909MPD2    C513366   2.610   4.343  12.290  0.6369 -0.9885  0.1096
  909MPD2     H13367   2.514   4.451  11.938  0.0268 -0.5125 -0.0082
  909MPD2    H113368   2.508   4.523  12.353 -0.1807  1.5562 -0.6725
  909MPD2    H213369   2.730   4.190  12.207 -0.0347 -0.3636  2.6987
  909MPD2    H313370   2.637   4.310  12.390 -3.1878 -2.0509  0.7749
  909MPD2     N13371   2.431   4.612  12.114  0.4385  0.6051  0.0369
  909MPD2    H513372   2.408   4.624  12.016  0.9467 -0.0263 -0.1627
  909MPD2    N113373   2.663   4.234  11.942 -0.1960 -0.0712 -0.6532
  909MPD2    H713374   2.637   4.271  11.852 -2.3258 -1.1110 -0.4448
  910MPD2     C13375   4.264   0.968  16.017  0.1795  0.1759 -0.7061
  910MPD2    C113376   4.379   0.900  15.983 -0.4661 -0.3885  0.2597
  910MPD2    C213377   4.441   0.933  15.864 -0.1622 -0.2240 -0.2123
  910MPD2    C313378   4.379   1.016  15.778 -0.0211 -0.5075 -0.4649
  910MPD2    C413379   4.262   1.076  15.801  0.4099  0.0634  0.2839
  910MPD2    C513380   4.213   1.058  15.931  0.3348  0.3275 -0.3637
  910MPD2     H13381   4.526   0.877  15.827 -0.8298 -0.0968 -1.9106
  910MPD2    H113382   4.222   1.148  15.730  2.6582 -0.4526 -1.4616
  910MPD2    H213383   4.221   0.973  16.117 -0.0483 -2.8069 -0.6542
  910MPD2    H313384   4.121   1.107  15.960  0.5036  1.5424 -1.8609
  910MPD2     N13385   4.440   1.050  15.653  0.6164 -0.7120  0.3101
  910MPD2    H513386   4.400   1.119  15.591  0.2687  0.9062  2.3419
  910MPD2    N113387   4.437   0.799  16.066  0.3710 -0.0688  0.1302
  910MPD2    H713388   4.518   0.755  16.023  0.3146  0.1812 -0.2357
  911MPD2     C13389   1.850   1.529  16.514 -0.9099  0.7357  0.8247
  911MPD2    C113390   1.943   1.628  16.489 -0.2353  0.3566 -0.2410
  911MPD2    C213391   1.905   1.745  16.419  0.0114  0.3075  0.1555
  911MPD2    C313392   1.774   1.759  16.379 -0.7294  0.9844 -0.5894
  911MPD2    C413393   1.693   1.651  16.392  0.2004  0.0601 -0.0033
  911MPD2    C513394   1.729   1.535  16.457  1.0753  0.1021 -0.5360
  911MPD2     H13395   1.973   1.829  16.421 -2.0727  1.9988 -0.0517
  911MPD2    H113396   1.589   1.670  16.366  0.5702  0.6539 -1.0337
  911MPD2    H213397   1.878   1.442  16.572 -1.3569 -0.7100 -1.1645
  911MPD2    H313398   1.658   1.459  16.487 -1.0728  2.3235 -0.0492
  911MPD2     N13399   1.721   1.870  16.307  0.6964 -0.4642  0.3497
  911MPD2    H513400   1.623   1.869  16.280  0.4004  3.2031  1.3065
  911MPD2    N113401   2.074   1.607  16.536 -0.5373  0.4752  0.6663
  911MPD2    H713402   2.090   1.516  16.579  1.7292  0.2619 -0.6299
  912MPD2     C13403   1.315   1.799  15.653  0.5036  1.0814  0.3145
  912MPD2    C113404   1.368   1.790  15.782  0.1413 -0.5684  0.1168
  912MPD2    C213405   1.343   1.665  15.846  0.2707  0.4267  0.3773
  912MPD2    C313406   1.291   1.558  15.778  0.2905  0.3273 -0.1528
  912MPD2    C413407   1.253   1.567  15.647 -0.2717  0.4675  0.0225
  912MPD2    C513408   1.262   1.694  15.585  0.4273 -0.1813 -0.3056
  912MPD2     H13409   1.370   1.652  15.950  0.3743 -0.2553  0.2602
  912MPD2    H113410   1.223   1.481  15.588 -0.9628  0.0485  0.9902
  912MPD2    H213411   1.332   1.883  15.587  0.3028  1.1082  0.2984
  912MPD2    H313412   1.232   1.707  15.482  0.5260 -1.9590 -0.5609
  912MPD2     N13413   1.267   1.440  15.855 -0.7019 -0.0346  0.3504
  912MPD2    H513414   1.276   1.444  15.956 -1.1251  1.8180  0.3117
  912MPD2    N113415   1.425   1.909  15.838 -0.1006  0.5161 -0.0914
  912MPD2    H713416   1.441   1.986  15.774  2.0210  2.2450  2.5205
  913MPD2     C13417   1.348   3.500  10.357 -0.3292  0.4626  0.5363
  913MPD2    C113418   1.453   3.594  10.360 -0.0611  0.1191  0.3477
  913MPD2    C213419   1.469   3.666  10.249  0.6716 -0.6351 -0.1067
  913MPD2    C313420   1.370   3.668  10.152  0.1928  0.0881  0.1826
  913MPD2    C413421   1.252   3.602  10.168  0.5677  0.7632 -0.6565
  913MPD2    C513422   1.244   3.522  10.272 -0.3308 -0.6890 -0.0768
  913MPD2     H13423   1.550   3.737  10.236 -1.3760  1.5761 -0.7344
  913MPD2    H113424   1.159   3.610  10.113  0.9392  0.0608 -1.3845
  913MPD2    H213425   1.331   3.427  10.434 -0.3794  0.0247  0.1117
  913MPD2    H313426   1.155   3.464  10.294 -0.5079 -0.4092 -0.0607
  913MPD2     N13427   1.364   3.759  10.038  0.4552  0.0702  1.0191
  913MPD2    H513428   1.281   3.758   9.980  1.4225 -0.6630 -0.3384
  913MPD2    N113429   1.548   3.584  10.461 -0.2781 -0.6329 -0.2042
  913MPD2    H713430   1.534   3.509  10.529  0.4477 -1.3297 -0.8254
  914MPD2     C13431   0.808   3.312  12.566  0.5337  0.0580  0.0414
  914MPD2    C113432   0.837   3.382  12.681  0.1700 -0.4621 -0.0095
  914MPD2    C213433   0.874   3.310  12.787 -0.1140  0.6498  0.1062
  914MPD2    C313434   0.875   3.170  12.783  0.0444  0.1735 -0.6757
  914MPD2    C413435   0.833   3.103  12.670  0.6876 -0.4209  0.1799
  914MPD2    C513436   0.808   3.181  12.560  0.9366  0.1108  0.3084
  914MPD2     H13437   0.895   3.353  12.884  0.9819 -0.7016  0.4745
  914MPD2    H113438   0.820   2.996  12.662  0.6327 -0.4809  1.0486
  914MPD2    H213439   0.787   3.370  12.477 -1.2228 -1.0813 -0.2886
  914MPD2    H313440   0.785   3.134  12.465  2.6476 -1.2296  0.5497
  914MPD2     N13441   0.901   3.103  12.908  0.7010 -0.1673  0.3986
  914MPD2    H513442   0.940   3.147  12.991  1.9557  0.7691 -0.6920
  914MPD2    N113443   0.817   3.526  12.676 -0.6726  0.1344  0.0828
  914MPD2    H713444   0.773   3.565  12.594  0.2054  0.2957 -0.3082
  915MPD2     C13445   2.809   3.121  15.546  0.2422  0.4118 -0.2765
  915MPD2    C113446   2.687   3.163  15.581 -0.2042 -0.3176  0.3319
  915MPD2    C213447   2.665   3.228  15.706  0.4902 -0.5695  0.2505
  915MPD2    C313448   2.764   3.239  15.805  0.4179 -0.5411  0.1084
  915MPD2    C413449   2.891   3.189  15.767 -0.4536 -0.4125  0.6760
  915MPD2    C513450   2.911   3.134  15.643 -0.1483  0.3619 -0.0377
  915MPD2     H13451   2.566   3.267  15.727  0.5794  0.0039 -0.3931
  915MPD2    H113452   2.979   3.215  15.826  0.9627 -1.2193 -1.0868
  915MPD2    H213453   2.831   3.088  15.445  0.9958  0.7526 -0.2252
  915MPD2    H313454   3.013   3.106  15.619  0.4919  1.9493  0.8483
  915MPD2     N13455   2.739   3.310  15.928 -0.4461 -0.1861 -0.1904
  915MPD2    H513456   2.673   3.387  15.921 -3.2687 -2.3764  2.2184
  915MPD2    N113457   2.579   3.145  15.492  0.6094  0.7138 -0.1058
  915MPD2    H713458   2.598   3.086  15.411  0.1074 -0.0609  0.3472
  916MPD2     C13459   0.925   1.682  15.803  0.4493  0.0566 -0.2433
  916MPD2    C113460   0.920   1.554  15.860  0.6981  0.8596  0.2990
  916MPD2    C213461   0.913   1.438  15.779  0.1299 -0.2573 -0.0002
  916MPD2    C313462   0.908   1.439  15.641 -0.1795  0.4802 -0.1048
  916MPD2    C413463   0.929   1.563  15.584 -0.7359 -0.0878 -0.1817
  916MPD2    C513464   0.943   1.683  15.662 -0.4624 -0.1126  0.6016
  916MPD2     H13465   0.916   1.339  15.825 -1.5013 -0.7240 -0.8803
  916MPD2    H113466   0.949   1.572  15.478 -0.2569  2.1143  0.1052
  916MPD2    H213467   0.938   1.769  15.866 -1.4283 -0.1859  0.4678
  916MPD2    H313468   0.973   1.776  15.614  0.9113 -0.1631  1.3513
  916MPD2     N13469   0.912   1.317  15.566 -0.6360  0.8251  0.2819
  916MPD2    H513470   0.909   1.229  15.616 -0.5730  0.1007 -0.9968
  916MPD2    N113471   0.912   1.561  15.999 -0.2242  0.4194 -0.1039
  916MPD2    H713472   0.933   1.650  16.044  1.3683  1.9349 -3.9066
  917MPD2     C13473   1.045   4.199  11.498 -0.0980 -0.0649  0.4013
  917MPD2    C113474   1.147   4.224  11.586  0.7719  0.1206 -0.0046
  917MPD2    C213475   1.240   4.316  11.560 -0.4868  0.1775 -0.0423
  917MPD2    C313476   1.241   4.390  11.441  0.0778 -0.5463 -0.2272
  917MPD2    C413477   1.130   4.372  11.358  0.1579 -0.4505  0.2028
  917MPD2    C513478   1.038   4.272  11.381 -0.1999 -0.0375  0.3868
  917MPD2     H13479   1.333   4.323  11.615 -0.9566 -2.2841  1.0448
  917MPD2    H113480   1.127   4.423  11.262  3.3957  1.3764  1.0406
  917MPD2    H213481   0.973   4.122  11.521 -0.6411  0.9830  2.1641
  917MPD2    H313482   0.964   4.256  11.303  1.5341 -2.1704 -0.8114
  917MPD2     N13483   1.347   4.468  11.394 -0.5152 -0.3738 -0.1911
  917MPD2    H513484   1.335   4.512  11.303  0.4176 -1.2791 -0.7526
  917MPD2    N113485   1.151   4.142  11.703 -0.1315  0.9862 -0.0654
  917MPD2    H713486   1.081   4.070  11.711  0.2651  0.2635 -3.2789
  918MPD2     C13487   1.584   4.445  12.553 -0.3709  0.0151  0.4924
  918MPD2    C113488   1.626   4.441  12.420 -0.2285  0.1526 -0.1581
  918MPD2    C213489   1.531   4.394  12.328  0.9318  0.7346  0.0050
  918MPD2    C313490   1.419   4.325  12.368 -0.8645 -0.0207  0.5638
  918MPD2    C413491   1.390   4.322  12.500  0.2202 -0.9740 -0.0726
  918MPD2    C513492   1.472   4.380  12.590 -0.3016 -0.2551  0.0295
  918MPD2     H13493   1.558   4.401  12.223 -1.9456 -0.6921 -0.8331
  918MPD2    H113494   1.299   4.272  12.532  0.1871 -0.7456  0.1908
  918MPD2    H213495   1.645   4.487  12.633  2.1894 -0.9041 -0.9640
  918MPD2    H313496   1.445   4.379  12.695  1.5900 -1.1907  0.4981
  918MPD2     N13497   1.352   4.260  12.266 -0.3143  0.3108 -0.6744
  918MPD2    H513498   1.399   4.279  12.178 -0.6367  1.6844 -0.5493
  918MPD2    N113499   1.754   4.482  12.367  0.1965  0.3836  0.0949
  918MPD2    H713500   1.763   4.462  12.268  0.0454  0.9818 -0.0395
  919MPD2     C13501   2.121   3.127  11.714 -0.0784 -0.7876 -0.6163
  919MPD2    C113502   2.047   3.031  11.643 -0.2508  1.0546 -0.8894
  919MPD2    C213503   1.927   3.062  11.583 -0.3279 -0.6349  0.0975
  919MPD2    C313504   1.889   3.197  11.569 -0.0906 -0.4482 -0.5204
  919MPD2    C413505   1.969   3.296  11.622  0.6850 -0.5638  0.8917
  919MPD2    C513506   2.076   3.258  11.704  0.5859  0.1310 -0.2313
  919MPD2     H13507   1.862   2.988  11.539  1.0092 -2.7274  1.6564
  919MPD2    H113508   1.945   3.402  11.622 -1.3284 -1.0228  1.4570
  919MPD2    H213509   2.217   3.105  11.759 -1.1079  0.6520  2.2866
  919MPD2    H313510   2.141   3.336  11.742  1.1197 -0.0670 -0.7394
  919MPD2     N13511   1.776   3.244  11.503  0.9012 -0.4521 -0.1804
  919MPD2    H513512   1.772   3.345  11.509  1.4867 -0.5802  2.2654
  919MPD2    N113513   2.090   2.897  11.643  0.2554 -0.8989  0.8953
  919MPD2    H713514   2.020   2.824  11.636  1.8959 -2.6094  2.2844
  920MPD2     C13515   1.594   3.964  10.879 -0.0246 -0.7818 -0.4450
  920MPD2    C113516   1.507   3.872  10.822  0.1961 -0.4970 -0.0713
  920MPD2    C213517   1.474   3.757  10.892  0.3999  0.8323 -0.2452
  920MPD2    C313518   1.530   3.733  11.015 -0.2838 -0.9021 -0.4819
  920MPD2    C413519   1.606   3.834  11.070 -0.2992 -0.4081 -0.5724
  920MPD2    C513520   1.644   3.946  11.002  0.3808 -0.2712 -1.3158
  920MPD2     H13521   1.409   3.689  10.838  0.5521  0.0212  0.5929
  920MPD2    H113522   1.643   3.826  11.172 -0.2631 -1.5676 -0.6716
  920MPD2    H213523   1.620   4.050  10.818  2.2224  0.7111  2.6179
  920MPD2    H313524   1.711   4.016  11.050 -0.1406 -0.9111  0.3163
  920MPD2     N13525   1.505   3.608  11.080 -0.2330  0.5897 -0.1228
  920MPD2    H513526   1.431   3.556  11.035  1.5758 -3.7856  1.9292
  920MPD2    N113527   1.444   3.897  10.696  0.4505  0.0275  0.4984
  920MPD2    H713528   1.392   3.818  10.659 -1.2489  1.4031 -0.0613
  921MPD2     C13529   2.854   2.164  16.816  0.8164 -0.1475  0.2836
  921MPD2    C113530   2.878   2.067  16.723 -0.4456  0.1145 -0.0989
  921MPD2    C213531   2.792   1.964  16.705  0.2886 -0.7895 -0.0191
  921MPD2    C313532   2.682   1.956  16.791  0.2726 -0.1493  0.4031
  921MPD2    C413533   2.654   2.055  16.875 -0.2257 -0.3297 -0.0901
  921MPD2    C513534   2.736   2.165  16.884  0.3131  0.4646 -0.4868
  921MPD2     H13535   2.812   1.885  16.634  0.8706  0.8849 -1.7482
  921MPD2    H113536   2.570   2.051  16.943 -0.9476  0.4291 -0.9460
  921MPD2    H213537   2.921   2.247  16.835 -1.2654  1.7384 -0.6322
  921MPD2    H313538   2.714   2.246  16.954  0.2481 -1.0844  1.2744
  921MPD2     N13539   2.589   1.850  16.791  0.5997 -0.0978  0.1123
  921MPD2    H513540   2.503   1.857  16.844 -0.2574 -0.0060 -1.2792
  921MPD2    N113541   2.990   2.088  16.643 -0.1757  0.4395 -0.3029
  921MPD2    H713542   3.043   2.173  16.659  1.2009 -0.5972  0.6666
  922MPD2     C13543   3.488   4.472  17.096  0.2558  0.3830  0.3781
  922MPD2    C113544   3.384   4.502  17.185 -0.6032  0.2355  0.3142
  922MPD2    C213545   3.277   4.417  17.198  0.5883  0.2406  0.4179
  922MPD2    C313546   3.272   4.293  17.142  0.6892  0.6141  0.4355
  922MPD2    C413547   3.373   4.263  17.051 -0.8060 -0.2870  0.2458
  922MPD2    C513548   3.478   4.352  17.030 -0.4152 -0.1936 -1.4442
  922MPD2     H13549   3.195   4.448  17.262 -0.5578 -0.7596 -0.5768
  922MPD2    H113550   3.367   4.176  16.986 -0.0888  0.1404 -0.3891
  922MPD2    H213551   3.571   4.538  17.075  1.2764 -0.8821  0.4184
  922MPD2    H313552   3.548   4.321  16.953  2.4951  0.3135  0.9937
  922MPD2     N13553   3.157   4.214  17.163 -0.1718 -0.2249 -0.0819
  922MPD2    H513554   3.087   4.265  17.215 -0.8042 -0.5156 -0.6524
  922MPD2    N113555   3.396   4.613  17.276 -0.2607 -0.0278 -0.3964
  922MPD2    H713556   3.314   4.626  17.335  0.5577 -1.3269  1.0368
  923MPD2     C13557   0.370   2.126  10.058  0.2991  0.2031 -0.6560
  923MPD2    C113558   0.320   2.226   9.978  0.1429  0.8247 -0.3321
  923MPD2    C213559   0.384   2.350   9.988  0.4818  0.3631  0.0446
  923MPD2    C313560   0.497   2.376  10.072 -0.6156  0.1864 -1.3598
  923MPD2    C413561   0.543   2.275  10.150 -0.0747 -0.3461  0.2578
  923MPD2    C513562   0.473   2.156  10.144 -0.2903  0.0548  0.7719
  923MPD2     H13563   0.331   2.428   9.935 -1.1553 -1.5900 -1.1386
  923MPD2    H113564   0.624   2.280  10.222 -0.5554 -2.2496  0.9358
  923MPD2    H213565   0.327   2.027  10.068 -1.4293  0.8996 -1.1228
  923MPD2    H313566   0.506   2.083  10.216 -1.8089 -1.2370  0.1626
  923MPD2     N13567   0.553   2.507  10.084 -0.0918  0.8745 -0.2492
  923MPD2    H513568   0.624   2.517  10.157 -2.0388 -1.7306  2.0192
  923MPD2    N113569   0.197   2.202   9.909  0.2871 -0.4055 -1.0397
  923MPD2    H713570   0.157   2.109   9.922 -2.1627  1.0054  1.6033
  924MPD2     C13571   0.317   4.447  15.928  0.3919 -0.1175 -0.2156
  924MPD2    C113572   0.310   4.506  16.052  0.1215  0.1063 -0.0906
  924MPD2    C213573   0.287   4.641  16.062  0.8232  0.6122  0.8933
  924MPD2    C313574   0.298   4.725  15.950  0.5585 -0.3197  0.0097
  924MPD2    C413575   0.321   4.667  15.832 -0.1078 -0.0129  0.2763
  924MPD2    C513576   0.319   4.531  15.819  0.5579 -0.4053 -0.4227
  924MPD2     H13577   0.256   4.685  16.156  0.0989  1.3934  0.2889
  924MPD2    H113578   0.333   4.724  15.741 -0.1986  1.9673  1.5102
  924MPD2    H213579   0.321   4.340  15.914 -2.4542 -0.1808 -0.5427
  924MPD2    H313580   0.337   4.496  15.718 -1.3565 -1.3420 -0.4453
  924MPD2     N13581   0.279   0.128  15.952 -0.3322  0.4698  0.8309
  924MPD2    H513582   0.283   0.175  15.862 -1.7049  2.1481  1.6330
  924MPD2    N113583   0.304   4.423  16.164  0.7289 -0.1673  0.0054
  924MPD2    H713584   0.319   4.325  16.141 -1.1367 -0.8183  1.5776
  925MPD2     C13585   3.257   1.955  14.582 -0.0438  0.4699  0.1303
  925MPD2    C113586   3.280   2.080  14.632 -0.4940 -0.4760 -0.0168
  925MPD2    C213587   3.253   2.107  14.765 -0.5860 -0.1688  0.3853
  925MPD2    C313588   3.207   2.001  14.847  0.2551 -0.5095 -0.7116
  925MPD2    C413589   3.188   1.879  14.791 -0.5284 -0.3929  0.0245
  925MPD2    C513590   3.217   1.857  14.663  0.4647 -0.2203  0.3944
  925MPD2     H13591   3.249   2.211  14.794 -0.8149 -0.0763  0.0223
  925MPD2    H113592   3.144   1.798  14.848  0.2005 -0.1586  0.9269
  925MPD2    H213593   3.244   1.948  14.475 -1.5934 -0.2821  0.3573
  925MPD2    H313594   3.195   1.766  14.608  1.7034  0.7245 -1.6733
  925MPD2     N13595   3.175   2.020  14.981 -0.1453 -0.2082  0.1460
  925MPD2    H513596   3.160   1.942  15.044  1.4517 -0.1919  0.5474
  925MPD2    N113597   3.311   2.193  14.545 -0.2000 -0.1816  0.0666
  925MPD2    H713598   3.309   2.282  14.592 -0.5390  0.7284 -1.6703
  926MPD2     C13599   2.303   0.742  13.714  0.1112 -0.0320  0.1283
  926MPD2    C113600   2.280   0.843  13.629  0.3740  0.4141 -0.2165
  926MPD2    C213601   2.364   0.863  13.531 -0.5551  0.2953 -0.6447
  926MPD2    C313602   2.467   0.776  13.501  0.7551 -0.6759  0.2198
  926MPD2    C413603   2.494   0.679  13.590  0.0327  0.4911 -0.3839
  926MPD2    C513604   2.407   0.657  13.692  0.0666  0.0646 -0.2757
  926MPD2     H13605   2.342   0.949  13.469 -1.5144  1.7217  1.7006
  926MPD2    H113606   2.566   0.601  13.566 -2.0191 -1.6508  0.3854
  926MPD2    H213607   2.236   0.729  13.798 -0.6531 -1.7607 -0.7583
  926MPD2    H313608   2.424   0.580  13.766 -1.2792  0.3358  0.3208
  926MPD2     N13609   2.552   0.796  13.385  0.6707  0.4632  0.5610
  926MPD2    H513610   2.638   0.743  13.383  0.5246  0.1763  1.7515
  926MPD2    N113611   2.172   0.934  13.639 -0.1744  0.3076  0.6282
  926MPD2    H713612   2.163   0.998  13.561 -1.2046 -1.3643 -0.6248
  927MPD2     C13613   1.980   3.274   0.620  0.5611 -0.3169 -0.3015
  927MPD2    C113614   1.849   3.259   0.587 -0.9000 -0.2332 -0.0169
  927MPD2    C213615   1.818   3.277   0.453 -0.4074  0.1148  0.7545
  927MPD2    C313616   1.910   3.315   0.360 -0.2065 -0.5141  0.7257
  927MPD2    C413617   2.042   3.337   0.397 -0.7566  0.7677 -1.1222
  927MPD2    C513618   2.076   3.308   0.527  0.2191  0.6254 -0.4230
  927MPD2     H13619   1.716   3.256   0.423  0.8075  0.0616 -3.2293
  927MPD2    H113620   2.116   3.378   0.330 -0.6401  2.7563  0.2196
  927MPD2    H213621   2.014   3.273   0.723 -1.5042  1.4492  0.3916
  927MPD2    H313622   2.174   3.324   0.569 -0.2222 -2.6239  1.9036
  927MPD2     N13623   1.866   3.330   0.222  0.2220 -0.1801  0.1847
  927MPD2    H513624   1.766   3.338   0.204  0.8349  1.2292 -2.6241
  927MPD2    N113625   1.755   3.216   0.685 -0.4631 -0.3644  0.7424
  927MPD2    H713626   1.787   3.195   0.780  0.7492 -3.1996 -0.2842
  928MPD2     C13627   0.224   0.832   0.864 -1.1995  0.0071  0.3411
  928MPD2    C113628   0.174   0.941   0.938 -0.0312  0.0205  0.2744
  928MPD2    C213629   0.121   1.050   0.868 -0.2561  0.4787 -0.2812
  928MPD2    C313630   0.119   1.042   0.726  0.0733 -0.2443  0.2047
  928MPD2    C413631   0.173   0.933   0.661 -0.5297 -0.6439  0.0407
  928MPD2    C513632   0.229   0.832   0.731 -0.0881  0.6429 -0.0970
  928MPD2     H13633   0.086   1.134   0.927  2.5802  1.4798 -0.0357
  928MPD2    H113634   0.183   0.936   0.553 -0.4892  1.7780  0.1208
  928MPD2    H213635   0.283   0.759   0.919  1.9458  0.4336 -2.4927
  928MPD2    H313636   0.296   0.764   0.680 -1.7327 -1.6718  0.8224
  928MPD2     N13637   0.079   1.158   0.664 -0.4984  0.2438  0.2298
  928MPD2    H513638   0.047   1.233   0.724  0.7881  1.3705 -0.4795
  928MPD2    N113639   0.212   0.949   1.069  0.2679  0.4105  0.4908
  928MPD2    H713640   0.258   0.867   1.107  2.8486  1.3235 -0.7237
  929MPD2     C13641   4.667   2.164  10.712 -0.3179  0.5230  0.4187
  929MPD2    C113642   4.578   2.065  10.698 -0.5492  0.2339  0.1505
  929MPD2    C213643   4.494   2.071  10.588  0.4383  0.2179  0.7562
  929MPD2    C313644   4.494   2.177  10.500  0.2359  1.0213 -0.9026
  929MPD2    C413645   4.585   2.278  10.530 -0.4770  0.6525 -0.7852
  929MPD2    C513646   4.676   2.273  10.629 -0.1900 -0.7247 -0.7079
  929MPD2     H13647   4.419   1.994  10.576 -2.2864  3.1322 -0.8437
  929MPD2    H113648   4.607   2.359  10.461  1.2206  2.0608  1.3952
  929MPD2    H213649   4.733   2.157  10.798  0.1537 -0.6267 -0.0433
  929MPD2    H313650   0.006   2.351  10.653  1.4222 -2.8274  1.3352
  929MPD2     N13651   4.410   2.199  10.389  0.0630  0.1599  0.0375
  929MPD2    H513652   4.412   2.289  10.342 -1.0653 -0.5234 -1.3348
  929MPD2    N113653   4.572   1.958  10.793 -0.0636  0.4282 -0.3494
  929MPD2    H713654   4.637   1.964  10.870  0.5813 -0.9220 -0.8031
  930MPD2     C13655   1.826   4.031  13.703 -0.7770 -0.1567 -0.1781
  930MPD2    C113656   1.926   3.960  13.643  0.0365  0.0789 -0.1660
  930MPD2    C213657   1.903   3.839  13.586 -0.0221  0.3620  0.5717
  930MPD2    C313658   1.776   3.784  13.569 -0.3135  0.1975 -0.3364
  930MPD2    C413659   1.677   3.853  13.628 -0.3685 -0.1550 -0.2533
  930MPD2    C513660   1.704   3.968  13.698 -0.0981 -0.1685 -0.7511
  930MPD2     H13661   1.989   3.780  13.556 -1.4092 -2.0569  1.2864
  930MPD2    H113662   1.574   3.821  13.619 -0.5316  0.9491 -2.2536
  930MPD2    H213663   1.835   4.129  13.749 -1.2578  0.2063 -0.8665
  930MPD2    H313664   1.622   4.022  13.744  1.3730  0.8489  0.6277
  930MPD2     N13665   1.738   3.669  13.496  0.3944  0.5185  0.7370
  930MPD2    H513666   1.644   3.641  13.522  1.2266 -1.9470  1.0924
  930MPD2    N113667   2.057   4.013  13.639 -0.1297  0.0598 -0.7540
  930MPD2    H713668   2.072   4.087  13.707  2.1360 -1.3829  0.3408
  931MPD2     C13669   1.947   2.845   1.154 -0.0783  0.4192 -0.6764
  931MPD2    C113670   1.834   2.782   1.111  0.4291 -0.5548 -0.2001
  931MPD2    C213671   1.806   2.645   1.134 -0.4467  0.2340 -0.2797
  931MPD2    C313672   1.898   2.573   1.211  0.0787  0.1556 -0.0188
  931MPD2    C413673   2.007   2.643   1.252  0.3867 -0.2672  0.2917
  931MPD2    C513674   2.031   2.774   1.225  0.3614  0.0770 -0.2262
  931MPD2     H13675   1.722   2.590   1.094 -0.2440  0.1515 -0.5878
  931MPD2    H113676   2.086   2.588   1.302  0.6002 -0.3493 -0.1340
  931MPD2    H213677   1.967   2.952   1.155 -0.2816  0.4254  1.2798
  931MPD2    H313678   2.120   2.821   1.265 -0.5424  1.9079 -0.3739
  931MPD2     N13679   1.899   2.429   1.220  0.1244 -0.3423 -0.3345
  931MPD2    H513680   1.974   2.377   1.265  0.8907  0.4217 -0.7348
  931MPD2    N113681   1.744   2.859   1.029  0.0377  0.3174 -0.1188
  931MPD2    H713682   1.774   2.950   0.996 -1.5624  1.0925  0.6031
  932MPD2     C13683   3.829   2.498  11.727  0.7090 -0.3778 -0.4896
  932MPD2    C113684   3.953   2.482  11.783  0.5363  0.5557  0.4035
  932MPD2    C213685   3.991   2.359  11.829  0.0370 -0.1947  1.0426
  932MPD2    C313686   3.901   2.250  11.805  0.4996 -0.0514  0.5122
  932MPD2    C413687   3.776   2.263  11.748  0.1689 -0.3978  0.1384
  932MPD2    C513688   3.741   2.390  11.710 -0.4569 -0.3736 -0.0914
  932MPD2     H13689   4.081   2.352  11.890  0.2558 -0.6343  0.6759
  932MPD2    H113690   3.717   2.173  11.730  1.5423 -1.3278  0.2342
  932MPD2    H213691   3.790   2.595  11.698  0.0352 -0.8662 -1.2225
  932MPD2    H313692   3.643   2.403  11.668 -0.8083 -0.8750  0.5622
  932MPD2     N13693   3.938   2.121  11.853  0.3984  0.3392  0.3349
  932MPD2    H513694   3.870   2.049  11.835  0.3393  0.3726  0.4231
  932MPD2    N113695   4.044   2.594  11.805 -0.4011  0.4198  0.1811
  932MPD2    H713696   4.125   2.577  11.862  1.2653 -1.2773 -2.6998
  933MPD2     C13697   0.572   1.324   1.863 -0.3259  1.2739 -0.3524
  933MPD2    C113698   0.474   1.338   1.768  0.4146  0.2600 -0.0464
  933MPD2    C213699   0.392   1.449   1.786 -0.1570 -0.7870  0.0366
  933MPD2    C313700   0.413   1.549   1.885  0.0279 -0.9261 -0.2263
  933MPD2    C413701   0.517   1.533   1.971 -0.4677 -0.1143 -0.1425
  933MPD2    C513702   0.596   1.420   1.960 -0.7015  0.6021 -0.0061
  933MPD2     H13703   0.305   1.462   1.723  0.4806  0.7585 -0.5246
  933MPD2    H113704   0.538   1.618   2.036 -2.2888 -1.6400  2.4333
  933MPD2    H213705   0.629   1.232   1.864  0.6963  1.9301  2.4510
  933MPD2    H313706   0.676   1.395   2.030 -0.1696  1.5606 -0.2616
  933MPD2     N13707   0.331   1.665   1.876  0.4406 -0.3541 -0.2950
  933MPD2    H513708   0.263   1.665   1.801  2.1489 -3.9587 -1.8113
  933MPD2    N113709   0.455   1.235   1.665 -0.0101 -0.3047  0.3188
  933MPD2    H713710   0.532   1.173   1.641 -1.3677 -1.9925  0.3946
  934MPD2     C13711   1.497   3.783   1.078  0.2019  0.3642  0.5827
  934MPD2    C113712   1.421   3.814   0.972  0.1650 -0.0429 -0.2401
  934MPD2    C213713   1.319   3.731   0.937  0.1070 -0.4492  0.1811
  934MPD2    C313714   1.270   3.638   1.027 -0.2115 -0.7966  0.0056
  934MPD2    C413715   1.344   3.598   1.133 -0.0991  0.1333 -0.2806
  934MPD2    C513716   1.464   3.666   1.151 -0.3282  0.4118  0.5155
  934MPD2     H13717   1.260   3.757   0.850 -0.3171  0.2682  0.6757
  934MPD2    H113718   1.317   3.525   1.207  0.6606 -0.8380 -0.9590
  934MPD2    H213719   1.591   3.832   1.101  0.2014  1.0980 -0.9435
  934MPD2    H313720   1.527   3.639   1.236  2.3124  0.9192 -1.2779
  934MPD2     N13721   1.157   3.559   1.012  0.3914  0.2954  0.1271
  934MPD2    H513722   1.138   3.492   1.086 -1.3812  0.9644  0.2756
  934MPD2    N113723   1.438   3.926   0.890  0.2752  0.0688 -0.5046
  934MPD2    H713724   1.371   3.935   0.814  0.2217  2.3226 -0.1914
  935MPD2     C13725   1.000   2.822   1.350 -0.4417  0.0396  0.4012
  935MPD2    C113726   0.916   2.813   1.237  0.2254  0.2124 -0.2836
  935MPD2    C213727   0.882   2.935   1.172 -0.2826  0.1652 -0.0933
  935MPD2    C313728   0.936   3.059   1.212  0.1852 -0.4075  0.7805
  935MPD2    C413729   1.019   3.059   1.322 -0.3786  0.1276  0.1536
  935MPD2    C513730   1.053   2.946   1.388  0.0769 -0.0612  0.5307
  935MPD2     H13731   0.814   2.926   1.088 -0.5778  0.2793  0.1328
  935MPD2    H113732   1.068   3.146   1.362  0.7060 -0.3005 -0.2592
  935MPD2    H213733   1.030   2.737   1.410  1.1378  0.3218  0.0121
  935MPD2    H313734   1.127   2.942   1.468  1.5235 -2.0611 -0.9152
  935MPD2     N13735   0.914   3.182   1.150 -0.2258 -0.0156 -0.1611
  935MPD2    H513736   0.964   3.264   1.183 -2.8664  1.3119  0.5519
  935MPD2    N113737   0.857   2.690   1.194 -0.4054  0.7539 -0.2346
  935MPD2    H713738   0.802   2.706   1.110  1.0283  2.5677 -0.8401
  936MPD2     C13739   3.948   1.117  12.384 -0.4151  0.1182  0.5579
  936MPD2    C113740   3.979   0.993  12.437  0.7555 -0.3070 -0.0601
  936MPD2    C213741   4.080   0.987  12.533  0.0449 -0.4249  0.1104
  936MPD2    C313742   4.136   1.100  12.588 -0.8542  0.2933 -0.7727
  936MPD2    C413743   4.101   1.218  12.531 -0.0290 -0.3220 -0.6128
  936MPD2    C513744   4.014   1.223  12.433  0.3195 -0.1688  0.6205
  936MPD2     H13745   4.105   0.885  12.560 -0.7490 -0.8165 -0.6026
  936MPD2    H113746   4.153   1.307  12.565  1.6059 -0.2093 -3.4410
  936MPD2    H213747   3.889   1.117  12.294  0.5523  1.7910 -0.0660
  936MPD2    H313748   4.002   1.313  12.374  2.7760 -1.3651 -1.6886
  936MPD2     N13749   4.222   1.091  12.699  0.0816 -0.6991 -0.2389
  936MPD2    H513750   4.266   1.180  12.721 -2.4753  0.7701 -1.1199
  936MPD2    N113751   3.937   0.865  12.385  0.1007 -0.0894  0.2710
  936MPD2    H713752   3.977   0.786  12.434 -0.7502  0.0829  1.2463
  937MPD2     C13753   2.638   2.362  11.339 -0.3388  0.3984  0.2088
  937MPD2    C113754   2.600   2.492  11.337  0.4595 -0.3572  0.3817
  937MPD2    C213755   2.689   2.581  11.292  0.2885 -0.3727 -0.5552
  937MPD2    C313756   2.794   2.541  11.209 -0.7078  0.2011  0.1525
  937MPD2    C413757   2.827   2.406  11.200 -0.4900  0.5136  0.6005
  937MPD2    C513758   2.749   2.324  11.270 -0.1049  0.6096  0.2983
  937MPD2     H13759   2.669   2.687  11.303  1.0540 -0.1755 -0.9964
  937MPD2    H113760   2.913   2.371  11.143 -1.8950  2.0324 -2.4308
  937MPD2    H213761   2.572   2.281  11.370 -0.2703  0.4587  0.5152
  937MPD2    H313762   2.779   2.220  11.281  1.5045  0.9134 -1.1520
  937MPD2     N13763   2.882   2.647  11.171  0.0696 -0.3548 -0.1071
  937MPD2    H513764   2.855   2.742  11.196 -1.7801 -0.3319 -2.0907
  937MPD2    N113765   2.495   2.538  11.417 -0.8067  0.1478 -0.2396
  937MPD2    H713766   2.480   2.639  11.421 -1.0778  0.0922  0.1643
  938MPD2     C13767   4.387   3.471   0.351 -0.0332 -0.0436  0.5587
  938MPD2    C113768   4.483   3.501   0.444  0.5118  0.0401 -0.1382
  938MPD2    C213769   4.506   3.406   0.543  0.0815 -0.2932  0.4835
  938MPD2    C313770   4.443   3.286   0.548  0.3683 -0.3047  0.0763
  938MPD2    C413771   4.348   3.265   0.453  0.3381  0.0839  0.0803
  938MPD2    C513772   4.323   3.354   0.352 -0.4323  0.3071  1.1679
  938MPD2     H13773   4.585   3.424   0.615 -0.1805  2.7930  0.0131
  938MPD2    H113774   4.280   3.181   0.460 -0.2631  0.6955  1.4960
  938MPD2    H213775   4.355   3.538   0.272  0.0843  0.4989  0.9703
  938MPD2    H313776   4.253   3.330   0.273  0.4933  0.2835  0.3425
  938MPD2     N13777   4.461   3.185   0.642 -0.0165 -0.4491 -0.4302
  938MPD2    H513778   4.393   3.109   0.642 -1.3937  0.7731  0.0085
  938MPD2    N113779   4.556   3.628   0.449 -0.4066 -0.5624  0.0468
  938MPD2    H713780   4.633   3.642   0.513  0.5829 -0.9012 -1.0733
  939MPD2     C13781   0.156   4.242   0.225  0.6186  0.4189  0.3239
  939MPD2    C113782   0.158   4.371   0.182  0.5780 -0.5198  0.3492
  939MPD2    C213783   0.224   4.402   0.068  0.4211 -0.2929 -0.1524
  939MPD2    C313784   0.305   4.311   0.000  0.4866  0.4673 -0.0445
  939MPD2    C413785   0.300   4.179   0.048  0.9376  0.3405  1.3307
  939MPD2    C513786   0.225   4.140   0.157 -0.6901 -0.5966 -0.2089
  939MPD2     H13787   0.226   4.503   0.029  1.0890 -0.5754 -0.8716
  939MPD2    H113788   0.352   4.101  17.753 -0.1689 -0.0205  0.7959
  939MPD2    H213789   0.099   4.218   0.315  0.1592  1.3727  0.2834
  939MPD2    H313790   0.219   4.040   0.198 -1.6116 -0.4818 -0.0619
  939MPD2     N13791   0.393   4.358  17.660  0.1208  0.2902  0.0075
  939MPD2    H513792   0.380   4.456  17.635  0.0943  0.8164  2.0355
  939MPD2    N113793   0.092   4.472   0.258  0.2866 -0.2128  0.7056
  939MPD2    H713794   0.075   4.450   0.356  1.4673 -0.7399  0.7922
  940MPD2     C13795   0.278   0.688  12.962  0.2678  0.8087  0.3508
  940MPD2    C113796   0.178   0.589  12.978 -0.6135  0.3818  0.1715
  940MPD2    C213797   0.111   0.548  12.867  0.8307  0.5046 -0.5121
  940MPD2    C313798   0.126   0.617  12.747  0.7242  0.0710  0.7412
  940MPD2    C413799   0.220   0.722  12.742 -0.2470  0.3708 -0.7161
  940MPD2    C513800   0.292   0.753  12.849 -0.1115  0.1599  0.4760
  940MPD2     H13801   0.038   0.469  12.881  0.0284  1.7995  2.6078
  940MPD2    H113802   0.232   0.781  12.652 -1.7031 -0.5821 -1.5238
  940MPD2    H213803   0.336   0.721  13.048  1.4965  0.7727 -0.4704
  940MPD2    H313804   0.357   0.840  12.844 -0.0801 -0.0175 -2.1578
  940MPD2     N13805   0.046   0.593  12.637  0.0740  0.8302  0.0641
  940MPD2    H513806   0.029   0.679  12.584  0.1840  1.7880  1.5787
  940MPD2    N113807   0.140   0.527  13.103  0.4409  0.0454  0.0385
  940MPD2    H713808   0.066   0.459  13.099 -0.3889  0.9269  0.2984
  941MPD2     C13809   4.154   0.702   9.828 -0.0921 -0.5335  0.1210
  941MPD2    C113810   4.198   0.632   9.938 -0.3972  0.2770 -0.3818
  941MPD2    C213811   4.141   0.508   9.959  0.4027 -0.2569  0.0471
  941MPD2    C313812   4.032   0.463   9.886 -0.1333 -0.0410  0.8265
  941MPD2    C413813   3.982   0.538   9.785 -0.2653  0.3008 -0.2070
  941MPD2    C513814   4.048   0.656   9.758  0.0020  0.1301  0.0191
  941MPD2     H13815   4.171   0.453  10.047  0.2012 -2.4108 -1.2477
  941MPD2    H113816   3.901   0.503   9.723  0.2999 -0.8989 -0.2739
  941MPD2    H213817   4.182   0.805   9.811  0.4156 -0.2885  2.4311
  941MPD2    H313818   4.005   0.709   9.673 -0.7530  1.1027  1.0216
  941MPD2     N13819   3.962   0.347   9.913  0.4187 -0.6193 -0.2550
  941MPD2    H513820   3.882   0.323   9.856  0.8279  0.1021 -1.1518
  941MPD2    N113821   4.286   0.682  10.038 -0.0151  0.4474 -0.2465
  941MPD2    H713822   4.287   0.630  10.125  2.3962  0.5829 -0.2049
  942MPD2     C13823   3.836   1.290  10.466 -0.6812  0.8300 -0.3299
  942MPD2    C113824   3.822   1.200  10.363  0.0976 -0.3198 -0.1542
  942MPD2    C213825   3.848   1.242  10.234  0.1371 -0.2494 -0.4987
  942MPD2    C313826   3.883   1.373  10.204 -0.0423 -0.5375 -0.7250
  942MPD2    C413827   3.905   1.455  10.309 -0.2079 -0.4283 -0.2515
  942MPD2    C513828   3.876   1.418  10.434  0.4735 -0.1827 -0.0532
  942MPD2     H13829   3.837   1.175  10.150 -1.4823  1.1886 -1.4368
  942MPD2    H113830   3.932   1.558  10.287  3.6262 -1.1930  0.8522
  942MPD2    H213831   3.811   1.273  10.570 -1.6684 -0.3563 -0.7583
  942MPD2    H313832   3.900   1.488  10.512  0.4426 -0.4662  0.2105
  942MPD2     N13833   3.898   1.422  10.078 -0.4280  0.4951 -0.1753
  942MPD2    H513834   3.944   1.513  10.084  1.1666 -0.2741 -0.6533
  942MPD2    N113835   3.778   1.066  10.375  0.4168  0.2700  0.3023
  942MPD2    H713836   3.778   1.006  10.293  0.6248  2.0562 -0.9922
  943MPD2     C13837   2.906   4.276   9.133  0.1728  0.1274  0.0075
  943MPD2    C113838   2.802   4.299   9.224 -0.3692  0.2694 -1.4665
  943MPD2    C213839   2.837   4.357   9.343  0.0027 -0.2019 -0.0736
  943MPD2    C313840   2.962   4.416   9.364  0.4656  0.0531  0.4475
  943MPD2    C413841   3.054   4.411   9.266 -0.1250  0.2065 -0.3429
  943MPD2    C513842   3.027   4.334   9.153  0.4795  0.1343  0.1898
  943MPD2     H13843   2.764   4.362   9.423 -0.5735 -2.5565 -0.4491
  943MPD2    H113844   3.152   4.454   9.278 -0.0739 -0.0688  0.2182
  943MPD2    H213845   2.891   4.221   9.041  0.4406 -1.8542  1.1463
  943MPD2    H313846   3.112   4.313   9.089 -0.3695 -2.2881 -0.1512
  943MPD2     N13847   2.991   4.480   9.480  0.7849  1.4464 -0.3962
  943MPD2    H513848   3.072   4.541   9.480  0.6323  1.6471  0.7245
  943MPD2    N113849   2.681   4.233   9.196 -0.4354 -0.4024 -0.3510
  943MPD2    H713850   2.672   4.167   9.119  0.1706 -0.5008 -0.3361
  944MPD2     C13851   2.228   4.714  10.641 -0.0899 -1.0789  0.5232
  944MPD2    C113852   2.244   4.591  10.696  0.3382 -0.1826 -0.3898
  944MPD2    C213853   2.269   4.580  10.833 -0.0635  0.3577 -0.7655
  944MPD2    C313854   2.280   4.700  10.908 -0.0314 -0.4622 -0.0161
  944MPD2    C413855   2.246   0.076  10.853  0.1486 -0.0757  0.0205
  944MPD2    C513856   2.219   0.082  10.719 -0.1464 -0.7632  0.1817
  944MPD2     H13857   2.287   4.484  10.880  2.0014  1.1932  0.1066
  944MPD2    H113858   2.255   0.169  10.910 -0.6117  0.0681 -0.0936
  944MPD2    H213859   2.215   4.724  10.534  2.1475  1.6498  0.4982
  944MPD2    H313860   2.187   0.177  10.677 -1.6065 -0.8922  1.0121
  944MPD2     N13861   2.298   4.691  11.046  0.4931 -0.0579  0.1079
  944MPD2    H513862   2.302   4.597  11.083  0.6625  0.0789  0.4332
  944MPD2    N113863   2.240   4.476  10.613  0.0277 -0.1437  0.1885
  944MPD2    H713864   2.213   4.491  10.516  0.7254 -0.9229 -0.1215
    1TMC1    C113865   1.668   4.101  14.356 -1.0988  0.3492  0.2349
    1TMC1    C213866   1.800   4.152  14.368  0.3237 -0.2557 -0.2398
    1TMC1    C313867   1.897   4.109  14.282  0.1884  0.0967  0.1067
    1TMC1    C413868   1.638   4.013  14.254  0.0729  0.2131 -0.3044
    1TMC1    C513869   1.741   3.967  14.179  0.3051  0.0329 -0.1196
    1TMC1    C613870   1.866   4.010  14.194 -0.2350  0.4352 -0.0499
    1TMC1     C13871   1.563   4.179  14.407  0.5909  0.3904  0.3829
    1TMC1     O13872   1.458   4.156  14.351  0.2313  0.2910  0.0620
    1TMC1     H13873   1.829   4.223  14.444  0.2430  1.0008 -1.3774
    1TMC1    H113874   1.540   3.968  14.244 -0.2454  1.1438 -1.2504
    1TMC1    H213875   1.946   3.968  14.134  0.3245  2.1813 -0.5414
    1TMC1    C713876   1.716   3.901  14.055 -1.2713 -0.0761  0.5466
    1TMC1    C813877   2.028   4.159  14.284  0.6316 -0.0332  0.2451
    1TMC1    O113878   1.797   3.830  13.999  0.0976  0.1064  0.7261
    1TMC1    O213879   2.121   4.084  14.251 -0.2790 -0.1174 -0.5504
    1TMC1    O313880   1.603   3.959  14.002 -0.2099 -0.1838 -0.0160
    1TMC1    H313881   1.582   4.041  14.051 -0.3113  0.6384 -1.4462
    1TMC1    O513882   2.042   4.277  14.350  0.2700 -0.0558 -0.1098
    1TMC1    H513883   1.971   4.337  14.321 -0.9444 -1.5538 -0.2077
    2MPD2     C13884   1.383   4.607  14.631 -0.1437  0.8910  0.5209
    2MPD2    C113885   1.338   4.537  14.526 -0.0197 -0.1367 -0.5245
    2MPD2    C213886   1.409   4.424  14.478  0.5442  0.4794 -0.2893
    2MPD2    C313887   1.516   4.378  14.554 -0.7665 -0.0698  0.2714
    2MPD2    C413888   1.556   4.449  14.661  0.3031 -0.9205 -0.4916
    2MPD2    C513889   1.497   4.562  14.697  0.5063 -0.2040  0.0265
    2MPD2     H13890   1.374   4.366  14.393 -2.8318  1.5303  0.3834
    2MPD2    H113891   1.641   4.412  14.717  0.6503 -0.7147 -0.8825
    2MPD2    H213892   1.332   4.696  14.664 -1.0805  0.4691  0.2232
    2MPD2    H313893   1.544   4.624  14.773  1.7171  2.6829 -3.0767
    2MPD2     N13894   1.591   4.261  14.515 -1.0467  0.2213  0.1742
    2MPD2    H513895   1.685   4.254  14.552 -1.1716  4.1241  1.2552
    2MPD2    N113896   1.223   4.594  14.456  0.0251 -0.3087 -0.1794
    2MPD2    H713897   1.174   4.668  14.505 -0.4589 -3.1196  3.6014
    3TMC2    C113898   1.067   4.623  14.273 -0.0371  0.2860  0.2299
    3TMC2    C213899   1.062   0.015  14.307 -0.8510 -0.5939  0.1802
    3TMC2    C313900   1.006   0.108  14.227 -0.3764  0.2965  0.1450
    3TMC2    C413901   1.019   4.589  14.153 -0.3415 -0.5089  0.2756
    3TMC2    C513902   0.971   4.691  14.066 -0.3234  0.0088 -0.6408
    3TMC2    C613903   0.952   0.082  14.108 -0.1967 -0.7239  0.0136
    3TMC2     C13904   1.162   4.538  14.340 -0.0389  0.2933  0.2064
    3TMC2     O13905   1.201   4.443  14.272  0.0587 -0.5921 -0.3012
    3TMC2     H13906   1.094   0.050  14.405 -1.0297  1.3495 -0.4556
    3TMC2    H113907   0.999   4.484  14.136  1.4123 -0.9044  0.6997
    3TMC2    H213908   0.935   0.159  14.034  2.7018  0.3283  0.4406
    3TMC2    C713909   0.937   4.645  13.924 -0.6136  0.6558 -0.0665
    3TMC2    C813910   1.029   0.249  14.264  0.0031  0.4790 -0.3609
    3TMC2    O113911   0.956   4.527  13.900 -0.7757 -0.2436  0.1758
    3TMC2    O213912   1.125   0.285  14.331  0.8639  0.9602 -0.2484
    3TMC2    O513913   0.918   0.323  14.239 -0.6311  0.9093 -0.5423
    3TMC2    H513914   0.847   0.262  14.211  0.0662 -0.4947  0.7933
    4TMC2    C113915   0.564   0.681  13.426  0.5750  0.1150 -0.5361
    4TMC2    C213916   0.559   0.690  13.291  0.3104 -0.3855  0.4112
    4TMC2    C313917   0.583   0.570  13.230 -0.3683 -0.4413  0.5133
    4TMC2    C413918   0.601   0.574  13.502  0.2219  0.1431 -0.2978
    4TMC2    C513919   0.618   0.463  13.434 -0.1026  0.0474 -0.2989
    4TMC2    C613920   0.605   0.452  13.298 -0.2712  0.3311  0.3894
    4TMC2     C13921   0.498   0.789  13.493  0.9685  0.3313 -0.4818
    4TMC2     O13922   0.531   0.806  13.611  0.1407 -0.1663  0.3551
    4TMC2     H13923   0.565   0.786  13.241 -1.4023  0.7340  2.3587
    4TMC2    H113924   0.594   0.567  13.610 -0.7372 -3.5373 -0.6021
    4TMC2    H213925   0.628   0.363  13.241 -0.3373 -0.6010  1.8202
    4TMC2    C713926   0.687   0.363  13.516 -0.4017  0.1910 -0.1751
    4TMC2    C813927   0.601   0.583  13.086 -0.1768 -0.6098  0.1003
    4TMC2    O113928   0.727   0.396  13.625  0.0682 -0.2908  0.5338
    4TMC2    O213929   0.602   0.687  13.022  0.1286  0.6277  0.3396
    4TMC2    O513930   0.636   0.466  13.025 -0.2145 -0.2574  0.2169
    4TMC2    H513931   0.599   0.384  13.064 -2.7701  0.3328 -0.9756
    5MPD2     C13932   0.226   1.207  13.522  0.3686 -0.1919 -0.0271
    5MPD2    C113933   0.164   1.123  13.431  0.3547  1.5251 -0.3264
    5MPD2    C213934   0.229   1.000  13.407 -0.1840  0.4660 -0.9243
    5MPD2    C313935   0.344   0.971  13.461  0.1067  0.1864 -0.1910
    5MPD2    C413936   0.406   1.056  13.547 -0.3335 -0.5399  0.1276
    5MPD2    C513937   0.343   1.173  13.579 -0.3010 -0.1986  0.0321
    5MPD2     H13938   0.198   0.934  13.328  1.4359 -1.1425 -0.2077
    5MPD2    H113939   0.506   1.047  13.588 -1.0658 -1.3274  1.7636
    5MPD2    H213940   0.183   1.303  13.548 -0.8147 -0.5862 -0.4851
    5MPD2    H313941   0.390   1.250  13.640  0.3580 -0.7185  0.1853
    5MPD2     N13942   0.404   0.844  13.421  0.0987  0.2049 -0.0279
    5MPD2    H513943   0.365   0.790  13.344  0.0571  1.0317 -0.5917
    5MPD2    N113944   0.046   1.164  13.369 -0.0432 -0.0278 -0.1845
    5MPD2    H713945   0.008   1.255  13.393  1.7187  0.4730  0.7002
    6MPD1     C13946   4.067   2.811  13.494 -0.1219  1.3722  0.3584
    6MPD1    C113947   4.042   2.759  13.367 -0.4772 -0.2993  0.0066
    6MPD1    C213948   4.034   2.618  13.360 -0.0796 -0.3525  0.2783
    6MPD1    C313949   4.076   2.539  13.466  0.5227 -0.0817 -0.4753
    6MPD1    C413950   4.079   2.592  13.589 -0.7528  0.3131  0.0671
    6MPD1    C513951   4.081   2.730  13.605  0.3356 -0.8166  0.1615
    6MPD1     H13952   3.997   2.573  13.269 -1.6669  0.7368  0.3941
    6MPD1    H113953   4.069   2.534  13.679  0.2752  0.6518  0.4024
    6MPD1    H213954   4.068   2.918  13.516 -1.4823  1.5864 -0.6527
    6MPD1    H313955   4.078   2.774  13.704  0.5295  1.5009 -0.8476
    6MPD1     N13956   4.071   2.403  13.457 -0.7300 -0.3728 -0.0071
    6MPD1    H513957   4.073   2.351  13.544 -3.9320 -1.2671 -0.4719
    6MPD1    N113958   4.007   2.845  13.260  0.3350 -0.5518 -0.7368
    6MPD1    H613959   4.038   2.805  13.171 -2.1582  1.6946 -2.6054
    6MPD1    H713960   4.057   2.933  13.269 -1.6044  0.5965 -1.3011
    7MPD2     C13961   4.366   1.720  13.785  0.3657  0.2315  0.0952
    7MPD2    C113962   4.354   1.713  13.650  0.2984 -0.4072 -0.1150
    7MPD2    C213963   4.381   1.593  13.587 -0.4660  0.2298  0.3950
    7MPD2    C313964   4.411   1.483  13.658 -0.1670 -0.1573  0.6897
    7MPD2    C413965   4.436   1.496  13.792 -0.1982  0.0575 -0.5900
    7MPD2    C513966   4.422   1.620  13.854 -0.1987  0.4449 -1.2742
    7MPD2     H13967   4.357   1.597  13.482 -2.4492 -3.6505  0.6640
    7MPD2    H113968   4.473   1.404  13.836  1.5994  0.9309 -0.2636
    7MPD2    H213969   4.343   1.808  13.844 -0.0726  0.9084 -1.1023
    7MPD2    H313970   4.439   1.639  13.959 -0.7718  0.0354 -1.1078
    7MPD2     N13971   4.408   1.357  13.593  0.1764  0.5182  0.2065
    7MPD2    H513972   4.420   1.272  13.647 -0.1325  0.4057  0.0975
    7MPD2    N113973   4.309   1.828  13.576 -0.2513  0.3202 -0.5516
    7MPD2    H713974   4.330   1.819  13.477  0.1428 -0.6839 -0.3719
    8TMC3    C113975   4.382   1.204  13.411  1.3121  0.2560  0.2852
    8TMC3    C213976   4.520   1.177  13.408  0.0265 -0.2192  0.4567
    8TMC3    C313977   4.574   1.161  13.283 -0.1186 -0.4821  0.0068
    8TMC3    C413978   4.316   1.208  13.292  0.1079 -0.7312 -0.2723
    8TMC3    C513979   4.375   1.194  13.163  0.1956 -0.6178  0.1629
    8TMC3    C613980   4.509   1.182  13.160 -0.6032 -0.5671 -0.1557
    8TMC3     C13981   4.372   1.337  13.463 -0.6772 -0.3384 -0.1708
    8TMC3     O13982   4.319   1.411  13.379  0.2282 -0.0917 -0.2667
    8TMC3     H13983   4.580   1.154  13.496  0.0997 -0.8325  0.2437
    8TMC3    H113984   4.211   1.235  13.301  0.6417  1.1599  0.4840
    8TMC3    H213985   4.571   1.207  13.075  2.1433  0.5918  2.1799
    8TMC3    C713986   4.335   1.307  13.080 -0.2927 -0.4760 -0.4109
    8TMC3    C813987   4.705   1.105  13.271 -0.0069  0.1294 -0.9328
    8TMC3    O113988   4.417   1.388  13.037  0.1244 -0.4821 -0.0832
    8TMC3    O213989   4.708   1.002  13.211 -0.2938 -0.6861 -0.2566
    9TMC3    C113990   4.113   2.185  13.377 -0.3087  0.2851 -0.6923
    9TMC3    C213991   4.090   2.110  13.264  0.2276  0.5043  0.5977
    9TMC3    C313992   4.107   1.980  13.283 -0.0119 -0.0352  0.8462
    9TMC3    C413993   4.164   2.143  13.496 -0.3484 -0.0749  0.0956
    9TMC3    C513994   4.188   2.009  13.502  0.1333 -0.0493 -0.2336
    9TMC3    C613995   4.156   1.926  13.400  0.8260 -0.3654 -0.1418
    9TMC3     C13996   4.100   2.326  13.346  0.5994 -0.4091 -0.1195
    9TMC3     O13997   4.114   2.362  13.228 -0.2173 -0.0408 -0.1758
    9TMC3     H13998   4.060   2.155  13.170  1.8442 -0.0969 -0.2026
    9TMC3    H113999   4.197   2.207  13.577 -1.8200 -0.1455  0.7481
    9TMC3    H214000   4.141   1.820  13.418 -0.2552 -0.3818 -1.1540
    9TMC3    C714001   4.260   1.948  13.615  0.6302 -0.4233 -0.6378
    9TMC3    C814002   4.066   1.892  13.178  0.3835 -0.1166  0.2724
    9TMC3    O114003   4.259   1.997  13.725  0.1502  0.2903 -0.1217
    9TMC3    O214004   3.972   1.932  13.116 -0.0006  0.0253 -0.3871
   10MPD2     C14005   3.992   1.408  13.006  0.1498  0.0472  0.2456
   10MPD2    C114006   4.128   1.428  13.037  0.1205 -0.2912 -0.1834
   10MPD2    C214007   4.165   1.541  13.099 -0.2355  0.4559  0.4895
   10MPD2    C314008   4.077   1.647  13.127 -0.0259  0.3655 -0.3903
   10MPD2    C414009   3.945   1.626  13.096 -0.1711  0.0140  0.1769
   10MPD2    C514010   3.906   1.505  13.038 -0.0894  0.1889  0.9564
   10MPD2     H14011   4.267   1.543  13.138 -0.5453 -1.1415  1.3659
   10MPD2    H114012   3.874   1.707  13.107 -0.2633  0.0835 -0.8749
   10MPD2    H214013   3.946   1.312  12.984  1.0001 -1.2043  3.8606
   10MPD2    H314014   3.802   1.496  13.011  0.3399 -1.2887 -0.2199
   10MPD2     N14015   4.125   1.767  13.190  0.0737 -0.0033 -0.5417
   10MPD2    H514016   4.223   1.784  13.210  0.3477 -2.0910 -0.1793
   10MPD2    N114017   4.200   1.310  13.047  0.1070  0.9719  0.2774
   10MPD2    H714018   4.153   1.221  13.056 -0.3119  0.8351 -3.1874
   11MPD2     C14019   0.838   4.610  13.630  0.2078  0.1697  0.2607
   11MPD2    C114020   0.843   4.732  13.703 -0.3039  0.0260 -0.3412
   11MPD2    C214021   0.797   0.113  13.641 -0.5907 -0.0658  0.7057
   11MPD2    C314022   0.749   0.123  13.515 -0.1821  0.1022  0.2620
   11MPD2    C414023   0.752   0.003  13.444 -0.0896 -0.2963 -0.0809
   11MPD2    C514024   0.797   4.626  13.501  0.0201  0.1293 -0.3167
   11MPD2     H14025   0.804   0.200  13.705  1.1885 -0.7550  1.4807
   11MPD2    H114026   0.702   0.008  13.348 -0.9677 -0.3863  0.3695
   11MPD2    H214027   0.863   4.510  13.663  0.4092 -0.1756 -0.9307
   11MPD2    H314028   0.795   4.536  13.440 -2.9636  1.1140 -1.6075
   11MPD2     N14029   0.694   0.243  13.461  0.5236 -0.2503  0.4072
   11MPD2    H514030   0.629   0.228  13.384  2.0049 -1.6421 -0.5596
   11MPD2    N114031   0.892   0.003  13.841  0.4381  0.2026  0.2721
   11MPD2    H714032   0.893   0.098  13.876  2.7066 -0.1409  1.1681
    1MPD1     C14033   3.148   1.450  17.309 -0.6839  0.1437  0.3884
    1MPD1    C114034   3.058   1.543  17.351  0.1729  0.0339  0.7616
    1MPD1    C214035   3.104   1.668  17.393 -0.5560  0.0429 -0.1131
    1MPD1    C314036   3.234   1.709  17.375 -0.2766  0.0455 -0.4635
    1MPD1    C414037   3.322   1.612  17.330 -0.1748 -0.4041  0.3345
    1MPD1    C514038   3.280   1.483  17.300 -0.0870 -0.0511  0.3888
    1MPD1     H14039   3.038   1.742  17.436  1.1008  0.8741  1.0209
    1MPD1    H114040   3.426   1.638  17.318 -0.2248 -1.7795 -3.0917
    1MPD1    H214041   3.119   1.351  17.276 -0.3275  0.6002 -1.2778
    1MPD1    H314042   3.351   1.411  17.260  0.5159  0.5320  0.4090
    1MPD1     N14043   3.284   1.843  17.402 -0.1982  0.3757 -0.0351
    1MPD1    H514044   3.385   1.852  17.390 -0.1225  1.0490  1.1227
    1MPD1    N114045   2.930   1.490  17.375 -0.0308  0.4154  0.3070
    1MPD1    H614046   2.858   1.557  17.352  0.3263  0.3088 -1.1018
    1MPD1    H714047   2.916   1.415  17.308  2.3861  1.8930 -1.8423
    2MPD1     C14048   3.221   2.897  17.129 -0.0532  0.2962  0.3154
    2MPD1    C114049   3.344   2.868  17.179  0.1950 -0.2539  0.0340
    2MPD1    C214050   3.372   2.748  17.242  0.0685 -0.4120  0.1654
    2MPD1    C314051   3.279   2.647  17.254  0.0291  0.1843 -0.1867
    2MPD1    C414052   3.145   2.680  17.216 -0.0484  0.1124  0.0116
    2MPD1    C514053   3.125   2.795  17.146 -0.6164  0.1184  0.5300
    2MPD1     H14054   3.469   2.733  17.287  0.8301 -0.9557 -1.6716
    2MPD1    H114055   3.057   2.619  17.228 -0.3820  0.7217  0.6916
    2MPD1    H214056   3.187   2.987  17.078  1.8132  0.2307 -1.0327
    2MPD1    H314057   3.023   2.807  17.110 -0.1942 -0.0564 -0.7280
    2MPD1     N14058   3.318   2.528  17.322 -0.4400 -0.6000  0.1981
    2MPD1    H514059   3.405   2.520  17.374 -0.8357 -0.4678  0.8794
    2MPD1    N114060   3.437   2.970  17.185  0.1651  0.3088 -0.3599
    2MPD1    H614061   3.391   3.061  17.173 -0.7692 -0.0224  0.6874
    2MPD1    H714062   3.482   2.967  17.276 -1.0482 -0.4793  0.2098
    3TMC3    C114063   3.294   2.299  17.382 -0.0451 -0.3887 -0.2387
    3TMC3    C214064   3.418   2.305  17.429  0.5106 -0.3606 -0.2912
    3TMC3    C314065   3.473   2.190  17.481  0.1918  0.4428 -0.0841
    3TMC3    C414066   3.219   2.189  17.382  0.3900 -0.0767  0.6887
    3TMC3    C514067   3.277   2.079  17.431  0.4575 -0.5057  0.0955
    3TMC3    C614068   3.400   2.071  17.482  0.3746  0.3075 -1.1380
    3TMC3     C14069   3.235   2.417  17.318 -0.5541  0.0176 -0.3711
    3TMC3     O14070   3.121   2.407  17.276 -0.3996  0.4174  0.1117
    3TMC3     H14071   3.474   2.396  17.449 -0.6501  0.2205  0.3192
    3TMC3    H114072   3.121   2.196  17.336  0.5990 -1.2840  0.0684
    3TMC3    H214073   3.433   1.985  17.540  0.3175  1.2488  0.2838
    3TMC3    C714074   3.202   1.955  17.408 -0.5588 -0.3648 -0.5553
    3TMC3    C814075   3.582   2.196  17.580 -0.8349 -0.3980 -0.2015
    3TMC3    O114076   3.086   1.959  17.391  0.0241 -0.1292 -0.0111
    3TMC3    O214077   3.609   2.090  17.633 -0.1161  0.0225 -0.5408
    4MPD1     C14078   3.993   2.420   0.048 -0.4175 -0.2808  0.2373
    4MPD1    C114079   3.965   2.489  17.694 -0.8229 -0.3093  0.0583
    4MPD1    C214080   3.863   2.446  17.612  0.2791  0.1044  0.1207
    4MPD1    C314081   3.773   2.345  17.653  0.3259  0.5940 -0.5099
    4MPD1    C414082   3.803   2.273   0.006  0.6015 -0.8318 -0.5259
    4MPD1    C514083   3.911   2.310   0.083  0.5562  0.7851  0.0898
    4MPD1     H14084   3.861   2.495  17.515  4.9407 -1.0841 -0.5750
    4MPD1    H114085   3.749   2.188   0.044 -0.6152 -0.2199 -0.8935
    4MPD1    H214086   4.083   2.433   0.107  0.7514  0.7023 -1.7621
    4MPD1    H314087   3.924   2.241   0.166 -0.6805 -0.5487 -0.8242
    4MPD1     N14088   3.657   2.314  17.571  0.0378 -0.2479  0.3550
    4MPD1    H514089   3.639   2.378  17.494  1.5127 -0.9303 -0.5532
    4MPD1    N114090   4.047   2.589  17.650 -0.0075  0.5499  0.3975
    4MPD1    H614091   3.993   2.661  17.603  0.7031  1.9774  1.7501
    4MPD1    H714092   4.091   2.637  17.729  0.1108 -0.0514  0.6948
    1TCq1    O114093   0.196   1.271  12.494  0.0399  0.2385  0.0905
    1TCq1    C114094   0.126   1.359  12.422  0.3403  0.1361  0.0876
    1TCq1    O214095   0.146   1.480  12.414 -0.1334 -0.0746  0.3006
    1TCq1    C214096   0.066   1.285  12.312  0.2841  0.9551 -1.0795
    1TCq1    C314097   0.019   1.155  12.333  0.4699  0.2136 -0.6201
    1TCq1    C414098   4.691   1.095  12.229  0.3553  0.2889 -0.2829
    1TCq1    C514099   4.648   1.176  12.125  0.2258  0.0492  0.0471
    1TCq1    C614100   4.703   1.295  12.101 -0.3594  0.1207  0.1810
    1TCq1    C714101   0.049   1.355  12.196  0.3693 -0.4400  0.3457
    1TCq1    C814102   4.651   1.386  12.002  0.3475 -0.1254  0.5233
    1TCq1    O414103   4.691   1.501  12.004  0.2626  0.2240 -0.0406
    1TCq1    C914104   4.622   0.971  12.236  0.2943 -0.2537  0.1455
    1TCq1    O514105   4.639   0.901  12.340 -0.4408 -0.2296 -0.1867
    1TCq1    O614106   4.535   0.943  12.150 -0.5162  0.1017  0.3044
    1TCq1    H114107   0.188   1.178  12.464 -2.4892  1.2064 -2.2379
    1TCq1    H214108   0.005   1.122  12.435  1.8915  0.5418 -0.3254
    1TCq1    H314109   4.568   1.138  12.062  1.2189 -0.1286 -1.1107
    1TCq1    H414110   0.099   1.451  12.185 -0.2492  0.0248  1.5059
    2MPD1     C14111   4.341   1.499  11.599  0.6067  0.0998 -0.1103
    2MPD1    C114112   4.304   1.370  11.639 -0.0072 -0.3107  0.7776
    2MPD1    C214113   4.381   1.315  11.742  0.1156 -0.1581 -0.1350
    2MPD1    C314114   4.485   1.381  11.812 -1.0029 -0.5450 -0.3145
    2MPD1    C414115   4.518   1.508  11.764 -0.4339 -0.1619 -0.1607
    2MPD1    C514116   4.445   1.560  11.653 -0.8555  0.6136 -0.4292
    2MPD1     H14117   4.349   1.216  11.772 -0.2530  0.4724  1.5584
    2MPD1    H114118   4.599   1.566  11.806  0.2056 -1.4161  0.3394
    2MPD1    H214119   4.293   1.554  11.519 -0.6103 -1.9915 -0.8399
    2MPD1    H314120   4.475   1.658  11.618 -2.8247  1.6725  0.8366
    2MPD1     N14121   4.559   1.325  11.923  0.3851  0.2474  0.3242
    2MPD1    H514122   4.561   1.224  11.921 -0.1606  0.2351  0.3025
    2MPD1    N114123   4.200   1.306  11.569  0.1955 -0.7603 -0.0647
    2MPD1    H614124   4.132   1.369  11.527 -0.5354 -1.0788  0.6408
    2MPD1    H714125   4.148   1.242  11.628  2.1739 -1.6524  0.7285
    1TMC1    C114126   1.667   2.066   1.902 -0.7013 -0.4711 -0.0054
    1TMC1    C214127   1.691   2.199   1.911  0.4444 -0.1517  0.1320
    1TMC1    C314128   1.808   2.254   1.864 -0.7937 -0.0292 -0.0572
    1TMC1    C414129   1.752   1.981   1.838 -0.6366 -0.0626  0.2013
    1TMC1    C514130   1.854   2.048   1.773  0.3482 -0.0877  0.1274
    1TMC1    C614131   1.885   2.186   1.775 -0.2547 -0.1950 -0.5085
    1TMC1     C14132   1.551   2.005   1.963  0.2114  0.1244 -0.0037
    1TMC1     O14133   1.567   1.887   2.002  1.0386 -0.0384  0.3193
    1TMC1     H14134   1.641   2.272   1.974 -1.2776 -2.6011  1.5710
    1TMC1    H114135   1.720   1.880   1.821 -1.0347  0.2104 -0.6656
    1TMC1    H214136   1.983   2.218   1.742 -0.8762 -0.4108 -2.5801
    1TMC1    C714137   1.923   1.975   1.671 -0.7867 -0.3801  0.1759
    1TMC1    C814138   1.824   2.396   1.877  0.1487  0.6489  0.4948
    1TMC1    O114139   1.925   1.852   1.679 -0.5038 -0.4005  0.3019
    1TMC1    O214140   1.872   2.458   1.787 -0.1035 -0.1674  0.1287
    1TMC1    O314141   1.899   2.049   1.566 -0.0202 -0.1099  0.1098
    1TMC1    H314142   1.886   2.144   1.588 -1.3058 -0.2714  0.0196
    1TMC1    O514143   1.798   2.435   2.001  0.2933 -0.1236 -0.1274
    1TMC1    H514144   1.800   2.361   2.066  0.7393  0.5222  0.5939
    2MPD1     C14145   1.110   2.055   2.208  0.4297 -0.2408 -0.7042
    2MPD1    C114146   1.165   2.176   2.192  0.1765  0.4586 -0.2622
    2MPD1    C214147   1.273   2.190   2.114 -0.1035  0.8451 -0.0821
    2MPD1    C314148   1.342   2.076   2.075 -0.3615 -0.7289 -0.0904
    2MPD1    C414149   1.299   1.951   2.107  0.3007  0.3197  0.3639
    2MPD1    C514150   1.184   1.940   2.173  0.0704 -0.6108 -0.0970
    2MPD1     H14151   1.304   2.290   2.085  1.7757 -0.3545 -2.2352
    2MPD1    H114152   1.360   1.862   2.095 -0.0959  0.2059 -0.8160
    2MPD1    H214153   1.015   2.034   2.255  0.4455  1.8502  0.2779
    2MPD1    H314154   1.145   1.842   2.201  2.4299 -1.3093  0.7303
    2MPD1     N14155   1.454   2.103   1.997 -0.1489  0.0230  0.0314
    2MPD1    H514156   1.463   2.199   1.966  1.0466  0.0071  0.3376
    2MPD1    N114157   1.093   2.284   2.229 -0.1070  0.1330 -0.5272
    2MPD1    H614158   1.142   2.372   2.241  0.4196 -0.0035 -1.6929
    2MPD1    H714159   1.051   2.262   2.319  0.2516  1.1136 -0.1117
    1MPD1     C14160   2.594   1.655  10.470  0.5550  0.1016  0.2588
    1MPD1    C114161   2.559   1.602  10.591  0.1947  0.1204 -0.0876
    1MPD1    C214162   2.523   1.685  10.693  0.2593  0.2645 -0.4826
    1MPD1    C314163   2.507   1.822  10.676  0.2101  0.5881 -0.8454
    1MPD1    C414164   2.523   1.872  10.552  0.4279 -0.5512 -0.8412
    1MPD1    C514165   2.573   1.793  10.451  0.6616 -0.1750 -0.2040
    1MPD1     H14166   2.512   1.638  10.790  1.1499 -0.0554 -0.5341
    1MPD1    H114167   2.524   1.979  10.531  1.4215 -0.4797 -0.4500
    1MPD1    H214168   2.627   1.599  10.383 -1.3535  1.7396 -1.5215
    1MPD1    H314169   2.582   1.837  10.352  3.1774 -0.4562 -0.1193
    1MPD1     N14170   2.474   1.905  10.789  0.4118  0.4994  0.2294
    1MPD1    H514171   2.476   1.855  10.878  1.8773  0.3869  0.1329
    1MPD1    N114172   2.594   1.466  10.618  0.7273 -0.2629  0.0201
    1MPD1    H614173   2.536   1.414  10.684  1.7898 -0.6321  0.6543
    1MPD1    H714174   2.604   1.410  10.534  1.2920 -0.7167  0.3939
    2MPD1     C14175   0.926   2.475  12.040  0.3591 -0.6940  0.1034
    2MPD1    C114176   0.935   2.374  11.947 -0.0450 -0.3576  0.6487
    2MPD1    C214177   0.904   2.396  11.812  0.4500  0.1423 -0.5680
    2MPD1    C314178   0.882   2.526  11.771 -0.1774 -0.0544 -0.1677
    2MPD1    C414179   0.892   2.632  11.869 -0.6497  0.3933  0.1609
    2MPD1    C514180   0.905   2.602  12.000 -0.3165 -0.9248  0.4173
    2MPD1     H14181   0.887   2.313  11.744  0.3670  0.8772 -1.4457
    2MPD1    H114182   0.878   2.733  11.834 -0.2105  1.6533  3.6425
    2MPD1    H214183   0.947   2.460  12.145 -1.3202 -0.6364  0.4379
    2MPD1    H314184   0.919   2.682  12.072 -0.6908 -1.2665  0.8770
    2MPD1     N14185   0.854   2.564  11.643  0.1680  1.5019  0.0525
    2MPD1    H514186   0.861   2.663  11.624 -2.0316  1.4131 -1.2221
    2MPD1    N114187   0.926   2.246  12.001  0.1628 -0.2328 -0.3195
    2MPD1    H614188   0.973   2.182  11.937  0.6479 -0.7607  0.5661
    2MPD1    H714189   0.975   2.233  12.089  0.1857 -0.2387 -0.3330
    3MPD1     C14190   0.296   2.180  10.918  0.3029  0.1438 -0.1232
    3MPD1    C114191   0.313   2.146  11.050 -0.5267  0.1931  0.6791
    3MPD1    C214192   0.411   2.217  11.120 -0.1450  0.0366  0.4179
    3MPD1    C314193   0.490   2.313  11.056  0.0883  0.0315  0.3430
    3MPD1    C414194   0.473   2.331  10.916  0.9274 -0.6420 -1.2018
    3MPD1    C514195   0.371   2.270  10.851  0.3314 -0.1423  0.1872
    3MPD1     H14196   0.417   2.197  11.227  2.3274 -1.0680  0.0611
    3MPD1    H114197   0.551   2.381  10.861  1.3987  2.9339  2.6626
    3MPD1    H214198   0.220   2.134  10.856  0.1103  0.8015 -0.3739
    3MPD1    H314199   0.356   2.287  10.745 -0.3612  1.4482  0.5312
    3MPD1     N14200   0.588   2.389  11.130 -0.0590  0.1162 -0.3160
    3MPD1    H514201   0.586   2.377  11.231 -0.1841  1.0552 -0.2071
    3MPD1    N114202   0.244   2.038  11.107 -0.0693  0.2889 -0.3107
    3MPD1    H614203   0.151   2.018  11.070 -0.1671 -1.8533  1.1331
    3MPD1    H714204   0.240   2.032  11.208 -0.3365  0.7099 -0.2947
    4MPD2     C14205   1.935   2.114  11.311  0.2055 -0.1021 -0.4163
    4MPD2    C114206   2.028   2.210  11.270  0.6090 -0.0565  0.6878
    4MPD2    C214207   2.002   2.343  11.292 -0.7236 -0.1041 -0.3112
    4MPD2    C314208   1.880   2.386  11.332  0.3386  0.2537  0.1538
    4MPD2    C414209   1.784   2.295  11.362  0.0144 -0.0316 -0.3262
    4MPD2    C514210   1.811   2.161  11.348 -0.2180  0.0847 -0.4414
    4MPD2     H14211   2.086   2.410  11.279 -0.5120 -0.7630 -2.4684
    4MPD2    H114212   1.685   2.332  11.388  1.3720  2.8499  0.7290
    4MPD2    H214213   1.948   2.008  11.297 -0.9842 -0.3152  0.0847
    4MPD2    H314214   1.728   2.095  11.368 -0.3064  0.2200 -0.3593
    4MPD2     N14215   1.845   2.527  11.347  0.2965 -0.1183 -0.1095
    4MPD2    H514216   1.755   2.549  11.390  0.9565  0.8885  0.7637
    4MPD2    N114217   2.157   2.184  11.219  0.0724  0.1135 -0.3074
    4MPD2    H714218   2.218   2.264  11.204 -2.1069  1.6778 -0.8534
    5TMC3    C114219   2.334   2.085  11.124 -0.1378  0.8117  0.1645
    5TMC3    C214220   2.364   2.021  11.003 -0.4542 -0.4713  0.4275
    5TMC3    C314221   2.435   2.098  10.915 -0.3216 -0.0635  0.5296
    5TMC3    C414222   2.390   2.206  11.157  0.6066 -0.3817  0.0524
    5TMC3    C514223   2.455   2.282  11.068 -0.1261 -0.0632 -0.1286
    5TMC3    C614224   2.467   2.230  10.936 -0.5929 -1.1575 -0.1560
    5TMC3     C14225   2.207   2.065  11.178  0.1529 -1.3101 -0.0116
    5TMC3     O14226   2.142   1.963  11.161  0.0693  0.5290  0.5496
    5TMC3     H14227   2.317   1.927  10.976  1.4938 -1.0299 -0.9931
    5TMC3    H114228   2.383   2.243  11.259  1.1655 -0.8986  0.2751
    5TMC3    H214229   2.491   2.294  10.852  0.4782 -3.4297 -1.5699
    5TMC3    C714230   2.398   2.415  11.083  0.9198  1.2614  0.2779
    5TMC3    C814231   2.467   2.041  10.786  0.7316 -0.3424  0.0831
    5TMC3    O114232   2.302   2.429  11.156  0.0715  0.0309  0.6641
    5TMC3    O214233   2.479   2.120  10.692 -0.1971  0.2503 -0.4472
    6TMC3    C114234   0.807   2.562  11.427  0.6032  0.0372  0.3994
    6TMC3    C214235   0.729   2.498  11.330  0.7817  0.0953 -0.1638
    6TMC3    C314236   0.748   2.533  11.198  0.4990  0.1158  0.5932
    6TMC3    C414237   0.917   2.637  11.394  0.4490 -0.1169 -1.0624
    6TMC3    C514238   0.933   2.663  11.260 -0.2382  0.3143  0.4445
    6TMC3    C614239   0.855   2.616  11.164  0.2898  0.5379  0.0973
    6TMC3     C14240   0.812   2.485  11.547  1.3854 -0.2922  0.0734
    6TMC3     O14241   0.785   2.368  11.552  0.4404  0.1443  0.2515
    6TMC3     H14242   0.657   2.425  11.365 -1.0275  2.1009  0.2980
    6TMC3    H114243   0.997   2.664  11.462  0.4213  1.8547 -1.8199
    6TMC3    H214244   0.869   2.633  11.058  1.4534 -2.4745 -0.2421
    6TMC3    C714245   1.059   2.721  11.222 -0.4074  0.7654  0.3089
    6TMC3    C814246   0.684   2.480  11.084 -0.3322  0.3246 -0.1985
    6TMC3    O114247   1.150   2.704  11.301 -0.0296  0.0714  0.6955
    6TMC3    O214248   0.717   2.506  10.969 -0.1086 -0.1449  0.7449
    7MPD2     C14249   2.367   2.919  11.012 -0.0041  0.2484 -0.3571
    7MPD2    C114250   2.288   2.827  11.079  0.0707 -0.1906  0.1329
    7MPD2    C214251   2.320   2.695  11.073 -0.4801  0.2954 -0.2854
    7MPD2    C314252   2.433   2.649  11.008  0.7589 -0.0414  0.5907
    7MPD2    C414253   2.516   2.740  10.954  0.1468  0.0629  0.0408
    7MPD2    C514254   2.479   2.872  10.947 -0.0956  0.0772 -1.0178
    7MPD2     H14255   2.243   2.633  11.117 -1.0892  1.4603  0.3099
    7MPD2    H114256   2.593   2.709  10.885  0.6215  0.3270  0.4505
    7MPD2    H214257   2.342   3.024  11.003 -2.4371 -0.3108 -0.1746
    7MPD2    H314258   2.529   2.940  10.880  0.9667 -0.3058 -0.6092
    7MPD2     N14259   2.472   2.513  11.018  0.5183  0.0410  1.1066
    7MPD2    H514260   2.553   2.474  10.970 -0.1915 -0.8117  0.6065
    7MPD2    N114261   2.168   2.851  11.152  0.4028 -0.4509  0.0580
    7MPD2    H714262   2.114   2.778  11.198 -0.4926  0.2403  0.1114
    8TMC3    C114263   1.987   2.963  11.232  0.2842 -0.4956  0.2130
    8TMC3    C214264   1.878   2.994  11.156 -0.0125  0.0029  0.2339
    8TMC3    C314265   1.773   2.908  11.152 -0.6788 -0.0789 -0.2796
    8TMC3    C414266   1.983   2.853  11.314  0.0576  0.0366  0.4926
    8TMC3    C514267   1.868   2.775  11.318 -0.2213 -0.1904 -0.4249
    8TMC3    C614268   1.765   2.793  11.224 -0.3288  0.3621  0.1301
    8TMC3     C14269   2.105   2.979  11.152  0.1434 -0.4529 -0.9227
    8TMC3     O14270   2.112   3.072  11.077  0.1298 -1.0740  0.6144
    8TMC3     H14271   1.876   3.072  11.080 -0.7125  0.9818  1.2514
    8TMC3    H114272   2.063   2.829  11.383 -0.0657  1.5675  1.1645
    8TMC3    H214273   1.684   2.725  11.203 -0.8898  0.2864  2.5319
    8TMC3    C714274   1.921   2.635  11.317 -0.1912  0.4377  0.6321
    8TMC3    C814275   1.661   2.954  11.073  0.5364 -0.1586 -0.3299
    8TMC3    O114276   2.032   2.636  11.262 -0.0565  0.2524 -0.1353
    8TMC3    O214277   1.675   3.037  10.984 -0.1376  0.0431 -0.3353
    9MPD2     C14278   1.390   3.001  10.949 -0.2474  0.4279 -0.4649
    9MPD2    C114279   1.410   2.918  11.056 -0.6179 -0.5776  0.6660
    9MPD2    C214280   1.302   2.851  11.113  0.3417  0.0896 -0.2307
    9MPD2    C314281   1.175   2.854  11.060  1.1643 -0.5782 -0.6226
    9MPD2    C414282   1.152   2.944  10.953 -0.5249  0.0539  0.7075
    9MPD2    C514283   1.259   3.025  10.911 -0.2001 -0.0809 -0.6348
    9MPD2     H14284   1.332   2.795  11.201 -1.3570 -0.6103 -0.0956
    9MPD2    H114285   1.072   2.934  10.881  0.1790 -1.9959  0.2095
    9MPD2    H214286   1.472   3.059  10.908  0.8817 -0.9698 -0.1862
    9MPD2    H314287   1.242   3.080  10.819 -1.8139 -0.0130 -0.2831
    9MPD2     N14288   1.063   2.786  11.104  0.7355 -0.2653  0.3500
    9MPD2    H514289   0.973   2.803  11.059  0.2162  1.0488  1.8934
    9MPD2    N114290   1.540   2.905  11.115 -0.2280  0.2202 -0.8593
    9MPD2    H714291   1.544   2.843  11.196 -0.6916  0.2364 -0.8244
    1MPD1     C14292   1.521   0.130  16.762 -0.7767  0.6967  0.2321
    1MPD1    C114293   1.403   0.075  16.814  0.4663 -0.0554 -0.3733
    1MPD1    C214294   1.382   4.676  16.811  0.6005  0.5291  0.9395
    1MPD1    C314295   1.485   4.588  16.771  0.7058  0.4766  0.1044
    1MPD1    C414296   1.606   4.650  16.749  0.8844 -0.0065  0.0078
    1MPD1    C514297   1.622   0.044  16.747 -0.4659  0.0203  0.4399
    1MPD1     H14298   1.284   4.646  16.846  0.9061 -0.7871  0.6715
    1MPD1    H114299   1.696   4.596  16.721  1.5876  1.5718 -0.7881
    1MPD1    H214300   1.544   0.235  16.755 -0.1626  0.3192 -3.5564
    1MPD1    H314301   1.721   0.083  16.727 -0.9209  1.9110  1.9158
    1MPD1     N14302   1.478   4.450  16.748  0.0153 -0.1087  0.4397
    1MPD1    H514303   1.567   4.406  16.725 -0.6329 -1.9777  1.4706
    1MPD1    N114304   1.287   0.152  16.831  0.4342  0.2849  0.9131
    1MPD1    H614305   1.292   0.246  16.869  0.3888  0.0033  1.6010
    1MPD1    H714306   1.217   0.106  16.888 -0.1893 -0.3280 -0.3304
    2TMC2    C114307   1.279   4.034  16.675  0.0476 -0.0802 -0.2881
    2TMC2    C214308   1.398   3.987  16.626 -0.5671 -0.0174 -0.0167
    2TMC2    C314309   1.500   4.076  16.602  0.2283 -0.2371 -0.0301
    2TMC2    C414310   1.268   4.160  16.718 -0.3265 -0.2122  0.6993
    2TMC2    C514311   1.378   4.241  16.707  0.4253  0.0107  0.4963
    2TMC2    C614312   1.493   4.208  16.645 -0.6796  0.7764 -0.6378
    2TMC2     C14313   1.177   3.933  16.690  0.8879 -0.1039  0.4914
    2TMC2     O14314   1.209   3.816  16.689  0.1226 -0.8719  0.5674
    2TMC2     H14315   1.398   3.883  16.597 -0.1684  0.2268 -0.8809
    2TMC2    H114316   1.180   4.206  16.761 -2.4282 -0.4570 -3.4064
    2TMC2    H214317   1.561   4.278  16.596 -0.9241 -0.3538 -2.6025
    2TMC2    C714318   1.367   4.372  16.766  0.4075  0.6868 -0.4516
    2TMC2    C814319   1.616   4.012  16.538  0.1820  0.6236 -0.4734
    2TMC2    O114320   1.257   4.407  16.809 -0.1355 -0.1047 -0.4557
    2TMC2    O214321   1.627   3.895  16.510  0.3574 -0.1595  0.7740
    2TMC2    O514322   1.713   4.104  16.526  0.5770 -0.1307  0.7436
    2TMC2    H514323   1.705   4.177  16.591 -3.6123  0.5896 -0.6099
    3MPD1     C14324   0.700   3.778  16.781 -0.3101 -0.2701 -0.7313
    3MPD1    C114325   0.704   3.916  16.802 -0.0878 -0.8053 -0.3787
    3MPD1    C214326   0.822   3.984  16.779  0.0651  0.2257  1.4074
    3MPD1    C314327   0.930   3.909  16.738  0.2970  0.6003 -0.5865
    3MPD1    C414328   0.935   3.765  16.722 -0.7661 -0.4812  0.0766
    3MPD1    C514329   0.813   3.706  16.740  0.7496  0.2020  0.4072
    3MPD1     H14330   0.832   4.091  16.794 -1.3842  0.3963  1.1409
    3MPD1    H114331   1.023   3.706  16.700 -0.9048 -0.2782 -0.9929
    3MPD1    H214332   0.606   3.724  16.794 -0.1935 -0.3833 -0.3483
    3MPD1    H314333   0.801   3.598  16.737  0.9108  0.2341 -1.6617
    3MPD1     N14334   1.052   3.986  16.721 -0.5538 -0.0618  0.5766
    3MPD1    H514335   1.041   4.087  16.711  0.5188 -0.1363 -1.3570
    3MPD1    N114336   0.594   3.978  16.866  0.3810 -0.6286  0.4146
    3MPD1    H614337   0.506   3.927  16.862  0.9380 -1.6142  0.7497
    3MPD1    H714338   0.575   4.075  16.840 -0.0623 -0.7456  0.3034
    1TMC1    C114339   4.208   4.477  13.065 -0.1202 -0.1241 -0.0181
    1TMC1    C214340   4.230   4.539  12.943  0.0040 -0.3922  0.5274
    1TMC1    C314341   4.112   4.605  12.901  0.4960 -0.6027  0.0662
    1TMC1    C414342   4.088   4.466  13.134  0.5336  0.2115 -0.0170
    1TMC1    C514343   3.980   4.525  13.078  0.0772 -0.6799 -0.0689
    1TMC1    C614344   3.996   4.604  12.969 -0.8112 -0.5677 -0.4460
    1TMC1     C14345   4.315   4.412  13.135  0.1912 -0.1254 -0.0313
    1TMC1     O14346   4.409   4.364  13.072  0.3189  0.2231  0.4600
    1TMC1     H14347   4.328   4.572  12.910 -0.6744  1.4271  0.3250
    1TMC1    H114348   4.071   4.410  13.225 -1.4820  0.4659 -0.2483
    1TMC1    H214349   3.909   4.631  12.910 -0.5132 -2.4889 -1.7632
    1TMC1    C714350   3.853   4.505  13.137  0.2637 -0.4503  0.0059
    1TMC1    C814351   4.127   4.721  12.812  0.1178  0.2485  0.1700
    1TMC1    O114352   3.836   4.498  13.260  0.0555  0.5133  0.1067
    1TMC1    O214353   4.052   0.075  12.833 -0.7200  0.0037  0.2600
    1TMC1    O314354   3.784   4.435  13.041 -0.3879  0.5706  0.6013
    1TMC1    H314355   3.805   4.467  12.951 -0.3485  0.2694  0.5038
    1TMC1    O514356   4.210   4.685  12.709 -0.5518 -0.6253 -0.0836
    1TMC1    H514357   4.212   4.590  12.687  0.5842 -0.6282  0.0645
    2MPD2     C14358   4.476   4.275  13.347  0.5959 -0.3784  0.4406
    2MPD2    C114359   4.394   4.378  13.375  0.4292 -0.2186 -0.3630
    2MPD2    C214360   4.394   4.430  13.503  0.2134  0.5472  0.4932
    2MPD2    C314361   4.494   4.399  13.596  0.0763 -0.1035  0.0798
    2MPD2    C414362   4.560   4.275  13.568  0.1848  0.2259 -0.0385
    2MPD2    C514363   4.559   4.225  13.443  0.3758  0.0159 -0.1340
    2MPD2     H14364   4.313   4.499  13.525  1.4538  2.4017 -0.6791
    2MPD2    H114365   4.625   4.234  13.645  0.4319  1.4589  0.4107
    2MPD2    H214366   4.479   4.235  13.247  0.2213  1.1845 -0.1943
    2MPD2    H314367   4.630   4.145  13.424  1.6481  1.3087 -0.8791
    2MPD2     N14368   4.491   4.466  13.723 -0.0990 -0.6741  0.0251
    2MPD2    H514369   4.452   4.558  13.732  1.6769  0.0928 -0.0454
    2MPD2    N114370   4.308   4.437  13.273  0.3662 -0.1506 -0.0577
    2MPD2    H714371   4.231   4.493  13.308  1.0042  0.6369  0.0836
    3TCq1    O114372   4.247   0.061  14.182 -0.4571 -0.3740 -0.0786
    3TCq1    C114373   4.282   0.044  14.048  0.0953  0.1959 -0.1965
    3TCq1    O214374   4.216   0.092  13.955  0.1164 -0.5652 -0.0502
    3TCq1    C214375   4.398   4.696  14.037 -0.1282  0.0860 -0.0550
    3TCq1    C314376   4.493   4.702  14.135  0.2146 -0.6100  0.1303
    3TCq1    C414377   4.587   4.605  14.151 -0.9092  0.6584 -0.0657
    3TCq1    C514378   4.596   4.509  14.052  0.6035  0.0283  0.2220
    3TCq1    C614379   4.507   4.508  13.947  0.0274  0.3303 -0.2326
    3TCq1    C714380   4.401   4.598  13.943  0.0508 -0.6449 -0.4570
    3TCq1    C814381   4.533   4.405  13.839  0.1400 -0.6964 -0.6062
    3TCq1    O414382   4.577   4.293  13.859  0.1535  0.3607 -0.2104
    3TCq1    C914383   4.689   4.609  14.249 -0.3671 -0.1468 -0.2388
    3TCq1    O514384   4.699   4.722  14.301  0.2518 -0.2260 -0.2146
    3TCq1    O614385   0.009   4.500  14.278 -0.1123 -0.3093  0.5797
    3TCq1    H114386   4.311   0.017  14.241  1.0999 -0.5380 -1.8853
    3TCq1    H214387   4.505   0.043  14.206  2.5934  0.4340 -1.4769
    3TCq1    H314388   4.677   4.437  14.052  1.3103  0.8286 -2.2564
    3TCq1    H414389   4.328   4.602  13.863  2.4243 -0.5183 -2.6158
    1MPD2     C14390   2.951   0.835  15.267 -0.3266  0.0132  0.3503
    1MPD2    C114391   2.883   0.833  15.146  0.3615 -0.2292  0.3263
    1MPD2    C214392   2.938   0.760  15.045 -0.1304 -0.5752 -0.3944
    1MPD2    C314393   3.056   0.682  15.056 -0.2266  0.5884 -0.0090
    1MPD2    C414394   3.118   0.679  15.179  0.0675  0.1207 -0.1574
    1MPD2    C514395   3.068   0.760  15.279 -0.3022  0.3290 -0.3872
    1MPD2     H14396   2.901   0.776  14.944  1.6668  2.0353 -0.6574
    1MPD2    H114397   3.207   0.618  15.196  0.9959  1.3210 -0.6683
    1MPD2    H214398   2.916   0.893  15.351  2.5105 -0.3868  1.8090
    1MPD2    H314399   3.119   0.763  15.375 -2.1515  1.6022  0.5491
    1MPD2     N14400   3.113   0.627  14.934 -0.0734  0.3571 -0.1149
    1MPD2    H514401   3.053   0.647  14.855 -0.3286  1.1548  0.2790
    1MPD2    N114402   2.764   0.903  15.133 -0.1827  0.5786 -0.3776
    1MPD2    H714403   2.734   0.974  15.199  0.0224  1.0871 -0.8284
    2TMC3    C114404   2.560   0.964  15.027  0.8012  0.6094 -0.6319
    2TMC3    C214405   2.464   0.895  14.974  0.0331 -0.7724 -0.3390
    2TMC3    C314406   2.385   0.940  14.868 -0.1916  0.9121  0.1648
    2TMC3    C414407   2.596   1.082  14.961  0.2471  0.0545  0.1309
    2TMC3    C514408   2.524   1.116  14.850  0.0691 -0.2113 -0.1195
    2TMC3    C614409   2.414   1.056  14.817 -0.5184  0.1787 -0.4384
    2TMC3     C14410   2.673   0.864  15.040 -0.9365  0.8934 -0.5445
    2TMC3     O14411   2.658   0.762  14.974 -0.2261 -0.0109 -0.2107
    2TMC3     H14412   2.440   0.798  15.016 -1.0952  0.4721  1.9334
    2TMC3    H114413   2.683   1.136  14.994  0.4730  0.5618 -1.3075
    2TMC3    H214414   2.356   1.099  14.736 -0.2545  0.7432 -0.3243
    2TMC3    C714415   2.566   1.218  14.759  0.2092 -0.0393  0.0761
    2TMC3    C814416   2.360   0.843  14.758  0.3427 -0.4323 -0.1645
    2TMC3    O114417   2.480   1.272  14.693  0.0207  0.3303 -0.9060
    2TMC3    O214418   2.307   0.887  14.654 -0.3472  0.4573  0.6834
    3TCq1    O114419   3.783   1.423  14.881  0.2726  0.7459 -0.0323
    3TCq1    C114420   3.650   1.453  14.873 -0.0495  0.1291 -0.0308
    3TCq1    O214421   3.593   1.535  14.944 -0.1731 -0.0251  0.1821
    3TCq1    C214422   3.591   1.400  14.749  0.6958 -0.4022 -0.6991
    3TCq1    C314423   3.626   1.271  14.726 -1.0797  0.0442  0.6344
    3TCq1    C414424   3.546   1.186  14.658  0.6192 -0.4742  0.0146
    3TCq1    C514425   3.421   1.230  14.609 -0.1062 -0.1461 -0.1459
    3TCq1    C614426   3.390   1.359  14.638 -0.3744 -0.5021 -0.5521
    3TCq1    C714427   3.467   1.441  14.715  0.3308 -0.4420  0.1556
    3TCq1    C814428   3.269   1.411  14.581 -0.5767  0.3475  0.4645
    3TCq1    O414429   3.275   1.513  14.510  0.1533  0.2290  0.1104
    3TCq1    C914430   3.591   1.057  14.615  0.3215  0.5132 -0.3265
    3TCq1    O514431   3.718   1.042  14.617  0.2105  0.1456  0.0762
    3TCq1    O614432   3.503   0.996  14.554 -0.1093  0.0401 -0.2657
    3TCq1    H114433   3.809   1.381  14.797 -0.5082 -0.8070  0.5002
    3TCq1    H214434   3.719   1.222  14.754 -0.9247 -0.3381 -0.5519
    3TCq1    H314435   3.375   1.185  14.522  0.8483 -1.6401  0.1226
    3TCq1    H414436   3.445   1.545  14.732  3.4093  0.2776 -0.3354
    4MPD2     C14437   2.976   1.430  14.505 -0.2571 -0.0503  0.1421
    4MPD2    C114438   3.019   1.355  14.615 -0.6139  0.5414 -1.0345
    4MPD2    C214439   2.931   1.305  14.703  0.1620  0.3348 -0.5784
    4MPD2    C314440   2.789   1.316  14.681 -0.5376 -0.1501  0.2422
    4MPD2    C414441   2.742   1.388  14.572 -0.2537 -0.0382 -0.1067
    4MPD2    C514442   2.837   1.441  14.491 -0.2976 -0.2921  0.2208
    4MPD2     H14443   2.969   1.237  14.779  0.5834  1.6102  0.3377
    4MPD2    H114444   2.637   1.411  14.557  0.2088  3.5197  2.2965
    4MPD2    H214445   3.044   1.482  14.438 -0.7819  2.5297  1.5934
    4MPD2    H314446   2.805   1.493  14.402 -0.0828 -0.3405  0.1149
    4MPD2     N14447   2.703   1.232  14.757 -0.3129 -0.2754  0.9804
    4MPD2    H514448   2.762   1.177  14.819  0.4419 -0.7765 -0.1819
    4MPD2    N114449   3.160   1.341  14.634  0.2543 -0.4247  0.4558
    4MPD2    H714450   3.184   1.283  14.713  0.7451 -2.9304 -1.5348
    5TMC2    C114451   3.058   0.508  14.619 -0.1655  0.2100  0.6701
    5TMC2    C214452   3.052   0.373  14.613 -0.1653 -0.1352 -0.1273
    5TMC2    C314453   3.140   0.302  14.694  0.1488  0.8026  0.1197
    5TMC2    C414454   3.163   0.563  14.695 -0.7299 -0.2549 -0.0614
    5TMC2    C514455   3.232   0.491  14.791  0.3908  0.5184  0.2873
    5TMC2    C614456   3.230   0.357  14.783  0.0072  0.5187 -0.2369
    5TMC2     C14457   2.933   0.582  14.631 -0.0031 -0.3299  0.0854
    5TMC2     O14458   2.933   0.676  14.705 -0.2092 -0.1563 -0.4256
    5TMC2     H14459   2.976   0.317  14.560  1.1857 -2.3954  0.2895
    5TMC2    H114460   3.174   0.670  14.709 -1.7231 -0.1211 -0.2492
    5TMC2    H214461   3.283   0.302  14.860  0.1223 -1.5223 -1.7826
    5TMC2    C714462   3.213   0.534  14.927 -0.9404  0.4583 -0.4443
    5TMC2    C814463   3.181   0.173  14.656 -0.4252  0.7124 -0.8176
    5TMC2    O114464   3.285   0.492  15.015  0.3910 -0.0233  0.7287
    5TMC2    O214465   3.113   0.093  14.586  0.5704  0.4165 -0.4434
    5TMC2    O514466   3.318   0.170  14.660  0.1050 -0.4217  0.0803
    5TMC2    H514467   3.362   0.239  14.713 -1.9535  1.8385 -1.1712
    6MPD2     C14468   2.433   0.647  14.540 -0.3314  0.7373 -0.4066
    6MPD2    C114469   2.511   0.672  14.646  0.2705 -0.4237 -0.1708
    6MPD2    C214470   2.643   0.628  14.653 -0.3550  0.1288 -0.6218
    6MPD2    C314471   2.701   0.564  14.540  0.2163 -0.0152  0.0546
    6MPD2    C414472   2.620   0.544  14.429  0.5415 -0.3538  0.0588
    6MPD2    C514473   2.485   0.586  14.434 -0.3102 -0.1393  0.4118
    6MPD2     H14474   2.705   0.633  14.742  0.6825 -0.7271 -1.3117
    6MPD2    H114475   2.661   0.504  14.338 -1.6368 -0.2592 -0.9724
    6MPD2    H214476   2.330   0.679  14.541 -0.8638 -0.9765 -0.4335
    6MPD2    H314477   2.416   0.560  14.355 -3.2098  1.5315  2.3885
    6MPD2     N14478   2.841   0.531  14.535  0.0094  0.1427 -0.3761
    6MPD2    H514479   2.876   0.470  14.462  2.2030  0.3795  0.4833
    6MPD2    N114480   2.458   0.743  14.761  0.2096 -0.2776  0.2814
    6MPD2    H714481   2.525   0.744  14.838 -0.9833  0.6714  1.3223
  945NH4     N114482   2.481   2.214   0.379  0.0858 -0.5319  0.1243
  945NH4     H214483   2.457   2.171   0.470 -0.3676 -0.4471  0.0433
  945NH4     H314484   2.467   2.317   0.379  0.2343 -0.5144  1.0602
  945NH4     H414485   2.430   2.161   0.305  0.1296 -0.6859  0.2047
  945NH4     H514486   2.580   2.196   0.355  0.4133 -0.4291  1.4194
  946SOD     NA14487   2.209   3.679  14.064 -0.4367 -0.0260  0.0582
  947SOD     NA14488   3.794   0.034  14.505  0.0090 -0.6301 -0.1188
  948SOD     NA14489   0.903   0.780  12.411  0.4166 -0.5215  0.2810
  949SOD     NA14490   0.271   2.948  16.554  0.1592  0.3639  0.2782
  950SOD     NA14491   0.030   1.330   1.672  0.2799 -0.3313 -0.0936
  951SOD     NA14492   3.808   2.526  11.295  0.0663 -0.3954  0.1017
  952SOD     NA14493   1.889   1.693  13.725 -0.1161 -0.0233  0.6841
  953SOL     OW14494   2.927   1.888   1.763 -0.0166  0.2081 -0.4058
  953SOL    HW114495   2.945   1.800   1.730  2.0605  0.9992 -1.3899
  953SOL    HW214496   3.003   1.939   1.735  1.0178 -1.8429 -1.3349
  954SOL     OW14497   3.732   3.013   3.539 -0.2319 -0.1611 -0.2434
  954SOL    HW114498   3.639   3.023   3.555 -0.2928  0.9191 -1.2590
  954SOL    HW214499   3.759   2.979   3.624  0.5357 -0.3948 -0.5790
  955SOL     OW14500   3.908   2.481  16.428 -0.5030  0.3182  0.2576
  955SOL    HW114501   3.866   2.537  16.493  0.4652 -1.5130  2.4392
  955SOL    HW214502   3.999   2.511  16.437 -0.3671 -0.5641  1.6679
  956SOL     OW14503   1.964   1.005   4.650 -0.1611  0.1357 -0.2119
  956SOL    HW114504   2.044   0.999   4.598 -0.8220 -0.3504 -1.1734
  956SOL    HW214505   1.991   1.055   4.727  0.6341 -0.6507  0.0209
  957SOL     OW14506   3.281   2.490  15.228 -0.0883  0.1539  0.5456
  957SOL    HW114507   3.367   2.524  15.206  0.2227 -1.2935 -0.4551
  957SOL    HW214508   3.281   2.418  15.165  0.7149  2.4309 -2.0432
  958SOL     OW14509   1.883   0.497   8.089  0.3315 -0.1698 -0.3649
  958SOL    HW114510   1.931   0.577   8.068  2.4426 -1.6467 -1.1378
  958SOL    HW214511   1.832   0.538   8.159  0.1962 -1.8089  0.5057
  959SOL     OW14512   1.482   1.225  13.273  0.1559  0.1023 -0.2472
  959SOL    HW114513   1.479   1.307  13.322 -0.1457 -1.3001  2.0617
  959SOL    HW214514   1.503   1.245  13.182  0.7218  0.4002 -0.0574
  960SOL     OW14515   0.079   3.220   5.621  0.6204 -0.1906 -0.0924
  960SOL    HW114516   0.034   3.271   5.689 -1.3115  1.1911 -2.4276
  960SOL    HW214517   0.165   3.204   5.660 -0.3646 -0.8948  1.8035
  961SOL     OW14518   2.542   4.006   1.210  0.0116  0.0659  0.1012
  961SOL    HW114519   2.627   4.038   1.178 -0.0809 -0.2096 -0.4163
  961SOL    HW214520   2.492   4.012   1.129 -1.8212 -2.8668  1.0361
  962SOL     OW14521   2.037   2.224  17.102 -0.1466  0.2754  0.2758
  962SOL    HW114522   1.946   2.254  17.092  0.3142  0.9952 -1.7418
  962SOL    HW214523   2.074   2.303  17.141 -0.8896  1.6920 -1.8572
  963SOL     OW14524   1.964   0.016  15.951 -0.2587  0.6987  0.2426
  963SOL    HW114525   2.037   0.078  15.948  1.2672 -1.1027 -0.2781
  963SOL    HW214526   1.933   0.008  15.861  0.4497  1.6563 -0.0880
  964SOL     OW14527   3.709   0.522   5.663 -0.6737 -0.2048  0.0694
  964SOL    HW114528   3.736   0.545   5.575 -0.4704  1.5901  0.5903
  964SOL    HW214529   3.646   0.452   5.646 -2.2387  0.9821  1.0054
  965SOL     OW14530   2.565   0.434  15.660  0.3283  0.2596  0.0742
  965SOL    HW114531   2.648   0.444  15.707 -1.0744  0.8639  2.4458
  965SOL    HW214532   2.593   0.393  15.578  0.5642  1.3092 -0.3836
  966SOL     OW14533   3.142   4.086   4.452  0.0519  0.1978  0.5817
  966SOL    HW114534   3.153   4.016   4.517  1.9591  1.1695  1.2909
  966SOL    HW214535   3.094   4.147   4.506  0.6053 -1.3708  2.8342
  967SOL     OW14536   1.866   2.181   6.515  0.2373 -1.0079  0.1280
  967SOL    HW114537   1.814   2.186   6.596 -0.8255 -1.8470 -0.5042
  967SOL    HW214538   1.805   2.138   6.455 -0.4737 -1.3339  1.0776
  968SOL     OW14539   2.656   2.640  15.491 -0.1832 -0.6616  0.2409
  968SOL    HW114540   2.680   2.547  15.495  1.1643 -0.3516 -1.0685
  968SOL    HW214541   2.739   2.682  15.510 -0.2592  0.0899 -1.1452
  969SOL     OW14542   2.045   1.272   9.544  0.1596  0.1983 -0.2545
  969SOL    HW114543   2.084   1.203   9.598 -0.9210 -0.6903 -0.5987
  969SOL    HW214544   2.087   1.257   9.459  0.1081  1.4008 -0.4908
  970SOL     OW14545   2.294   4.005   5.429 -0.3625 -0.6276 -0.5553
  970SOL    HW114546   2.338   4.080   5.390  0.7235  0.0396  1.9007
  970SOL    HW214547   2.205   4.039   5.427 -0.1683 -0.3849 -4.1956
  971SOL     OW14548   4.287   0.882  13.305 -0.6926 -0.1859  0.0331
  971SOL    HW114549   4.228   0.904  13.377 -3.4103 -0.8313 -1.9581
  971SOL    HW214550   4.220   0.857  13.241 -0.3679  1.7664 -1.0549
  972SOL     OW14551   1.420   0.788  12.117 -0.2005 -0.1650  0.1624
  972SOL    HW114552   1.332   0.788  12.078  0.5370  0.7854 -1.4899
  972SOL    HW214553   1.471   0.762  12.040  0.6510 -0.4412  0.8187
  973SOL     OW14554   4.000   4.627   8.225 -0.5101  0.2457 -0.5316
  973SOL    HW114555   4.062   4.590   8.288 -1.4717  0.7514  0.6873
  973SOL    HW214556   3.918   4.594   8.260  1.1702 -0.2808  2.8969
  974SOL     OW14557   0.653   1.525  10.148  0.1806 -0.5775 -0.2757
  974SOL    HW114558   0.670   1.491  10.061 -1.1256 -4.0722  0.8234
  974SOL    HW214559   0.570   1.567  10.126 -0.0321 -0.6081  0.4374
  975SOL     OW14560   0.274   1.936   7.990  0.1628 -0.0604  0.3154
  975SOL    HW114561   0.220   1.860   8.011 -1.1355 -0.1414 -3.2436
  975SOL    HW214562   0.263   2.002   8.058  0.7212 -0.3672  0.7075
  976SOL     OW14563   0.064   0.470   4.920 -0.1683  0.7566  0.3218
  976SOL    HW114564   0.090   0.486   4.830  0.7123 -1.1334  0.2466
  976SOL    HW214565   4.710   0.484   4.909 -0.0901  1.0981  0.1241
  977SOL     OW14566   3.634   2.701   9.434  0.3272  0.6302 -0.2499
  977SOL    HW114567   3.586   2.647   9.496 -2.5809 -0.7161 -3.7184
  977SOL    HW214568   3.573   2.715   9.362  0.5175  0.4587 -0.4441
  978SOL     OW14569   1.503   3.969  12.184  0.4219 -0.4538  0.3485
  978SOL    HW114570   1.496   4.001  12.274 -0.5391  0.4511 -0.0549
  978SOL    HW214571   1.550   4.043  12.144  0.0977 -0.5213 -0.1602
  979SOL     OW14572   3.547   4.289   6.168  0.0246  0.0155  0.0435
  979SOL    HW114573   3.575   4.197   6.161 -0.2726 -0.0329 -0.5101
  979SOL    HW214574   3.496   4.304   6.089  3.3314 -1.0399 -2.3035
  980SOL     OW14575   0.322   0.850   9.125 -0.6723 -0.0571  0.3734
  980SOL    HW114576   0.264   0.918   9.090  1.6891  1.4020 -0.7301
  980SOL    HW214577   0.355   0.804   9.048 -1.5158 -0.7578  0.4250
  981SOL     OW14578   2.891   1.607   7.392  0.1479 -0.6881  0.2477
  981SOL    HW114579   2.868   1.539   7.329 -0.6414  0.5733 -0.8219
  981SOL    HW214580   2.881   1.564   7.477  0.7872  0.2904  0.8244
  982SOL     OW14581   3.192   1.971   3.693 -0.1496  0.2843  0.1381
  982SOL    HW114582   3.148   2.049   3.658 -0.7044 -0.7306 -1.4391
  982SOL    HW214583   3.200   1.925   3.609 -0.8462  0.5113 -0.0567
  983SOL     OW14584   2.981   4.709   4.745  0.2990 -0.1860 -0.0719
  983SOL    HW114585   3.074   4.685   4.739 -0.5674 -3.0616 -2.0196
  983SOL    HW214586   2.948   4.660   4.821  2.4127 -2.1890 -0.4277
  984SOL     OW14587   3.923   1.738   0.793  0.1766  0.0826 -0.4017
  984SOL    HW114588   3.865   1.812   0.812 -0.1203 -0.0909 -0.6332
  984SOL    HW214589   3.932   1.706   0.882  1.2352 -1.8833 -1.2128
  985SOL     OW14590   4.442   3.327   8.707 -0.1909  0.4212 -0.0639
  985SOL    HW114591   4.522   3.356   8.751  0.4213 -0.8581 -0.3594
  985SOL    HW214592   4.480   3.241   8.692  2.3770  1.0649  2.7407
  986SOL     OW14593   1.416   1.654   1.604  0.3299  0.4924 -0.2470
  986SOL    HW114594   1.343   1.688   1.551 -0.6212  0.1686  0.8577
  986SOL    HW214595   1.419   1.567   1.564 -1.9288  0.5748 -0.5868
  987SOL     OW14596   0.430   0.229   4.904 -0.2710  0.6106 -0.2135
  987SOL    HW114597   0.502   0.167   4.900 -1.9725 -1.3880 -0.0568
  987SOL    HW214598   0.402   0.231   4.996 -1.1790  1.0811 -0.4995
  988SOL     OW14599   3.165   0.451   7.316  0.1926 -0.8466  0.2998
  988SOL    HW114600   3.164   0.541   7.282  0.9739 -1.2436 -0.7628
  988SOL    HW214601   3.157   0.474   7.409 -1.6856  1.0134 -0.3079
  989SOL     OW14602   0.306   0.219   5.142 -0.1558  0.2886  0.5532
  989SOL    HW114603   0.320   0.299   5.194 -0.4872  0.4079  0.4586
  989SOL    HW214604   0.337   0.144   5.192 -1.2842 -1.4829 -1.3796
  990SOL     OW14605   0.912   1.059   7.376  0.8753  0.1676 -0.3895
  990SOL    HW114606   0.940   1.094   7.292  4.4643 -0.7705  0.3974
  990SOL    HW214607   0.989   1.063   7.433  2.0719 -0.7906 -1.9623
  991SOL     OW14608   1.998   1.533   5.863 -0.0775  0.5435 -0.3814
  991SOL    HW114609   2.012   1.619   5.822 -0.3697  1.0882  0.6769
  991SOL    HW214610   2.028   1.547   5.952 -2.7874 -0.7419  0.7260
  992SOL     OW14611   2.854   4.254   8.797 -0.0506 -0.0146  0.3865
  992SOL    HW114612   2.875   4.347   8.798  1.3815 -0.3071 -2.3922
  992SOL    HW214613   2.760   4.266   8.811 -0.1548 -0.5540  0.1415
  993SOL     OW14614   2.337   2.771   2.317  0.0967  0.0152 -0.7929
  993SOL    HW114615   2.410   2.806   2.367  0.9638  0.0262 -2.0618
  993SOL    HW214616   2.329   2.838   2.248  0.7824  0.4210 -0.4796
  994SOL     OW14617   2.753   4.737  15.234  0.0675  0.1465  0.6563
  994SOL    HW114618   2.698   0.054  15.180  1.7883  0.1016 -1.1422
  994SOL    HW214619   2.834   0.007  15.184 -1.0509 -1.6433 -1.5110
  995SOL     OW14620   2.862   0.426   4.824 -0.4945 -0.1016  0.6303
  995SOL    HW114621   2.924   0.498   4.828  0.7443 -1.2436  1.6719
  995SOL    HW214622   2.882   0.390   4.737  0.0927  0.8476  0.3706
  996SOL     OW14623   0.097   3.913  13.912 -0.0275  0.0228 -0.6538
  996SOL    HW114624   0.086   4.004  13.886 -2.3052 -0.2001 -0.4526
  996SOL    HW214625   0.051   3.911  13.996 -1.7831 -1.6576 -1.6640
  997SOL     OW14626   3.091   2.699   3.031  0.1500 -0.1891  0.1005
  997SOL    HW114627   3.040   2.691   3.112 -0.8137 -0.4290 -0.5253
  997SOL    HW214628   3.070   2.788   3.001  1.8134 -0.0832 -0.7449
  998SOL     OW14629   0.209   1.437   5.666 -0.0717  0.4830  0.0175
  998SOL    HW114630   0.148   1.509   5.648 -0.7703  0.4952  2.4032
  998SOL    HW214631   0.149   1.362   5.658  0.8179 -0.2650  0.3988
  999SOL     OW14632   0.336   2.440  14.027  0.4246  0.1788  1.3549
  999SOL    HW114633   0.287   2.359  14.017 -0.3936  0.4624  2.9099
  999SOL    HW214634   0.423   2.407  14.053  1.5366  2.4743  0.5010
 1000SOL     OW14635   2.971   4.382   5.597  0.0486  0.2401 -0.2539
 1000SOL    HW114636   2.887   4.427   5.597  0.3080  0.7343  1.2038
 1000SOL    HW214637   3.016   4.467   5.592  1.2914 -0.2583  2.3400
 1001SOL     OW14638   4.657   4.287   2.506  0.2839 -0.2152  0.3541
 1001SOL    HW114639   4.645   4.355   2.439  1.4286  0.1400  0.5053
 1001SOL    HW214640   4.619   4.339   2.578  3.1397  1.5439  0.6224
 1002SOL     OW14641   0.777   0.097  14.735  0.2176 -0.9577 -0.0500
 1002SOL    HW114642   0.866   0.084  14.702  1.3950  1.7217  2.0078
 1002SOL    HW214643   0.732   0.017  14.706 -1.1112 -1.2336  2.7834
 1003SOL     OW14644   1.860   3.384  10.340 -0.3311 -0.2798  0.1556
 1003SOL    HW114645   1.929   3.350  10.283 -0.6114  0.1448 -0.4413
 1003SOL    HW214646   1.891   3.472  10.362 -0.4966 -0.2688  0.3451
 1004SOL     OW14647   2.831   1.668   1.967  0.0530 -0.2502  0.0423
 1004SOL    HW114648   2.889   1.636   2.036  1.0483 -0.9773 -1.1312
 1004SOL    HW214649   2.882   1.722   1.907 -0.5892  0.0729 -0.2214
 1005SOL     OW14650   1.544   0.525  15.360 -0.0882  0.2580 -0.2040
 1005SOL    HW114651   1.500   0.523  15.445  0.9333  1.3773  0.3345
 1005SOL    HW214652   1.610   0.593  15.371  1.0504 -0.7519 -0.7005
 1006SOL     OW14653   3.162   3.841   3.046  0.0110  0.2521  0.2045
 1006SOL    HW114654   3.253   3.848   3.075  0.4132 -1.0405 -0.6996
 1006SOL    HW214655   3.159   3.932   3.018 -1.6470 -0.3597 -1.5642
 1007SOL     OW14656   3.490   1.302  11.393  0.0518  0.0914  0.6476
 1007SOL    HW114657   3.425   1.372  11.385 -1.0151 -0.9644  0.0167
 1007SOL    HW214658   3.440   1.232  11.435  2.2594 -1.0527  1.3435
 1008SOL     OW14659   2.195   3.913   0.645  0.4598 -0.0046 -0.6188
 1008SOL    HW114660   2.178   3.948   0.733 -1.6090 -0.9192 -0.6268
 1008SOL    HW214661   2.178   3.822   0.670 -0.1724  0.4943  0.7926
 1009SOL     OW14662   1.333   3.014   6.839  0.3696 -0.5879 -0.2033
 1009SOL    HW114663   1.367   3.077   6.776  2.1897 -2.0222 -0.6477
 1009SOL    HW214664   1.323   2.932   6.790 -4.4336  0.0486 -0.3574
 1010SOL     OW14665   2.419   3.191   2.762 -0.1048 -0.2238 -0.6308
 1010SOL    HW114666   2.483   3.122   2.780 -1.4314 -1.0964  0.7142
 1010SOL    HW214667   2.335   3.146   2.762  0.0749 -0.5552 -0.2838
 1011SOL     OW14668   3.358   2.289   8.335 -0.3761  0.2429  0.5638
 1011SOL    HW114669   3.421   2.268   8.266 -0.8459  1.9940 -0.3968
 1011SOL    HW214670   3.412   2.344   8.392 -2.2371  2.6198  0.0346
 1012SOL     OW14671   0.117   0.501   7.202 -0.1909  0.2592 -0.3283
 1012SOL    HW114672   0.206   0.503   7.167 -0.0199  0.9726  0.1414
 1012SOL    HW214673   0.085   0.591   7.195 -2.1169 -0.2372  2.0607
 1013SOL     OW14674   3.079   0.932   6.517  0.1792  0.4294  0.0805
 1013SOL    HW114675   2.999   0.934   6.570 -0.2904  2.2163 -0.7104
 1013SOL    HW214676   3.085   0.842   6.485  0.7708 -0.2304  2.0169
 1014SOL     OW14677   0.237   2.373   2.569 -0.3488  0.1636 -0.2446
 1014SOL    HW114678   0.327   2.355   2.596 -0.0075  0.2070 -1.3665
 1014SOL    HW214679   0.179   2.328   2.631 -0.3821 -1.8831 -1.7510
 1015SOL     OW14680   2.889   3.611   5.214  0.4915  0.0188  0.1696
 1015SOL    HW114681   2.910   3.521   5.188  2.2019  0.4063  0.2250
 1015SOL    HW214682   2.818   3.609   5.278  0.2539 -4.4049 -0.2061
 1016SOL     OW14683   0.293   2.503   7.518  0.1602 -0.0833  0.1622
 1016SOL    HW114684   0.201   2.524   7.504  0.6037  1.5427 -0.2902
 1016SOL    HW214685   0.329   2.564   7.582  3.2431 -0.5978 -1.0767
 1017SOL     OW14686   0.936   3.077   8.272 -0.7407  0.2193  0.0051
 1017SOL    HW114687   0.859   3.038   8.231 -0.3417 -0.2686 -0.2846
 1017SOL    HW214688   0.900   3.064   8.359  0.2525  0.6389  0.4793
 1018SOL     OW14689   4.709   4.028   7.085  0.5004 -0.0094  0.6413
 1018SOL    HW114690   0.032   4.006   7.153  0.8775  0.0088  0.2986
 1018SOL    HW214691   4.670   4.112   7.110 -2.0870 -0.9118 -0.2958
 1019SOL     OW14692   4.291   3.472   9.154 -0.6537  0.5936  0.2495
 1019SOL    HW114693   4.270   3.520   9.233 -0.3977 -0.7539  1.1326
 1019SOL    HW214694   4.375   3.509   9.129  0.3249 -1.2980  0.6977
 1020SOL     OW14695   0.652   3.922   1.524  0.4405  0.5738 -0.5886
 1020SOL    HW114696   0.583   3.932   1.458 -0.5094  0.4261  0.3953
 1020SOL    HW214697   0.728   3.964   1.483  1.0503 -1.4752 -1.5972
 1021SOL     OW14698   0.583   4.456   7.024 -0.5555  0.3095 -0.0426
 1021SOL    HW114699   0.541   4.507   7.094  0.1840  0.3697  0.3650
 1021SOL    HW214700   0.671   4.466   7.060 -0.4364  0.8950 -0.5131
 1022SOL     OW14701   4.592   1.455   8.142  0.5548 -0.0788 -0.1471
 1022SOL    HW114702   4.537   1.389   8.100 -0.2646  0.7124 -0.3090
 1022SOL    HW214703   4.612   1.514   8.069 -2.1827  0.3055 -0.6056
 1023SOL     OW14704   1.750   1.041   8.257 -0.5186  0.0517 -0.4608
 1023SOL    HW114705   1.753   1.131   8.223  0.9658  0.2947  0.3379
 1023SOL    HW214706   1.818   1.001   8.203  0.9231  1.9265 -0.0432
 1024SOL     OW14707   3.204   0.407   0.056 -0.1896  0.0183 -0.0832
 1024SOL    HW114708   3.111   0.392   0.038  0.3878 -2.6261 -0.9514
 1024SOL    HW214709   3.200   0.443   0.144  0.7183  0.1620 -0.0957
 1025SOL     OW14710   3.191   4.436  16.052  0.4078 -0.1348  0.0682
 1025SOL    HW114711   3.163   4.523  16.024  3.0581  1.3820  2.1192
 1025SOL    HW214712   3.273   4.463  16.093  0.8272 -1.6215  0.2215
 1026SOL     OW14713   1.628   4.602  15.643 -0.0747  0.1537  0.2704
 1026SOL    HW114714   1.571   4.550  15.587 -0.5229  1.0326 -0.0822
 1026SOL    HW214715   1.564   4.650  15.696  0.7077  2.4737 -0.8779
 1027SOL     OW14716   2.259   1.975   5.715 -0.8585  0.3042 -0.1871
 1027SOL    HW114717   2.320   1.926   5.660 -1.6405 -0.5244 -0.3091
 1027SOL    HW214718   2.254   2.066   5.686  1.2231  1.2147  2.2009
 1028SOL     OW14719   3.794   1.914  12.914  0.2824  0.2539  0.0397
 1028SOL    HW114720   3.867   1.911  12.976 -0.1021 -3.6151  0.3347
 1028SOL    HW214721   3.795   1.830  12.868  1.0341  0.4343 -0.2708
 1029SOL     OW14722   3.997   3.930   2.860  0.6711  0.1884  0.0342
 1029SOL    HW114723   3.995   4.004   2.920  0.1500  0.5336 -0.4089
 1029SOL    HW214724   4.068   3.882   2.904  0.1311 -0.6929 -0.0616
 1030SOL     OW14725   3.235   0.440   2.219 -0.2330  0.1723 -0.3242
 1030SOL    HW114726   3.169   0.486   2.167 -0.0588  1.9523  1.0057
 1030SOL    HW214727   3.312   0.497   2.228  1.2143 -1.7827 -0.4980
 1031SOL     OW14728   4.581   3.324  17.419 -0.1056 -0.3541 -0.0152
 1031SOL    HW114729   4.567   3.246  17.473  2.0113  0.1636  1.2808
 1031SOL    HW214730   4.666   3.350  17.453 -0.3090  1.5702 -0.9908
 1032SOL     OW14731   4.023   3.181  12.613 -0.3824  0.1755  0.5437
 1032SOL    HW114732   4.045   3.200  12.704 -1.2826  1.5937  0.4709
 1032SOL    HW214733   3.951   3.241  12.591  0.3964 -0.1593 -2.8704
 1033SOL     OW14734   3.111   2.537   6.355  0.5215 -0.1100  0.1978
 1033SOL    HW114735   3.052   2.596   6.403  0.9846 -0.2061  0.8836
 1033SOL    HW214736   3.075   2.451   6.375 -0.8071  0.4015 -0.0004
 1034SOL     OW14737   2.677   0.014   7.255  0.3457  0.0276  0.1042
 1034SOL    HW114738   2.743   0.025   7.187 -0.5229  1.7083 -0.4692
 1034SOL    HW214739   2.612   4.698   7.212 -0.2741  1.6914 -1.1536
 1035SOL     OW14740   1.763   3.647   6.782 -0.0964 -0.2566  0.5164
 1035SOL    HW114741   1.839   3.631   6.837 -0.5359 -1.4933  0.7535
 1035SOL    HW214742   1.772   3.741   6.765 -3.0496  0.0004  0.2862
 1036SOL     OW14743   2.756   0.587   6.369 -0.4382 -0.3058  0.4597
 1036SOL    HW114744   2.666   0.556   6.381 -0.6338  0.2372  0.3656
 1036SOL    HW214745   2.745   0.650   6.299  0.3204 -1.5706 -0.7994
 1037SOL     OW14746   3.784   3.221   7.173 -0.3287 -0.3428 -0.5055
 1037SOL    HW114747   3.817   3.282   7.107  0.0416 -0.4538 -0.4229
 1037SOL    HW214748   3.748   3.273   7.246 -0.0177  0.7361 -1.1131
 1038SOL     OW14749   0.532   0.631   5.538  0.0243 -0.1911  0.2649
 1038SOL    HW114750   0.464   0.635   5.470 -0.4667  1.6197  0.8547
 1038SOL    HW214751   0.569   0.543   5.530 -0.6606 -0.5481  1.0572
 1039SOL     OW14752   4.209   0.261  17.398  0.2822  0.5038  0.3269
 1039SOL    HW114753   4.183   0.278  17.307 -0.4187  0.0848  0.4464
 1039SOL    HW214754   4.138   0.306  17.444  0.2077 -1.7457  2.4073
 1040SOL     OW14755   1.879   4.692   1.303 -0.0834 -0.0785 -0.4977
 1040SOL    HW114756   1.831   0.006   1.365  0.2602  1.1771 -1.3361
 1040SOL    HW214757   1.910   4.623   1.362  2.0707  1.7757  0.5571
 1041SOL     OW14758   3.177   0.579   7.948  0.3607 -0.2042 -0.0674
 1041SOL    HW114759   3.226   0.628   8.013  0.4209  0.4049 -0.5758
 1041SOL    HW214760   3.086   0.589   7.977  0.9362 -0.2893  1.7640
 1042SOL     OW14761   2.930   4.682   3.348  0.5124  0.0035  0.0808
 1042SOL    HW114762   2.902   4.645   3.265  2.7209 -0.4608 -0.4666
 1042SOL    HW214763   2.916   4.603   3.400 -0.8315  0.2237  0.0450
 1043SOL     OW14764   3.695   4.455  16.595  0.0883 -0.0046  0.6072
 1043SOL    HW114765   3.729   4.369  16.570  0.8128  1.2875 -2.8956
 1043SOL    HW214766   3.608   4.444  16.634  1.5978 -4.0993  2.8126
 1044SOL     OW14767   2.256   2.773   6.675 -0.0215  0.5304  0.3990
 1044SOL    HW114768   2.314   2.784   6.600  1.2296  1.5010  1.5197
 1044SOL    HW214769   2.315   2.740   6.742 -0.4474 -2.2621 -0.5835
 1045SOL     OW14770   4.407   0.446   7.319  0.6924 -0.3275  0.4982
 1045SOL    HW114771   4.498   0.442   7.347  0.4392 -0.9011  1.2289
 1045SOL    HW214772   4.409   0.430   7.225 -1.3285  0.1303  0.3774
 1046SOL     OW14773   4.011   2.745  12.673  0.2507  0.6918 -0.2623
 1046SOL    HW114774   4.007   2.801  12.595 -0.9409 -2.5026 -2.4771
 1046SOL    HW214775   4.103   2.767  12.687  0.3061  0.2392  0.0909
 1047SOL     OW14776   3.775   4.551   9.415 -1.1210 -0.1174  0.3961
 1047SOL    HW114777   3.701   4.562   9.475 -1.6668 -0.2290 -0.2679
 1047SOL    HW214778   3.741   4.498   9.343 -3.2981  0.7054  0.8286
 1048SOL     OW14779   4.500   1.080   2.961  0.2418 -0.2225 -0.1742
 1048SOL    HW114780   4.563   1.102   2.892 -0.6316 -1.2491 -1.3044
 1048SOL    HW214781   4.464   1.166   2.981  0.5846 -0.2273  0.4416
 1049SOL     OW14782   3.339   0.143   5.115 -0.2396  0.0891 -0.1827
 1049SOL    HW114783   3.323   0.163   5.022  2.6609  0.9807 -0.5087
 1049SOL    HW214784   3.414   0.084   5.110  0.2908  0.8778 -1.4691
 1050SOL     OW14785   3.893   3.106   2.318 -0.1394  0.2076  0.8020
 1050SOL    HW114786   3.929   3.154   2.244  1.3149 -2.1801 -0.0368
 1050SOL    HW214787   3.826   3.168   2.346 -0.4501  0.2161  0.0235
 1051SOL     OW14788   4.358   2.763  15.654  0.6677 -0.3032 -0.1457
 1051SOL    HW114789   4.264   2.766  15.642  0.7122 -0.6550 -0.5598
 1051SOL    HW214790   4.382   2.773  15.562  0.2537 -1.2446 -0.3479
 1052SOL     OW14791   0.843   3.764   2.425  0.2990 -0.4147  0.1074
 1052SOL    HW114792   0.906   3.716   2.371  0.8549 -0.7021  1.0030
 1052SOL    HW214793   0.760   3.766   2.379  0.2706 -3.1077  0.0633
 1053SOL     OW14794   2.444   0.039   1.307  0.7117  0.2581 -0.2593
 1053SOL    HW114795   2.361   4.732   1.299  2.4852 -3.1760  1.6768
 1053SOL    HW214796   2.441   0.105   1.238 -1.2395  1.4239  0.9363
 1054SOL     OW14797   1.867   0.320  15.928  0.1370  0.7542 -0.2606
 1054SOL    HW114798   1.807   0.280  15.866  0.9414  2.2437 -2.0275
 1054SOL    HW214799   1.869   0.248  15.990  1.9930 -0.3865 -1.6156
 1055SOL     OW14800   3.408   2.607   1.035  0.0627 -0.2913 -0.1699
 1055SOL    HW114801   3.432   2.648   0.951  1.7857  0.0552  0.4998
 1055SOL    HW214802   3.379   2.683   1.085 -0.3750 -0.6544  0.1187
 1056SOL     OW14803   3.187   3.165   8.984  0.4241  0.1642  0.3586
 1056SOL    HW114804   3.185   3.103   9.056  1.5710  0.3636  0.5576
 1056SOL    HW214805   3.283   3.171   8.980  0.4322  0.0134  0.3257
 1057SOL     OW14806   4.029   0.971   2.518 -0.3424 -0.1086 -0.8752
 1057SOL    HW114807   4.090   0.964   2.445  0.8557  1.1665  0.0068
 1057SOL    HW214808   4.098   0.984   2.583 -0.8683  1.7320 -0.6805
 1058SOL     OW14809   3.803   2.306  12.128  0.3571 -0.0429 -0.0187
 1058SOL    HW114810   3.850   2.242  12.075  1.3942  0.7221 -0.0256
 1058SOL    HW214811   3.739   2.342  12.067  1.3448  1.1968 -0.3376
 1059SOL     OW14812   1.606   2.883  10.412 -0.0413  0.5056 -0.0875
 1059SOL    HW114813   1.578   2.931  10.489 -1.1275  3.6905 -2.4667
 1059SOL    HW214814   1.701   2.896  10.407  0.0147  0.5510  1.1278
 1060SOL     OW14815   1.379   3.366  16.286 -0.0333  0.0013  0.2923
 1060SOL    HW114816   1.406   3.394  16.374 -1.7104  0.1579  0.7458
 1060SOL    HW214817   1.394   3.271  16.284  0.6328  0.1291 -0.6854
 1061SOL     OW14818   0.594   4.024  15.788  0.3786  1.1279 -0.6096
 1061SOL    HW114819   0.563   3.997  15.701 -1.9131  0.3527  0.4216
 1061SOL    HW214820   0.689   4.020  15.778  0.4492 -1.4047  1.0036
 1062SOL     OW14821   3.798   4.718   0.953 -0.6827 -0.2399 -0.1534
 1062SOL    HW114822   3.845   0.059   0.934 -1.1916  0.0557 -0.1507
 1062SOL    HW214823   3.748   4.709   0.872 -0.8986 -0.7284  0.0305
 1063SOL     OW14824   4.089   4.540  11.466 -0.0166 -0.2895 -0.3759
 1063SOL    HW114825   4.086   4.531  11.371  0.6342  1.0306 -0.5300
 1063SOL    HW214826   4.164   4.598  11.479  0.1808 -0.1975 -1.9620
 1064SOL     OW14827   2.109   1.829  12.318  0.5580 -0.0807 -0.3140
 1064SOL    HW114828   2.016   1.808  12.320  0.5640  0.0626  1.9141
 1064SOL    HW214829   2.100   1.909  12.371 -0.2035  0.5485 -1.3988
 1065SOL     OW14830   4.314   3.873   0.628 -0.3562 -0.5947 -0.5204
 1065SOL    HW114831   4.314   3.810   0.557 -1.6290 -1.5194  0.2972
 1065SOL    HW214832   4.261   3.834   0.698 -0.7528 -2.7940 -2.0841
 1066SOL     OW14833   0.674   4.722   6.476  1.0164  0.1734  0.0802
 1066SOL    HW114834   0.673   4.630   6.501  0.6645  1.0355  3.2291
 1066SOL    HW214835   0.730   0.018   6.545  1.9557  0.4481 -0.8308
 1067SOL     OW14836   0.831   3.832  11.950  0.1617  0.7569 -0.6050
 1067SOL    HW114837   0.886   3.879  11.887 -0.3119  2.8464  0.5369
 1067SOL    HW214838   0.817   3.747  11.909  3.7281  0.0305 -0.3500
 1068SOL     OW14839   1.490   2.637   8.005 -0.1354  0.2452  0.2760
 1068SOL    HW114840   1.417   2.680   8.050 -0.2997  0.1266  0.1276
 1068SOL    HW214841   1.530   2.603   8.084 -2.3013  0.4061  1.4497
 1069SOL     OW14842   1.594   2.028  15.567 -0.4089  1.3044 -0.2207
 1069SOL    HW114843   1.540   2.051  15.492 -0.9533 -0.4556 -0.3637
 1069SOL    HW214844   1.613   1.936  15.549 -0.8194  1.1254  0.2922
 1070SOL     OW14845   0.667   1.861   3.659 -0.0998  0.4939  0.0290
 1070SOL    HW114846   0.623   1.868   3.744  0.4333  0.1257  0.3319
 1070SOL    HW214847   0.756   1.854   3.692 -0.4513 -1.9170  0.4571
 1071SOL     OW14848   0.203   1.674   2.467  0.1347 -0.0199 -0.6630
 1071SOL    HW114849   0.292   1.668   2.500 -1.6616 -1.9871  3.8677
 1071SOL    HW214850   0.187   1.768   2.478 -2.4625 -0.4811 -0.4781
 1072SOL     OW14851   3.699   2.024   2.574 -0.0321  0.1831  0.3501
 1072SOL    HW114852   3.605   2.006   2.585 -0.1238  1.2259  1.3236
 1072SOL    HW214853   3.727   1.947   2.526 -0.5637  1.8041 -2.5540
 1073SOL     OW14854   1.810   0.356   4.457  0.2081 -0.4615 -0.1854
 1073SOL    HW114855   1.769   0.292   4.514 -0.8775  2.2651  2.0928
 1073SOL    HW214856   1.902   0.328   4.457  0.3596  0.0800  2.5608
 1074SOL     OW14857   4.567   3.853   4.349  0.1886  0.0244  0.0344
 1074SOL    HW114858   4.496   3.904   4.389 -0.9232 -2.2704  0.9547
 1074SOL    HW214859   4.564   3.887   4.260  2.5496  1.7866  0.6193
 1075SOL     OW14860   0.458   0.056  13.818 -0.6681 -0.0248 -0.9352
 1075SOL    HW114861   0.535   0.101  13.782  0.3852 -1.2092 -0.1913
 1075SOL    HW214862   0.431   0.116  13.888  0.7308 -1.1919  0.6041
 1076SOL     OW14863   4.287   2.626   8.429  0.5873  0.3219 -0.4376
 1076SOL    HW114864   4.195   2.637   8.405  0.6275  0.1931 -0.6558
 1076SOL    HW214865   4.328   2.693   8.373 -0.8953  1.1985 -0.4780
 1077SOL     OW14866   4.000   0.175   4.239 -0.2983 -0.7408  0.5210
 1077SOL    HW114867   3.916   0.184   4.193 -0.3585 -0.8525  0.6098
 1077SOL    HW214868   4.004   0.080   4.225  0.3771 -0.5265 -0.7973
 1078SOL     OW14869   1.495   1.577  16.165 -0.0123 -0.4108  0.3977
 1078SOL    HW114870   1.566   1.543  16.110  0.2847  0.9280 -0.0429
 1078SOL    HW214871   1.500   1.669  16.138 -1.2442  0.5134  3.3707
 1079SOL     OW14872   0.418   2.268   2.974  0.3982  0.0178  0.4573
 1079SOL    HW114873   0.395   2.209   2.903 -1.2171 -1.1266  1.9256
 1079SOL    HW214874   0.495   2.310   2.935  0.1666 -1.9998 -2.1847
 1080SOL     OW14875   0.098   0.100  17.533 -0.7022 -0.0423 -0.5948
 1080SOL    HW114876   0.035   0.163  17.568 -1.3123 -0.2093 -1.3946
 1080SOL    HW214877   0.108   0.131  17.443  0.3050 -1.9541 -1.1406
 1081SOL     OW14878   2.705   0.831  10.448  0.2449  0.3758  0.5446
 1081SOL    HW114879   2.639   0.815  10.515  0.9266 -0.4925  1.0070
 1081SOL    HW214880   2.784   0.841  10.502 -0.4109  0.8152  1.4173
 1082SOL     OW14881   0.153   0.722  14.798  0.6209  0.0522  0.2028
 1082SOL    HW114882   0.092   0.665  14.750 -0.0740  0.8629  0.1212
 1082SOL    HW214883   0.137   0.802  14.748 -0.4013 -0.5219 -0.3935
 1083SOL     OW14884   1.790   1.004   9.406  0.1128 -0.2284 -0.3897
 1083SOL    HW114885   1.714   0.959   9.370  2.0496 -2.3317 -1.8994
 1083SOL    HW214886   1.857   0.977   9.343  1.2149  0.8347  0.3242
 1084SOL     OW14887   0.981   1.264   6.304  0.1064 -0.5769 -0.0365
 1084SOL    HW114888   0.934   1.345   6.286  1.3966  0.0754 -0.4889
 1084SOL    HW214889   0.909   1.201   6.302 -0.6742  0.3221  0.6209
 1085SOL     OW14890   2.695   3.420  10.432 -0.7422 -0.2852  0.0742
 1085SOL    HW114891   2.654   3.341  10.468 -0.0230 -0.2137  1.0501
 1085SOL    HW214892   2.695   3.399  10.339  1.2442 -1.4888  0.3470
 1086SOL     OW14893   3.958   1.902   7.827  0.3321  0.2698  0.5566
 1086SOL    HW114894   3.948   1.916   7.921 -0.5202  3.9313 -0.0933
 1086SOL    HW214895   3.871   1.916   7.791  1.0918 -0.9221 -1.7400
 1087SOL     OW14896   2.733   2.872   9.293 -0.4495 -0.2371  0.1314
 1087SOL    HW114897   2.734   2.958   9.336 -0.9857  0.0684 -0.4556
 1087SOL    HW214898   2.639   2.880   9.275 -0.2484 -1.1684 -1.3090
 1088SOL     OW14899   4.358   1.948   5.727 -0.7091  0.0356  0.0545
 1088SOL    HW114900   4.263   1.958   5.727 -0.7491 -0.2940  2.1398
 1088SOL    HW214901   4.364   1.924   5.819  2.9265 -1.2266 -0.4780
 1089SOL     OW14902   4.545   1.432  17.339  0.6888  0.6787  0.0325
 1089SOL    HW114903   4.600   1.486  17.282 -1.1206 -0.3319 -2.6301
 1089SOL    HW214904   4.488   1.382  17.281  3.4312 -1.5412 -0.7620
 1090SOL     OW14905   2.751   0.592   7.260 -0.8112 -0.6406 -0.5791
 1090SOL    HW114906   2.790   0.506   7.272 -0.4854 -0.4054  0.0726
 1090SOL    HW214907   2.680   0.580   7.197 -1.1155  1.3239 -0.6109
 1091SOL     OW14908   3.537   1.283  12.504 -0.4570 -0.0007  0.9728
 1091SOL    HW114909   3.534   1.203  12.451  0.4550  0.3733  0.3616
 1091SOL    HW214910   3.453   1.325  12.486 -0.5239 -0.0207  1.2414
 1092SOL     OW14911   2.392   2.438   6.890  0.2606  0.0214  0.1917
 1092SOL    HW114912   2.407   2.499   6.817  1.3921 -0.7276 -0.2110
 1092SOL    HW214913   2.432   2.494   6.957  0.7949 -0.0526 -0.0622
 1093SOL     OW14914   0.919   3.866   6.199 -0.5229  0.4041  0.0302
 1093SOL    HW114915   1.002   3.913   6.212 -0.8793  1.1025 -0.2333
 1093SOL    HW214916   0.934   3.816   6.118 -0.2083 -1.1976  1.0730
 1094SOL     OW14917   0.792   1.543  17.262 -0.2077 -0.6111 -0.0834
 1094SOL    HW114918   0.705   1.560  17.298  1.0742  2.1990  1.6988
 1094SOL    HW214919   0.799   1.626  17.213 -1.1854 -0.5903 -0.2040
 1095SOL     OW14920   3.134   0.550   7.586  0.3365  0.3438  0.1721
 1095SOL    HW114921   3.203   0.614   7.600 -0.3447  0.6853  1.9510
 1095SOL    HW214922   3.056   0.606   7.589 -0.3073 -0.4963 -0.7006
 1096SOL     OW14923   2.814   2.019   5.703 -0.5136 -0.0839 -0.5281
 1096SOL    HW114924   2.884   1.989   5.762 -1.9787 -1.9407  0.2668
 1096SOL    HW214925   2.783   1.936   5.666 -0.7930  1.1753 -3.0942
 1097SOL     OW14926   4.661   1.567  17.127 -0.0627  0.0904  0.1566
 1097SOL    HW114927   4.612   1.647  17.145  1.0978  0.8403 -0.0472
 1097SOL    HW214928   0.013   1.591  17.135 -0.0318 -0.5573  1.7032
 1098SOL     OW14929   4.065   3.555   0.264  0.2150  0.2278  0.8302
 1098SOL    HW114930   4.108   3.512   0.190 -0.6829  1.7406 -0.5739
 1098SOL    HW214931   4.118   3.634   0.279 -0.3230  0.9257 -0.9203
 1099SOL     OW14932   0.037   0.509   0.024 -0.1939 -0.2927  0.0169
 1099SOL    HW114933   0.088   0.448   0.077  1.4769  1.6995  0.7218
 1099SOL    HW214934   0.099   0.547  17.721  1.7564 -1.3368  1.3300
 1100SOL     OW14935   1.134   3.798   3.639  0.2241 -0.0538 -0.2008
 1100SOL    HW114936   1.175   3.869   3.688  2.7187  0.1667 -2.5962
 1100SOL    HW214937   1.045   3.832   3.650  0.2481 -0.2293  0.5476
 1101SOL     OW14938   0.204   1.017   3.225 -0.4731  0.0831 -0.4423
 1101SOL    HW114939   0.217   1.091   3.285  1.6509 -1.2300  0.7217
 1101SOL    HW214940   0.109   1.019   3.225 -0.4650  0.5725 -0.4460
 1102SOL     OW14941   0.483   0.436  15.832  0.4554  0.1860 -0.6786
 1102SOL    HW114942   0.405   0.422  15.778  0.1992 -0.6770 -0.0760
 1102SOL    HW214943   0.533   0.359  15.806  0.0243 -0.6392  0.9833
 1103SOL     OW14944   2.049   2.118   6.191 -0.2414  0.3083 -0.3468
 1103SOL    HW114945   2.027   2.035   6.232  0.5623 -0.2285 -0.9953
 1103SOL    HW214946   2.100   2.159   6.261  1.4364  1.5284 -2.2875
 1104SOL     OW14947   2.608   0.813   6.478 -0.3321  0.3580  0.7879
 1104SOL    HW114948   2.661   0.852   6.408  0.3366  0.0929  1.1468
 1104SOL    HW214949   2.527   0.778   6.442  0.4856 -2.3562  1.6036
 1105SOL     OW14950   1.877   1.257   2.781 -0.0140 -0.2780 -0.3571
 1105SOL    HW114951   1.868   1.163   2.798 -0.0343 -0.1294  0.4544
 1105SOL    HW214952   1.862   1.298   2.866  2.7023  1.8383 -0.9007
 1106SOL     OW14953   3.428   3.057  11.201 -0.0545  0.4338 -0.0954
 1106SOL    HW114954   3.461   3.096  11.282 -2.1115 -0.3406  1.0918
 1106SOL    HW214955   3.482   3.113  11.144 -2.6467  0.8951 -2.0975
 1107SOL     OW14956   0.684   3.761   3.555  0.0480  0.0400  0.0645
 1107SOL    HW114957   0.715   3.728   3.640  1.7611  0.5225 -0.3906
 1107SOL    HW214958   0.759   3.732   3.504  0.7537  0.7477  0.6900
 1108SOL     OW14959   0.950   4.633   2.250 -0.0759  0.0569  0.0228
 1108SOL    HW114960   0.996   4.662   2.330  0.1021 -0.8845  0.2612
 1108SOL    HW214961   0.931   4.541   2.267  0.7149 -0.6450 -2.9333
 1109SOL     OW14962   2.727   1.276   1.491  0.4448 -0.3459 -0.7457
 1109SOL    HW114963   2.656   1.212   1.497 -0.0267  0.3691  1.2037
 1109SOL    HW214964   2.709   1.315   1.576 -0.6836 -2.3270 -0.0674
 1110SOL     OW14965   1.288   0.223   7.001  0.0636 -0.1530  0.0644
 1110SOL    HW114966   1.345   0.259   7.069 -0.0609 -2.7362  1.5368
 1110SOL    HW214967   1.235   0.299   6.978 -1.6575 -1.5916 -0.7282
 1111SOL     OW14968   3.013   0.339   8.751 -0.1740  0.1827  0.3217
 1111SOL    HW114969   2.979   0.350   8.840 -1.6337 -1.4123 -0.0311
 1111SOL    HW214970   3.073   0.412   8.737 -0.0058 -0.0300 -0.0563
 1112SOL     OW14971   2.993   2.920   1.949 -0.4647  0.0993  0.4538
 1112SOL    HW114972   3.074   2.895   1.992 -0.1605  0.9749  0.3895
 1112SOL    HW214973   2.941   2.845   1.978  0.8118 -1.2607 -0.7522
 1113SOL     OW14974   2.332   2.496  13.192  0.3490  0.2029  0.3646
 1113SOL    HW114975   2.365   2.409  13.170 -1.1050  0.4458 -2.8741
 1113SOL    HW214976   2.400   2.561  13.176 -0.7991  1.9952  2.6681
 1114SOL     OW14977   1.210   4.016  15.093  0.5306  0.2106  0.2387
 1114SOL    HW114978   1.273   3.972  15.036  1.0041  2.4802 -0.9603
 1114SOL    HW214979   1.165   4.077  15.035 -0.7050 -1.0248 -0.0992
 1115SOL     OW14980   4.151   0.455   8.322 -0.1563  0.4930 -0.0979
 1115SOL    HW114981   4.198   0.384   8.277 -0.1639  1.7507 -2.1228
 1115SOL    HW214982   4.066   0.440   8.281 -0.0418  1.4837 -0.6897
 1116SOL     OW14983   1.521   2.802   3.154 -0.1511 -0.3174  0.2666
 1116SOL    HW114984   1.456   2.805   3.225 -1.7697 -0.9800 -1.1798
 1116SOL    HW214985   1.549   2.711   3.149  0.4697  0.0616 -3.0310
 1117SOL     OW14986   4.369   3.678   9.706 -0.3714  0.1162  0.0837
 1117SOL    HW114987   4.422   3.682   9.626  0.1865  0.7683  0.4922
 1117SOL    HW214988   4.282   3.654   9.673  0.0021  0.0321 -0.8516
 1118SOL     OW14989   4.182   0.255  14.669  0.3029  0.0231  0.1250
 1118SOL    HW114990   4.183   0.346  14.697 -2.4641  0.1096 -0.0685
 1118SOL    HW214991   4.259   0.248  14.613  0.5568  2.3115  0.2113
 1119SOL     OW14992   0.360   3.334   2.660 -0.1113  0.1585  0.9199
 1119SOL    HW114993   0.434   3.278   2.679 -0.4047 -0.5435 -0.0174
 1119SOL    HW214994   0.343   3.307   2.570 -0.0145  0.3388  0.8467
 1120SOL     OW14995   0.052   3.657   8.554  0.1581  0.1790  0.6281
 1120SOL    HW114996   0.078   3.697   8.637 -0.7696 -0.3729  1.1876
 1120SOL    HW214997   4.719   3.599   8.575 -1.5940  2.0754 -0.3097
 1121SOL     OW14998   0.284   2.972   6.741 -0.3357 -1.0984  0.7807
 1121SOL    HW114999   0.291   2.924   6.823 -2.4923  0.5353  1.9189
 1121SOL    HW215000   0.349   2.931   6.683  1.1295 -1.1601  2.4749
 1122SOL     OW15001   3.560   3.413  11.481 -0.6930  0.1230  0.3627
 1122SOL    HW115002   3.484   3.428  11.538 -2.4394  2.6345 -2.6781
 1122SOL    HW215003   3.625   3.438  11.547 -1.6339 -3.2466  2.6238
 1123SOL     OW15004   4.603   1.919  15.608  0.3119  0.1677 -0.9677
 1123SOL    HW115005   4.665   1.990  15.623  1.7982 -1.4484  0.5360
 1123SOL    HW215006   4.668   1.859  15.572 -1.7560 -1.2503 -2.2890
 1124SOL     OW15007   3.941   2.840  16.463 -0.0305 -0.2252 -0.1312
 1124SOL    HW115008   4.021   2.787  16.454 -0.0037 -0.6276  2.6071
 1124SOL    HW215009   3.960   2.867  16.552  1.7664  2.5462 -1.3690
 1125SOL     OW15010   4.105   2.001   5.074 -0.5002 -0.0963 -0.4085
 1125SOL    HW115011   4.083   2.035   4.988 -0.2267  2.5632  0.5607
 1125SOL    HW215012   4.025   2.034   5.115  0.0324  2.4951 -1.4494
 1126SOL     OW15013   4.397   0.675  13.613 -0.0698  0.0918  0.5251
 1126SOL    HW115014   4.407   0.580  13.621  0.9626  0.0299 -1.4756
 1126SOL    HW215015   4.319   0.684  13.559  1.1560 -0.4506 -1.3400
 1127SOL     OW15016   2.144   3.539  13.674 -0.1141 -0.1704 -0.3394
 1127SOL    HW115017   2.050   3.521  13.687 -0.7078  1.0481 -2.9975
 1127SOL    HW215018   2.181   3.461  13.716 -1.5315  0.1997  1.5947
 1128SOL     OW15019   2.445   0.985  17.516 -0.2329  0.0389 -0.3812
 1128SOL    HW115020   2.351   0.999  17.504 -0.3293  0.4232  0.8716
 1128SOL    HW215021   2.463   1.060  17.573  3.7850 -2.3594  1.5147
 1129SOL     OW15022   2.284   0.109   7.035 -0.1741  0.3325  0.0195
 1129SOL    HW115023   2.246   0.062   6.961  0.0283 -1.7852  1.2714
 1129SOL    HW215024   2.370   0.068   7.031 -0.2152 -0.0235  2.6385
 1130SOL     OW15025   2.855   0.812   0.677  0.6288 -0.6268 -0.0562
 1130SOL    HW115026   2.780   0.779   0.627 -0.6311  0.3190  1.1928
 1130SOL    HW215027   2.866   0.740   0.740  1.5739 -0.6992 -0.3166
 1131SOL     OW15028   4.135   2.435   3.785 -0.0607  0.3265 -0.1289
 1131SOL    HW115029   4.123   2.530   3.782  2.2989  0.6358  0.3624
 1131SOL    HW215030   4.043   2.411   3.783 -0.1532  0.4422  2.6377
 1132SOL     OW15031   1.961   1.446   6.931  0.0431 -0.2087  0.3908
 1132SOL    HW115032   2.040   1.500   6.935  0.7135 -1.1590  0.0108
 1132SOL    HW215033   1.946   1.460   6.837  2.7238 -1.7210 -0.2648
 1133SOL     OW15034   2.389   4.072   4.059 -0.7840 -0.5623  0.3314
 1133SOL    HW115035   2.382   3.978   4.075  0.2614 -0.7318 -0.2114
 1133SOL    HW215036   2.404   4.105   4.148 -1.8758 -0.4056  0.4603
 1134SOL     OW15037   3.157   1.784   3.498 -0.3795  0.1117  0.3816
 1134SOL    HW115038   3.167   1.689   3.492 -0.7728  0.1624 -1.0394
 1134SOL    HW215039   3.090   1.799   3.432 -0.9279 -0.1227  0.8765
 1135SOL     OW15040   0.124   4.104  15.359 -0.2311 -0.4926  0.4258
 1135SOL    HW115041   0.068   4.029  15.381 -1.4292 -0.0396 -1.0894
 1135SOL    HW215042   0.213   4.069  15.351 -0.3689 -0.3999 -1.4149
 1136SOL     OW15043   4.514   0.338   3.276  0.2259 -0.2980  0.1701
 1136SOL    HW115044   4.517   0.401   3.204  1.4307  0.1349  0.6013
 1136SOL    HW215045   4.593   0.353   3.327  0.0314 -0.3776  0.4927
 1137SOL     OW15046   4.718   3.538  17.256 -0.5114  0.4427 -0.3543
 1137SOL    HW115047   4.700   3.444  17.257 -0.4868  0.4372 -0.5780
 1137SOL    HW215048   4.658   3.565  17.188 -1.4064  2.0452  1.0730
 1138SOL     OW15049   0.995   0.958   9.392  0.4277 -0.5840  0.4238
 1138SOL    HW115050   0.922   0.945   9.452  0.5534 -1.5306  0.3635
 1138SOL    HW215051   1.067   0.906   9.428 -0.4429 -2.1899 -0.1383
 1139SOL     OW15052   2.436   1.965   3.468 -0.2751 -0.6957 -0.1410
 1139SOL    HW115053   2.411   1.884   3.424 -1.4414 -1.3248  1.6864
 1139SOL    HW215054   2.369   2.028   3.444  0.8726  0.6827  0.2586
 1140SOL     OW15055   3.478   3.393  12.443  0.4245 -0.1537 -0.3933
 1140SOL    HW115056   3.395   3.356  12.414 -0.3652  1.5314 -0.2537
 1140SOL    HW215057   3.470   3.406  12.538 -0.5156  0.5870 -0.5722
 1141SOL     OW15058   2.182   3.457  14.105 -0.2497 -0.6433  0.0262
 1141SOL    HW115059   2.117   3.399  14.066 -0.6656  0.8502 -1.4777
 1141SOL    HW215060   2.199   3.421  14.193  2.9327  2.7619  0.8182
 1142SOL     OW15061   3.574   4.738   4.431  0.3072  0.5054  0.7081
 1142SOL    HW115062   3.622   0.062   4.484 -0.1457  2.3027 -1.0490
 1142SOL    HW215063   3.484   0.008   4.463 -0.7585 -1.8691 -1.5187
 1143SOL     OW15064   2.805   1.600   0.469 -0.3047  0.2856 -0.0296
 1143SOL    HW115065   2.737   1.648   0.421 -0.1957 -0.5289 -1.0119
 1143SOL    HW215066   2.883   1.639   0.430 -0.3588 -0.7045 -1.1391
 1144SOL     OW15067   2.133   1.051   4.442 -0.2168 -0.1238  0.2005
 1144SOL    HW115068   2.149   1.110   4.368 -0.3754  1.4234  1.3841
 1144SOL    HW215069   2.220   1.048   4.482  0.5254 -3.0102 -1.6675
 1145SOL     OW15070   0.397   4.728  15.260 -0.5650 -0.6348  0.4487
 1145SOL    HW115071   0.371   0.029  15.178  1.8289  0.6876  0.3490
 1145SOL    HW215072   0.487   0.017  15.273 -0.0184 -2.1253  0.0084
 1146SOL     OW15073   3.381   2.192   3.031 -0.0832 -0.0837  0.5269
 1146SOL    HW115074   3.469   2.191   3.068 -0.4118 -0.3810  1.3206
 1146SOL    HW215075   3.331   2.245   3.094 -0.0484 -0.6324  1.0200
 1147SOL     OW15076   4.547   3.422   6.860 -0.1890  0.0676  0.2387
 1147SOL    HW115077   4.530   3.451   6.771  1.9463  1.0534  0.1390
 1147SOL    HW215078   4.580   3.503   6.900 -0.1046 -0.5012  1.3227
 1148SOL     OW15079   1.330   2.984   5.479 -0.0330 -0.2537  0.7348
 1148SOL    HW115080   1.413   3.002   5.524  0.3867 -0.2722 -0.0416
 1148SOL    HW215081   1.367   2.931   5.409 -0.9649 -0.3845  0.3408
 1149SOL     OW15082   1.726   2.122   7.690  0.3031  0.1526 -0.5436
 1149SOL    HW115083   1.721   2.078   7.606 -2.7238  3.1498 -1.9116
 1149SOL    HW215084   1.636   2.099   7.711  0.6823 -1.6877 -0.9303
 1150SOL     OW15085   2.560   4.599   9.692  0.0392 -0.2385 -0.1088
 1150SOL    HW115086   2.632   4.596   9.629 -0.7096  0.4577 -1.0039
 1150SOL    HW215087   2.545   4.693   9.682  2.0271  0.2774  1.8928
 1151SOL     OW15088   2.330   3.841   2.891  0.0730  0.0411  0.2329
 1151SOL    HW115089   2.364   3.881   2.811  1.7563 -0.3548  0.7439
 1151SOL    HW215090   2.236   3.849   2.878  0.3839 -0.4068 -2.4526
 1152SOL     OW15091   2.968   0.736  11.593 -0.1206  0.0328  0.0250
 1152SOL    HW115092   2.958   0.815  11.539  1.5904 -2.3702 -3.7820
 1152SOL    HW215093   3.061   0.716  11.584 -0.0457 -0.1300  1.1866
 1153SOL     OW15094   3.129   1.879   3.172  0.4391 -0.1326  0.2181
 1153SOL    HW115095   3.194   1.928   3.222  0.3192 -1.0369  1.2604
 1153SOL    HW215096   3.084   1.954   3.133 -0.6322 -0.5884  0.5952
 1154SOL     OW15097   1.882   4.401   6.379  0.0677  0.3197  0.2492
 1154SOL    HW115098   1.807   4.384   6.322 -0.8951 -1.3856  1.9942
 1154SOL    HW215099   1.843   4.471   6.431  0.8530 -0.2253  1.5774
 1155SOL     OW15100   0.041   0.998  11.482 -0.3728 -0.1195  0.3775
 1155SOL    HW115101   0.045   1.072  11.542  0.0190  0.3845 -0.2681
 1155SOL    HW215102   4.718   0.940  11.524  0.1922 -0.2250  1.0833
 1156SOL     OW15103   3.921   1.126   4.844 -0.3582  0.2626 -0.1606
 1156SOL    HW115104   3.952   1.217   4.840 -0.6966  0.4095  0.4988
 1156SOL    HW215105   3.997   1.075   4.817 -1.8919 -1.4382 -1.2275
 1157SOL     OW15106   0.842   3.931   8.173  1.0631 -0.1802  0.1056
 1157SOL    HW115107   0.900   3.860   8.146  1.7078  0.3982 -0.0073
 1157SOL    HW215108   0.765   3.925   8.116  1.4100 -1.5451 -0.2257
 1158SOL     OW15109   2.546   0.229   3.493  0.2064 -0.1106  0.7654
 1158SOL    HW115110   2.621   0.173   3.477  0.8170  0.6828  0.8687
 1158SOL    HW215111   2.537   0.277   3.411  1.8196 -0.1549  0.5754
 1159SOL     OW15112   4.154   4.460  15.531 -0.0048  0.1772 -0.6144
 1159SOL    HW115113   4.168   4.460  15.436  2.1090 -0.6935 -0.3098
 1159SOL    HW215114   4.130   4.552  15.541 -1.1586  0.0826 -2.5352
 1160SOL     OW15115   3.775   0.744   4.752 -0.2438  0.1343  0.0142
 1160SOL    HW115116   3.691   0.751   4.708 -0.5708 -1.0332  0.4681
 1160SOL    HW215117   3.795   0.651   4.750 -1.7794 -0.1539 -1.0244
 1161SOL     OW15118   3.589   3.819   0.194  0.3425 -0.0489 -0.3545
 1161SOL    HW115119   3.589   3.780   0.106  0.2646 -3.9851  1.3810
 1161SOL    HW215120   3.679   3.813   0.228  1.0939  0.8014 -2.1555
 1162SOL     OW15121   2.619   2.597   7.017  0.0001 -0.2778  0.2534
 1162SOL    HW115122   2.646   2.586   6.926 -2.6736  1.0001 -0.6885
 1162SOL    HW215123   2.651   2.683   7.044 -1.7096  0.1683  0.8722
 1163SOL     OW15124   0.286   4.199   8.978  0.1395  0.3569 -0.1886
 1163SOL    HW115125   0.198   4.205   8.940 -0.4180 -1.6704  0.7585
 1163SOL    HW215126   0.283   4.267   9.045  1.0108 -0.1171  0.3267
 1164SOL     OW15127   2.502   3.520   6.632 -0.1896 -0.7416  0.1996
 1164SOL    HW115128   2.576   3.543   6.576  0.3234 -2.3631  0.2100
 1164SOL    HW215129   2.453   3.602   6.633 -0.4036 -0.8928  3.1845
 1165SOL     OW15130   1.599   0.805  12.891 -0.0919 -0.0791 -0.7290
 1165SOL    HW115131   1.654   0.846  12.825  2.4356 -2.2755 -0.0010
 1165SOL    HW215132   1.608   0.869  12.962  1.5222  1.7230 -2.5845
 1166SOL     OW15133   4.291   2.764   4.236 -0.3637 -0.4142  0.3754
 1166SOL    HW115134   4.294   2.854   4.204 -1.0484 -0.7853 -0.7596
 1166SOL    HW215135   4.343   2.777   4.314 -0.2864  0.0294  0.2465
 1167SOL     OW15136   2.162   1.614   6.984  0.3044  0.1401  0.2471
 1167SOL    HW115137   2.226   1.546   6.961 -1.5692 -1.1197 -1.2050
 1167SOL    HW215138   2.188   1.645   7.070  0.7583  0.3849  0.0276
 1168SOL     OW15139   3.947   4.027  12.127  0.3250 -0.6612  0.0655
 1168SOL    HW115140   3.864   3.979  12.125  0.4205 -0.7865 -0.7528
 1168SOL    HW215141   4.004   3.963  12.168  1.7011  2.9860  3.8189
 1169SOL     OW15142   4.282   2.556   0.195  0.4324  0.2625  0.4390
 1169SOL    HW115143   4.273   2.651   0.198  1.0382  0.3439 -0.3027
 1169SOL    HW215144   4.303   2.539   0.103 -1.6421  1.2614 -0.2085
 1170SOL     OW15145   1.585   2.990  12.864 -0.0011 -0.4110 -0.2320
 1170SOL    HW115146   1.531   2.921  12.827  0.5223 -1.0961  0.2657
 1170SOL    HW215147   1.657   2.987  12.802 -1.0876  1.1409 -1.5385
 1171SOL     OW15148   2.361   4.596   2.629  0.2884  0.0916 -0.1734
 1171SOL    HW115149   2.320   4.575   2.545 -1.0081  3.1739 -0.3343
 1171SOL    HW215150   2.453   4.595   2.603  0.6107  0.6777  0.9547
 1172SOL     OW15151   0.409   2.705   4.003 -0.2695  0.3687 -0.2244
 1172SOL    HW115152   0.433   2.773   4.066  1.6681 -0.7256  0.2165
 1172SOL    HW215153   0.349   2.760   3.953  1.3028  2.0002 -0.3252
 1173SOL     OW15154   1.056   2.525  16.550  0.2038 -0.0283 -0.3872
 1173SOL    HW115155   1.133   2.475  16.522 -0.0531 -0.5398 -0.1884
 1173SOL    HW215156   0.985   2.483  16.502 -0.3823  2.8865 -2.0775
 1174SOL     OW15157   1.451   3.647   6.179 -0.3141  0.1555  0.0446
 1174SOL    HW115158   1.380   3.582   6.185  0.9367 -1.2880 -0.8499
 1174SOL    HW215159   1.484   3.633   6.267 -1.1619  0.2876  0.3902
 1175SOL     OW15160   3.199   2.033  10.155  0.2426  0.0410  0.2884
 1175SOL    HW115161   3.108   2.062  10.160  0.2955 -0.1154  2.1086
 1175SOL    HW215162   3.236   2.094  10.091  1.3345  1.7840  2.6042
 1176SOL     OW15163   2.717   2.419  10.840 -0.1941 -0.6582 -0.1241
 1176SOL    HW115164   2.769   2.344  10.871  0.7207  0.2181  0.4878
 1176SOL    HW215165   2.672   2.377  10.767 -0.9605 -1.9151  1.0668
 1177SOL     OW15166   2.603   1.282  10.385 -0.0327  0.3660 -0.6876
 1177SOL    HW115167   2.580   1.195  10.351 -2.2716  0.6710  0.0505
 1177SOL    HW215168   2.514   1.315  10.385 -0.5764 -1.1145 -1.3746
 1178SOL     OW15169   4.333   3.970   3.274  0.1188 -0.2008 -0.5958
 1178SOL    HW115170   4.274   3.989   3.202 -1.2520 -1.9894  0.0709
 1178SOL    HW215171   4.350   4.051   3.322  2.2520 -0.5201 -0.7926
 1179SOL     OW15172   0.894   0.427  16.510 -0.1138 -0.0243  0.3061
 1179SOL    HW115173   0.959   0.446  16.578  0.0484 -2.1275  0.7444
 1179SOL    HW215174   0.827   0.382  16.561 -0.4609 -0.0004 -0.1319
 1180SOL     OW15175   3.654   0.422  11.523  0.1755 -0.6568  0.0471
 1180SOL    HW115176   3.706   0.429  11.604  1.2738 -0.4665 -0.6726
 1180SOL    HW215177   3.723   0.415  11.457 -0.1491 -1.0749 -0.2445
 1181SOL     OW15178   1.692   3.303  14.985  0.0034 -0.1162  0.4858
 1181SOL    HW115179   1.741   3.237  15.035  1.3057 -0.0192 -0.6469
 1181SOL    HW215180   1.605   3.263  14.981  0.0481 -0.3657  1.8770
 1182SOL     OW15181   3.352   2.291   3.830 -0.6594  0.3814  0.7312
 1182SOL    HW115182   3.398   2.228   3.773  0.0911 -0.4260  2.2320
 1182SOL    HW215183   3.262   2.260   3.827 -0.4380  0.0922 -3.1219
 1183SOL     OW15184   2.124   3.922   8.938 -0.2402  0.3720 -0.6982
 1183SOL    HW115185   2.089   3.874   8.863  0.9678 -2.3947  0.4736
 1183SOL    HW215186   2.096   4.010   8.916  0.4051  0.8662  0.4649
 1184SOL     OW15187   1.373   3.321   9.506 -0.2531 -0.3357 -0.6469
 1184SOL    HW115188   1.400   3.413   9.502 -2.4479  0.2512 -2.0048
 1184SOL    HW215189   1.292   3.326   9.455 -1.5121  0.4853  1.4086
 1185SOL     OW15190   2.292   0.057   9.778 -0.5203 -0.4799 -0.5841
 1185SOL    HW115191   2.308   0.060   9.684 -0.1376  0.1147 -0.5021
 1185SOL    HW215192   2.296   4.703   9.794 -0.6554  0.0380  2.5704
 1186SOL     OW15193   0.363   0.764  14.414  0.1037  0.1923  0.3317
 1186SOL    HW115194   0.341   0.857  14.410 -1.1940 -0.0500  2.0681
 1186SOL    HW215195   0.413   0.760  14.495 -0.9224  0.0604  0.9597
 1187SOL     OW15196   1.934   0.705   9.132 -0.6364 -0.0069 -0.0435
 1187SOL    HW115197   1.947   0.775   9.068 -1.2851  0.2622  0.1182
 1187SOL    HW215198   1.944   0.760   9.210 -1.4166 -0.1380  0.1539
 1188SOL     OW15199   3.977   2.060   7.212 -0.0337  0.8902 -0.2403
 1188SOL    HW115200   4.041   2.101   7.270  1.0439  0.0011 -0.7972
 1188SOL    HW215201   3.912   2.127   7.191 -0.3263  1.1673  1.5800
 1189SOL     OW15202   2.653   0.904   3.599 -0.0800 -0.2391  0.7138
 1189SOL    HW115203   2.656   0.855   3.517  2.1105  1.2296 -0.0623
 1189SOL    HW215204   2.576   0.958   3.582 -0.1326 -0.9385 -1.2252
 1190SOL     OW15205   3.790   0.462  14.863 -0.4287  0.2832 -0.4284
 1190SOL    HW115206   3.884   0.480  14.869 -0.4270  0.7155 -1.6958
 1190SOL    HW215207   3.766   0.533  14.922 -2.5129 -0.3037 -0.5881
 1191SOL     OW15208   1.556   2.392  10.803 -0.1432  0.1249  0.4859
 1191SOL    HW115209   1.490   2.324  10.817 -0.5918  0.6963  1.1663
 1191SOL    HW215210   1.608   2.377  10.882 -0.2123 -3.5060 -0.1713
 1192SOL     OW15211   3.351   2.287  11.129 -0.4606  0.4247 -0.0107
 1192SOL    HW115212   3.279   2.245  11.083  0.5028 -0.5119 -0.6831
 1192SOL    HW215213   3.392   2.347  11.067 -0.2481 -1.1117 -1.3441
 1193SOL     OW15214   0.920   3.218  10.135 -0.2077  0.1267 -0.8411
 1193SOL    HW115215   0.899   3.294  10.080  3.0025  1.3966 -0.3110
 1193SOL    HW215216   0.990   3.178  10.084  0.7211 -0.0781  0.5814
 1194SOL     OW15217   3.581   2.888   7.202 -0.1242  0.3192 -0.5222
 1194SOL    HW115218   3.583   2.796   7.179 -0.0211  0.3321 -0.5643
 1194SOL    HW215219   3.673   2.909   7.217 -0.1855 -0.1325  0.4349
 1195SOL     OW15220   2.884   3.976   3.418  0.1888  0.1341 -0.6697
 1195SOL    HW115221   2.791   3.957   3.429  0.5069 -0.0475  1.6060
 1195SOL    HW215222   2.906   3.946   3.329 -2.0880  1.8063 -1.8169
 1196SOL     OW15223   4.735   3.601   6.935  0.3792  0.3078  0.0182
 1196SOL    HW115224   0.020   3.529   6.876  0.8531 -1.0375  1.8741
 1196SOL    HW215225   0.005   3.669   6.869  2.4895  2.0280  2.1319
 1197SOL     OW15226   3.985   3.262   7.839 -0.0195 -0.0973  0.0484
 1197SOL    HW115227   4.073   3.276   7.805 -1.4784  2.1595 -2.7449
 1197SOL    HW215228   3.997   3.247   7.933  3.2694 -1.8160 -0.6611
 1198SOL     OW15229   2.874   4.046   4.385 -0.2872  0.2628  0.2366
 1198SOL    HW115230   2.964   4.017   4.400 -0.8717 -0.6574  1.9043
 1198SOL    HW215231   2.830   4.001   4.457 -1.0446  0.1746 -0.2776
 1199SOL     OW15232   0.078   4.110   4.640  0.1771  0.2597 -0.1067
 1199SOL    HW115233   0.146   4.161   4.684 -0.1188  0.2288  0.3821
 1199SOL    HW215234   0.006   4.148   4.690  0.0473  0.8247 -0.7128
 1200SOL     OW15235   1.258   2.565   5.103  0.5684 -0.0036  0.4464
 1200SOL    HW115236   1.300   2.641   5.063  3.2553 -0.0695  3.1945
 1200SOL    HW215237   1.281   2.581   5.195  2.7762 -3.0662  0.4206
 1201SOL     OW15238   1.750   2.635  14.369 -0.1144  0.3116 -0.1700
 1201SOL    HW115239   1.842   2.616  14.347 -0.3480 -0.2240 -0.6585
 1201SOL    HW215240   1.716   2.554  14.407 -0.2275 -0.2148 -1.3711
 1202SOL     OW15241   1.190   1.964   9.456 -0.3169  0.4914  0.1139
 1202SOL    HW115242   1.177   1.876   9.421  0.2727  0.6378 -0.4743
 1202SOL    HW215243   1.227   2.012   9.382  0.1350  1.5888  1.0620
 1203SOL     OW15244   4.501   0.553  17.408 -0.3757  0.2369  0.3970
 1203SOL    HW115245   4.468   0.593  17.489 -2.4508 -1.9754  0.6740
 1203SOL    HW215246   4.500   0.461  17.436 -0.4623  0.3401  0.7445
 1204SOL     OW15247   1.246   0.946   6.670  0.0480 -0.0533  0.4532
 1204SOL    HW115248   1.324   1.001   6.679 -0.4501  1.1082 -2.2155
 1204SOL    HW215249   1.189   1.012   6.630 -1.9908 -0.3620  2.8794
 1205SOL     OW15250   2.788   1.516  17.093 -0.3447  0.0021 -0.2947
 1205SOL    HW115251   2.783   1.612  17.098  2.8810  0.2218 -1.2925
 1205SOL    HW215252   2.696   1.492  17.106  0.3957 -2.1532  0.9107
 1206SOL     OW15253   1.615   1.363  11.507  0.5346  0.0942  0.6254
 1206SOL    HW115254   1.663   1.281  11.510  0.7230  0.0817 -2.4338
 1206SOL    HW215255   1.525   1.336  11.525  0.2677  0.9432  0.5747
 1207SOL     OW15256   2.277   0.387   2.828 -0.4928 -0.9226  0.0257
 1207SOL    HW115257   2.345   0.397   2.761 -0.0573  1.4255  0.8102
 1207SOL    HW215258   2.330   0.332   2.886 -0.8590 -2.7808 -1.3888
 1208SOL     OW15259   2.336   0.166   0.060  0.6914 -0.3549 -0.0570
 1208SOL    HW115260   2.368   0.252   0.088 -0.2447  0.2461 -0.8124
 1208SOL    HW215261   2.394   0.110   0.112 -1.4637 -1.5173  1.0628
 1209SOL     OW15262   3.532   2.230   9.350 -0.5890 -0.8886 -0.4153
 1209SOL    HW115263   3.532   2.171   9.426 -0.2886  0.2527  0.4781
 1209SOL    HW215264   3.446   2.268   9.368  1.7217  3.0802  2.3222
 1210SOL     OW15265   0.948   3.863   7.502 -0.3441 -0.0701  0.2393
 1210SOL    HW115266   1.001   3.823   7.571  0.7397  0.6859 -0.1513
 1210SOL    HW215267   0.937   3.785   7.448  0.6698 -0.2714  0.3273
 1211SOL     OW15268   0.139   2.212   5.232  0.0881  0.3875  0.0634
 1211SOL    HW115269   0.089   2.294   5.230 -0.7644 -0.0874  1.9743
 1211SOL    HW215270   0.151   2.193   5.139  0.9934 -0.4707  0.3621
 1212SOL     OW15271   2.048   0.469   3.603  0.2929  0.6476  0.0529
 1212SOL    HW115272   2.086   0.402   3.659 -2.2809 -1.1012 -0.2597
 1212SOL    HW215273   2.119   0.487   3.542 -1.1714 -2.0117 -2.4407
 1213SOL     OW15274   3.256   4.556   3.479  0.0395 -0.5516  0.0436
 1213SOL    HW115275   3.226   4.466   3.472 -1.4985 -0.0091 -0.3415
 1213SOL    HW215276   3.195   4.586   3.547  1.1688  2.5898 -0.3267
 1214SOL     OW15277   0.316   3.276   8.814 -0.3954  0.2665 -0.4914
 1214SOL    HW115278   0.233   3.233   8.835 -1.7995  2.0540 -2.3922
 1214SOL    HW215279   0.300   3.320   8.730  1.5657 -1.0967 -1.5851
 1215SOL     OW15280   1.798   1.069  10.548 -0.2706 -0.0836 -0.3722
 1215SOL    HW115281   1.869   1.127  10.520  0.1627 -0.4325  0.0178
 1215SOL    HW215282   1.819   1.038  10.635 -2.4197 -0.9880 -0.1719
 1216SOL     OW15283   2.425   3.075  17.068 -0.1994  0.2852  0.3061
 1216SOL    HW115284   2.352   3.118  17.022 -2.0312 -1.2662  1.8169
 1216SOL    HW215285   2.406   3.084  17.161  0.7785 -1.8315  0.7040
 1217SOL     OW15286   0.040   2.739   6.063 -0.0949  0.5986 -0.3425
 1217SOL    HW115287   0.080   2.698   5.986  0.6470 -0.1208  0.4236
 1217SOL    HW215288   0.115   2.745   6.122  0.1814 -1.2897 -0.5050
 1218SOL     OW15289   0.623   1.084   4.766 -0.3555 -0.0628  0.2029
 1218SOL    HW115290   0.715   1.093   4.789 -1.1008  1.0855  2.7759
 1218SOL    HW215291   0.584   1.069   4.852  1.0339 -0.4950  0.7573
 1219SOL     OW15292   4.167   0.044  12.386 -0.1966  0.2749  0.0402
 1219SOL    HW115293   4.135   0.131  12.409  1.4873  0.7013  0.7786
 1219SOL    HW215294   4.158   0.008  12.474 -0.8106 -1.5409 -0.7735
 1220SOL     OW15295   0.616   0.867   5.356  0.6806  0.4770  0.3255
 1220SOL    HW115296   0.578   0.955   5.353 -1.5056 -0.5847 -2.3609
 1220SOL    HW215297   0.568   0.836   5.433 -0.7695  0.5973 -0.5288
 1221SOL     OW15298   1.887   2.487   4.376 -0.2261  0.1550  0.1855
 1221SOL    HW115299   1.953   2.426   4.343 -0.5734  0.3348 -0.8159
 1221SOL    HW215300   1.868   2.450   4.463  0.5540  0.1824  0.3697
 1222SOL     OW15301   2.136   3.016   6.395 -0.4354 -0.4838 -0.5911
 1222SOL    HW115302   2.142   2.921   6.390  1.2707 -0.4425  0.7809
 1222SOL    HW215303   2.222   3.047   6.368  0.1960 -0.2528  1.7159
 1223SOL     OW15304   0.575   0.585   6.746 -0.0621  0.3806  0.2000
 1223SOL    HW115305   0.580   0.677   6.721 -1.7003  0.3133 -0.3710
 1223SOL    HW215306   0.497   0.566   6.693  0.4408  1.3104 -0.8802
 1224SOL     OW15307   0.098   3.413  15.694  0.7546 -0.1198 -0.2117
 1224SOL    HW115308   0.074   3.489  15.747 -1.8033  0.5533 -2.3488
 1224SOL    HW215309   0.193   3.414  15.705  0.5792 -2.5483  1.6736
 1225SOL     OW15310   0.327   0.577  17.653 -0.0740  0.3424  0.0762
 1225SOL    HW115311   0.373   0.532  17.724  0.5371 -2.0694 -1.8452
 1225SOL    HW215312   0.340   0.514  17.581  1.0267 -0.7481  1.2218
 1226SOL     OW15313   1.565   0.734   5.200 -0.1602  0.0895  0.8957
 1226SOL    HW115314   1.541   0.654   5.154 -0.9864  0.5848  0.4788
 1226SOL    HW215315   1.486   0.755   5.249 -0.3621  0.6763  0.3108
 1227SOL     OW15316   4.416   0.848  15.144 -0.2535 -0.1641  0.4300
 1227SOL    HW115317   4.458   0.865  15.060  0.1385  3.0960  1.2886
 1227SOL    HW215318   4.474   0.778  15.174  1.0414  1.7315  2.3548
 1228SOL     OW15319   2.325   4.551   9.871 -0.3733 -1.0010  0.1563
 1228SOL    HW115320   2.304   4.462   9.899 -0.4119 -0.9536  0.2753
 1228SOL    HW215321   2.374   4.528   9.792  1.3570  2.1639  0.3324
 1229SOL     OW15322   4.121   1.348  16.957 -0.1719  0.1502 -0.0925
 1229SOL    HW115323   4.130   1.444  16.960 -1.6973  0.3211 -1.1309
 1229SOL    HW215324   4.193   1.325  16.899 -0.2359  0.0244 -0.1225
 1230SOL     OW15325   1.687   1.957   3.330  0.1824 -0.3022 -0.1816
 1230SOL    HW115326   1.691   2.049   3.355 -1.0371 -0.5898  1.0269
 1230SOL    HW215327   1.712   1.957   3.237 -1.2860  0.9055 -0.5737
 1231SOL     OW15328   3.329   1.095   5.174  0.6062  0.3247 -0.8113
 1231SOL    HW115329   3.358   1.144   5.098 -1.7620 -1.1458 -2.6275
 1231SOL    HW215330   3.370   1.008   5.172 -0.6175 -0.2373 -1.1856
 1232SOL     OW15331   0.615   0.813  12.781  0.2188 -0.5778  0.0525
 1232SOL    HW115332   0.582   0.763  12.855  0.3349  1.9533  1.8162
 1232SOL    HW215333   0.700   0.841  12.816  1.1705 -1.0586 -1.8896
 1233SOL     OW15334   1.829   1.968  12.743  0.8172 -0.3654  0.0298
 1233SOL    HW115335   1.772   1.957  12.820  1.0824  1.3096  0.4691
 1233SOL    HW215336   1.862   2.057  12.750  1.5731 -0.5950 -0.6873
 1234SOL     OW15337   0.175   1.092   7.982  0.5777  0.1140 -0.6660
 1234SOL    HW115338   0.161   1.121   8.073 -0.8928 -2.1983 -0.1431
 1234SOL    HW215339   0.144   1.002   7.978  2.6242 -0.4243 -3.7733
 1235SOL     OW15340   0.944   4.672   0.468  0.2611 -0.3860  0.0173
 1235SOL    HW115341   0.953   0.020   0.434  1.0481 -0.7099 -0.5944
 1235SOL    HW215342   1.031   4.639   0.448  1.1164 -0.8425  4.5129
 1236SOL     OW15343   2.606   2.042   7.380 -0.8043 -0.2346 -0.6712
 1236SOL    HW115344   2.613   2.010   7.470 -1.6579 -0.4078 -0.6595
 1236SOL    HW215345   2.558   2.125   7.390  1.4092  0.8222  1.0616
 1237SOL     OW15346   4.165   0.866   0.111  0.0895  0.1589  0.2993
 1237SOL    HW115347   4.158   0.848   0.017 -0.9233  0.2189  0.3620
 1237SOL    HW215348   4.247   0.827   0.140  1.3564  1.2812 -1.7421
 1238SOL     OW15349   1.003   3.513  16.113  0.4878  0.3174  0.3871
 1238SOL    HW115350   1.028   3.490  16.203 -1.6396  0.8678  1.1146
 1238SOL    HW215351   1.072   3.569  16.078 -0.7133  0.6504 -1.4255
 1239SOL     OW15352   0.832   2.422   6.308  0.4332 -0.4920  0.1249
 1239SOL    HW115353   0.745   2.387   6.291 -0.1868  1.3625 -0.5400
 1239SOL    HW215354   0.860   2.348   6.361 -1.9255 -0.5485  1.2606
 1240SOL     OW15355   2.110   0.923   6.769  0.1256 -0.0830 -0.6596
 1240SOL    HW115356   2.136   0.891   6.855  2.3393  1.3788 -0.7760
 1240SOL    HW215357   2.126   0.841   6.723  1.4858 -0.0379 -0.2518
 1241SOL     OW15358   2.961   1.496   2.157 -0.0755 -0.2951  0.1688
 1241SOL    HW115359   2.958   1.571   2.217 -3.9665 -0.2066 -0.1650
 1241SOL    HW215360   3.053   1.471   2.169 -0.1324 -0.0032  1.2236
 1242SOL     OW15361   2.317   2.512  16.136  0.4722  0.0307 -0.3149
 1242SOL    HW115362   2.295   2.448  16.068  3.0918 -1.4901  0.2434
 1242SOL    HW215363   2.402   2.550  16.113  0.0698 -0.0229 -1.9092
 1243SOL     OW15364   0.848   0.925  11.132  0.1256  0.2951 -0.3003
 1243SOL    HW115365   0.776   0.988  11.128  1.2371  1.6154  0.4982
 1243SOL    HW215366   0.856   0.897  11.040  2.4932  0.2953 -0.0884
 1244SOL     OW15367   2.265   2.473   6.584  0.7475 -0.4079  0.0809
 1244SOL    HW115368   2.219   2.412   6.641 -0.5996 -0.2909 -0.8776
 1244SOL    HW215369   2.214   2.549   6.611 -0.7016 -1.5012  0.4017
 1245SOL     OW15370   4.201   2.454   6.762 -0.2493 -0.1150 -0.0632
 1245SOL    HW115371   4.211   2.386   6.695 -2.6237  0.3696 -0.9031
 1245SOL    HW215372   4.126   2.413   6.805  0.0531  0.1759  0.7530
 1246SOL     OW15373   1.657   1.505   2.651 -0.2126  0.1538 -0.1311
 1246SOL    HW115374   1.748   1.531   2.634 -1.2994  1.0519 -4.6610
 1246SOL    HW215375   1.640   1.439   2.584  0.7505  1.3924 -1.6153
 1247SOL     OW15376   3.662   4.147   4.936  0.2772  0.1648  0.2144
 1247SOL    HW115377   3.572   4.178   4.929  0.1759 -0.4224 -1.1241
 1247SOL    HW215378   3.699   4.186   4.857  0.9105 -2.0549 -0.5968
 1248SOL     OW15379   0.030   0.971   4.796  0.1233 -0.0606  0.0766
 1248SOL    HW115380   0.068   1.059   4.796  1.1339 -0.4929 -0.0042
 1248SOL    HW215381   4.730   0.972   4.710  0.6244 -3.2378 -0.1884
 1249SOL     OW15382   3.856   3.698   3.099 -0.4959 -0.6440 -0.1262
 1249SOL    HW115383   3.902   3.673   3.179 -1.2197  1.5626  0.9487
 1249SOL    HW215384   3.869   3.620   3.044 -1.4976 -0.8659 -0.0463
 1250SOL     OW15385   1.336   0.861   9.106 -0.0377 -0.3366 -0.5741
 1250SOL    HW115386   1.244   0.879   9.084 -0.2457  0.7454  1.1650
 1250SOL    HW215387   1.378   0.933   9.060  0.6596 -1.4903 -1.7399
 1251SOL     OW15388   4.626   1.757   6.149 -0.2780 -0.2596  0.4875
 1251SOL    HW115389   4.695   1.823   6.144  0.1142 -0.7558 -0.4843
 1251SOL    HW215390   4.664   1.685   6.099 -2.1031 -0.9703  0.1253
 1252SOL     OW15391   1.308   3.239   2.492 -0.3647  0.3744  0.0877
 1252SOL    HW115392   1.298   3.147   2.517 -1.6714  1.0051  1.8851
 1252SOL    HW215393   1.400   3.254   2.517  0.2269 -1.5485 -0.9371
 1253SOL     OW15394   1.585   3.157   3.269 -0.1738  0.1139  0.0619
 1253SOL    HW115395   1.616   3.079   3.315 -1.8206  0.3692  1.6135
 1253SOL    HW215396   1.655   3.222   3.281 -0.4762  0.4608 -0.0714
 1254SOL     OW15397   0.665   2.220   8.244 -0.2161  0.1661  0.2816
 1254SOL    HW115398   0.677   2.306   8.202  0.7164  0.4404  1.1231
 1254SOL    HW215399   0.733   2.227   8.311  2.4904 -3.3186 -2.1412
 1255SOL     OW15400   1.274   1.300   5.563  0.5563 -0.3031 -0.2089
 1255SOL    HW115401   1.230   1.297   5.648  1.7757 -1.8808  0.3767
 1255SOL    HW215402   1.362   1.335   5.578  0.0332  0.2489  1.4944
 1256SOL     OW15403   2.595   0.235   9.084  0.7223  0.0457 -0.0863
 1256SOL    HW115404   2.611   0.329   9.088 -1.0160  0.3933 -1.0669
 1256SOL    HW215405   2.521   0.226   9.145  1.4330 -0.7114  0.6574
 1257SOL     OW15406   2.140   3.534   9.678  0.0286  0.4546 -0.5420
 1257SOL    HW115407   2.081   3.610   9.679 -1.7006 -0.9209  0.7829
 1257SOL    HW215408   2.219   3.568   9.636  1.3453 -0.1088  1.4857
 1258SOL     OW15409   2.890   2.465   4.730  0.1875  0.1676 -0.1999
 1258SOL    HW115410   2.801   2.500   4.740  0.1567  0.1087 -0.2695
 1258SOL    HW215411   2.941   2.515   4.793 -0.6719 -0.6420  1.1417
 1259SOL     OW15412   1.733   1.572  11.650  0.0166 -0.1249 -0.2779
 1259SOL    HW115413   1.706   1.482  11.635 -1.8195  0.0842  1.7691
 1259SOL    HW215414   1.801   1.571  11.716  0.0625 -3.0957 -0.3956
 1260SOL     OW15415   4.485   2.442  13.856  0.0994  1.0494 -0.1461
 1260SOL    HW115416   4.559   2.410  13.906  0.5751  2.5085  0.0729
 1260SOL    HW215417   4.428   2.368  13.876  0.7942 -0.0147 -2.1367
 1261SOL     OW15418   2.311   1.290  13.874  0.0565  0.4325  0.2690
 1261SOL    HW115419   2.377   1.273  13.806  0.0169 -0.5685  0.4721
 1261SOL    HW215420   2.302   1.385  13.871  3.9148  0.7447 -2.7954
 1262SOL     OW15421   0.669   2.451   9.035  0.1210  0.0298  0.2744
 1262SOL    HW115422   0.681   2.360   9.008  1.9539  0.8748 -1.7526
 1262SOL    HW215423   0.644   2.495   8.953  0.7639 -0.8532 -0.3911
 1263SOL     OW15424   1.903   2.475   3.275  0.2378  0.1174 -0.2309
 1263SOL    HW115425   1.989   2.475   3.316 -0.8531  0.6456  2.0326
 1263SOL    HW215426   1.867   2.558   3.305  0.0966  0.6143 -1.7732
 1264SOL     OW15427   1.658   3.573   7.785 -0.2861  0.1331  0.1706
 1264SOL    HW115428   1.732   3.517   7.760 -0.2224 -0.0556  0.7879
 1264SOL    HW215429   1.627   3.598   7.698  1.1856 -1.4828 -0.8148
 1265SOL     OW15430   4.479   2.413   4.854 -0.2496  0.0816  0.0789
 1265SOL    HW115431   4.552   2.432   4.913 -0.6554 -0.4456  0.7512
 1265SOL    HW215432   4.529   2.341   4.815  0.3836  0.4422  0.2206
 1266SOL     OW15433   3.450   1.509   4.575  0.1434  0.2428  0.1819
 1266SOL    HW115434   3.367   1.478   4.611  0.8979 -1.0975  0.7920
 1266SOL    HW215435   3.446   1.596   4.614 -1.8784  1.0714 -1.8968
 1267SOL     OW15436   4.041   2.560   1.617 -0.0498 -0.4980 -0.3488
 1267SOL    HW115437   4.091   2.626   1.666 -1.5301  1.8030 -1.9351
 1267SOL    HW215438   3.960   2.543   1.664  0.4206  0.3914  0.7764
 1268SOL     OW15439   4.125   3.632   2.839  0.0201 -0.3061  0.0316
 1268SOL    HW115440   4.169   3.648   2.922 -1.2461 -0.5641  0.7589
 1268SOL    HW215441   4.052   3.580   2.872  0.5354 -0.3219  1.1452
 1269SOL     OW15442   0.275   4.524   7.467  0.3257 -0.2040  0.0294
 1269SOL    HW115443   0.192   4.478   7.451 -0.2367  1.0656 -0.7396
 1269SOL    HW215444   0.285   4.521   7.562  1.3647  2.5070  0.0047
 1270SOL     OW15445   3.036   3.109   6.300  0.2361 -0.2643 -0.0532
 1270SOL    HW115446   3.087   3.055   6.239  2.1101  0.3958  0.9107
 1270SOL    HW215447   3.099   3.098   6.372 -2.2977 -1.9388  1.9181
 1271SOL     OW15448   2.343   4.494   8.761  0.3539  0.0540 -0.4323
 1271SOL    HW115449   2.256   4.525   8.785 -0.6615 -2.7384 -0.5422
 1271SOL    HW215450   2.392   4.567   8.799 -0.5020  0.2959  0.2052
 1272SOL     OW15451   2.171   2.313   5.235  0.6652  0.2864 -0.6293
 1272SOL    HW115452   2.239   2.374   5.207 -0.1858  1.5285  0.0194
 1272SOL    HW215453   2.206   2.226   5.216  2.7749  0.0224  4.2454
 1273SOL     OW15454   1.006   2.709   7.587  0.5152  0.1384  0.0213
 1273SOL    HW115455   1.083   2.678   7.636  0.4408  1.3483  0.9100
 1273SOL    HW215456   0.927   2.706   7.640  2.1844  0.8433  2.5587
 1274SOL     OW15457   2.094   2.707   7.664  1.0463 -0.5069  0.6330
 1274SOL    HW115458   2.036   2.684   7.591  0.2109 -1.4967  1.6167
 1274SOL    HW215459   2.101   2.800   7.645 -0.1342 -0.6983 -0.8016
 1275SOL     OW15460   1.703   1.905   5.125 -0.0823  0.8276 -0.6500
 1275SOL    HW115461   1.640   1.957   5.075  1.3444  2.5430 -0.6593
 1275SOL    HW215462   1.660   1.821   5.141  0.8070 -0.0095 -2.6460
 1276SOL     OW15463   0.844   1.827  11.103 -0.4477 -0.2278 -0.0746
 1276SOL    HW115464   0.865   1.827  11.197  0.1090 -2.6211 -0.2017
 1276SOL    HW215465   0.900   1.758  11.068  1.4598  0.7017  1.1394
 1277SOL     OW15466   1.470   2.570   6.461 -0.1213  0.3119  0.8243
 1277SOL    HW115467   1.538   2.532   6.405  1.5061  1.0262  2.3272
 1277SOL    HW215468   1.427   2.624   6.394  0.9590 -0.4893 -0.5149
 1278SOL     OW15469   1.018   1.852   0.729  0.4866 -0.2195  0.0420
 1278SOL    HW115470   0.928   1.868   0.757  1.0545  1.9064  0.6138
 1278SOL    HW215471   1.006   1.787   0.660 -0.3963 -2.0472  1.8952
 1279SOL     OW15472   4.223   2.246   3.620 -0.2947 -0.6433 -0.1103
 1279SOL    HW115473   4.188   2.167   3.661  1.4732 -1.9986 -1.2323
 1279SOL    HW215474   4.207   2.313   3.687 -0.5493 -0.5060 -0.3074
 1280SOL     OW15475   3.581   3.391   8.537 -0.0345  0.2815 -0.3497
 1280SOL    HW115476   3.643   3.399   8.610 -0.5455  1.4859 -0.0588
 1280SOL    HW215477   3.589   3.476   8.493  1.1103  1.1227  1.5028
 1281SOL     OW15478   0.441   0.354   7.317 -0.9367 -0.4140 -0.0487
 1281SOL    HW115479   0.368   0.295   7.337 -0.2418 -1.2333  0.0951
 1281SOL    HW215480   0.410   0.394   7.236 -0.2287  1.1704  0.4812
 1282SOL     OW15481   0.438   2.106   8.376  0.2078  0.1274  0.4590
 1282SOL    HW115482   0.470   2.025   8.416 -1.2202  0.3038  2.0159
 1282SOL    HW215483   0.512   2.139   8.326  1.0609 -0.6124  1.2442
 1283SOL     OW15484   2.594   3.171   6.816 -0.5769  0.1320 -0.1358
 1283SOL    HW115485   2.511   3.207   6.784 -0.5288 -0.2565 -0.7133
 1283SOL    HW215486   2.570   3.173   6.908 -0.1718 -0.2592 -0.0215
 1284SOL     OW15487   1.443   4.043   2.719  0.2127  0.4895 -0.1940
 1284SOL    HW115488   1.528   4.058   2.678  0.0140 -1.6451 -1.4082
 1284SOL    HW215489   1.433   3.948   2.710 -0.7295  0.3882  2.0965
 1285SOL     OW15490   1.809   0.737   7.098  0.5957 -1.7830  0.0053
 1285SOL    HW115491   1.757   0.722   7.178 -0.0537 -0.4578 -0.1661
 1285SOL    HW215492   1.790   0.830   7.083 -0.9190 -1.7398  2.0760
 1286SOL     OW15493   3.721   1.935  11.811 -0.0218 -0.1807 -0.0702
 1286SOL    HW115494   3.689   1.881  11.883 -0.8222  1.1774  0.5851
 1286SOL    HW215495   3.655   1.921  11.743  0.5269  1.4263 -0.9479
 1287SOL     OW15496   0.822   4.391   1.590  0.5592 -0.3764  0.0359
 1287SOL    HW115497   0.889   4.404   1.657  0.2116 -0.6178  0.4375
 1287SOL    HW215498   0.767   4.329   1.638 -0.3465 -0.0688 -0.6044
 1288SOL     OW15499   2.120   1.274   1.174  0.3305 -0.0385 -0.1450
 1288SOL    HW115500   2.036   1.230   1.162 -0.3499  1.6889 -1.6468
 1288SOL    HW215501   2.095   1.345   1.233  0.9627  0.9224 -1.0417
 1289SOL     OW15502   3.769   3.952   6.786 -0.6956 -0.3767  0.3125
 1289SOL    HW115503   3.727   3.926   6.705 -1.3311 -1.6495  1.0460
 1289SOL    HW215504   3.752   3.867   6.827  2.8837 -1.2329  0.0454
 1290SOL     OW15505   2.339   2.157   1.339 -0.5795 -0.4092 -0.7850
 1290SOL    HW115506   2.323   2.125   1.251 -2.3788  2.1668 -1.3954
 1290SOL    HW215507   2.417   2.211   1.322  0.1701 -1.8260 -1.8597
 1291SOL     OW15508   3.545   1.795   3.413 -0.0376  0.2183 -0.2283
 1291SOL    HW115509   3.497   1.720   3.377 -1.9860  2.0363 -1.4332
 1291SOL    HW215510   3.517   1.785   3.504 -0.8353  2.0327 -0.2768
 1292SOL     OW15511   3.038   1.976   6.416 -0.0268  0.2543 -0.1424
 1292SOL    HW115512   3.058   2.059   6.373  1.3593 -1.1393 -2.1616
 1292SOL    HW215513   3.006   1.927   6.341  0.3783 -0.0595 -0.1071
 1293SOL     OW15514   4.516   3.987   6.130  0.7946  0.1151  0.4271
 1293SOL    HW115515   4.477   4.075   6.138  0.5134 -0.1317  1.7484
 1293SOL    HW215516   4.517   3.977   6.225  0.9602 -0.6230  0.3454
 1294SOL     OW15517   0.301   0.372   7.943  0.1584 -0.1771  0.1780
 1294SOL    HW115518   0.351   0.344   8.020 -1.3133 -1.0247  0.8220
 1294SOL    HW215519   0.212   0.375   7.977 -0.0970 -0.8522 -0.4274
 1295SOL     OW15520   4.282   3.235  17.089 -0.8204 -0.7249  0.4183
 1295SOL    HW115521   4.312   3.298  17.154  4.2446 -1.2982 -1.3582
 1295SOL    HW215522   4.231   3.181  17.150 -0.1786  1.4809  2.8628
 1296SOL     OW15523   4.229   1.766   5.021  0.0348 -0.6660  0.0264
 1296SOL    HW115524   4.185   1.838   5.066  1.4932  0.6315 -0.6047
 1296SOL    HW215525   4.213   1.700   5.088  0.6912 -0.4422  0.3996
 1297SOL     OW15526   3.324   1.833   7.132  0.0390  0.3539  0.0235
 1297SOL    HW115527   3.412   1.817   7.098  0.0742  0.0989  0.2383
 1297SOL    HW215528   3.327   1.923   7.165  1.9278 -0.0002  0.7887
 1298SOL     OW15529   2.760   2.534   4.444  0.1760  0.3143  0.0138
 1298SOL    HW115530   2.707   2.531   4.524  1.3248  0.6925  0.7853
 1298SOL    HW215531   2.760   2.629   4.446  0.1341  0.3171 -0.1130
 1299SOL     OW15532   2.714   2.218  15.244  0.5536  0.3658  0.4359
 1299SOL    HW115533   2.623   2.189  15.232  0.0475  1.8765  0.5364
 1299SOL    HW215534   2.761   2.146  15.285  0.4747 -0.9489 -1.7799
 1300SOL     OW15535   2.049   2.586   6.247 -0.8038  0.2763 -0.1162
 1300SOL    HW115536   2.029   2.544   6.331 -0.1800 -0.0205 -0.1204
 1300SOL    HW215537   2.083   2.515   6.193 -0.5636 -2.6415  3.8386
 1301SOL     OW15538   2.063   1.888   6.315  0.1435  0.3882 -0.3731
 1301SOL    HW115539   2.057   1.854   6.405  0.8279  0.6213 -0.2411
 1301SOL    HW215540   2.142   1.847   6.282  0.6134 -0.5208  1.8475
 1302SOL     OW15541   0.678   1.200   4.525  0.1816  0.1777 -0.1646
 1302SOL    HW115542   0.631   1.157   4.597  0.0051  0.7447  0.0619
 1302SOL    HW215543   0.657   1.135   4.458  0.9900 -1.4083  1.1129
 1303SOL     OW15544   4.061   1.099  11.738  0.5495  0.2156 -0.2223
 1303SOL    HW115545   4.048   1.113  11.832  1.6959 -0.5488  0.0513
 1303SOL    HW215546   4.138   1.043  11.748 -0.6400 -1.7264 -1.8521
 1304SOL     OW15547   2.482   1.234   0.060  0.2102  0.3785 -0.2012
 1304SOL    HW115548   2.505   1.248  17.727  1.3499 -0.3516 -0.0284
 1304SOL    HW215549   2.478   1.326   0.087  0.3161  0.1077  0.7591
 1305SOL     OW15550   1.493   4.142   5.988 -0.5689 -0.1790  0.1191
 1305SOL    HW115551   1.468   4.135   6.080 -1.5264 -0.6497 -0.1792
 1305SOL    HW215552   1.573   4.196   5.989 -1.0723  0.5724 -0.2225
 1306SOL     OW15553   2.903   3.775  12.503  0.2460  0.4609  0.3295
 1306SOL    HW115554   2.870   3.829  12.432  2.3171  0.9313 -0.2965
 1306SOL    HW215555   2.874   3.828  12.577  1.8168 -2.0400  2.7292
 1307SOL     OW15556   0.583   4.306   4.910 -0.2886 -0.2440  0.3781
 1307SOL    HW115557   0.552   4.224   4.949  1.4908  0.1552  2.6566
 1307SOL    HW215558   0.655   4.321   4.971 -1.9335  2.7453  1.5564
 1308SOL     OW15559   3.427   3.498  11.721 -0.0457  0.2981 -0.5953
 1308SOL    HW115560   3.447   3.460  11.806  0.6591 -0.2525 -1.0130
 1308SOL    HW215561   3.338   3.462  11.721  0.1141 -0.0652  0.8406
 1309SOL     OW15562   0.183   1.062   6.476 -0.4299  0.1772 -0.3696
 1309SOL    HW115563   0.256   1.003   6.460  0.0289  0.7584 -0.4460
 1309SOL    HW215564   0.197   1.084   6.568 -2.9241  0.6717 -0.1082
 1310SOL     OW15565   2.349   4.474   8.014  0.4800 -0.0324  0.2901
 1310SOL    HW115566   2.317   4.489   8.103 -1.2027 -0.2538 -0.2793
 1310SOL    HW215567   2.301   4.398   7.981  0.0810  0.1055  0.5591
 1311SOL     OW15568   0.938   3.730   2.005  0.5308  0.1180  0.0696
 1311SOL    HW115569   0.908   3.640   2.022  0.7913  0.1563  0.7225
 1311SOL    HW215570   1.032   3.715   2.020 -0.0813 -2.6975  1.1319
 1312SOL     OW15571   2.226   0.065   1.558  0.4115  0.4796  0.6146
 1312SOL    HW115572   2.310   0.029   1.586  2.5951  3.6924 -1.8912
 1312SOL    HW215573   2.169   4.733   1.584  1.4007 -0.6337 -0.3154
 1313SOL     OW15574   1.380   2.451  16.900  0.2735 -0.4641 -0.4779
 1313SOL    HW115575   1.411   2.394  16.971 -1.4850 -0.2764  0.4540
 1313SOL    HW215576   1.419   2.534  16.926  0.3240 -0.7255  0.2823
 1314SOL     OW15577   0.951   0.888  17.561  0.2610 -0.0870 -0.1597
 1314SOL    HW115578   1.013   0.859  17.494 -1.5140 -0.8866 -1.4583
 1314SOL    HW215579   0.937   0.802  17.600 -1.7384  0.9102  1.2557
 1315SOL     OW15580   3.135   1.112   2.503 -0.1136  0.0947 -0.6160
 1315SOL    HW115581   3.205   1.134   2.564 -0.5882 -0.0991 -0.0057
 1315SOL    HW215582   3.096   1.199   2.488  1.5877  0.5009 -2.7100
 1316SOL     OW15583   4.457   2.092   4.202  0.6584 -0.0410  0.0687
 1316SOL    HW115584   4.405   2.058   4.130  1.3844  0.5608 -0.7432
 1316SOL    HW215585   4.453   2.187   4.187 -1.8583 -0.1286  0.1758
 1317SOL     OW15586   3.936   0.220   0.985  0.3616 -0.8908 -0.5062
 1317SOL    HW115587   3.968   0.308   1.004  1.4837 -1.5642  0.7413
 1317SOL    HW215588   3.958   0.176   1.067 -2.4246 -1.5406 -0.1132
 1318SOL     OW15589   1.235   3.397   3.310 -0.2680 -0.3897 -0.3501
 1318SOL    HW115590   1.272   3.464   3.252  0.3222  0.8675  1.4908
 1318SOL    HW215591   1.252   3.438   3.395  1.6735 -1.1650 -0.3655
 1319SOL     OW15592   1.175   3.432   7.826  0.2090  0.0950  0.3715
 1319SOL    HW115593   1.183   3.470   7.914 -0.2719  0.6122  0.1884
 1319SOL    HW215594   1.217   3.346   7.835 -0.7302 -0.0693  3.3903
 1320SOL     OW15595   3.206   4.058   7.584 -0.4273  0.2094 -0.2895
 1320SOL    HW115596   3.291   4.049   7.627 -1.0916  0.5679  1.0889
 1320SOL    HW215597   3.167   4.121   7.645  1.1131  0.5242  0.3577
 1321SOL     OW15598   2.221   2.386   1.826  0.4991 -0.4228  0.7509
 1321SOL    HW115599   2.180   2.438   1.895 -0.7559  0.4615 -0.6643
 1321SOL    HW215600   2.286   2.436   1.777 -0.4261  1.2420  1.2060
 1322SOL     OW15601   1.457   2.703   0.593 -0.8741  0.0922  0.0763
 1322SOL    HW115602   1.483   2.784   0.549 -1.0810 -0.8767 -1.7841
 1322SOL    HW215603   1.362   2.711   0.595 -0.8000  0.9030  0.2152
 1323SOL     OW15604   1.776   4.251   3.136  0.1837 -0.0985  0.0111
 1323SOL    HW115605   1.843   4.257   3.068 -1.8754  1.3509 -1.8989
 1323SOL    HW215606   1.817   4.304   3.205  0.4575  0.5276 -0.6283
 1324SOL     OW15607   4.310   3.108  12.526  0.0343 -0.1314 -0.0375
 1324SOL    HW115608   4.254   3.068  12.459  0.5819 -0.8524 -0.0692
 1324SOL    HW215609   4.256   3.180  12.559 -0.4680 -0.5882  0.1574
 1325SOL     OW15610   1.358   2.859   9.927 -0.4463 -0.0233 -0.4491
 1325SOL    HW115611   1.335   2.936   9.980 -1.4278  0.6270 -1.8409
 1325SOL    HW215612   1.287   2.798   9.947  0.8646 -2.1218 -2.0598
 1326SOL     OW15613   1.666   0.751   7.572 -0.2398 -0.1220 -0.2538
 1326SOL    HW115614   1.669   0.657   7.591 -0.4791 -0.0171  0.2946
 1326SOL    HW215615   1.712   0.748   7.488 -0.2236 -0.8150 -0.2206
 1327SOL     OW15616   2.561   4.223   4.765  0.3940 -0.5247  0.5140
 1327SOL    HW115617   2.535   4.307   4.803  0.3717  0.5584 -1.9332
 1327SOL    HW215618   2.648   4.251   4.739 -0.8173 -0.1826 -3.1080
 1328SOL     OW15619   4.219   2.645   7.766  0.0769 -0.1456 -0.1526
 1328SOL    HW115620   4.178   2.713   7.711 -2.2282  0.7294  2.6528
 1328SOL    HW215621   4.265   2.701   7.828  0.6761 -0.4051 -0.3703
 1329SOL     OW15622   2.740   2.811   8.267 -0.1050  0.2568 -0.1948
 1329SOL    HW115623   2.682   2.736   8.259 -0.0278  0.2650 -0.8840
 1329SOL    HW215624   2.827   2.772   8.271 -0.4309 -0.6426 -1.9818
 1330SOL     OW15625   4.079   4.391   9.074  0.7858  0.5756 -0.4691
 1330SOL    HW115626   4.058   4.304   9.109  1.8448 -0.3100 -2.0534
 1330SOL    HW215627   4.011   4.401   9.007  0.5000 -0.3443 -0.3240
 1331SOL     OW15628   4.611   0.743   1.689  0.3693 -0.7692 -0.3744
 1331SOL    HW115629   4.604   0.696   1.605 -0.2498  1.3807 -1.5249
 1331SOL    HW215630   4.525   0.720   1.723  1.5965  0.8255  3.7557
 1332SOL     OW15631   0.271   0.226  15.680  0.1039 -0.1568 -0.5216
 1332SOL    HW115632   0.246   0.158  15.617  1.3075 -0.8002 -0.2929
 1332SOL    HW215633   0.341   0.267  15.630  0.1641  0.9729  0.4970
 1333SOL     OW15634   0.594   3.605   1.851 -0.1983  0.3468  0.3215
 1333SOL    HW115635   0.531   3.628   1.783 -0.7386  2.6420  1.6339
 1333SOL    HW215636   0.549   3.651   1.921 -0.1291  1.6151 -0.4777
 1334SOL     OW15637   1.404   2.173   7.857  0.5696  0.2928 -0.2349
 1334SOL    HW115638   1.327   2.159   7.801 -0.4747  1.8079  0.8277
 1334SOL    HW215639   1.360   2.150   7.940 -1.2486  2.0048 -0.7283
 1335SOL     OW15640   4.602   0.002   2.212  0.2742 -0.2590  0.5141
 1335SOL    HW115641   4.650   0.034   2.288  0.9683 -2.7665  1.1265
 1335SOL    HW215642   4.517   0.009   2.253  0.1199 -0.2953  0.2029
 1336SOL     OW15643   1.477   2.146  11.368  0.2463 -0.1850  0.6423
 1336SOL    HW115644   1.420   2.074  11.396 -0.4262  0.2065  0.2820
 1336SOL    HW215645   1.495   2.131  11.275 -1.2459 -0.2575  0.3638
 1337SOL     OW15646   0.582   3.336   3.876  0.0433 -0.1625 -0.3122
 1337SOL    HW115647   0.495   3.298   3.861 -0.0873  0.1350 -0.3122
 1337SOL    HW215648   0.610   3.297   3.958 -0.2572 -1.1132 -0.6595
 1338SOL     OW15649   2.655   1.304   5.798  0.8714  0.3275  0.6244
 1338SOL    HW115650   2.617   1.237   5.740 -0.5752 -0.1887  2.1797
 1338SOL    HW215651   2.633   1.273   5.886 -2.5678  2.3990  0.4547
 1339SOL     OW15652   1.928   0.056   6.651 -0.6378 -0.0715 -0.0375
 1339SOL    HW115653   1.887   0.115   6.714 -0.6168 -0.8783  0.7315
 1339SOL    HW215654   2.007   0.027   6.698 -0.2334  0.6223 -0.2784
 1340SOL     OW15655   2.782   0.698   3.466  0.0812 -0.5655 -0.3942
 1340SOL    HW115656   2.792   0.709   3.560 -0.4207 -2.2283 -0.1296
 1340SOL    HW215657   2.778   0.603   3.448  2.2760 -0.5257 -1.0240
 1341SOL     OW15658   4.258   1.981   5.397 -0.3323  0.5386  0.8968
 1341SOL    HW115659   4.310   1.944   5.326  0.8684 -0.5863  2.3800
 1341SOL    HW215660   4.277   2.074   5.383 -0.7073  0.4622 -0.1288
 1342SOL     OW15661   3.821   3.652   4.637  0.1182 -0.3372 -0.4463
 1342SOL    HW115662   3.771   3.657   4.719 -0.0536 -0.4672 -0.5433
 1342SOL    HW215663   3.797   3.562   4.617 -1.4363 -0.1045  0.3960
 1343SOL     OW15664   2.337   3.042   7.302  0.5501  0.4323 -0.2552
 1343SOL    HW115665   2.400   3.095   7.350  1.6815 -0.8169 -0.3758
 1343SOL    HW215666   2.266   3.105   7.289  0.3712  0.5618  1.3653
 1344SOL     OW15667   1.776   0.651   8.292 -0.1335 -0.3270 -0.3084
 1344SOL    HW115668   1.785   0.603   8.374  2.0909  3.4987  1.6795
 1344SOL    HW215669   1.701   0.709   8.302  0.6638  0.5341  0.6213
 1345SOL     OW15670   2.187   0.250  17.353  0.3396 -0.1045 -0.0470
 1345SOL    HW115671   2.203   0.336  17.392 -3.1329 -0.3415  1.8615
 1345SOL    HW215672   2.156   0.213  17.435 -0.1275  0.1465 -0.1105
 1346SOL     OW15673   0.966   1.660   2.384 -0.0805 -0.3666 -0.6009
 1346SOL    HW115674   0.939   1.569   2.375 -0.1095 -0.2814 -1.3775
 1346SOL    HW215675   0.913   1.715   2.326 -1.1110 -1.4383 -0.6760
 1347SOL     OW15676   0.673   2.852   9.106  0.1905 -0.1378 -0.6843
 1347SOL    HW115677   0.713   2.908   9.173 -0.6505  0.7525 -0.9109
 1347SOL    HW215678   0.607   2.802   9.154 -0.1591  0.7903 -0.1824
 1348SOL     OW15679   2.623   1.750   6.176 -0.0216  0.5397  0.6492
 1348SOL    HW115680   2.687   1.706   6.119  0.2192  0.5104  0.9468
 1348SOL    HW215681   2.659   1.833   6.205  0.1397  0.9044 -0.5901
 1349SOL     OW15682   2.884   4.533   3.867 -0.0353 -0.2246 -0.0003
 1349SOL    HW115683   2.920   4.528   3.955  0.9655 -0.2923 -0.4200
 1349SOL    HW215684   2.843   4.446   3.870 -0.2578 -0.0867  0.9607
 1350SOL     OW15685   1.081   4.678   6.056 -0.2891  0.0175  0.1226
 1350SOL    HW115686   1.151   4.626   6.016 -0.3805 -0.6623  0.8718
 1350SOL    HW215687   1.031   4.701   5.977  0.3483  0.0455 -0.2739
 1351SOL     OW15688   0.868   2.743   8.927 -0.3201 -0.2563 -0.6855
 1351SOL    HW115689   0.899   2.700   9.006 -0.9472 -1.6464 -1.1924
 1351SOL    HW215690   0.801   2.797   8.968  0.7679  1.4772 -1.1520
 1352SOL     OW15691   2.975   1.495   0.655 -0.0402  0.2532 -0.1397
 1352SOL    HW115692   2.905   1.498   0.590 -0.1001 -1.2394 -0.1420
 1352SOL    HW215693   3.055   1.501   0.601 -0.0494 -2.1723 -0.4551
 1353SOL     OW15694   4.635   4.315   4.782 -0.0529 -0.1740  0.3047
 1353SOL    HW115695   4.700   4.267   4.832 -0.1784 -0.3026  0.3452
 1353SOL    HW215696   4.618   4.391   4.838  0.7039 -1.0999  1.7604
 1354SOL     OW15697   1.422   2.532   7.448  0.3840  0.1886 -0.1593
 1354SOL    HW115698   1.362   2.458   7.445 -0.1412  0.6075 -0.1351
 1354SOL    HW215699   1.376   2.573   7.522  0.5411 -2.3811  1.3690
 1355SOL     OW15700   0.113   1.172   4.150  0.1632  0.3923 -0.5955
 1355SOL    HW115701   0.070   1.214   4.225 -1.5509 -1.3804 -0.5902
 1355SOL    HW215702   0.106   1.246   4.089  1.3560  0.4591 -0.6566
 1356SOL     OW15703   1.491   1.650  14.663  0.0900  0.1706  0.6091
 1356SOL    HW115704   1.567   1.609  14.621  1.1603  0.5193  2.1923
 1356SOL    HW215705   1.526   1.675  14.749 -2.0255  0.8188  1.2858
 1357SOL     OW15706   3.134   2.428   2.167 -0.5701 -0.0344 -0.5644
 1357SOL    HW115707   3.215   2.469   2.135 -0.1960 -1.7882 -1.8720
 1357SOL    HW215708   3.096   2.500   2.218 -1.1411 -2.0334  1.7880
 1358SOL     OW15709   4.686   4.702   1.950  0.2937 -0.3876 -0.5603
 1358SOL    HW115710   0.031   4.664   1.970  1.3346  0.6451 -2.9868
 1358SOL    HW215711   4.641   4.722   2.032  0.5571  0.1810 -0.5533
 1359SOL     OW15712   2.420   2.470   2.087 -0.6259 -0.6141  0.2217
 1359SOL    HW115713   2.336   2.501   2.053  0.3999  1.0397 -0.8116
 1359SOL    HW215714   2.474   2.496   2.013  3.1118 -3.6491  1.9183
 1360SOL     OW15715   1.674   1.420   3.228 -0.2058  0.4260  0.1101
 1360SOL    HW115716   1.607   1.363   3.190  1.6098 -1.4625 -0.2159
 1360SOL    HW215717   1.633   1.421   3.315  0.2575  0.4012  0.3291
 1361SOL     OW15718   1.825   3.848   2.722  0.1217 -0.4599  0.1847
 1361SOL    HW115719   1.821   3.936   2.761 -0.5802  0.1188 -1.1867
 1361SOL    HW215720   1.819   3.863   2.628  0.9238  0.7178  0.3146
 1362SOL     OW15721   1.509   2.109   2.995 -0.3734  0.1900  0.5427
 1362SOL    HW115722   1.550   2.104   2.909  0.9069 -0.8341  1.2089
 1362SOL    HW215723   1.586   2.088   3.047  0.9040  2.0585 -0.5938
 1363SOL     OW15724   0.323   0.553   8.340 -0.1219 -0.5308  0.1860
 1363SOL    HW115725   0.248   0.588   8.293 -0.7595  0.0150  1.6196
 1363SOL    HW215726   0.306   0.460   8.347 -1.1082 -0.5063 -1.9630
 1364SOL     OW15727   2.441   0.410   1.396 -0.4228 -0.5441  0.2345
 1364SOL    HW115728   2.397   0.379   1.317  0.2253  1.7860 -1.0295
 1364SOL    HW215729   2.462   0.501   1.374  0.9485 -0.5510  1.5314
 1365SOL     OW15730   1.339   1.729   8.462  0.5960  0.4290  0.0987
 1365SOL    HW115731   1.388   1.801   8.421  0.9731 -0.4958 -1.0648
 1365SOL    HW215732   1.363   1.745   8.553 -3.2216  1.1489  0.9615
 1366SOL     OW15733   3.127   4.063   6.065 -0.1624  0.0876  0.3518
 1366SOL    HW115734   3.201   4.017   6.025  0.1664 -0.9778  2.1971
 1366SOL    HW215735   3.105   4.127   5.997 -0.1018 -2.9122 -2.4933
 1367SOL     OW15736   3.727   0.357  10.825 -0.1235 -0.1054 -0.1207
 1367SOL    HW115737   3.664   0.396  10.764 -0.9218 -0.8673  0.2232
 1367SOL    HW215738   3.683   0.384  10.905 -0.5155 -2.0542  0.3254
 1368SOL     OW15739   0.634   2.021   8.048 -0.3729  0.3681 -0.0891
 1368SOL    HW115740   0.719   2.012   8.006 -1.8038 -2.4213 -2.3465
 1368SOL    HW215741   0.654   2.089   8.112  2.3815 -1.0535  0.5777
 1369SOL     OW15742   0.128   4.118   2.558 -0.0593 -0.1740 -0.3366
 1369SOL    HW115743   0.052   4.169   2.531 -1.5373 -0.9256  2.3878
 1369SOL    HW215744   0.115   4.134   2.652  0.5287  0.1394 -0.3112
 1370SOL     OW15745   0.917   1.551   6.301  0.0026 -0.5059  0.3473
 1370SOL    HW115746   1.011   1.558   6.287 -0.0590 -1.6823 -0.6872
 1370SOL    HW215747   0.893   1.643   6.293  0.3655 -0.3438  1.1233
 1371SOL     OW15748   0.319   4.704   4.002  0.2377 -0.3480  0.8117
 1371SOL    HW115749   0.330   4.614   4.033  0.0865 -0.5185  0.3734
 1371SOL    HW215750   0.236   4.724   4.046 -0.7047  0.3581 -1.3179
 1372SOL     OW15751   0.759   2.170   5.809 -0.3027  1.0546 -0.1315
 1372SOL    HW115752   0.825   2.138   5.871 -0.5053  1.1754  0.1412
 1372SOL    HW215753   0.681   2.162   5.864 -1.2117 -1.3982 -1.7522
 1373SOL     OW15754   3.495   2.155   5.131 -0.2609  0.4315 -0.2081
 1373SOL    HW115755   3.519   2.104   5.054  0.4071  0.3356  0.0714
 1373SOL    HW215756   3.411   2.189   5.099  0.2251  0.1550 -1.7546
 1374SOL     OW15757   0.437   1.107  16.469  0.2033  0.2347 -0.0007
 1374SOL    HW115758   0.491   1.156  16.532  0.1181  0.6044 -0.2125
 1374SOL    HW215759   0.510   1.055  16.435  1.5138  2.1326 -0.1378
 1375SOL     OW15760   2.412   1.462  16.095  0.2109  0.1260  0.1310
 1375SOL    HW115761   2.342   1.522  16.119  1.0554  1.1395  0.0692
 1375SOL    HW215762   2.449   1.430  16.177 -1.7592 -0.9073  0.6274
 1376SOL     OW15763   4.085   4.153   9.171  0.6162  0.1432 -0.6923
 1376SOL    HW115764   4.111   4.080   9.116  1.0533 -0.5309  0.4010
 1376SOL    HW215765   4.088   4.116   9.260  0.4413 -0.6419 -1.0132
 1377SOL     OW15766   1.354   3.288   8.313  0.2400  0.3668  0.5126
 1377SOL    HW115767   1.281   3.269   8.372 -0.6431  1.1564 -0.3129
 1377SOL    HW215768   1.400   3.356   8.363 -0.2173 -0.7135  2.4199
 1378SOL     OW15769   3.169   3.630   1.885  0.3190  0.0895  0.1174
 1378SOL    HW115770   3.239   3.604   1.944 -0.1271 -2.3793 -0.4331
 1378SOL    HW215771   3.160   3.552   1.830  1.9875  0.5731 -0.8518
 1379SOL     OW15772   2.513   0.990   8.108  0.1870 -0.0451  0.1111
 1379SOL    HW115773   2.517   1.051   8.035  1.0952  0.6306  0.7358
 1379SOL    HW215774   2.424   1.008   8.136  0.9367  2.4060  0.8636
 1380SOL     OW15775   2.457   1.400  10.113  0.1064 -0.1783 -0.0384
 1380SOL    HW115776   2.408   1.384  10.194  1.0953 -1.5065  0.3067
 1380SOL    HW215777   2.449   1.493  10.095 -0.9522 -0.4821 -1.1093
 1381SOL     OW15778   0.834   3.278   8.714  0.1364  0.2793 -0.1050
 1381SOL    HW115779   0.903   3.213   8.727  0.6695  0.7336 -0.6052
 1381SOL    HW215780   0.852   3.293   8.621 -1.8802  1.6395 -0.2796
 1382SOL     OW15781   0.122   1.925   9.908 -0.2274  0.8431 -1.1385
 1382SOL    HW115782   0.197   1.866   9.899  0.4018  1.4432  0.2950
 1382SOL    HW215783   0.055   1.859   9.925 -0.0990  1.0249  0.0694
 1383SOL     OW15784   2.819   0.338   2.237 -0.3461  0.5318  0.1969
 1383SOL    HW115785   2.901   0.338   2.287  0.1766 -1.5245 -0.6561
 1383SOL    HW215786   2.832   0.276   2.166 -0.1645  1.1797 -0.3346
 1384SOL     OW15787   2.125   3.429   5.635  0.5959 -0.5465  0.0134
 1384SOL    HW115788   2.163   3.351   5.594 -0.3453 -1.0704  0.1352
 1384SOL    HW215789   2.067   3.382   5.695  1.3012 -0.2779  0.9017
 1385SOL     OW15790   0.456   4.211   6.635  0.2723 -0.0481  0.5858
 1385SOL    HW115791   0.434   4.153   6.709 -0.3090 -0.0235  0.4330
 1385SOL    HW215792   0.526   4.256   6.681  0.5379 -0.9918  1.0918
 1386SOL     OW15793   2.912   0.971   9.982 -0.0435 -0.3293  0.2360
 1386SOL    HW115794   2.866   1.016  10.053  1.1452  1.7073 -0.2784
 1386SOL    HW215795   2.915   0.879  10.008 -2.3206 -1.0297 -2.0320
 1387SOL     OW15796   0.750   0.253  15.827  0.0373 -0.1286 -0.0393
 1387SOL    HW115797   0.813   0.292  15.767 -1.1198 -0.1844 -1.2737
 1387SOL    HW215798   0.732   0.165  15.796 -0.6942  0.2309 -0.6509
 1388SOL     OW15799   4.396   0.698  17.624  0.2186  0.2015 -0.1831
 1388SOL    HW115800   4.423   0.788  17.642  1.3092 -0.4806  1.6383
 1388SOL    HW215801   4.302   0.712  17.616 -0.1790 -1.4786  1.6969
 1389SOL     OW15802   3.872   1.944   3.663  0.3663  0.2128 -0.1161
 1389SOL    HW115803   3.839   1.950   3.573  1.5636 -0.9644 -0.6394
 1389SOL    HW215804   3.911   2.030   3.680 -1.4951  1.4106 -1.8222
 1390SOL     OW15805   2.876   4.347  13.328 -0.3653 -0.0338 -0.0059
 1390SOL    HW115806   2.796   4.312  13.368  0.6562 -2.0205  0.2740
 1390SOL    HW215807   2.896   4.289  13.255 -1.7821 -3.7015  2.5301
 1391SOL     OW15808   1.314   0.497   5.464  0.0371 -0.3090  0.3580
 1391SOL    HW115809   1.281   0.417   5.503  1.5595 -0.2076  1.8641
 1391SOL    HW215810   1.351   0.461   5.383  2.3493  0.7876  0.9135
 1392SOL     OW15811   2.633   1.479   7.322  0.0360 -0.0144 -0.4389
 1392SOL    HW115812   2.631   1.488   7.418  0.1278 -1.0791 -0.3426
 1392SOL    HW215813   2.650   1.385   7.319  0.7978  0.1129 -0.2424
 1393SOL     OW15814   1.447   3.024   3.731  0.1371 -0.2818 -0.4701
 1393SOL    HW115815   1.425   3.101   3.678 -0.6154  1.0784  1.8342
 1393SOL    HW215816   1.380   2.958   3.712  0.8674 -0.5695 -2.0564
 1394SOL     OW15817   0.323   1.195   6.705 -0.2751 -0.3255 -0.1954
 1394SOL    HW115818   0.352   1.104   6.710 -2.0967 -0.8905 -0.0076
 1394SOL    HW215819   0.361   1.220   6.789 -2.8980  1.9127  0.3223
 1395SOL     OW15820   0.002   1.233   2.329 -0.5336  0.3716 -0.7208
 1395SOL    HW115821   0.076   1.259   2.274  0.6121 -3.3472 -0.9346
 1395SOL    HW215822   0.026   1.140   2.319 -0.3656  0.3310  0.1183
 1396SOL     OW15823   4.468   2.719   5.401 -0.0143  0.6795 -0.2614
 1396SOL    HW115824   4.508   2.718   5.314  0.1154 -1.2972 -0.1856
 1396SOL    HW215825   4.374   2.722   5.381 -0.3522  0.1193  1.2475
 1397SOL     OW15826   2.450   0.678  16.052 -0.6165 -0.4885  0.6181
 1397SOL    HW115827   2.376   0.650  16.106 -0.2955  1.2466  1.9619
 1397SOL    HW215828   2.482   0.588  16.045 -1.3799 -0.6533 -0.5792
 1398SOL     OW15829   4.450   2.230   5.574 -0.0353 -0.7537  0.5428
 1398SOL    HW115830   4.420   2.177   5.648 -1.0733 -0.9183  0.0050
 1398SOL    HW215831   4.402   2.190   5.502 -0.7175 -1.3570  1.3385
 1399SOL     OW15832   1.974   0.358   5.138 -0.0161 -0.2059  0.2430
 1399SOL    HW115833   1.981   0.271   5.176 -1.4717 -0.6630 -0.5069
 1399SOL    HW215834   1.896   0.389   5.183  0.7038  0.4298  1.0295
 1400SOL     OW15835   2.164   0.192   8.339 -0.5283  0.3276 -0.9461
 1400SOL    HW115836   2.149   0.258   8.271  1.2389  0.1224 -1.5412
 1400SOL    HW215837   2.246   0.158   8.303 -0.4065  0.0175 -0.3783
 1401SOL     OW15838   4.695   1.628  15.490 -0.4248 -0.2767  0.4915
 1401SOL    HW115839   0.047   1.615  15.509  0.3530  0.3194 -2.8868
 1401SOL    HW215840   4.692   1.636  15.394  0.2541 -0.4228  0.4582
 1402SOL     OW15841   0.474   2.488   2.028  0.2747  0.2944  0.2464
 1402SOL    HW115842   0.461   2.393   2.023  1.4122  0.2389 -2.0256
 1402SOL    HW215843   0.557   2.485   1.979  0.7418  0.8618  0.9981
 1403SOL     OW15844   0.697   2.715   4.933  0.3399  0.8142  0.3361
 1403SOL    HW115845   0.748   2.635   4.948 -0.1991  0.2647 -0.7589
 1403SOL    HW215846   0.647   2.692   4.854 -0.7701  0.6376  1.0972
 1404SOL     OW15847   2.951   2.236   2.152  0.3354  0.0614 -0.1472
 1404SOL    HW115848   3.030   2.288   2.168  1.3642 -1.7755  0.8024
 1404SOL    HW215849   2.986   2.148   2.166 -0.1402 -0.1919 -0.5748
 1405SOL     OW15850   4.151   2.803  11.348 -0.2264  0.1866  0.1999
 1405SOL    HW115851   4.199   2.732  11.389 -0.3297  1.3614  2.3614
 1405SOL    HW215852   4.070   2.764  11.317 -0.0826  0.3356 -0.3633
 1406SOL     OW15853   2.092   1.720   7.656 -0.4839  0.3503 -0.2003
 1406SOL    HW115854   2.028   1.726   7.585  1.0026  0.7827 -1.4899
 1406SOL    HW215855   2.116   1.812   7.661  2.4796 -0.5690  2.2166
 1407SOL     OW15856   3.429   0.698   6.678 -0.1704  0.4289  0.5206
 1407SOL    HW115857   3.405   0.789   6.664 -0.3637  0.2958 -0.0507
 1407SOL    HW215858   3.360   0.666   6.619  0.1611 -1.5438  1.2106
 1408SOL     OW15859   0.056   0.091   4.083 -0.5005 -0.2000 -0.1992
 1408SOL    HW115860   4.721   0.146   4.061 -0.8762 -0.6173  0.0414
 1408SOL    HW215861   0.012   0.017   4.125 -1.7062  1.2639  1.1345
 1409SOL     OW15862   2.678   2.489   6.202  0.2955 -0.3514  0.2063
 1409SOL    HW115863   2.671   2.560   6.265 -0.4408 -0.9597  0.8098
 1409SOL    HW215864   2.588   2.477   6.172  0.3665 -2.9281  0.9980
 1410SOL     OW15865   1.287   2.930   7.680 -0.0092  0.1938  0.9244
 1410SOL    HW115866   1.227   2.860   7.707 -0.4051  0.9504  2.0107
 1410SOL    HW215867   1.306   2.970   7.765  1.4165  1.1667  0.1438
 1411SOL     OW15868   4.626   0.414   3.695  0.2081 -0.5249  0.2956
 1411SOL    HW115869   4.641   0.359   3.618 -1.0353 -1.1603  0.4996
 1411SOL    HW215870   4.647   0.499   3.658  0.3947  0.2552  2.1653
 1412SOL     OW15871   4.049   0.813   4.757  0.0537 -0.1684 -0.7343
 1412SOL    HW115872   4.082   0.864   4.683  1.1682  1.9219  1.2224
 1412SOL    HW215873   3.959   0.795   4.727 -0.7749  0.8330  1.1706
 1413SOL     OW15874   4.342   4.631  14.377 -1.3496 -0.2101 -0.0095
 1413SOL    HW115875   4.408   4.624  14.446  0.2460 -0.4251 -1.5615
 1413SOL    HW215876   4.260   4.625  14.426  0.0806 -0.7987  2.3267
 1414SOL     OW15877   2.418   0.712  11.986 -0.0616  0.5013 -0.7010
 1414SOL    HW115878   2.459   0.654  11.922  1.0234 -0.1592  0.5823
 1414SOL    HW215879   2.344   0.658  12.014  0.5183 -0.5219 -1.1581
 1415SOL     OW15880   3.245   3.171   2.079 -0.3330 -0.0325 -0.3269
 1415SOL    HW115881   3.155   3.163   2.048 -1.0630  0.4932  1.6309
 1415SOL    HW215882   3.294   3.091   2.062  0.2059 -0.3374  2.5084
 1416SOL     OW15883   4.645   0.245  11.114  0.9308 -0.2628 -1.3096
 1416SOL    HW115884   4.686   0.268  11.198  0.0690  1.2017 -1.2985
 1416SOL    HW215885   4.676   0.320  11.063 -0.5003  1.4980  0.4041
 1417SOL     OW15886   3.287   0.286  11.272 -0.0028 -0.3124 -0.4011
 1417SOL    HW115887   3.382   0.274  11.276 -0.3900 -3.7130 -1.5815
 1417SOL    HW215888   3.271   0.343  11.348  2.2645 -0.4167  0.1531
 1418SOL     OW15889   0.078   1.601   9.094 -0.0062  0.1035 -0.3166
 1418SOL    HW115890   0.084   1.679   9.039  1.6327  0.1532 -0.0689
 1418SOL    HW215891   4.729   1.593   9.128  0.4700 -1.6785  0.5132
 1419SOL     OW15892   0.045   3.627  15.848  0.1115 -0.2996 -0.3016
 1419SOL    HW115893   0.072   3.719  15.849 -0.9354  0.0138 -0.1744
 1419SOL    HW215894   0.090   3.609  15.931  0.9433  0.0391 -0.6797
 1420SOL     OW15895   2.006   3.603  10.357  0.4350  0.6067 -0.1993
 1420SOL    HW115896   2.046   3.686  10.383  1.3892 -0.9666  3.3399
 1420SOL    HW215897   2.004   3.607  10.261  0.3194 -0.3813 -0.2362
 1421SOL     OW15898   4.537   3.475   3.769 -0.0821 -0.2300 -0.3313
 1421SOL    HW115899   4.550   3.565   3.740 -0.3186 -0.3302 -0.7457
 1421SOL    HW215900   4.626   3.440   3.764 -0.5180 -1.2476 -1.0082
 1422SOL     OW15901   0.545   2.771  11.532 -0.0876 -0.3123  0.3377
 1422SOL    HW115902   0.518   2.780  11.440 -1.8168 -2.4322  0.6361
 1422SOL    HW215903   0.490   2.702  11.569  1.3832 -0.1650  2.7585
 1423SOL     OW15904   3.562   0.153   2.719 -0.1440  0.2862 -0.0626
 1423SOL    HW115905   3.520   0.175   2.636 -2.0672  0.0172  0.8388
 1423SOL    HW215906   3.595   0.243   2.729  1.4941 -0.1517 -1.5458
 1424SOL     OW15907   1.436   0.709   6.526  1.0712 -0.2002 -0.4367
 1424SOL    HW115908   1.474   0.724   6.439  0.6585  1.7942 -0.2756
 1424SOL    HW215909   1.383   0.788   6.539  0.1473 -0.8943 -0.0355
 1425SOL     OW15910   3.230   1.537   3.400  0.4145 -0.2071  0.3930
 1425SOL    HW115911   3.296   1.484   3.356  1.2909  1.8938 -0.8489
 1425SOL    HW215912   3.188   1.570   3.320  2.0723  2.1766  0.5078
 1426SOL     OW15913   2.803   2.200  11.865 -0.1836 -0.2561  0.7348
 1426SOL    HW115914   2.840   2.167  11.783 -1.3001  0.0459  0.1177
 1426SOL    HW215915   2.713   2.213  11.837 -0.4485 -0.7341  1.3742
 1427SOL     OW15916   1.910   0.883  15.925  0.4482 -0.4553  0.3420
 1427SOL    HW115917   1.945   0.971  15.933  0.5157 -0.3749 -0.8729
 1427SOL    HW215918   1.964   0.828  15.983 -0.5933  0.4258  2.1245
 1428SOL     OW15919   2.158   3.941   2.397 -0.0112  0.1340 -0.3934
 1428SOL    HW115920   2.183   3.960   2.307 -2.1016  2.1297 -0.5666
 1428SOL    HW215921   2.142   4.024   2.442  1.0928 -0.1228  0.4702
 1429SOL     OW15922   1.708   1.293  17.482  0.2912  0.4729 -0.3003
 1429SOL    HW115923   1.776   1.257  17.425 -0.8734 -1.0547 -0.7524
 1429SOL    HW215924   1.632   1.264  17.432 -0.2838  0.7998  0.3945
 1430SOL     OW15925   4.546   0.429   6.153  0.2605 -0.4246  0.7502
 1430SOL    HW115926   4.635   0.462   6.169  0.0964  0.4163 -0.0846
 1430SOL    HW215927   4.498   0.492   6.206  1.2954  0.8285  0.1906
 1431SOL     OW15928   4.588   2.828   8.559  0.4727 -0.1378 -0.2601
 1431SOL    HW115929   4.565   2.740   8.591  0.1740 -0.0376 -0.2031
 1431SOL    HW215930   4.536   2.829   8.479 -0.9004  4.0202  0.6790
 1432SOL     OW15931   0.746   0.105   5.437  0.3542  0.1144  0.1973
 1432SOL    HW115932   0.799   0.032   5.468 -0.3187 -0.2595  0.4632
 1432SOL    HW215933   0.804   0.169   5.397  1.7117 -0.6028  1.0080
 1433SOL     OW15934   2.725   4.435   7.573  0.3446 -0.4445 -0.7193
 1433SOL    HW115935   2.738   4.530   7.571  3.5743 -0.9373 -2.7131
 1433SOL    HW215936   2.693   4.420   7.484 -1.3839 -1.3247  0.0524
 1434SOL     OW15937   2.950   2.629   3.241  0.0532 -0.0585  0.0030
 1434SOL    HW115938   2.946   2.660   3.332 -1.5750 -0.3559  0.0249
 1434SOL    HW215939   2.947   2.534   3.244 -0.3073 -0.0433  0.0798
 1435SOL     OW15940   3.810   1.711   9.298  0.5122  0.0506  0.2080
 1435SOL    HW115941   3.840   1.798   9.325  0.3646  0.0994  0.2159
 1435SOL    HW215942   3.726   1.698   9.343  0.6823 -0.7937  0.2898
 1436SOL     OW15943   0.212   2.682  16.108 -0.5512  0.3919 -0.3876
 1436SOL    HW115944   0.268   2.749  16.148 -0.6446  0.0381  0.3349
 1436SOL    HW215945   0.121   2.710  16.124  0.8292  3.2326  2.5933
 1437SOL     OW15946   0.211   2.873   4.250 -0.0900 -0.0069 -0.3684
 1437SOL    HW115947   0.306   2.873   4.248 -0.1204 -1.1383 -1.9267
 1437SOL    HW215948   0.199   2.881   4.344 -0.6490 -0.0059 -0.4352
 1438SOL     OW15949   2.911   3.487   9.555 -0.4205 -0.2532 -0.0994
 1438SOL    HW115950   3.001   3.513   9.578 -0.5946 -0.5578  0.8902
 1438SOL    HW215951   2.864   3.541   9.618 -0.4038 -0.8830  0.4468
 1439SOL     OW15952   0.610   0.252   4.259 -0.3485  0.2274 -0.2518
 1439SOL    HW115953   0.549   0.185   4.290  0.7118 -0.7220 -0.1937
 1439SOL    HW215954   0.658   0.200   4.194  1.5488 -0.4393  1.6585
 1440SOL     OW15955   1.419   2.864   9.362  0.3880  0.3623  0.0600
 1440SOL    HW115956   1.513   2.883   9.353  0.4086 -0.3524 -1.1995
 1440SOL    HW215957   1.411   2.912   9.444  0.4141 -0.0736  0.3155
 1441SOL     OW15958   0.700   1.207   6.474 -0.6227  0.1096 -0.1003
 1441SOL    HW115959   0.699   1.222   6.568 -0.4349  4.0435 -0.7303
 1441SOL    HW215960   0.608   1.204   6.447  0.1226 -4.3815 -2.2471
 1442SOL     OW15961   4.579   4.663   9.605 -0.5618  0.2195 -0.5119
 1442SOL    HW115962   4.657   4.638   9.653 -1.2137 -2.4162 -0.8290
 1442SOL    HW215963   4.563   4.583   9.555  3.5227 -1.5537  1.0901
 1443SOL     OW15964   3.182   1.917  16.076  0.1125  0.2593  0.2652
 1443SOL    HW115965   3.094   1.895  16.044 -0.3957  0.9299  1.2221
 1443SOL    HW215966   3.190   1.841  16.133  1.2966 -0.5643 -0.9949
 1444SOL     OW15967   2.186   0.785   4.810 -0.3788  0.3609 -0.2246
 1444SOL    HW115968   2.108   0.802   4.863  1.7682  4.5690  1.5416
 1444SOL    HW215969   2.224   0.872   4.805  2.5206 -0.8050  1.5189
 1445SOL     OW15970   1.822   2.618   0.434  0.5414 -0.5643  0.2787
 1445SOL    HW115971   1.799   2.642   0.524  0.3429  2.1597 -0.5184
 1445SOL    HW215972   1.769   2.539   0.426  0.3646 -0.2600 -1.4305
 1446SOL     OW15973   1.238   3.695  17.455  0.2769 -0.0598 -0.1580
 1446SOL    HW115974   1.285   3.661  17.530  0.4393  0.5672  0.0135
 1446SOL    HW215975   1.173   3.624  17.447 -0.2554  0.6733 -2.3618
 1447SOL     OW15976   2.275   0.768   3.636 -0.0426 -0.9192 -0.0867
 1447SOL    HW115977   2.354   0.726   3.668  0.5045  0.4224  0.3082
 1447SOL    HW215978   2.229   0.783   3.719 -0.1125 -1.0995 -0.0943
 1448SOL     OW15979   2.950   0.904   7.250  0.6523 -0.0155 -0.1482
 1448SOL    HW115980   2.993   0.879   7.168  1.1191  2.4093 -0.6493
 1448SOL    HW215981   2.906   0.825   7.282  0.4984  0.0774 -0.1293
 1449SOL     OW15982   3.545   2.854   8.573  0.5786  0.2866  0.3843
 1449SOL    HW115983   3.576   2.926   8.520 -1.7917  0.5778 -0.5978
 1449SOL    HW215984   3.498   2.796   8.513  1.0954  0.2927 -0.0280
 1450SOL     OW15985   2.242   2.047  16.657 -0.6998 -0.1152 -0.2561
 1450SOL    HW115986   2.194   2.079  16.734  1.4735  0.5043  0.8599
 1450SOL    HW215987   2.201   1.963  16.639 -1.3161  0.0285  0.4454
 1451SOL     OW15988   0.725   4.730   9.551 -0.3033  0.0590  0.4598
 1451SOL    HW115989   0.668   0.052   9.506  0.0311  0.6682  0.8819
 1451SOL    HW215990   0.702   0.016   9.641 -0.3242  0.1198  0.4369
 1452SOL     OW15991   1.057   0.044   9.195 -0.1553 -0.4316  0.1653
 1452SOL    HW115992   0.982   0.079   9.147 -0.5889 -0.3703  0.8946
 1452SOL    HW215993   1.059   4.698   9.153 -2.0707 -1.0489  1.3594
 1453SOL     OW15994   0.556   4.479   1.580 -0.5794 -0.3729  0.5411
 1453SOL    HW115995   0.645   4.472   1.546 -0.3582  0.4693  0.9331
 1453SOL    HW215996   0.544   4.574   1.593  1.1377  0.2369 -2.3211
 1454SOL     OW15997   2.127   4.380   3.657  0.3590 -0.5096 -0.1016
 1454SOL    HW115998   2.132   4.408   3.748  0.2230 -2.4496  0.5142
 1454SOL    HW215999   2.083   4.457   3.620 -1.0649 -0.1995  2.2344
 1455SOL     OW16000   4.291   2.335   3.236  0.6647 -0.2120 -0.0695
 1455SOL    HW116001   4.295   2.404   3.170 -2.5788  0.0297 -0.0278
 1455SOL    HW216002   4.206   2.353   3.276  0.8516  0.9796 -0.2033
 1456SOL     OW16003   0.522   3.428  16.993  0.1320 -0.0809 -0.4551
 1456SOL    HW116004   0.583   3.357  16.975 -1.1137 -1.0318 -0.9645
 1456SOL    HW216005   0.440   3.379  17.006 -0.7680  1.7040  0.6950
 1457SOL     OW16006   3.325   0.105   5.679 -0.0754  0.0229 -0.0659
 1457SOL    HW116007   3.271   0.114   5.758 -1.4330 -0.2688 -0.9515
 1457SOL    HW216008   3.407   0.064   5.706 -0.3431 -0.9214 -0.6930
 1458SOL     OW16009   2.882   0.372   1.927  0.4173 -0.1733 -0.6651
 1458SOL    HW116010   2.792   0.383   1.957  1.1835  1.6312  1.0134
 1458SOL    HW216011   2.877   0.388   1.833  0.1802  1.4368 -0.3867
 1459SOL     OW16012   0.571   0.798   9.361 -0.3953  0.2802 -0.2339
 1459SOL    HW116013   0.479   0.822   9.372 -0.0402  0.4034  2.4603
 1459SOL    HW216014   0.600   0.834   9.277 -2.6358  1.1745 -0.6090
 1460SOL     OW16015   3.769   0.933   4.969  0.3202  0.3857 -0.3099
 1460SOL    HW116016   3.822   1.010   4.948  0.6389  0.1365 -0.4278
 1460SOL    HW216017   3.794   0.876   4.896 -2.0956  0.2745 -1.0517
 1461SOL     OW16018   3.526   2.249   6.692  0.2100 -0.6365  0.6354
 1461SOL    HW116019   3.470   2.230   6.617  0.4173  2.2055 -0.2380
 1461SOL    HW216020   3.557   2.327   6.646 -0.4491 -1.1650 -0.7155
 1462SOL     OW16021   2.833   4.167   2.680  0.5153  0.3130  0.1902
 1462SOL    HW116022   2.879   4.091   2.646  2.0515  2.1374 -1.8086
 1462SOL    HW216023   2.815   4.219   2.602  3.9039  2.1659  0.6713
 1463SOL     OW16024   2.951   4.310   6.579 -0.0108 -0.0696 -0.6908
 1463SOL    HW116025   3.043   4.285   6.576  0.3889  1.2724  0.4549
 1463SOL    HW216026   2.921   4.226   6.615  1.8575 -0.1675  0.6275
 1464SOL     OW16027   2.807   1.349   8.771 -0.0849 -0.0345 -0.4862
 1464SOL    HW116028   2.799   1.390   8.685  0.5047  0.3755 -0.3423
 1464SOL    HW216029   2.901   1.330   8.778 -0.6984 -3.0326 -0.2867
 1465SOL     OW16030   0.220   1.923   5.556 -0.5238  0.1527  0.0080
 1465SOL    HW116031   0.271   1.860   5.505 -0.0407 -0.8295  1.7190
 1465SOL    HW216032   0.267   1.942   5.637  0.5706 -2.1676 -0.1073
 1466SOL     OW16033   1.983   3.373   8.193  0.3169  0.5479 -0.6318
 1466SOL    HW116034   2.016   3.411   8.112 -0.2475  2.6480  0.1268
 1466SOL    HW216035   2.031   3.290   8.185  3.2256  2.2319 -0.7611
 1467SOL     OW16036   0.576   4.110   8.807  0.4376  0.5996  0.1432
 1467SOL    HW116037   0.584   4.026   8.762 -3.5177 -0.1296  0.7720
 1467SOL    HW216038   0.543   4.084   8.893 -0.5290 -3.5450 -1.4510
 1468SOL     OW16039   2.050   2.015   7.502  0.0527 -0.2660  0.2394
 1468SOL    HW116040   2.072   2.084   7.440 -0.8699  1.6069  2.0006
 1468SOL    HW216041   1.962   1.991   7.474 -0.8213  3.1850  0.1096
 1469SOL     OW16042   2.309   2.572   5.485  0.7604 -0.3222 -0.2109
 1469SOL    HW116043   2.233   2.522   5.514  0.4502 -0.8501 -1.9884
 1469SOL    HW216044   2.322   2.536   5.398  0.5305 -1.2586  0.1436
 1470SOL     OW16045   1.371   3.781   2.801  0.0681  0.4516  0.4730
 1470SOL    HW116046   1.301   3.733   2.845  1.0359 -0.5544  0.9102
 1470SOL    HW216047   1.429   3.706   2.787  1.4280  1.3092  1.5522
 1471SOL     OW16048   0.179   0.785   5.993  0.2283  0.3979  0.0980
 1471SOL    HW116049   0.239   0.857   6.014 -1.2846  1.4467  0.7505
 1471SOL    HW216050   0.244   0.727   5.952 -0.1597 -0.0094  0.0521
 1472SOL     OW16051   4.357   0.052   3.749  0.3693 -0.0830  0.6505
 1472SOL    HW116052   4.281   0.005   3.715 -0.2701  1.3315  0.1303
 1472SOL    HW216053   4.418   0.034   3.678  1.8200 -0.5532  2.0160
 1473SOL     OW16054   4.474   3.417   6.533  0.0282  0.8079 -0.2572
 1473SOL    HW116055   4.389   3.376   6.548  1.1237 -0.1714  3.3619
 1473SOL    HW216056   4.465   3.475   6.458 -2.6115  0.5304 -0.1452
 1474SOL     OW16057   2.361   1.316   2.507 -1.0195  0.2479 -0.0445
 1474SOL    HW116058   2.339   1.251   2.441 -0.7423  0.6995 -0.5744
 1474SOL    HW216059   2.436   1.356   2.465  1.0688  0.0552  3.5289
 1475SOL     OW16060   4.175   0.799  16.508  0.0091 -0.3803  0.2945
 1475SOL    HW116061   4.136   0.886  16.510  1.6927  0.3739  0.5851
 1475SOL    HW216062   4.235   0.796  16.433  1.0112  0.5829  1.0578
 1476SOL     OW16063   3.386   1.211   4.942 -0.1251  0.0193  0.2231
 1476SOL    HW116064   3.388   1.219   4.847 -0.8406  0.0777  0.2135
 1476SOL    HW216065   3.473   1.240   4.971  0.4618  0.0590 -1.6038
 1477SOL     OW16066   1.937   0.495   8.823 -0.0664  0.0785  0.2277
 1477SOL    HW116067   2.022   0.523   8.791 -0.6457  1.5335 -0.0230
 1477SOL    HW216068   1.921   0.423   8.761  0.9813 -1.7966  2.1206
 1478SOL     OW16069   3.497   4.572   9.470 -0.2567 -0.3748  0.0867
 1478SOL    HW116070   3.464   4.653   9.431 -0.6185 -1.1985 -1.3216
 1478SOL    HW216071   3.466   4.575   9.560  0.7135  3.2716  0.2628
 1479SOL     OW16072   3.734   2.351  15.841 -0.9439  0.5208 -0.6195
 1479SOL    HW116073   3.700   2.318  15.924 -0.1662  2.0316  0.3100
 1479SOL    HW216074   3.788   2.278  15.810  0.8164  1.1460  0.9648
 1480SOL     OW16075   3.115   0.148   8.526 -0.1951  0.0631  0.3014
 1480SOL    HW116076   3.022   0.128   8.517  0.2175 -1.6170 -0.1304
 1480SOL    HW216077   3.129   0.175   8.617  1.1003  0.1957  0.0642
 1481SOL     OW16078   3.111   4.264   7.765  0.3614  0.6553  0.1114
 1481SOL    HW116079   3.080   4.351   7.742  0.2423  0.3915 -0.7160
 1481SOL    HW216080   3.066   4.244   7.848 -0.5925 -0.9067 -0.7660
 1482SOL     OW16081   1.806   3.810   4.075 -0.0088 -0.0320  0.3422
 1482SOL    HW116082   1.795   3.721   4.042  1.4188 -0.4148  0.9115
 1482SOL    HW216083   1.803   3.794   4.169 -0.9712  0.1355  0.3388
 1483SOL     OW16084   0.353   1.332   6.467  0.1424  0.9636  0.0628
 1483SOL    HW116085   0.333   1.262   6.405  0.5243  0.6073  0.3494
 1483SOL    HW216086   0.318   1.290   6.545  0.5932 -1.2079 -0.9279
 1484SOL     OW16087   0.533   1.888   3.921  0.0845 -0.0374 -0.2141
 1484SOL    HW116088   0.444   1.923   3.914  0.7238  1.3615 -1.2222
 1484SOL    HW216089   0.558   1.932   4.002  0.5284 -0.5630 -0.0630
 1485SOL     OW16090   1.809   4.336   2.121 -0.2208 -0.4887  0.1051
 1485SOL    HW116091   1.722   4.298   2.134 -0.3686 -0.3652 -0.5060
 1485SOL    HW216092   1.823   4.327   2.027  0.0706 -0.2449  0.1257
 1486SOL     OW16093   0.016   0.308   8.263  1.0738 -0.1893  0.5963
 1486SOL    HW116094   4.684   0.247   8.280 -0.1438  1.2356  0.5212
 1486SOL    HW216095   0.086   0.245   8.248  0.6593 -0.5259  0.0810
 1487SOL     OW16096   2.116   3.617   3.321 -0.2746  0.6946 -0.1454
 1487SOL    HW116097   2.067   3.665   3.255 -1.8481  0.2819  0.7209
 1487SOL    HW216098   2.202   3.604   3.280 -1.2276 -0.1780 -1.8661
 1488SOL     OW16099   1.415   3.748   1.464 -0.3006 -0.1897  0.1621
 1488SOL    HW116100   1.485   3.779   1.522 -1.1799  1.1780  0.4887
 1488SOL    HW216101   1.385   3.667   1.506 -1.8323  0.4293  0.2537
 1489SOL     OW16102   2.240   3.552   3.013  0.2016  0.0803 -0.6298
 1489SOL    HW116103   2.233   3.633   2.962 -1.7385  1.4588  1.8191
 1489SOL    HW216104   2.335   3.546   3.023  0.4443  1.5926 -1.9410
 1490SOL     OW16105   3.179   0.252   9.042 -0.3077  0.5723  0.5880
 1490SOL    HW116106   3.109   0.316   9.029  1.7643  2.5992 -0.8026
 1490SOL    HW216107   3.220   0.302   9.113  0.6801 -0.4622  0.7520
 1491SOL     OW16108   4.183   1.601  16.753 -0.3109 -0.3998  0.8755
 1491SOL    HW116109   4.173   1.546  16.675 -0.4878 -0.1197  0.7010
 1491SOL    HW216110   4.276   1.620  16.756 -0.1489 -1.0815 -0.0197
 1492SOL     OW16111   3.198   0.083   5.917 -0.0581 -0.0655 -0.2928
 1492SOL    HW116112   3.274   0.062   5.972 -0.0905  0.3639 -0.0857
 1492SOL    HW216113   3.131   0.096   5.985  0.0634 -0.1263 -0.1604
 1493SOL     OW16114   2.526   1.929   8.531 -0.4227 -0.3661 -0.0974
 1493SOL    HW116115   2.598   1.991   8.547  0.9489 -1.8650 -0.5097
 1493SOL    HW216116   2.564   1.846   8.502 -0.7215 -0.4142 -0.3476
 1494SOL     OW16117   2.726   0.064   4.317  0.0323 -0.2191  0.0292
 1494SOL    HW116118   2.796   0.017   4.362  2.5334  1.5784 -1.9912
 1494SOL    HW216119   2.657   4.738   4.312 -0.4943  0.4038 -0.8800
 1495SOL     OW16120   3.440   2.991   3.559  0.6480  0.3306 -0.0050
 1495SOL    HW116121   3.398   3.076   3.576  1.0279  0.5481 -0.1425
 1495SOL    HW216122   3.424   2.942   3.640 -0.8413  2.8125  1.2126
 1496SOL     OW16123   1.472   2.692  13.260  0.5215 -0.0827 -0.2554
 1496SOL    HW116124   1.560   2.700  13.223  1.4640  1.8087  2.4462
 1496SOL    HW216125   1.420   2.659  13.186 -1.0268 -1.2447  1.3305
 1497SOL     OW16126   0.651   0.604   4.879  0.2019  0.0294  0.0358
 1497SOL    HW116127   0.559   0.606   4.852  0.9358 -0.0286 -2.4186
 1497SOL    HW216128   0.641   0.570   4.968 -0.4327 -0.9685 -0.4206
 1498SOL     OW16129   1.805   3.675  17.248  0.0250  0.4642  0.1348
 1498SOL    HW116130   1.767   3.762  17.238 -1.9532 -0.3165  1.0022
 1498SOL    HW216131   1.861   3.696  17.322  1.2916 -1.5876 -0.2438
 1499SOL     OW16132   1.009   3.294   6.645 -0.3743  0.3674  0.4662
 1499SOL    HW116133   1.094   3.307   6.604 -1.6457 -0.9452 -2.5472
 1499SOL    HW216134   1.012   3.201   6.664 -2.2604  0.1889 -0.0244
 1500SOL     OW16135   0.364   3.400   2.925 -0.2439 -0.1445  0.1074
 1500SOL    HW116136   0.398   3.341   2.857 -0.2148 -0.9110  0.7893
 1500SOL    HW216137   0.402   3.484   2.901 -0.3877 -0.2270 -0.4189
 1501SOL     OW16138   4.288   1.506   9.134 -0.1456 -0.4636  0.2965
 1501SOL    HW116139   4.327   1.455   9.206  0.5793  2.0818  1.7214
 1501SOL    HW216140   4.205   1.532   9.174 -0.9460  0.5287 -2.0346
 1502SOL     OW16141   3.245   3.950   1.438  0.2328 -0.0965  0.3465
 1502SOL    HW116142   3.219   4.033   1.396  1.7025  0.5129  0.6451
 1502SOL    HW216143   3.171   3.889   1.438  2.0911 -2.3202 -0.1819
 1503SOL     OW16144   2.096   1.247   8.301 -0.0953 -0.6044 -0.5254
 1503SOL    HW116145   2.152   1.308   8.349 -0.2422  0.2503 -1.4259
 1503SOL    HW216146   2.100   1.283   8.212 -2.5182  0.3085 -0.2679
 1504SOL     OW16147   0.781   0.761   6.214  0.7888 -0.5265  0.2027
 1504SOL    HW116148   0.748   0.673   6.192  0.7906 -0.2826 -0.7755
 1504SOL    HW216149   0.841   0.769   6.140 -2.3682  1.2127 -2.1656
 1505SOL     OW16150   4.475   1.053   8.559 -0.2933 -0.2367 -0.6641
 1505SOL    HW116151   4.533   1.070   8.633 -2.3355 -1.0476  1.1498
 1505SOL    HW216152   4.402   1.113   8.576 -1.0163 -1.0709 -0.7726
 1506SOL     OW16153   1.029   0.516   7.500  0.3426 -0.1207 -0.7462
 1506SOL    HW116154   1.015   0.450   7.568  1.4084  0.0365 -0.3748
 1506SOL    HW216155   1.041   0.599   7.545  0.1492 -1.3176  1.5069
 1507SOL     OW16156   2.509   2.324   8.323  0.2940 -0.0266 -0.2324
 1507SOL    HW116157   2.452   2.281   8.387 -0.0698  1.5024  0.4628
 1507SOL    HW216158   2.526   2.248   8.267 -0.9160  1.1528 -2.2058
 1508SOL     OW16159   1.975   1.507   9.057 -0.0030  0.7529  0.3052
 1508SOL    HW116160   1.984   1.546   8.970 -1.3476 -1.7939 -0.9454
 1508SOL    HW216161   2.034   1.561   9.111 -0.2873  0.5673  0.8038
 1509SOL     OW16162   1.916   2.000   3.984 -0.4334 -0.2928 -0.0463
 1509SOL    HW116163   1.885   1.986   4.073  0.8286  0.7307  0.5463
 1509SOL    HW216164   1.922   1.911   3.949  3.7865 -0.1724  0.3514
 1510SOL     OW16165   2.952   0.569   1.171 -0.5469 -0.2635 -0.3989
 1510SOL    HW116166   3.042   0.539   1.175 -1.0098 -1.3467  1.9141
 1510SOL    HW216167   2.949   0.610   1.257  1.6064 -2.9411  0.9215
 1511SOL     OW16168   1.796   1.903   2.673 -0.1092  0.2527  0.0870
 1511SOL    HW116169   1.828   1.834   2.614  1.3067  2.1770 -1.3827
 1511SOL    HW216170   1.756   1.853   2.745  1.4826 -1.2649 -0.0746
 1512SOL     OW16171   1.886   0.036   7.139 -0.3002  0.6421 -0.4693
 1512SOL    HW116172   1.847   4.706   7.087 -1.5654  2.0701 -1.4658
 1512SOL    HW216173   1.897   0.101   7.069  0.6628  0.6908 -0.2669
 1513SOL     OW16174   3.712   0.150   7.332 -0.2673  0.1499  0.1277
 1513SOL    HW116175   3.717   0.227   7.276 -1.4738  0.2213  0.1188
 1513SOL    HW216176   3.803   0.141   7.360 -0.2769 -0.9482 -0.2124
 1514SOL     OW16177   3.167   1.014   7.624  0.2163 -0.2308  0.1966
 1514SOL    HW116178   3.085   0.978   7.590  0.6826 -0.6559 -0.4724
 1514SOL    HW216179   3.130   1.089   7.671  2.3566  0.3800  0.9190
 1515SOL     OW16180   2.478   1.517   5.922 -0.5251  0.5121  0.0409
 1515SOL    HW116181   2.506   1.426   5.908 -1.8297 -0.0045  0.7804
 1515SOL    HW216182   2.410   1.508   5.856 -1.4448 -1.8605  1.2921
 1516SOL     OW16183   4.099   3.400   3.726  0.1852  0.6632  0.3472
 1516SOL    HW116184   4.174   3.375   3.673 -1.1880  1.7840 -2.1273
 1516SOL    HW216185   4.044   3.322   3.714  0.3079  0.5403  0.5822
 1517SOL     OW16186   1.369   4.349   8.131  0.3414 -0.1508 -0.3956
 1517SOL    HW116187   1.326   4.434   8.128  0.3028 -0.1357  0.5964
 1517SOL    HW216188   1.352   4.321   8.041  2.4869 -1.3678 -0.4283
 1518SOL     OW16189   0.495   2.958   7.216 -0.0447  0.2423 -0.7089
 1518SOL    HW116190   0.425   3.008   7.174 -1.1275  0.5314  1.4448
 1518SOL    HW216191   0.560   2.944   7.147 -2.0093 -1.9140 -2.1033
 1519SOL     OW16192   3.673   1.880  10.673 -0.7208  0.4119  0.6294
 1519SOL    HW116193   3.678   1.806  10.733 -2.7754 -0.2589 -0.0416
 1519SOL    HW216194   3.688   1.937  10.748 -4.2930  1.6653  0.3955
 1520SOL     OW16195   1.860   3.180   8.934  0.3634  0.1217  0.1211
 1520SOL    HW116196   1.948   3.143   8.948  0.2074  0.4916  2.1299
 1520SOL    HW216197   1.838   3.137   8.852 -3.2697  0.2854  1.0210
 1521SOL     OW16198   3.350   3.470   5.281  0.8651 -0.2913  0.5118
 1521SOL    HW116199   3.391   3.552   5.306  0.7757 -0.1115  0.0712
 1521SOL    HW216200   3.353   3.430   5.368  0.2335 -3.7430 -1.0576
 1522SOL     OW16201   2.941   2.189   6.630  0.3086  0.3288  0.0413
 1522SOL    HW116202   2.900   2.135   6.563  1.3589 -0.6884  0.2266
 1522SOL    HW216203   2.861   2.207   6.680 -0.8067 -2.1490 -0.8756
 1523SOL     OW16204   1.161   0.911   3.631  0.2214  0.7044 -0.4797
 1523SOL    HW116205   1.189   1.002   3.623  2.1226  0.0928 -0.8974
 1523SOL    HW216206   1.158   0.902   3.726 -0.6271  0.9282 -0.4900
 1524SOL     OW16207   2.109   2.704   2.995 -0.0609  0.3482 -0.1925
 1524SOL    HW116208   2.113   2.791   3.034 -0.4365  0.1508  0.2942
 1524SOL    HW216209   2.067   2.729   2.913 -0.7755 -1.2279 -0.3167
 1525SOL     OW16210   1.270   4.411   3.706 -0.4091 -0.4466 -0.6417
 1525SOL    HW116211   1.338   4.409   3.773  2.1641  1.8379 -3.2091
 1525SOL    HW216212   1.320   4.427   3.626 -0.1916  0.4569 -0.3214
 1526SOL     OW16213   1.870   0.749   0.974 -0.2667  0.7380 -0.1189
 1526SOL    HW116214   1.872   0.694   0.896  1.1622 -2.5466  2.2259
 1526SOL    HW216215   1.816   0.825   0.951  1.3265  1.3079 -1.8571
 1527SOL     OW16216   0.121   2.359   4.316 -0.1153  0.0944 -0.8025
 1527SOL    HW116217   0.042   2.408   4.338  0.1072  0.0143  0.1679
 1527SOL    HW216218   0.113   2.373   4.221 -0.1643  1.1308 -0.6381
 1528SOL     OW16219   3.071   4.557   2.712 -0.1428 -0.0156 -0.5362
 1528SOL    HW116220   3.020   4.494   2.661 -0.7649 -0.5704  0.7423
 1528SOL    HW216221   3.060   4.515   2.798  0.9568  0.9168  0.0615
 1529SOL     OW16222   2.847   3.504   9.295 -0.1420  0.4900  0.0766
 1529SOL    HW116223   2.756   3.529   9.280 -0.9442 -2.8066 -0.5505
 1529SOL    HW216224   2.841   3.498   9.390  0.8190 -2.3518 -0.0572
 1530SOL     OW16225   3.871   3.680   9.394 -0.0984  0.4927  0.1559
 1530SOL    HW116226   3.790   3.727   9.375  0.5666  1.4996 -0.1606
 1530SOL    HW216227   3.842   3.589   9.405  1.4392 -0.0768 -0.6506
 1531SOL     OW16228   4.179   0.489  13.292 -0.6408  0.3088 -0.2721
 1531SOL    HW116229   4.153   0.544  13.218  3.8544  3.1985  0.3204
 1531SOL    HW216230   4.130   0.407  13.279 -0.9205  0.2845  0.9707
 1532SOL     OW16231   1.757   4.125  12.345  0.2442 -0.3655  0.1946
 1532SOL    HW116232   1.805   4.168  12.416 -1.0834 -0.5459  1.2044
 1532SOL    HW216233   1.677   4.109  12.394 -0.8130  1.2083 -0.9801
 1533SOL     OW16234   2.412   4.456   3.744  0.4386  0.3119  0.6266
 1533SOL    HW116235   2.386   4.521   3.679  2.8872  2.0188  1.3460
 1533SOL    HW216236   2.331   4.429   3.786  0.6870  2.4211  2.4259
 1534SOL     OW16237   3.078   1.702   8.216  0.0575  0.6307 -0.8887
 1534SOL    HW116238   3.041   1.673   8.133  0.5834 -3.4405  0.3031
 1534SOL    HW216239   3.032   1.780   8.246 -0.8650 -0.6590  1.0742
 1535SOL     OW16240   3.728   0.268  10.541 -0.3534 -0.2452 -0.7439
 1535SOL    HW116241   3.760   0.225  10.620 -0.6401  0.0386 -0.4743
 1535SOL    HW216242   3.703   0.354  10.575 -0.9098 -0.4185 -0.7189
 1536SOL     OW16243   0.870   0.685   4.746 -0.0360  0.0474 -0.2075
 1536SOL    HW116244   0.789   0.667   4.795  1.1116 -0.0217  1.6401
 1536SOL    HW216245   0.875   0.614   4.682  2.5094 -0.6775  0.8251
 1537SOL     OW16246   1.418   1.782   6.456  0.1651  0.1306 -0.6570
 1537SOL    HW116247   1.428   1.698   6.500  0.9610  0.6906  0.2388
 1537SOL    HW216248   1.368   1.831   6.522  2.6928  1.9489 -0.0955
 1538SOL     OW16249   4.548   0.994  11.873 -0.0927 -0.2061  0.2664
 1538SOL    HW116250   4.546   0.946  11.956  0.5219 -1.1892 -0.2900
 1538SOL    HW216251   4.604   0.942  11.816 -0.7098 -2.6473  1.8768
 1539SOL     OW16252   3.979   1.237   4.185 -0.3980 -0.1492  0.0917
 1539SOL    HW116253   4.060   1.220   4.233 -1.1498 -1.1205  1.0318
 1539SOL    HW216254   4.003   1.319   4.142  2.3543 -0.1872  1.5676
 1540SOL     OW16255   3.575   0.797   7.571  0.0681  0.0651 -0.4512
 1540SOL    HW116256   3.503   0.744   7.606  1.0582 -0.2586  1.0733
 1540SOL    HW216257   3.518   0.858   7.524  0.6635  0.8546 -0.1508
 1541SOL     OW16258   2.086   3.743   8.729  0.5184 -0.0431  0.0617
 1541SOL    HW116259   2.088   3.674   8.795 -2.2067 -2.5225 -2.4806
 1541SOL    HW216260   2.009   3.733   8.673  1.1497  1.5157 -1.1025
 1542SOL     OW16261   0.047   0.727  16.862 -0.5689  0.1816 -0.6664
 1542SOL    HW116262   4.718   0.792  16.870 -0.4701  0.2368 -0.2502
 1542SOL    HW216263   0.046   0.716  16.767  0.1773  1.9497 -0.8804
 1543SOL     OW16264   0.029   3.674   5.733  0.1967 -0.1903 -0.3265
 1543SOL    HW116265   4.688   3.707   5.772 -0.8502  1.0091 -3.4695
 1543SOL    HW216266   0.033   3.724   5.651 -1.1701  0.5593  0.0672
 1544SOL     OW16267   2.218   2.120   1.572 -0.1939  0.0461 -0.3995
 1544SOL    HW116268   2.271   2.199   1.560 -1.9045  1.1193 -0.9271
 1544SOL    HW216269   2.253   2.071   1.498  1.3645  1.4502 -0.5934
 1545SOL     OW16270   4.666   1.013   3.181 -0.1708 -0.1032 -0.1326
 1545SOL    HW116271   4.653   0.939   3.121  1.9954  0.4579 -1.3216
 1545SOL    HW216272   4.625   1.084   3.131 -0.3451  1.4315  2.1954
 1546SOL     OW16273   3.533   4.590   5.204 -0.2342 -0.1619  0.3079
 1546SOL    HW116274   3.600   4.618   5.266  1.3562 -1.2648 -0.9054
 1546SOL    HW216275   3.569   4.512   5.162  1.8855  0.6919  0.5450
 1547SOL     OW16276   2.748   2.137  16.057 -0.6299  0.0364  0.0236
 1547SOL    HW116277   2.753   2.046  16.088 -1.8075 -0.4445 -1.1678
 1547SOL    HW216278   2.832   2.149  16.014  0.1038  0.6037  1.6150
 1548SOL     OW16279   3.433   0.257  10.413  0.3553 -0.4108  0.9401
 1548SOL    HW116280   3.520   0.291  10.435  0.1526  1.2884 -0.8521
 1548SOL    HW216281   3.380   0.281  10.489 -0.5281  0.4321  0.0480
 1549SOL     OW16282   3.536   1.079   6.726 -0.4116  0.5197  0.5207
 1549SOL    HW116283   3.472   1.015   6.693  0.4595 -0.0601 -0.0336
 1549SOL    HW216284   3.532   1.146   6.657  1.9211 -0.3624 -0.4642
 1550SOL     OW16285   0.453   3.567   7.915  0.0736 -0.3485 -0.8007
 1550SOL    HW116286   0.386   3.525   7.862  1.2348  0.4259 -2.8903
 1550SOL    HW216287   0.454   3.657   7.880 -1.8841  0.9483  2.5452
 1551SOL     OW16288   2.130   3.166  12.814 -0.0259 -0.1121 -0.2056
 1551SOL    HW116289   2.040   3.171  12.783  0.2157  0.7506 -0.7880
 1551SOL    HW216290   2.110   3.161  12.907  0.3463 -0.1742 -0.1295
 1552SOL     OW16291   3.749   0.143   1.597 -0.0296  0.0963 -0.0165
 1552SOL    HW116292   3.763   0.056   1.634  0.8111 -0.3622 -1.4093
 1552SOL    HW216293   3.835   0.180   1.615  0.9346 -2.2222  0.1597
 1553SOL     OW16294   3.829   2.097  13.622  0.0671 -0.3722  0.0163
 1553SOL    HW116295   3.865   2.053  13.545  3.3054 -1.5406  2.1951
 1553SOL    HW216296   3.745   2.051  13.636 -0.9775  1.2853 -0.8891
 1554SOL     OW16297   4.054   1.408   4.829  0.3780 -0.0073  0.2300
 1554SOL    HW116298   4.143   1.440   4.814  0.1562 -0.2681 -1.6446
 1554SOL    HW216299   4.009   1.491   4.843  2.6960  1.0829  1.2313
 1555SOL     OW16300   2.589   1.430   2.361 -0.7435 -0.4647 -0.2738
 1555SOL    HW116301   2.613   1.401   2.273  0.1246 -0.1034 -0.1537
 1555SOL    HW216302   2.564   1.515   2.325 -1.3223 -0.8991 -0.9097
 1556SOL     OW16303   2.288   4.623   5.442  0.2568  0.2279 -0.2412
 1556SOL    HW116304   2.383   4.608   5.442  0.0346 -1.0773  1.1222
 1556SOL    HW216305   2.275   4.651   5.532  0.1399 -1.5958  0.3055
 1557SOL     OW16306   0.229   0.228   3.899 -0.3036 -0.5594  0.3022
 1557SOL    HW116307   0.140   0.193   3.908  0.1451 -1.5253  1.0279
 1557SOL    HW216308   0.273   0.143   3.906  0.4521 -0.2024 -0.1886
 1558SOL     OW16309   0.360   3.631  16.920 -0.1955  0.1580 -0.0876
 1558SOL    HW116310   0.299   3.561  16.945  2.0885 -1.1449  1.8588
 1558SOL    HW216311   0.444   3.592  16.943  1.5576  3.4733 -0.9977
 1559SOL     OW16312   1.814   4.265   5.198 -0.0123 -0.0432  0.1617
 1559SOL    HW116313   1.858   4.346   5.223  0.1243 -0.7764  2.3059
 1559SOL    HW216314   1.723   4.280   5.227  0.4252 -1.6184  2.3827
 1560SOL     OW16315   1.580   1.957   4.424  0.0593 -0.2947  0.0529
 1560SOL    HW116316   1.631   2.036   4.442 -1.2682  0.8033 -0.9476
 1560SOL    HW216317   1.622   1.945   4.339 -0.7524  0.8415 -0.4991
 1561SOL     OW16318   2.533   3.477   2.765 -0.0226 -0.1053 -0.9286
 1561SOL    HW116319   2.502   3.390   2.788  0.1521 -0.5300 -2.2816
 1561SOL    HW216320   2.482   3.494   2.686 -0.4785  0.8938 -0.4287
 1562SOL     OW16321   3.190   1.023  11.686  0.5041 -0.1535  0.4403
 1562SOL    HW116322   3.104   1.049  11.653  0.5981 -1.1075 -0.5437
 1562SOL    HW216323   3.245   1.043  11.611 -0.9665 -1.2440 -0.9392
 1563SOL     OW16324   2.843   1.199   5.557  0.0484 -0.1446 -0.1293
 1563SOL    HW116325   2.888   1.158   5.631  0.4354 -1.9614 -1.3646
 1563SOL    HW216326   2.840   1.122   5.500  0.6128  1.7514 -2.7264
 1564SOL     OW16327   3.893   1.960   9.417 -0.2685  0.1931 -0.4752
 1564SOL    HW116328   3.960   1.928   9.477 -1.7756 -1.8288  0.1429
 1564SOL    HW216329   3.821   1.986   9.475  0.0109  0.2857 -0.1692
 1565SOL     OW16330   3.164   3.863   7.368 -0.1381  0.3436  0.9011
 1565SOL    HW116331   3.156   3.778   7.411  0.4819  0.0758  0.4797
 1565SOL    HW216332   3.126   3.919   7.435 -1.9171 -1.2504  1.2397
 1566SOL     OW16333   3.168   0.842   2.460 -0.0134  0.6943  0.6442
 1566SOL    HW116334   3.124   0.918   2.499  1.2880  2.7813 -1.8789
 1566SOL    HW216335   3.095   0.809   2.407  2.8753 -3.5909 -0.6481
 1567SOL     OW16336   0.349   1.921   7.708  0.3561  0.6336  0.0621
 1567SOL    HW116337   0.385   1.944   7.793  1.1935  1.8827 -0.6182
 1567SOL    HW216338   0.281   1.860   7.734 -0.0134  1.7209  1.6227
 1568SOL     OW16339   1.419   1.421   2.024  0.0120 -0.3006  0.1814
 1568SOL    HW116340   1.462   1.473   1.956 -0.6569  0.2897  0.2081
 1568SOL    HW216341   1.494   1.377   2.065  1.3640 -0.2776 -2.2526
 1569SOL     OW16342   2.361   3.693   6.008 -0.2977 -0.0463  0.0962
 1569SOL    HW116343   2.428   3.647   5.957 -0.0599  0.5555 -0.1248
 1569SOL    HW216344   2.287   3.648   5.968 -0.2844 -0.9908  1.1242
 1570SOL     OW16345   2.882   3.072  14.006  0.3278  0.0868  0.4647
 1570SOL    HW116346   2.902   2.982  13.980  0.0609  0.2409 -0.2757
 1570SOL    HW216347   2.961   3.095  14.055  1.0382 -0.2560 -0.5095
 1571SOL     OW16348   3.989   1.741   2.967 -0.0826 -0.3594  0.2775
 1571SOL    HW116349   4.014   1.784   2.886 -0.4485 -2.2691 -0.8435
 1571SOL    HW216350   3.910   1.688   2.952  0.3492 -0.6314 -0.9615
 1572SOL     OW16351   1.548   1.376   4.789 -0.1209 -0.0274 -0.6630
 1572SOL    HW116352   1.496   1.309   4.832 -0.2561 -1.5677 -3.2454
 1572SOL    HW216353   1.628   1.369   4.841  0.5873 -0.6037 -1.8134
 1573SOL     OW16354   4.365   0.092   7.739 -0.0661 -0.3995  0.2365
 1573SOL    HW116355   4.277   0.130   7.744 -1.8169 -4.2359 -0.8980
 1573SOL    HW216356   4.392   0.117   7.651 -1.5536 -0.7998 -0.3417
 1574SOL     OW16357   1.392   4.588   6.935 -0.3399 -0.1158  0.0586
 1574SOL    HW116358   1.420   4.497   6.931  2.0584  0.6087  0.3653
 1574SOL    HW216359   1.347   4.596   6.851  1.7060  0.8283 -0.9478
 1575SOL     OW16360   0.680   1.633   4.032 -0.3747  0.7414 -0.8522
 1575SOL    HW116361   0.610   1.692   4.004 -0.7706  0.2361 -0.9364
 1575SOL    HW216362   0.639   1.561   4.082 -1.8504  1.7555 -0.5902
 1576SOL     OW16363   3.912   0.892   2.213 -0.6304  0.2701 -0.2068
 1576SOL    HW116364   3.928   0.928   2.126 -1.2803 -0.2573 -0.5362
 1576SOL    HW216365   3.977   0.823   2.225 -0.4737  0.9487  2.7804
 1577SOL     OW16366   4.735   1.611   4.921  0.1789 -0.2896  0.1389
 1577SOL    HW116367   0.047   1.682   4.884 -0.6246  0.7668  1.0148
 1577SOL    HW216368   0.047   1.597   5.000 -2.6658  0.2707  2.1292
 1578SOL     OW16369   4.653   2.418   7.576 -0.5784  0.1135  0.3802
 1578SOL    HW116370   4.568   2.459   7.560 -0.0273  0.5091 -1.5693
 1578SOL    HW216371   4.634   2.346   7.635  0.3185  0.9822  1.7072
 1579SOL     OW16372   1.978   2.052   8.536  0.2533 -0.1293  0.0050
 1579SOL    HW116373   2.012   2.123   8.482  1.6167  0.3023  1.4270
 1579SOL    HW216374   2.000   1.974   8.485 -0.3696 -0.6836  0.5905
 1580SOL     OW16375   2.117   1.763   4.164  0.1985  0.3943 -0.7883
 1580SOL    HW116376   2.204   1.772   4.124 -0.1028 -0.2512 -1.5919
 1580SOL    HW216377   2.067   1.757   4.083 -0.8819 -0.6143 -0.0502
 1581SOL     OW16378   3.613   4.528   7.628  0.3175 -0.0027 -0.2629
 1581SOL    HW116379   3.613   4.564   7.717  1.9542 -0.4419 -0.0896
 1581SOL    HW216380   3.529   4.483   7.619  0.9246 -1.0988 -0.4856
 1582SOL     OW16381   2.317   2.760  12.532 -0.0177  0.1357 -0.1573
 1582SOL    HW116382   2.293   2.844  12.571  1.3626  1.2608 -1.7640
 1582SOL    HW216383   2.279   2.771  12.445  0.1215 -2.9838 -0.6136
 1583SOL     OW16384   2.104   0.931  14.365 -0.1517  0.4458 -1.0054
 1583SOL    HW116385   2.146   1.005  14.322 -0.6991  1.3002 -0.0810
 1583SOL    HW216386   2.044   0.911  14.293  1.7411 -0.6255 -2.2975
 1584SOL     OW16387   4.436   2.428   3.460  0.4649  0.3879 -0.7507
 1584SOL    HW116388   4.406   2.381   3.383 -1.9731 -0.2728  0.6271
 1584SOL    HW216389   4.396   2.368   3.523 -2.1688  0.8589 -2.0024
 1585SOL     OW16390   0.323   1.609   3.822 -0.4374 -0.0379  0.2184
 1585SOL    HW116391   0.375   1.532   3.843 -1.0787 -0.2989  0.8746
 1585SOL    HW216392   0.356   1.667   3.890 -0.6511  0.0508  0.2477
 1586SOL     OW16393   0.473   1.426   8.504  0.6048  0.1676 -0.1577
 1586SOL    HW116394   0.523   1.346   8.523  0.5468  0.3876  0.9290
 1586SOL    HW216395   0.530   1.465   8.439  2.3029 -0.4600  0.9676
 1587SOL     OW16396   0.303   3.845  16.770  0.6318  0.0110 -0.2498
 1587SOL    HW116397   0.220   3.837  16.816 -0.4470  0.5629 -2.1305
 1587SOL    HW216398   0.360   3.776  16.803 -1.8769 -1.9393 -0.0548
 1588SOL     OW16399   2.831   0.882   6.642  0.1888 -0.1201  0.0544
 1588SOL    HW116400   2.748   0.858   6.601  0.5385 -1.5733  0.2101
 1588SOL    HW216401   2.817   0.833   6.723  2.5418 -0.5173  0.2164
 1589SOL     OW16402   1.448   0.597   9.695 -0.1764 -0.9870 -0.4179
 1589SOL    HW116403   1.400   0.633   9.769  0.0512  0.4040 -0.9509
 1589SOL    HW216404   1.490   0.679   9.669  0.6666 -1.0145  0.8940
 1590SOL     OW16405   3.703   2.220  14.556 -0.2759  0.7275 -0.1635
 1590SOL    HW116406   3.692   2.145  14.497  0.8914 -0.6200  1.3470
 1590SOL    HW216407   3.798   2.223  14.548 -0.3817  2.2073 -0.7929
 1591SOL     OW16408   0.404   1.485  14.959  0.0711  0.0279 -0.5709
 1591SOL    HW116409   0.489   1.455  14.928 -0.4851 -1.5836 -0.5594
 1591SOL    HW216410   0.408   1.580  14.945 -2.1992 -0.0795 -1.9428
 1592SOL     OW16411   1.537   1.724   0.581 -0.2000 -0.5735 -0.0174
 1592SOL    HW116412   1.480   1.656   0.617 -1.2402  1.1232  1.5343
 1592SOL    HW216413   1.584   1.673   0.515 -0.5395 -0.2720 -0.4811
 1593SOL     OW16414   2.851   2.180  10.998  0.2469 -0.3414  0.3344
 1593SOL    HW116415   2.785   2.153  11.062  0.5326  1.7785  1.5364
 1593SOL    HW216416   2.856   2.101  10.944 -0.1646 -0.0955 -0.0595
 1594SOL     OW16417   2.750   0.212   1.193 -0.2744 -0.6582  0.2477
 1594SOL    HW116418   2.735   0.175   1.106  0.0869  0.7304 -0.4160
 1594SOL    HW216419   2.710   0.148   1.252  1.3987 -1.6165  0.3260
 1595SOL     OW16420   3.778   3.496   5.033  0.7687  0.2378  0.1049
 1595SOL    HW116421   3.856   3.465   5.078 -0.8468 -1.6657  1.5609
 1595SOL    HW216422   3.800   3.583   4.999  1.1682  0.5755  1.2160
 1596SOL     OW16423   3.943   4.691  10.485  0.3064  0.1372  0.4373
 1596SOL    HW116424   3.953   4.685  10.579  3.6102 -0.7107  0.0104
 1596SOL    HW216425   4.002   0.022  10.461 -0.3554 -0.0394 -1.7221
 1597SOL     OW16426   2.717   2.442   7.515 -0.0760  0.6881  0.3836
 1597SOL    HW116427   2.655   2.383   7.558  0.9302 -0.4318  0.3154
 1597SOL    HW216428   2.713   2.430   7.420 -2.1961  0.8152  0.4557
 1598SOL     OW16429   4.394   3.219   3.734  0.0509 -0.1428 -0.2130
 1598SOL    HW116430   4.427   3.223   3.645  1.3776  1.0840  0.3237
 1598SOL    HW216431   4.451   3.280   3.780 -1.3656 -0.4070  1.9033
 1599SOL     OW16432   4.332   4.533  14.844  0.3815 -0.3898  0.4249
 1599SOL    HW116433   4.291   4.576  14.768  0.7790  1.2769  1.1423
 1599SOL    HW216434   4.345   4.599  14.913  1.3295 -2.4589  2.1956
 1600SOL     OW16435   1.937   3.385   6.695  0.3400 -0.0511  0.2943
 1600SOL    HW116436   1.847   3.415   6.681  0.7789  0.9946 -0.2795
 1600SOL    HW216437   1.984   3.462   6.666 -2.2117  1.7394  0.8984
 1601SOL     OW16438   2.262   2.542  12.814  0.1097  0.4439  0.4241
 1601SOL    HW116439   2.341   2.593  12.831 -0.0335 -0.1419  2.7695
 1601SOL    HW216440   2.263   2.527  12.719 -1.8601  0.5513  0.3868
 1602SOL     OW16441   1.311   1.117   2.815  0.2466  0.2172 -0.1389
 1602SOL    HW116442   1.257   1.131   2.893 -0.3610 -0.4078 -0.4572
 1602SOL    HW216443   1.372   1.188   2.834 -0.7757  1.1927 -0.4925
 1603SOL     OW16444   3.657   1.216   1.986  0.0852  0.3531 -0.3682
 1603SOL    HW116445   3.688   1.126   1.982  2.0477  0.9002  2.0843
 1603SOL    HW216446   3.678   1.250   1.899 -0.2182 -0.9314 -0.9361
 1604SOL     OW16447   0.849   0.377   3.690 -0.2852 -0.1654  0.4154
 1604SOL    HW116448   0.822   0.338   3.773 -1.1509 -0.0611  0.1775
 1604SOL    HW216449   0.761   0.379   3.654  0.0199 -3.0115 -0.4784
 1605SOL     OW16450   0.230   2.060  12.923 -0.0278  0.1464  0.1196
 1605SOL    HW116451   0.255   1.977  12.964  1.5145 -0.7416 -2.6603
 1605SOL    HW216452   0.220   2.116  13.000 -0.3820 -0.9452  0.8667
 1606SOL     OW16453   2.227   2.080  16.927 -0.3613 -0.2526  0.4434
 1606SOL    HW116454   2.280   2.151  16.891 -0.7881 -0.7750 -1.2117
 1606SOL    HW216455   2.152   2.131  16.959 -0.0579 -0.5487  1.6365
 1607SOL     OW16456   4.522   4.589   8.633  1.2787 -0.4218 -0.6467
 1607SOL    HW116457   4.482   4.627   8.555 -0.1609  0.3489  0.4489
 1607SOL    HW216458   4.589   4.654   8.655  1.6750 -1.5228  1.4222
 1608SOL     OW16459   3.979   1.464   3.172  0.2678 -0.3395 -0.1255
 1608SOL    HW116460   4.025   1.490   3.252 -0.8484  3.1438 -0.6059
 1608SOL    HW216461   3.915   1.401   3.203  0.8794 -1.0979 -0.4128
 1609SOL     OW16462   1.498   3.918   5.828 -0.1003  0.0445  0.4364
 1609SOL    HW116463   1.503   4.002   5.875  0.6408  0.7789 -0.9685
 1609SOL    HW216464   1.580   3.916   5.779  0.9468 -2.1088  2.2806
 1610SOL     OW16465   0.843   1.808  13.514 -0.0939 -0.3011 -0.0774
 1610SOL    HW116466   0.811   1.894  13.486 -0.3696  0.3791  2.3840
 1610SOL    HW216467   0.931   1.822  13.549 -0.2851  0.0498  0.2549
 1611SOL     OW16468   4.079   3.855   9.379 -0.2306 -0.0012 -0.0205
 1611SOL    HW116469   4.021   3.780   9.394  1.0497 -1.3688 -1.8620
 1611SOL    HW216470   4.031   3.924   9.424  2.5308  1.8234  0.1210
 1612SOL     OW16471   1.105   3.616   0.188  0.0211  0.0162 -0.3767
 1612SOL    HW116472   1.034   3.553   0.174 -0.3998 -0.1109  2.2896
 1612SOL    HW216473   1.051   3.696   0.181 -0.5145 -0.4140 -1.1345
 1613SOL     OW16474   3.213   1.167  14.872 -0.2485 -0.3024  0.5082
 1613SOL    HW116475   3.228   1.246  14.925  1.2093  0.0336 -0.3814
 1613SOL    HW216476   3.240   1.098  14.932  1.8936 -0.2979 -0.4328
 1614SOL     OW16477   1.535   0.299   6.643 -0.2591  0.3237  0.0066
 1614SOL    HW116478   1.509   0.240   6.713  0.2164  2.2542  1.8070
 1614SOL    HW216479   1.583   0.365   6.693 -0.7454  0.4444  0.3114
 1615SOL     OW16480   1.838   4.549   5.305  0.9596  0.6504 -0.0519
 1615SOL    HW116481   1.872   4.610   5.371  0.0743 -0.1207  1.1375
 1615SOL    HW216482   1.769   4.607   5.274 -0.4951 -0.4366  1.1520
 1616SOL     OW16483   0.818   0.201  16.829  0.8921 -0.3038  0.0014
 1616SOL    HW116484   0.761   0.242  16.764 -0.7199  0.5052  1.9074
 1616SOL    HW216485   0.893   0.256  16.807 -0.9071  2.0079 -0.3574
 1617SOL     OW16486   4.174   2.750   6.710 -0.4257 -0.5625  0.3537
 1617SOL    HW116487   4.269   2.763   6.711 -0.6124  0.9300 -1.1549
 1617SOL    HW216488   4.163   2.655   6.713  0.2063 -0.6017  1.4804
 1618SOL     OW16489   0.156   0.967   5.087  0.1244 -0.3391  0.4522
 1618SOL    HW116490   0.207   0.900   5.132 -0.4483 -1.2534 -0.2513
 1618SOL    HW216491   0.168   0.948   4.994 -2.2511  3.1027 -0.5476
 1619SOL     OW16492   1.156   0.177  11.152 -0.6322  0.7478 -0.1678
 1619SOL    HW116493   1.219   0.166  11.081 -0.3548 -0.1100  0.2069
 1619SOL    HW216494   1.166   0.272  11.158  1.4187  0.7273 -3.2400
 1620SOL     OW16495   2.473   4.146   7.513  0.3776 -0.0318  0.1233
 1620SOL    HW116496   2.434   4.195   7.586 -1.5355 -0.5972 -0.5080
 1620SOL    HW216497   2.522   4.075   7.554  0.2882  0.5738  1.2922
 1621SOL     OW16498   3.919   3.875  15.853  0.0892  0.3547  0.4020
 1621SOL    HW116499   3.826   3.891  15.871 -0.4556  0.4849 -2.5316
 1621SOL    HW216500   3.922   3.853  15.760  1.7398  1.7966  0.1210
 1622SOL     OW16501   1.248   2.368   6.418  0.0220  0.3287 -0.1319
 1622SOL    HW116502   1.241   2.327   6.504 -2.7463  1.7251  0.3269
 1622SOL    HW216503   1.336   2.404   6.424 -0.4676  1.3487  1.1003
 1623SOL     OW16504   0.802   2.096   5.549  0.9631  0.1123 -0.1854
 1623SOL    HW116505   0.875   2.034   5.544  0.3423 -0.5532 -1.0599
 1623SOL    HW216506   0.788   2.111   5.643 -0.5393 -1.0890 -0.2095
 1624SOL     OW16507   1.187   0.475   8.457  0.4076  0.9214  0.1508
 1624SOL    HW116508   1.107   0.528   8.459 -0.7774 -0.8287 -0.5475
 1624SOL    HW216509   1.161   0.417   8.385  2.0734 -2.7784  2.5439
 1625SOL     OW16510   1.250   2.338  13.293 -0.2699 -0.1895  0.2958
 1625SOL    HW116511   1.251   2.243  13.304 -0.4713 -0.3011 -0.6467
 1625SOL    HW216512   1.157   2.357  13.282 -0.2454  0.4868  1.2702
 1626SOL     OW16513   2.751   1.067   7.896 -0.4129  0.1535  0.2247
 1626SOL    HW116514   2.661   1.033   7.899  0.5800 -2.6928 -1.8438
 1626SOL    HW216515   2.740   1.143   7.839 -2.0617 -1.4311 -1.5959
 1627SOL     OW16516   0.269   3.713   3.283 -0.0774  0.4835 -0.2216
 1627SOL    HW116517   0.323   3.722   3.362 -0.1851  0.6739 -0.1707
 1627SOL    HW216518   0.290   3.624   3.252 -2.1271  0.1905 -0.7969
 1628SOL     OW16519   4.577   0.627   1.459 -0.0967  0.1047 -0.8440
 1628SOL    HW116520   4.510   0.648   1.393  0.6983  1.3138 -1.2804
 1628SOL    HW216521   4.586   0.533   1.443  1.3188 -0.1170  1.2785
 1629SOL     OW16522   1.314   1.550   7.853  0.2357  0.4802 -0.2583
 1629SOL    HW116523   1.408   1.565   7.843  0.1171  1.7866  0.6497
 1629SOL    HW216524   1.290   1.557   7.761  2.0159 -2.6143 -0.9650
 1630SOL     OW16525   4.308   0.342   1.708  0.0742 -0.2453 -0.0296
 1630SOL    HW116526   4.291   0.285   1.784  0.6729  0.7844  0.8785
 1630SOL    HW216527   4.354   0.288   1.644  1.3359 -0.0399  0.7075
 1631SOL     OW16528   3.941   2.085   5.412  0.4205 -0.4835  0.0769
 1631SOL    HW116529   3.905   2.139   5.341  2.3366  0.9394  0.1963
 1631SOL    HW216530   4.025   2.066   5.370  0.0953  0.7334 -1.1378
 1632SOL     OW16531   1.070   1.730   4.396 -0.3386  0.3249  0.0751
 1632SOL    HW116532   1.158   1.765   4.384 -0.5633  1.6695  2.3672
 1632SOL    HW216533   1.043   1.736   4.304 -0.2698  0.3577  0.0571
 1633SOL     OW16534   3.960   0.139  13.951  0.0604 -0.0063  0.4286
 1633SOL    HW116535   3.928   0.213  14.002  2.2455  2.0374 -1.1410
 1633SOL    HW216536   4.044   0.122  13.993  1.2977 -3.1876 -3.2836
 1634SOL     OW16537   4.589   2.275   1.809 -0.3163  0.3206  0.0706
 1634SOL    HW116538   4.550   2.361   1.823  0.7534  1.1437 -1.9555
 1634SOL    HW216539   4.677   2.304   1.784 -0.4338  0.2919 -0.3923
 1635SOL     OW16540   4.051   3.867  14.409 -0.0786 -0.3516 -0.4584
 1635SOL    HW116541   4.119   3.893  14.347  2.1258 -0.7547  1.8066
 1635SOL    HW216542   4.097   3.861  14.492 -1.9971  1.1755  0.7139
 1636SOL     OW16543   0.478   4.703   9.980  0.1279  0.4273  0.2950
 1636SOL    HW116544   0.420   4.631  10.001 -2.0454  2.1039  0.0074
 1636SOL    HW216545   0.450   0.036  10.035  2.1584  0.1362  1.7186
 1637SOL     OW16546   2.763   1.659   6.540 -0.3447 -0.5410  0.3705
 1637SOL    HW116547   2.748   1.633   6.631 -1.4030  3.5066  1.3170
 1637SOL    HW216548   2.851   1.695   6.544 -1.0984  1.4191 -0.8494
 1638SOL     OW16549   0.173   3.785   2.914 -0.1109  1.0629  0.3730
 1638SOL    HW116550   0.139   3.724   2.849 -0.0561 -0.2098  1.5361
 1638SOL    HW216551   0.093   3.807   2.962  0.3506  0.9431  1.1944
 1639SOL     OW16552   0.251   0.955   5.660  0.0908  0.4155  0.0196
 1639SOL    HW116553   0.170   0.936   5.708  0.1989 -2.0285 -0.7235
 1639SOL    HW216554   0.315   0.923   5.723  1.1216 -1.3235 -1.8773
 1640SOL     OW16555   4.503   0.247   4.686 -0.0285  0.0411  0.5954
 1640SOL    HW116556   4.451   0.312   4.734 -1.0762  0.0238 -0.5257
 1640SOL    HW216557   4.579   0.300   4.661  0.8411 -0.9835  1.1020
 1641SOL     OW16558   3.252   4.301  10.386  0.3322  0.2888  0.3266
 1641SOL    HW116559   3.193   4.322  10.458  1.5672 -1.4186  1.8250
 1641SOL    HW216560   3.324   4.265  10.438  0.1838 -0.7811 -0.1975
 1642SOL     OW16561   1.543   3.203  10.558 -0.0725  0.2291 -0.1750
 1642SOL    HW116562   1.556   3.270  10.626  1.1388  1.7780 -1.9064
 1642SOL    HW216563   1.562   3.126  10.611 -0.3925  1.3227  1.5303
 1643SOL     OW16564   2.456   2.646   3.736 -0.3108  0.4051  0.3578
 1643SOL    HW116565   2.415   2.596   3.807 -0.5948 -0.4591 -0.4149
 1643SOL    HW216566   2.539   2.671   3.776  0.5507 -0.5422 -0.8673
 1644SOL     OW16567   0.885   1.166   2.062 -0.1554 -0.0731 -0.0828
 1644SOL    HW116568   0.839   1.137   2.141 -1.4021  2.2806  0.0583
 1644SOL    HW216569   0.967   1.121   2.081 -0.1339 -0.8872 -2.0979
 1645SOL     OW16570   2.884   4.298   0.779 -0.2297 -0.1046 -0.1625
 1645SOL    HW116571   2.943   4.346   0.837 -0.9142  1.9234 -1.1376
 1645SOL    HW216572   2.944   4.229   0.750  0.7636 -1.1669  4.4494
 1646SOL     OW16573   3.511   2.186  11.516 -0.1535 -0.7924 -0.2335
 1646SOL    HW116574   3.438   2.181  11.454 -0.0075 -1.2710 -0.3676
 1646SOL    HW216575   3.472   2.137  11.589 -1.9070  0.9135 -0.0425
 1647SOL     OW16576   0.105   4.535   8.141  0.4718  0.5131 -0.5379
 1647SOL    HW116577   0.176   4.505   8.083 -0.9225  1.3046 -2.6767
 1647SOL    HW216578   0.108   4.630   8.136 -1.8722  0.6216 -0.1029
 1648SOL     OW16579   3.422   4.277   4.903 -0.0209  0.5172 -0.3859
 1648SOL    HW116580   3.355   4.328   4.948  1.7152  1.4315  1.1757
 1648SOL    HW216581   3.427   4.324   4.820 -1.6677  0.3858 -0.5631
 1649SOL     OW16582   4.469   2.162   7.191  0.1126  0.4994  0.3002
 1649SOL    HW116583   4.544   2.207   7.230  1.6601 -1.0416 -0.8867
 1649SOL    HW216584   4.491   2.075   7.227 -1.6243  0.0809  0.3862
 1650SOL     OW16585   1.646   0.088   5.771  0.0745 -0.5957 -0.6207
 1650SOL    HW116586   1.680   0.151   5.835  1.4922 -1.2872 -0.6772
 1650SOL    HW216587   1.617   0.145   5.700 -0.9051 -2.0822 -1.3955
 1651SOL     OW16588   0.006   3.393   5.412  1.0718  0.6311 -0.3325
 1651SOL    HW116589   0.030   3.335   5.485  4.0146  1.8994 -0.2616
 1651SOL    HW216590   0.048   3.476   5.436  2.9556 -1.0992  2.4074
 1652SOL     OW16591   4.101   2.670   4.044  0.3865 -0.2263 -0.2751
 1652SOL    HW116592   4.170   2.702   4.101 -0.4500  1.1998 -0.0445
 1652SOL    HW216593   4.036   2.648   4.110  1.4099 -1.2229  0.3936
 1653SOL     OW16594   3.828   3.957   9.162 -0.5721  0.3929 -0.1313
 1653SOL    HW116595   3.744   3.914   9.178 -2.5025  4.0753 -0.5100
 1653SOL    HW216596   3.824   4.033   9.219  0.5816 -0.5722  1.2412
 1654SOL     OW16597   4.027   4.710  17.727  0.4893  0.2491 -0.5672
 1654SOL    HW116598   4.023   0.031   0.041  0.6627  0.6338 -0.8881
 1654SOL    HW216599   4.107   4.725  17.677  0.1563  1.2169 -0.8068
 1655SOL     OW16600   3.284   4.104   2.606 -0.3558  0.2479 -0.5103
 1655SOL    HW116601   3.222   4.175   2.595 -2.3212 -0.9480  2.7166
 1655SOL    HW216602   3.366   4.148   2.584  0.6460  0.4214  3.4395
 1656SOL     OW16603   4.283   1.308   7.723 -0.3515  0.5714  0.2745
 1656SOL    HW116604   4.311   1.322   7.632  0.0837 -0.9087  0.1824
 1656SOL    HW216605   4.350   1.245   7.748  0.9970  1.6326 -0.6099
 1657SOL     OW16606   3.030   1.984   2.140 -0.2115  0.5121 -0.2991
 1657SOL    HW116607   3.033   1.974   2.236 -1.0518  0.9060 -0.2311
 1657SOL    HW216608   3.120   1.963   2.116 -0.7021 -1.2930 -0.6020
 1658SOL     OW16609   2.158   3.225   8.058  0.2909  0.0820  0.9209
 1658SOL    HW116610   2.228   3.271   8.011 -0.3703  0.1152 -0.0499
 1658SOL    HW216611   2.208   3.176   8.122  0.8259 -2.1500 -1.2016
 1659SOL     OW16612   0.040   4.213   5.849 -0.0116 -0.0858  0.1015
 1659SOL    HW116613   0.025   4.132   5.897 -0.9783 -0.1088 -0.2481
 1659SOL    HW216614   0.018   4.195   5.758 -1.9832 -1.1619  0.7883
 1660SOL     OW16615   1.987   2.391  10.287  0.3176  0.0912 -0.2248
 1660SOL    HW116616   1.961   2.453  10.355 -2.3662 -2.1751  0.8215
 1660SOL    HW216617   1.940   2.310  10.305  0.0480  0.0190 -1.2626
 1661SOL     OW16618   2.538   1.361  12.565 -0.0832  0.2276 -0.0101
 1661SOL    HW116619   2.511   1.361  12.657  0.0276 -2.8705  0.0259
 1661SOL    HW216620   2.611   1.423  12.572  0.3092 -0.3619  1.3283
 1662SOL     OW16621   0.206   2.822  15.217 -0.0928  0.0140 -0.0013
 1662SOL    HW116622   0.243   2.854  15.299  0.9921 -2.0959  0.3230
 1662SOL    HW216623   0.161   2.741  15.243  0.6138 -0.4381 -0.1991
 1663SOL     OW16624   0.935   4.186  11.070  0.2317 -0.9628 -0.0327
 1663SOL    HW116625   0.900   4.113  11.122 -3.0437  0.0650 -0.7713
 1663SOL    HW216626   0.904   4.150  10.986 -0.4095  0.0884 -0.2421
 1664SOL     OW16627   0.777   3.978  15.573  0.2481  0.5056  0.1236
 1664SOL    HW116628   0.850   4.032  15.604  0.2115  0.8266 -0.3474
 1664SOL    HW216629   0.831   3.901  15.554  1.1514  0.9981  0.6931
 1665SOL     OW16630   1.893   1.033   6.939 -0.1224 -0.3784  0.6474
 1665SOL    HW116631   1.806   1.015   6.903  1.7902 -2.3393 -3.0054
 1665SOL    HW216632   1.948   1.027   6.861 -0.2145  0.5190  0.5155
 1666SOL     OW16633   1.499   2.600   5.600  0.3598 -0.1619  0.1328
 1666SOL    HW116634   1.470   2.533   5.662  1.2315  0.9173  1.6956
 1666SOL    HW216635   1.591   2.574   5.592  0.9582  2.0160  0.0255
 1667SOL     OW16636   0.397   0.101   6.498  0.0577 -0.1535  0.6136
 1667SOL    HW116637   0.463   0.079   6.564 -0.1578  1.8375  1.4864
 1667SOL    HW216638   0.434   0.175   6.449 -0.0697 -1.5519 -1.5827
 1668SOL     OW16639   1.965   4.584  14.002 -0.1972 -0.4785  0.3104
 1668SOL    HW116640   1.966   4.655  13.937  2.0375 -1.0238 -0.2465
 1668SOL    HW216641   1.966   4.639  14.081 -0.0962  0.3849 -0.2886
 1669SOL     OW16642   0.576   3.011  10.728  0.4803 -0.0845 -0.1108
 1669SOL    HW116643   0.642   3.079  10.741  0.8824 -0.7001  1.0747
 1669SOL    HW216644   0.635   2.936  10.729 -0.8302 -1.1268 -0.1076
 1670SOL     OW16645   2.888   3.115   5.050  0.3250  0.1246  0.4099
 1670SOL    HW116646   2.890   3.140   4.958 -2.5224  0.2478  0.3883
 1670SOL    HW216647   2.958   3.051   5.061 -0.3066 -0.5636  0.4811
 1671SOL     OW16648   1.716   3.042   9.923  0.2999 -0.0654  0.0818
 1671SOL    HW116649   1.741   2.994   9.844 -1.2900 -1.0737  0.1921
 1671SOL    HW216650   1.751   2.983   9.989  2.4515  1.4598  0.2799
 1672SOL     OW16651   1.183   1.804   7.941  0.7007 -0.3673 -0.0747
 1672SOL    HW116652   1.090   1.787   7.947  0.2742  1.6201 -1.0632
 1672SOL    HW216653   1.219   1.716   7.953  0.4531 -0.7208 -1.9357
 1673SOL     OW16654   2.203   2.029   9.449  0.1825 -0.0568 -0.0127
 1673SOL    HW116655   2.244   2.112   9.423 -0.5638 -0.3637 -2.1080
 1673SOL    HW216656   2.170   2.041   9.538 -2.9230  0.7242 -1.2643
 1674SOL     OW16657   2.207   4.413   6.437 -0.4381 -0.3531  0.4003
 1674SOL    HW116658   2.166   4.483   6.488  2.1914  2.4633 -1.3492
 1674SOL    HW216659   2.300   4.439   6.440 -1.2125  2.2610  2.6122
 1675SOL     OW16660   4.397   2.750   4.483 -0.0541  0.0565  0.2175
 1675SOL    HW116661   4.471   2.787   4.532  1.5035 -1.4598 -0.9765
 1675SOL    HW216662   4.398   2.663   4.525 -2.2929 -0.2539 -0.3562
 1676SOL     OW16663   3.591   4.683  14.406  0.2426 -0.4336 -0.7763
 1676SOL    HW116664   3.553   4.683  14.318  1.4326  2.4445 -1.2731
 1676SOL    HW216665   3.523   4.630  14.449 -1.1898 -0.2422 -2.8165
 1677SOL     OW16666   2.719   1.034  16.338 -0.0006  0.1156  0.4854
 1677SOL    HW116667   2.718   0.939  16.330  0.5045  0.2780 -1.5424
 1677SOL    HW216668   2.647   1.058  16.279  1.2656  1.8131 -0.3677
 1678SOL     OW16669   2.118   2.962   4.474  0.1789  0.2016  0.0476
 1678SOL    HW116670   2.118   2.894   4.407  1.1567 -0.2627  0.5038
 1678SOL    HW216671   2.187   2.925   4.530  2.0303  1.4100 -1.4368
 1679SOL     OW16672   3.620   1.083  10.021  0.2792  0.2244 -0.4578
 1679SOL    HW116673   3.564   1.049   9.952  1.2096  0.0217 -1.0971
 1679SOL    HW216674   3.614   1.173   9.989 -1.0763  1.1437  2.3506
 1680SOL     OW16675   4.419   3.484   1.301  0.2518  0.1493  0.3579
 1680SOL    HW116676   4.505   3.444   1.313 -1.0816 -3.3734 -1.9140
 1680SOL    HW216677   4.448   3.567   1.262 -1.8938 -0.2126 -1.9826
 1681SOL     OW16678   0.140   3.878   2.213 -0.3930 -0.4207 -0.1903
 1681SOL    HW116679   0.148   3.969   2.182 -2.9851  0.6736  2.4115
 1681SOL    HW216680   0.047   3.871   2.194 -0.8300  2.5924  0.8281
 1682SOL     OW16681   1.906   2.582   2.228 -0.0365 -0.2017 -0.0313
 1682SOL    HW116682   1.884   2.573   2.135 -0.2221  0.2001 -0.0260
 1682SOL    HW216683   1.958   2.502   2.234  1.3755  0.9858  3.0300
 1683SOL     OW16684   2.321   1.808   4.671 -0.4641  0.0215 -0.7996
 1683SOL    HW116685   2.271   1.752   4.731  0.5645 -0.3634 -0.3035
 1683SOL    HW216686   2.259   1.881   4.679  0.5416  0.7476  0.4027
 1684SOL     OW16687   3.624   0.290   6.590 -0.3925  0.1185 -0.0191
 1684SOL    HW116688   3.682   0.238   6.536  0.0881  1.9610 -1.2895
 1684SOL    HW216689   3.595   0.233   6.661  0.3318  0.7530  0.7808
 1685SOL     OW16690   1.214   2.728  13.620 -0.0231  0.0879  0.3186
 1685SOL    HW116691   1.144   2.792  13.607 -1.8365 -1.7023  1.2955
 1685SOL    HW216692   1.166   2.648  13.599  1.3258  0.1738 -3.0331
 1686SOL     OW16693   1.544   3.406   4.703 -0.9365  0.2945  0.3997
 1686SOL    HW116694   1.493   3.486   4.684 -0.0538  0.8105  0.2207
 1686SOL    HW216695   1.584   3.420   4.789  1.6512 -1.0384 -0.5904
 1687SOL     OW16696   2.382   3.292   6.702 -0.5979 -0.4415  0.0392
 1687SOL    HW116697   2.324   3.278   6.628 -0.0886 -0.2756 -0.3946
 1687SOL    HW216698   2.424   3.373   6.672 -0.8112  0.9617  3.5139
 1688SOL     OW16699   2.948   3.952   2.523 -0.2869 -0.2758 -0.0730
 1688SOL    HW116700   2.997   3.870   2.516 -0.1564 -0.1892 -0.1841
 1688SOL    HW216701   2.995   4.000   2.455  0.2382  1.9207  1.8481
 1689SOL     OW16702   4.263   2.197  10.788 -0.9198 -0.0294  0.1558
 1689SOL    HW116703   4.345   2.153  10.767 -1.4204 -1.2109  0.6759
 1689SOL    HW216704   4.232   2.253  10.716 -0.5870  0.6118  0.5156
 1690SOL     OW16705   3.422   3.004   1.324 -0.1595 -0.3623 -0.3221
 1690SOL    HW116706   3.461   3.090   1.309 -1.5229  0.4133  0.5896
 1690SOL    HW216707   3.355   3.024   1.389 -0.6248  0.3694 -1.0074
 1691SOL     OW16708   1.395   2.167   8.960  0.0876  0.2391  0.5873
 1691SOL    HW116709   1.477   2.136   8.921  0.8988 -1.7743  3.9546
 1691SOL    HW216710   1.364   2.090   9.007 -1.5238  0.2976 -0.3671
 1692SOL     OW16711   0.189   0.122   4.362  0.1724  0.0230  0.0113
 1692SOL    HW116712   0.113   0.103   4.417  0.3307  1.1462  0.6094
 1692SOL    HW216713   0.178   0.040   4.314 -0.9950 -0.1241  0.5238
 1693SOL     OW16714   3.904   0.703   4.471 -0.3675 -0.5959  0.1065
 1693SOL    HW116715   3.982   0.649   4.459  1.2652  1.9358 -0.8070
 1693SOL    HW216716   3.950   0.787   4.466 -1.3083  0.1050  3.2121
 1694SOL     OW16717   1.260   2.244  15.498 -0.1798  0.0278  0.2647
 1694SOL    HW116718   1.328   2.191  15.455 -0.1574  0.2672  0.0032
 1694SOL    HW216719   1.245   2.309  15.429 -0.9200 -0.0858  0.3216
 1695SOL     OW16720   4.709   4.723   7.038 -0.8259  0.1878  0.5835
 1695SOL    HW116721   4.620   4.725   7.072 -0.8159  0.1790  0.6101
 1695SOL    HW216722   4.711   4.634   7.003  0.0421  0.1493  0.7088
 1696SOL     OW16723   3.283   0.818   4.116 -0.3315 -0.5076  0.3196
 1696SOL    HW116724   3.358   0.793   4.061 -1.6879 -0.6706 -1.4653
 1696SOL    HW216725   3.290   0.758   4.190  1.7866  0.5233  0.9438
 1697SOL     OW16726   2.493   3.665   4.369 -0.0196  0.0531 -0.1083
 1697SOL    HW116727   2.444   3.740   4.404 -1.0560 -0.3754 -0.6513
 1697SOL    HW216728   2.504   3.605   4.443  0.4944  1.0445  0.6241
 1698SOL     OW16729   3.713   1.058   7.034 -0.1985  0.2004  0.1454
 1698SOL    HW116730   3.713   1.139   7.086 -0.3370 -0.7031  1.5413
 1698SOL    HW216731   3.650   1.086   6.968 -0.0471 -1.2204 -0.6060
 1699SOL     OW16732   0.838   3.315   5.363  0.3257  0.1843  0.6319
 1699SOL    HW116733   0.876   3.351   5.444 -3.1036 -0.1289  2.3946
 1699SOL    HW216734   0.784   3.247   5.404 -0.3248 -0.0159 -0.5693
 1700SOL     OW16735   1.535   0.657  14.903 -0.5533 -0.0661 -0.7660
 1700SOL    HW116736   1.473   0.727  14.921 -0.0674  0.0097  0.6138
 1700SOL    HW216737   1.523   0.600  14.979 -0.4181  0.8074 -0.0928
 1701SOL     OW16738   4.170   3.530   2.059  1.0606  0.7085 -0.6269
 1701SOL    HW116739   4.240   3.488   2.009  0.7708 -0.1800 -0.2845
 1701SOL    HW216740   4.096   3.521   1.999  0.7066 -1.9074  0.1606
 1702SOL     OW16741   1.099   4.619   2.733  0.2629  0.1806  0.4091
 1702SOL    HW116742   1.009   4.628   2.763  0.4532  0.0042  1.0316
 1702SOL    HW216743   1.123   4.712   2.729  2.1987 -0.2569  1.5413
 1703SOL     OW16744   0.960   3.447   3.934  0.0160 -0.1924  0.4923
 1703SOL    HW116745   0.998   3.428   3.848 -1.0108 -1.8720  0.4156
 1703SOL    HW216746   0.993   3.536   3.949  0.8328 -0.4603  0.3229
 1704SOL     OW16747   2.667   4.233   4.366 -0.2653 -0.2111 -0.1936
 1704SOL    HW116748   2.695   4.300   4.303  0.1755  0.3339  0.5736
 1704SOL    HW216749   2.751   4.187   4.372 -0.1986 -0.0103  0.4431
 1705SOL     OW16750   0.467   3.928   6.452 -0.5886  0.0309  0.5594
 1705SOL    HW116751   0.481   3.839   6.419 -0.4312  0.3068 -0.1197
 1705SOL    HW216752   0.439   3.959   6.366 -0.9444 -2.6916 -0.2900
 1706SOL     OW16753   3.518   1.975   0.131 -0.2625 -0.0499  0.0941
 1706SOL    HW116754   3.456   1.913   0.094 -0.1911  0.4080 -0.7988
 1706SOL    HW216755   3.570   1.986   0.051  1.7560  1.7445  1.6271
 1707SOL     OW16756   3.834   4.494   3.354 -0.0829  0.4666  0.2227
 1707SOL    HW116757   3.781   4.501   3.274  0.3307 -0.6150 -0.1446
 1707SOL    HW216758   3.880   4.578   3.345  1.2402 -0.5156 -2.2048
 1708SOL     OW16759   3.976   4.693   3.727 -0.6272 -0.1243 -0.4504
 1708SOL    HW116760   3.999   4.722   3.815 -0.4898  0.1191 -0.5669
 1708SOL    HW216761   4.050   4.727   3.677  1.1981  0.6371  2.8041
 1709SOL     OW16762   1.971   2.296   7.583  0.1756  0.1009  0.1325
 1709SOL    HW116763   1.913   2.220   7.583 -0.9458  0.9616 -2.7696
 1709SOL    HW216764   1.904   2.361   7.604 -1.0600 -2.7400  4.9707
 1710SOL     OW16765   3.169   0.506  15.952 -0.2406  0.1529  1.3628
 1710SOL    HW116766   3.164   0.466  15.865  3.0759  1.2061  0.7136
 1710SOL    HW216767   3.083   0.515  15.992 -0.5780  2.9607  0.0090
 1711SOL     OW16768   0.183   4.276   7.039  0.2669  0.1748  0.3783
 1711SOL    HW116769   0.171   4.182   7.045  0.9294 -0.0260 -1.4203
 1711SOL    HW216770   0.198   4.298   7.131  1.8680  0.6404  0.0099
 1712SOL     OW16771   2.567   1.315   4.684 -0.4239  0.0916  0.1274
 1712SOL    HW116772   2.524   1.389   4.642 -0.9423  0.0405  0.5668
 1712SOL    HW216773   2.647   1.362   4.705  0.5112 -1.4281  0.0116
 1713SOL     OW16774   1.950   3.337   4.103 -0.5424  0.2553  0.3951
 1713SOL    HW116775   1.958   3.253   4.148  1.5799 -0.6269 -1.6108
 1713SOL    HW216776   2.029   3.343   4.050  0.9797 -1.6727  2.4271
 1714SOL     OW16777   3.359   4.727   8.362  0.2639  0.6327  0.1636
 1714SOL    HW116778   3.376   0.075   8.328  1.6826  0.9647  1.7232
 1714SOL    HW216779   3.269   4.736   8.393 -1.1068 -2.5061 -2.9374
 1715SOL     OW16780   3.496   1.106  14.304  0.7061 -0.4777  0.6769
 1715SOL    HW116781   3.502   1.057  14.387 -0.7890 -0.6205  0.7038
 1715SOL    HW216782   3.415   1.157  14.307  1.3468  0.6379 -1.0296
 1716SOL     OW16783   3.976   4.718   2.181 -0.2299 -0.3683 -0.7454
 1716SOL    HW116784   3.893   4.718   2.228  1.1377  1.3864  1.6660
 1716SOL    HW216785   4.013   4.652   2.239  2.1332  1.3339 -0.2871
 1717SOL     OW16786   4.227   4.289  11.378 -0.2861  0.2268 -0.2251
 1717SOL    HW116787   4.311   4.258  11.343 -0.6451  0.6355 -1.4390
 1717SOL    HW216788   4.242   4.295  11.473  3.3329 -0.6577 -0.7134
 1718SOL     OW16789   4.183   4.096   4.216  0.5007  0.3264 -0.4245
 1718SOL    HW116790   4.130   4.017   4.225 -1.6895  1.6714 -1.5294
 1718SOL    HW216791   4.222   4.066   4.133  2.6327  1.4345  0.1895
 1719SOL     OW16792   2.398   1.482   4.082 -0.4382  0.3733  0.2268
 1719SOL    HW116793   2.399   1.571   4.118  0.9962 -0.1870  1.5454
 1719SOL    HW216794   2.431   1.499   3.993  0.8800 -0.5912  0.5349
 1720SOL     OW16795   3.130   4.007   6.805 -0.5477 -0.1895  0.2371
 1720SOL    HW116796   3.222   3.995   6.826 -0.5711  0.4709  0.7122
 1720SOL    HW216797   3.092   3.975   6.887 -0.0946 -1.0631  0.1137
 1721SOL     OW16798   3.434   2.120   6.906 -0.0669  0.1328  0.6924
 1721SOL    HW116799   3.462   2.030   6.891 -2.7309 -0.4719 -0.5847
 1721SOL    HW216800   3.461   2.157   6.822  0.9475 -0.1174  0.8986
 1722SOL     OW16801   3.642   2.151   2.238  0.4884 -0.4581 -0.1013
 1722SOL    HW116802   3.661   2.119   2.150 -2.2378  1.5365 -1.4048
 1722SOL    HW216803   3.600   2.074   2.277  1.9231 -1.2779 -0.1549
 1723SOL     OW16804   2.205   4.465   3.037 -0.2655  0.4052  0.1777
 1723SOL    HW116805   2.127   4.473   3.091 -0.0193  0.5518  0.5084
 1723SOL    HW216806   2.207   4.549   2.990 -1.1013  0.2833 -0.0726
 1724SOL     OW16807   2.604   0.138  15.089 -0.4708 -0.2422  0.2267
 1724SOL    HW116808   2.527   0.113  15.037 -0.1262  0.5162 -0.6369
 1724SOL    HW216809   2.602   0.231  15.068  1.4513 -0.1847  0.3397
 1725SOL     OW16810   4.190   1.930   9.482 -0.1982  0.7938  0.8782
 1725SOL    HW116811   4.170   1.985   9.406 -0.9818  1.7068  1.7381
 1725SOL    HW216812   4.281   1.945   9.507 -0.0359 -0.4654  1.0436
 1726SOL     OW16813   2.086   4.193   2.572 -0.5575 -0.3081 -0.4480
 1726SOL    HW116814   2.156   4.172   2.633  0.0359 -0.0542 -1.0459
 1726SOL    HW216815   2.090   4.287   2.587 -0.1191 -0.2792 -0.7566
 1727SOL     OW16816   3.738   4.080   2.192 -0.2050 -0.0750  0.0967
 1727SOL    HW116817   3.672   4.014   2.214 -0.1285  0.3021  1.4732
 1727SOL    HW216818   3.816   4.028   2.205  0.2075 -0.0664 -2.3533
 1728SOL     OW16819   1.604   1.200   1.688 -0.9603 -0.4009 -0.6269
 1728SOL    HW116820   1.608   1.207   1.784  0.1038  0.7052 -0.7459
 1728SOL    HW216821   1.527   1.147   1.670 -0.7606 -0.8393 -0.2071
 1729SOL     OW16822   4.072   0.010   1.691 -0.5651 -0.0470  0.5585
 1729SOL    HW116823   4.028   4.687   1.749  0.9135  1.0406  2.8700
 1729SOL    HW216824   4.035   0.092   1.724 -0.5862  0.3827 -0.5239
 1730SOL     OW16825   2.555   4.740   6.981 -0.4592  0.0152 -0.3270
 1730SOL    HW116826   2.507   4.658   6.992 -0.9586  0.3044 -0.3396
 1730SOL    HW216827   2.645   4.712   6.994 -1.0310 -1.0555  1.2972
 1731SOL     OW16828   0.622   1.827  12.199  0.2602 -0.6866  0.0155
 1731SOL    HW116829   0.678   1.905  12.194 -1.2888  0.4477  0.6923
 1731SOL    HW216830   0.644   1.789  12.114  2.7678 -1.2025  0.8738
 1732SOL     OW16831   0.752   0.294   3.930  0.4989  0.4231  0.2857
 1732SOL    HW116832   0.664   0.261   3.910  1.1260  0.1588 -1.9720
 1732SOL    HW216833   0.731   0.387   3.943  1.9816  0.9133 -0.8199
 1733SOL     OW16834   2.576   1.211   6.041 -0.4892 -0.8588  0.3910
 1733SOL    HW116835   2.594   1.212   6.135 -0.8939  0.0141  0.4608
 1733SOL    HW216836   2.588   1.117   6.033  3.6947 -0.2769 -0.2258
 1734SOL     OW16837   1.357   2.821   1.953 -0.0371 -0.4525  0.1494
 1734SOL    HW116838   1.292   2.751   1.957 -1.4382  0.7699 -0.9241
 1734SOL    HW216839   1.407   2.801   2.032 -0.8818 -1.7059  0.3692
 1735SOL     OW16840   3.443   1.404   8.258 -0.1097 -0.4596 -0.1577
 1735SOL    HW116841   3.523   1.376   8.212  0.8561 -0.4241  1.4905
 1735SOL    HW216842   3.402   1.463   8.195  1.8054  0.8510 -0.1693
 1736SOL     OW16843   1.078   1.404   9.183  0.1166 -0.0946  0.1324
 1736SOL    HW116844   1.084   1.366   9.096  2.2996  0.2827  0.0983
 1736SOL    HW216845   1.075   1.328   9.240 -2.0717  0.0805  0.2465
 1737SOL     OW16846   2.856   3.070   4.788  0.1140 -0.2860 -0.0517
 1737SOL    HW116847   2.877   2.982   4.820 -0.5645  0.2606  1.8879
 1737SOL    HW216848   2.770   3.061   4.746  0.6848  0.9150 -1.4642
 1738SOL     OW16849   4.395   0.980  11.182 -0.3512  0.6305 -0.2324
 1738SOL    HW116850   4.306   0.975  11.148 -0.8705 -1.1086  1.4333
 1738SOL    HW216851   4.416   0.886  11.185 -1.1516  0.3287 -3.6223
 1739SOL     OW16852   4.365   0.015   1.803 -0.3962  0.5062  0.3258
 1739SOL    HW116853   4.284   0.038   1.757 -0.3937 -0.3304 -0.0960
 1739SOL    HW216854   4.361   0.066   1.884  0.3121 -0.1525  0.7788
 1740SOL     OW16855   3.437   3.507   3.961 -0.2825 -0.0754 -0.1825
 1740SOL    HW116856   3.446   3.424   4.008 -1.8526 -0.3177 -0.3064
 1740SOL    HW216857   3.424   3.480   3.870  0.2653 -1.3293  0.1081
 1741SOL     OW16858   1.564   2.577  12.635  0.1174  0.1935  0.4232
 1741SOL    HW116859   1.618   2.502  12.611 -1.2731 -0.5303 -0.4347
 1741SOL    HW216860   1.579   2.577  12.729 -1.2297 -1.7341  0.6490
 1742SOL     OW16861   4.732   1.172   6.330 -0.5030  0.3684 -0.1570
 1742SOL    HW116862   0.068   1.130   6.370  0.7491  2.4377 -0.3749
 1742SOL    HW216863   0.006   1.153   6.238  0.0043  0.2880 -0.0650
 1743SOL     OW16864   3.268   2.822  16.371 -0.0653  0.6130  0.0179
 1743SOL    HW116865   3.185   2.810  16.324 -1.2140  1.3874  1.8340
 1743SOL    HW216866   3.252   2.897  16.429 -1.0861 -1.0673  1.9258
 1744SOL     OW16867   0.104   1.311  14.788 -0.2894  0.0890 -0.0661
 1744SOL    HW116868   0.026   1.269  14.822 -1.0206  1.5688  0.0714
 1744SOL    HW216869   0.155   1.297  14.868  2.6302 -0.0155 -1.9266
 1745SOL     OW16870   2.364   1.183   8.781 -0.3181 -0.4401  0.0173
 1745SOL    HW116871   2.451   1.194   8.820 -2.4881  1.3341  4.3817
 1745SOL    HW216872   2.317   1.253   8.828 -0.2333 -0.7659  0.5931
 1746SOL     OW16873   3.009   3.424   3.012 -0.1318  0.1185  0.1020
 1746SOL    HW116874   3.039   3.482   2.942  0.0980  0.8949  0.8509
 1746SOL    HW216875   2.934   3.388   2.964  1.0293 -2.5730  0.2801
 1747SOL     OW16876   2.623   3.103   1.472  0.1420  0.1621 -0.6314
 1747SOL    HW116877   2.643   3.066   1.558 -1.0637  1.3591  0.1828
 1747SOL    HW216878   2.527   3.093   1.473  0.1681 -0.0356  0.7471
 1748SOL     OW16879   3.332   2.957   1.599 -0.1074  0.0450 -0.0694
 1748SOL    HW116880   3.260   2.998   1.647 -1.3197 -1.2345 -0.7735
 1748SOL    HW216881   3.323   2.865   1.626  2.0659  0.1362  0.9245
 1749SOL     OW16882   1.663   0.539   3.944  0.4742  0.6626  0.0038
 1749SOL    HW116883   1.681   0.627   3.976  0.7395  1.4023 -2.1657
 1749SOL    HW216884   1.569   0.546   3.926  0.1826 -2.4680  0.3930
 1750SOL     OW16885   3.032   4.439   2.957 -0.1655  0.1828 -0.1208
 1750SOL    HW116886   2.954   4.395   2.922 -0.2243 -1.4566  2.1167
 1750SOL    HW216887   3.053   4.393   3.038  0.2199  0.5867  0.0091
 1751SOL     OW16888   3.863   2.031  17.490  0.2225  0.0206  0.5187
 1751SOL    HW116889   3.807   2.087  17.543  0.0317  0.0396  0.2959
 1751SOL    HW216890   3.850   1.946  17.532  2.0155 -0.1804  0.7080
 1752SOL     OW16891   1.563   2.901   0.465  1.1262  0.0496  0.2953
 1752SOL    HW116892   1.509   2.944   0.399 -0.2231  0.1506  1.4583
 1752SOL    HW216893   1.639   2.883   0.410  2.1689  0.8766  1.4765
 1753SOL     OW16894   3.088   2.093  12.635 -0.0276 -0.2024 -0.4272
 1753SOL    HW116895   3.161   2.032  12.644  0.7002  0.8239  0.5065
 1753SOL    HW216896   3.143   2.169  12.618 -1.5778  1.6335  2.7939
 1754SOL     OW16897   3.035   3.297  10.385 -0.0765 -0.4519  0.7324
 1754SOL    HW116898   2.966   3.244  10.345 -1.3666  1.6552  0.1383
 1754SOL    HW216899   2.979   3.350  10.442  0.9679  0.0893  1.2621
 1755SOL     OW16900   0.456   1.651  15.287 -0.1184  0.0158  0.0011
 1755SOL    HW116901   0.474   1.572  15.337  1.1318  1.8605  2.4905
 1755SOL    HW216902   0.445   1.714  15.358 -0.2172 -0.8240  0.7321
 1756SOL     OW16903   0.220   2.486  12.482  0.1377  0.1073  0.1462
 1756SOL    HW116904   0.286   2.443  12.537  0.4788  0.4247 -0.0161
 1756SOL    HW216905   0.179   2.551  12.539  2.7190  0.8696  1.1671
 1757SOL     OW16906   3.262   2.337   2.730 -0.1197 -0.0652  0.2953
 1757SOL    HW116907   3.316   2.400   2.778 -0.4460  0.7856 -0.4460
 1757SOL    HW216908   3.211   2.304   2.804 -0.3850 -0.5786 -0.1212
 1758SOL     OW16909   3.076   3.683   2.491  0.7844 -0.4914  0.0133
 1758SOL    HW116910   3.035   3.623   2.554  0.5385 -1.0022 -0.6314
 1758SOL    HW216911   3.147   3.714   2.547 -1.4766  1.8132  1.6097
 1759SOL     OW16912   0.878   0.519  17.573  0.4735 -0.0579 -0.4114
 1759SOL    HW116913   0.844   0.527  17.662 -1.2098  1.0882 -1.1635
 1759SOL    HW216914   0.834   0.441  17.539 -2.2086  0.5444  1.7343
 1760SOL     OW16915   2.272   3.624  11.380  0.6963  0.5545  0.4247
 1760SOL    HW116916   2.180   3.600  11.366  0.2391  1.1133  2.4031
 1760SOL    HW216917   2.250   3.697  11.438 -0.1792  1.7912 -1.4651
 1761SOL     OW16918   3.668   0.595   9.228  0.3087  0.2392  0.3175
 1761SOL    HW116919   3.722   0.625   9.301  0.8082  1.0701 -0.3932
 1761SOL    HW216920   3.583   0.584   9.271 -0.5428  1.9004 -0.9109
 1762SOL     OW16921   2.894   2.361   3.570 -0.0286 -0.1152  0.3141
 1762SOL    HW116922   2.810   2.332   3.606 -0.2514 -0.8537 -0.7865
 1762SOL    HW216923   2.867   2.453   3.558 -1.0310 -0.5619 -0.8722
 1763SOL     OW16924   1.771   1.962   7.166 -0.2173 -0.2188  0.7469
 1763SOL    HW116925   1.833   2.007   7.109 -1.8806  2.5511  1.1510
 1763SOL    HW216926   1.777   1.874   7.127 -1.7534  0.1304 -0.3145
 1764SOL     OW16927   0.949   4.171   4.586  0.2940 -0.1679  0.2913
 1764SOL    HW116928   1.014   4.151   4.653  0.3771 -0.6177  0.0750
 1764SOL    HW216929   0.927   4.262   4.606 -0.0137  0.0750 -1.1568
 1765SOL     OW16930   0.343   0.552   6.218 -0.3041  0.2571 -0.0411
 1765SOL    HW116931   0.279   0.610   6.260  0.4935  1.5572 -0.6159
 1765SOL    HW216932   0.287   0.492   6.169 -1.0011  0.6115  0.3176
 1766SOL     OW16933   1.263   1.536   6.238 -0.4050 -0.5022  0.4463
 1766SOL    HW116934   1.314   1.618   6.237 -0.7592 -0.2828 -0.1847
 1766SOL    HW216935   1.194   1.568   6.179  0.1506  0.0758  0.1122
 1767SOL     OW16936   4.128   0.628  13.547 -0.2427 -0.3943  0.1863
 1767SOL    HW116937   4.103   0.547  13.592 -0.1743 -0.8479 -0.5786
 1767SOL    HW216938   4.149   0.601  13.458 -1.0625 -1.2893  0.2542
 1768SOL     OW16939   0.152   0.726   6.369 -0.0717  0.2042  0.2564
 1768SOL    HW116940   0.127   0.654   6.428 -0.7178 -0.9029 -1.3539
 1768SOL    HW216941   0.120   0.804   6.414  0.0155  1.3313 -1.6436
 1769SOL     OW16942   3.424   3.313   6.194 -0.1073 -0.0683  0.0499
 1769SOL    HW116943   3.422   3.220   6.218  0.9841 -0.0922  0.0279
 1769SOL    HW216944   3.380   3.362   6.264  1.6387 -0.6372  1.5467
 1770SOL     OW16945   0.263   1.988   3.895  0.4693  0.4429  0.6736
 1770SOL    HW116946   0.229   1.965   3.809 -1.7655  0.9855  1.4190
 1770SOL    HW216947   0.253   2.083   3.894 -1.6671  0.2110  0.5579
 1771SOL     OW16948   3.719   3.399   6.681  0.3356 -0.1449 -0.0463
 1771SOL    HW116949   3.634   3.441   6.695  1.6175  2.1126  0.9567
 1771SOL    HW216950   3.784   3.458   6.720  0.0907  0.6292 -0.7971
 1772SOL     OW16951   1.559   1.039   7.976  0.8898 -0.5180  0.0728
 1772SOL    HW116952   1.480   0.999   7.940  0.2113  2.0077 -1.2901
 1772SOL    HW216953   1.520   1.117   8.015  0.1257 -0.4150 -0.8801
 1773SOL     OW16954   1.855   2.373   5.093 -0.1363  0.3352 -0.1834
 1773SOL    HW116955   1.809   2.351   5.011  1.0145 -1.3492 -0.3887
 1773SOL    HW216956   1.898   2.291   5.117 -1.4951 -0.0953  0.7420
 1774SOL     OW16957   3.087   2.459  13.605  0.7622 -0.1613 -0.5231
 1774SOL    HW116958   3.078   2.394  13.536 -0.2658 -0.2662 -0.2974
 1774SOL    HW216959   3.180   2.475  13.595  0.0423  1.9545 -3.7006
 1775SOL     OW16960   2.668   4.394   8.329  0.3080  0.3803  0.1406
 1775SOL    HW116961   2.694   4.442   8.407  0.2301 -0.7325  0.8509
 1775SOL    HW216962   2.675   4.306   8.366  0.3860  1.8787  3.6790
 1776SOL     OW16963   3.072   1.698   6.455  0.1578  0.0097  0.9948
 1776SOL    HW116964   3.093   1.788   6.481 -2.6169  0.1698  2.7811
 1776SOL    HW216965   3.055   1.707   6.361 -2.3975 -1.9690  1.2602
 1777SOL     OW16966   2.023   2.738   9.173 -0.4750  0.1131 -0.6350
 1777SOL    HW116967   2.103   2.775   9.135 -1.0818  1.1278 -0.9229
 1777SOL    HW216968   1.963   2.785   9.115  0.0845  0.4467 -0.9477
 1778SOL     OW16969   4.320   4.555   2.417  0.4177 -0.3840 -0.3671
 1778SOL    HW116970   4.359   4.639   2.391 -0.5585  0.3586  0.5583
 1778SOL    HW216971   4.232   4.554   2.380 -0.2956  1.6597  1.2737
 1779SOL     OW16972   2.571   2.286   2.377  0.0431  0.0782  0.4169
 1779SOL    HW116973   2.665   2.277   2.391 -0.5925 -2.3168  3.1703
 1779SOL    HW216974   2.558   2.380   2.365  0.0199 -0.4413 -3.4188
 1780SOL     OW16975   4.074   1.974  10.646  0.0773  0.1103 -0.3970
 1780SOL    HW116976   4.131   2.006  10.716 -2.1674 -0.2276  1.5915
 1780SOL    HW216977   4.095   1.881  10.634  0.8829  0.0782  1.3091
 1781SOL     OW16978   0.208   1.484   8.500  0.0564 -0.0173 -0.3667
 1781SOL    HW116979   0.179   1.418   8.563 -0.1497  0.2968 -0.1307
 1781SOL    HW216980   0.301   1.482   8.521 -0.3213 -0.7897  1.2682
 1782SOL     OW16981   2.343   4.010   6.298  0.1332  0.5492 -0.0314
 1782SOL    HW116982   2.266   3.981   6.249  0.7229  0.6428 -1.0236
 1782SOL    HW216983   2.333   4.105   6.288  1.2949  0.6332 -0.3352
 1783SOL     OW16984   2.342   4.416   1.073  0.1311 -0.0973 -0.0105
 1783SOL    HW116985   2.418   4.358   1.073 -0.2025 -0.5387  0.8817
 1783SOL    HW216986   2.276   4.370   1.022  0.8934  0.4645 -1.4985
 1784SOL     OW16987   2.253   4.580   5.736 -0.0366 -0.7808  0.2394
 1784SOL    HW116988   2.232   4.494   5.700 -1.3531 -0.6623  0.7062
 1784SOL    HW216989   2.339   4.559   5.772  0.9990  3.3767  0.2575
 1785SOL     OW16990   3.305   0.875   8.669 -0.2382  0.3121  0.3103
 1785SOL    HW116991   3.383   0.823   8.692 -1.9168 -2.2424  0.2215
 1785SOL    HW216992   3.265   0.873   8.756  0.1606 -1.7246  0.4501
 1786SOL     OW16993   1.807   3.160   4.818  0.1695 -0.3372  0.1101
 1786SOL    HW116994   1.721   3.121   4.832  0.6905 -2.2655 -2.0798
 1786SOL    HW216995   1.821   3.139   4.726  0.2559  0.5391 -0.0833
 1787SOL     OW16996   4.383   0.978  17.355 -0.5479  0.2873  0.5182
 1787SOL    HW116997   4.445   0.909  17.376 -2.3155 -0.5754  2.8636
 1787SOL    HW216998   4.347   1.003  17.440 -1.6091  1.1956 -0.1796
 1788SOL     OW16999   4.153   0.299   5.815  0.1129  0.7713 -0.2951
 1788SOL    HW117000   4.161   0.249   5.895  2.1795  0.6567 -0.5802
 1788SOL    HW217001   4.221   0.257   5.763 -0.2887  1.8260 -1.6959
 1789SOL     OW17002   1.023   2.212  10.465  0.1021  0.4906  0.3441
 1789SOL    HW117003   0.955   2.269  10.500 -0.0271  2.0707 -2.5438
 1789SOL    HW217004   0.999   2.209  10.373 -2.4143 -0.6683  1.0474
 1790SOL     OW17005   2.905   3.446  13.224  0.3178  0.0873  0.7100
 1790SOL    HW117006   2.987   3.463  13.177 -0.5155 -1.1316 -1.1667
 1790SOL    HW217007   2.862   3.381  13.169  0.8300 -1.4170  2.0678
 1791SOL     OW17008   1.363   4.536  16.002 -0.2473 -0.1401  0.1398
 1791SOL    HW117009   1.320   4.451  16.005  0.5451 -0.5627 -0.4421
 1791SOL    HW217010   1.315   4.589  16.066 -0.0824  1.6327 -1.1960
 1792SOL     OW17011   1.480   2.391   8.651 -0.2123  0.4557  0.3727
 1792SOL    HW117012   1.568   2.355   8.640 -0.5783  0.0591 -1.3092
 1792SOL    HW217013   1.468   2.384   8.746  1.9257  0.6278  0.6551
 1793SOL     OW17014   2.452   0.758   6.804 -0.2637 -0.0431 -0.2605
 1793SOL    HW117015   2.387   0.808   6.853  0.8458  0.1776  0.9964
 1793SOL    HW217016   2.500   0.830   6.761  2.0504 -0.4583  1.6129
 1794SOL     OW17017   2.657   1.687   0.248  0.4776  0.0212  0.1914
 1794SOL    HW117018   2.661   1.781   0.261 -1.4220  0.4978 -2.5587
 1794SOL    HW217019   2.575   1.664   0.291  1.6114  0.6467  2.6666
 1795SOL     OW17020   1.749   4.542   2.890 -0.6217 -0.8172 -0.0930
 1795SOL    HW117021   1.689   4.580   2.954  2.0317  0.8675  1.3581
 1795SOL    HW217022   1.688   4.531   2.816 -1.0312  1.6046 -0.1283
 1796SOL     OW17023   2.845   2.974  16.223  0.0327 -0.0482 -0.3538
 1796SOL    HW117024   2.757   2.984  16.260 -0.4985  1.3722 -2.0083
 1796SOL    HW217025   2.857   3.063  16.189  0.9804  0.2477  0.7470
 1797SOL     OW17026   4.039   3.477  13.748  0.0893  0.2862  0.0614
 1797SOL    HW117027   3.976   3.491  13.677 -0.6477 -3.4488 -0.0334
 1797SOL    HW217028   4.120   3.502  13.704  0.6007  0.4977  1.1321
 1798SOL     OW17029   0.203   3.190   6.613  0.7483  0.1157 -0.1692
 1798SOL    HW117030   0.131   3.142   6.573  0.0052  0.7611  0.3948
 1798SOL    HW217031   0.240   3.117   6.661  0.0220 -0.7851 -0.9868
 1799SOL     OW17032   4.558   4.374  16.946  0.7463  0.4641  0.5898
 1799SOL    HW117033   4.479   4.337  16.986  0.7166  1.5341  1.5071
 1799SOL    HW217034   4.555   4.462  16.983 -0.9217  1.4425 -1.8138
 1800SOL     OW17035   3.955   3.907   2.176 -0.1897  0.1509  0.0516
 1800SOL    HW117036   4.043   3.891   2.144 -0.1660 -0.6514  0.5130
 1800SOL    HW217037   3.924   3.817   2.167 -2.6363  1.0387 -0.4091
 1801SOL     OW17038   3.360   2.279   1.485 -0.3364  0.0946  0.0128
 1801SOL    HW117039   3.287   2.335   1.513 -0.0276 -0.3930  1.7904
 1801SOL    HW217040   3.380   2.311   1.397  0.4972  0.7276  0.4241
 1802SOL     OW17041   0.113   0.299   1.374  0.0380 -0.2295 -0.0906
 1802SOL    HW117042   0.139   0.209   1.355 -2.2169 -0.6381 -1.1890
 1802SOL    HW217043   0.018   0.305   1.368 -0.1071 -1.6392  0.9842
 1803SOL     OW17044   3.641   4.359   5.138  0.1150 -0.2045 -0.7395
 1803SOL    HW117045   3.559   4.310   5.141  0.8345 -1.3693 -0.1709
 1803SOL    HW217046   3.677   4.316   5.060 -1.4030  0.0883 -1.6187
 1804SOL     OW17047   2.585   1.555   5.434 -0.0919 -0.3953  0.8174
 1804SOL    HW117048   2.642   1.547   5.511  2.4212  0.9247 -0.9007
 1804SOL    HW217049   2.545   1.468   5.434  0.2876 -0.5697  0.9160
 1805SOL     OW17050   0.489   2.007   8.709  0.4275  0.2176  0.1508
 1805SOL    HW117051   0.400   2.039   8.695  0.5282  0.4330  0.0162
 1805SOL    HW217052   0.467   1.944   8.777  0.1447  1.0509  0.8311
 1806SOL     OW17053   0.277   2.415   8.810  0.2448 -0.0834 -0.1967
 1806SOL    HW117054   0.356   2.443   8.856  0.4851 -0.7647 -0.1979
 1806SOL    HW217055   0.221   2.390   8.884  1.4283 -1.9906  0.0651
 1807SOL     OW17056   1.217   0.893   9.536  0.2545  0.4658 -0.0803
 1807SOL    HW117057   1.261   0.852   9.611 -0.6068  0.6749  0.5282
 1807SOL    HW217058   1.279   0.964   9.517  2.7398 -1.2537  1.5874
 1808SOL     OW17059   3.423   1.616   0.038 -0.1315 -0.2840 -0.1102
 1808SOL    HW117060   3.360   1.555  17.758 -0.5228 -0.7220  1.2235
 1808SOL    HW217061   3.463   1.660  17.722  0.6722  1.7739  1.5450
 1809SOL     OW17062   4.537   0.765  13.311  0.3819 -0.0206  0.2011
 1809SOL    HW117063   4.455   0.799  13.347 -0.7849 -1.4527 -1.0976
 1809SOL    HW217064   4.589   0.844  13.304  2.6796 -1.6141 -0.4568
 1810SOL     OW17065   2.136   0.596  10.302  0.4354  0.4446 -0.6411
 1810SOL    HW117066   2.141   0.631  10.212 -0.9377  1.1256 -0.4683
 1810SOL    HW217067   2.062   0.650  10.331 -0.1080 -0.2526 -0.7377
 1811SOL     OW17068   3.620   3.046  16.008 -0.4684  0.4372 -0.6542
 1811SOL    HW117069   3.571   2.972  15.972  0.3691  0.1153 -1.1364
 1811SOL    HW217070   3.552   3.111  15.990 -0.2301  0.5707 -1.0837
 1812SOL     OW17071   0.211   1.639  16.702  0.1733  0.3653 -0.5084
 1812SOL    HW117072   0.237   1.718  16.654 -1.4753  1.5649  0.5981
 1812SOL    HW217073   0.298   1.606  16.724  0.1801  0.8896  0.2485
 1813SOL     OW17074   0.426   1.098   7.662  0.1570  0.3211 -0.3715
 1813SOL    HW117075   0.509   1.107   7.615  0.3366  1.8235  0.2520
 1813SOL    HW217076   0.406   1.005   7.656  2.3888 -0.1442 -0.5560
 1814SOL     OW17077   1.060   3.681   4.040 -0.3049 -0.3044  0.0182
 1814SOL    HW117078   1.075   3.651   4.129 -0.2153  1.4823  0.5899
 1814SOL    HW217079   1.100   3.768   4.042 -1.4068  0.2579 -2.2705
 1815SOL     OW17080   2.503   4.134  12.923  0.0042  0.1115 -0.0602
 1815SOL    HW117081   2.410   4.153  12.909  0.3032  1.0789 -0.7104
 1815SOL    HW217082   2.532   4.204  12.866 -1.6730  2.1607  1.5991
 1816SOL     OW17083   2.313   1.598   7.560  0.5334 -0.0761  0.0309
 1816SOL    HW117084   2.286   1.507   7.576 -1.3456  0.7496  1.5692
 1816SOL    HW217085   2.236   1.642   7.595  0.3223  1.0749 -1.9012
 1817SOL     OW17086   1.776   4.465   5.807 -0.1803 -0.2149  0.5152
 1817SOL    HW117087   1.861   4.450   5.849  0.2220  0.2509 -0.1307
 1817SOL    HW217088   1.759   4.374   5.783  1.1219 -0.4127  0.3513
 1818SOL     OW17089   4.540   1.351   9.613 -0.3707  0.2817  0.1803
 1818SOL    HW117090   4.460   1.400   9.631  0.1963  0.3797  2.4804
 1818SOL    HW217091   4.560   1.319   9.701 -1.4433  4.0293  1.7759
 1819SOL     OW17092   1.520   1.658   9.439 -0.7745 -0.0322 -0.2128
 1819SOL    HW117093   1.526   1.706   9.522  0.3984  1.5756 -1.2204
 1819SOL    HW217094   1.447   1.598   9.456  0.3507 -1.9163 -2.0828
 1820SOL     OW17095   2.556   4.337   5.192  0.0036  0.1594 -0.1177
 1820SOL    HW117096   2.497   4.314   5.120  0.8330  0.6032 -0.9518
 1820SOL    HW217097   2.566   4.432   5.179 -2.2961  0.4607  0.3574
 1821SOL     OW17098   4.445   3.087  14.854  0.1214 -0.2301 -0.0636
 1821SOL    HW117099   4.388   3.158  14.883 -0.2709 -0.6058  0.0778
 1821SOL    HW217100   4.491   3.068  14.936  0.3358 -1.6874 -0.5230
 1822SOL     OW17101   0.569   2.853   7.457 -0.5148 -0.1112  0.0389
 1822SOL    HW117102   0.519   2.918   7.507 -2.5383 -1.0538 -0.7763
 1822SOL    HW217103   0.541   2.874   7.368 -1.3406  0.0282  0.3278
 1823SOL     OW17104   0.558   1.615   5.513  0.0167 -0.1668 -0.1728
 1823SOL    HW117105   0.627   1.663   5.468 -0.5152  0.0143 -0.7939
 1823SOL    HW217106   0.532   1.565   5.436 -1.3249  0.1435  0.0645
 1824SOL     OW17107   0.981   3.449  15.812  0.3503 -0.5906 -0.0517
 1824SOL    HW117108   1.035   3.512  15.764 -0.3149 -0.0383 -0.0685
 1824SOL    HW217109   1.043   3.395  15.862 -1.9209 -2.9285  0.2359
 1825SOL     OW17110   3.469   3.091   6.639 -0.5926 -0.0519 -0.1490
 1825SOL    HW117111   3.490   3.009   6.684 -0.2140 -0.3627 -0.8908
 1825SOL    HW217112   3.547   3.142   6.660 -0.7467 -0.3337  1.1339
 1826SOL     OW17113   4.567   0.492   1.961  0.3533  0.3816  0.1578
 1826SOL    HW117114   4.541   0.432   2.031  1.7630 -1.8981 -1.2728
 1826SOL    HW217115   4.639   0.534   2.008  0.7318  0.8424 -0.8411
 1827SOL     OW17116   0.076   4.157   4.957 -0.1171 -0.3617  0.1439
 1827SOL    HW117117   0.046   4.167   5.047 -0.8144  1.5417 -0.2911
 1827SOL    HW217118   0.166   4.188   4.962  0.5280 -2.1713 -0.2568
 1828SOL     OW17119   0.181   1.011  16.648  0.3697 -0.6630  0.8263
 1828SOL    HW117120   0.178   1.034  16.741 -0.3723  0.2680  0.5705
 1828SOL    HW217121   0.276   1.011  16.630  0.2735  0.3777  0.3280
 1829SOL     OW17122   4.258   1.110   0.200 -0.0685 -0.6183 -0.3115
 1829SOL    HW117123   4.224   1.022   0.179  0.9877 -0.9456 -0.6620
 1829SOL    HW217124   4.352   1.095   0.189 -0.3602 -1.2674 -1.9868
 1830SOL     OW17125   0.216   0.068   7.118  0.7247 -0.4287 -0.6171
 1830SOL    HW117126   0.141   0.026   7.076 -0.5033  2.3052 -1.1554
 1830SOL    HW217127   0.292   0.033   7.072  0.0630 -1.4702 -0.9164
 1831SOL     OW17128   3.913   2.287   7.835 -0.4975 -0.1642 -0.2367
 1831SOL    HW117129   3.909   2.269   7.929  1.2579  0.8145  0.0322
 1831SOL    HW217130   3.918   2.382   7.836 -1.5840 -0.1253  2.0700
 1832SOL     OW17131   1.845   1.240   1.526 -0.0306 -0.1600  0.3089
 1832SOL    HW117132   1.846   1.147   1.547 -1.5888 -0.7761 -2.3522
 1832SOL    HW217133   1.773   1.265   1.585 -0.4966  0.2187 -0.4130
 1833SOL     OW17134   2.904   0.940  11.429 -0.4346  0.0018 -0.1088
 1833SOL    HW117135   2.917   1.033  11.445 -1.7589 -0.2550  2.4822
 1833SOL    HW217136   2.822   0.928  11.382  0.2603 -3.7253 -0.3534
 1834SOL     OW17137   1.185   4.711  17.355  0.1483 -0.3905  0.3712
 1834SOL    HW117138   1.174   0.020  17.436  0.1518  0.2663 -0.0262
 1834SOL    HW217139   1.278   4.719  17.332  0.4014 -1.6654  0.9785
 1835SOL     OW17140   0.443   2.202   2.119  0.0490 -0.2764 -0.3355
 1835SOL    HW117141   0.396   2.236   2.195  0.6656  1.6695 -0.8301
 1835SOL    HW217142   0.486   2.121   2.148  1.5018  0.4237 -0.5221
 1836SOL     OW17143   2.388   3.611   3.308  0.1269  0.0702 -0.4723
 1836SOL    HW117144   2.409   3.677   3.243  3.3314 -0.2656  0.2604
 1836SOL    HW217145   2.470   3.582   3.349 -1.2067  0.4825  2.5216
 1837SOL     OW17146   2.255   2.358  15.199 -0.2055  0.0289  0.1090
 1837SOL    HW117147   2.326   2.307  15.161 -0.8786 -0.7385 -0.1286
 1837SOL    HW217148   2.303   2.412  15.262  0.4768 -1.4161  0.8301
 1838SOL     OW17149   0.323   3.639   5.288 -0.1983  0.0830  0.6499
 1838SOL    HW117150   0.299   3.710   5.229 -0.8491 -0.9926 -0.3802
 1838SOL    HW217151   0.407   3.659   5.330  1.7249 -0.1371 -3.1627
 1839SOL     OW17152   4.431   0.159   9.375  0.4287  1.0336 -0.1871
 1839SOL    HW117153   4.370   0.130   9.307  1.9169 -2.1829 -0.1570
 1839SOL    HW217154   4.470   0.234   9.330  2.6850 -0.6456 -1.0183
 1840SOL     OW17155   0.237   1.582  11.914 -0.1160  0.5453 -0.4688
 1840SOL    HW117156   0.161   1.584  11.971  0.6229 -2.9099  0.6392
 1840SOL    HW217157   0.240   1.672  11.883  2.6344  1.0680  1.3449
 1841SOL     OW17158   2.153   0.239   9.411 -0.2724 -0.8556  0.2454
 1841SOL    HW117159   2.151   0.253   9.505  2.5768  2.0885 -0.1180
 1841SOL    HW217160   2.059   0.234   9.390 -0.1234 -2.8572  0.0691
 1842SOL     OW17161   0.485   0.390  13.825 -0.5289  0.2289  0.1577
 1842SOL    HW117162   0.518   0.478  13.842  1.4574 -0.4563 -0.1131
 1842SOL    HW217163   0.467   0.351  13.911  2.9606  0.1928  0.8636
 1843SOL     OW17164   0.944   1.957   7.598  0.9379 -0.0634  0.5451
 1843SOL    HW117165   0.984   1.871   7.584  0.6745 -0.1006  0.0281
 1843SOL    HW217166   0.898   1.964   7.515  1.8858  1.3057  0.1320
 1844SOL     OW17167   4.469   4.026   3.814 -0.4615 -0.4841 -0.6129
 1844SOL    HW117168   4.521   4.082   3.871 -1.2632 -1.9532  1.5649
 1844SOL    HW217169   4.506   4.040   3.727  0.6011  0.4251 -0.0074
 1845SOL     OW17170   0.558   2.218   7.257 -0.6839 -0.2502 -0.0762
 1845SOL    HW117171   0.548   2.282   7.328  1.4012  0.2134 -0.2079
 1845SOL    HW217172   0.486   2.158   7.279 -0.7905  0.2672  0.9822
 1846SOL     OW17173   0.706   2.441   3.943 -0.2493  0.4203 -0.2117
 1846SOL    HW117174   0.631   2.382   3.951  0.0001  0.2936  1.2233
 1846SOL    HW217175   0.703   2.484   3.857  0.1869 -2.1354 -1.5015
 1847SOL     OW17176   4.415   2.953  15.922 -0.3736 -0.0696  0.3441
 1847SOL    HW117177   4.447   3.004  15.996 -1.0970  1.7749 -0.6184
 1847SOL    HW217178   4.383   3.025  15.868  0.3657  1.1397  1.5437
 1848SOL     OW17179   3.667   3.580   0.383 -0.3399 -0.2965 -0.3306
 1848SOL    HW117180   3.579   3.544   0.393  0.0308 -0.8929  0.7668
 1848SOL    HW217181   3.664   3.656   0.440 -0.0231  0.2787 -1.0763
 1849SOL     OW17182   1.620   1.784   4.657 -0.2270 -0.5696  0.1392
 1849SOL    HW117183   1.588   1.845   4.591 -0.2372  2.2966  2.7727
 1849SOL    HW217184   1.656   1.713   4.604  0.2310 -1.4802  1.6765
 1850SOL     OW17185   0.500   4.218  12.447 -0.8279 -0.2042 -0.5133
 1850SOL    HW117186   0.514   4.291  12.508 -0.4343  0.6235 -1.6000
 1850SOL    HW217187   0.473   4.151  12.510 -1.1176 -0.9251 -1.4052
 1851SOL     OW17188   0.941   3.328   8.469  0.7912 -0.0631  0.3019
 1851SOL    HW117189   0.974   3.415   8.448 -1.1455  0.8270  1.0030
 1851SOL    HW217190   1.022   3.277   8.476 -0.0146 -1.6574 -2.0493
 1852SOL     OW17191   0.160   2.089   7.464  0.0519 -0.6096 -0.0632
 1852SOL    HW117192   0.210   2.075   7.545 -2.5655  0.0057  1.6773
 1852SOL    HW217193   0.219   2.156   7.429  0.5706 -0.9245  0.2026
 1853SOL     OW17194   3.872   2.982   5.931  0.2799 -0.5936  0.4461
 1853SOL    HW117195   3.947   3.012   5.880 -1.1603  0.3270 -1.1306
 1853SOL    HW217196   3.909   3.014   6.013  0.6830 -0.3533  0.1755
 1854SOL     OW17197   4.720   2.527   8.569 -0.4077 -0.1420  0.4000
 1854SOL    HW117198   4.739   2.531   8.663 -0.7546  0.9804  0.4299
 1854SOL    HW217199   4.625   2.522   8.570 -0.5692  2.6188 -1.2759
 1855SOL     OW17200   3.637   2.394  15.475  0.3064  0.0766 -0.0752
 1855SOL    HW117201   3.642   2.480  15.517 -0.4312  0.8501 -1.5943
 1855SOL    HW217202   3.729   2.380  15.454  0.0669  0.6916 -1.4853
 1856SOL     OW17203   4.587   3.875   1.794 -0.1596  0.4531 -0.1251
 1856SOL    HW117204   4.616   3.833   1.713 -0.7354 -1.4959  0.6704
 1856SOL    HW217205   4.620   3.964   1.788  1.0791 -0.0286 -0.4148
 1857SOL     OW17206   3.645   1.601   1.712 -0.2625 -0.1922  0.5567
 1857SOL    HW117207   3.589   1.618   1.787 -0.5574  0.1444  0.2550
 1857SOL    HW217208   3.693   1.684   1.712 -0.1526 -0.2542 -1.3084
 1858SOL     OW17209   0.139   0.482  17.264  0.7170  0.1269  0.5631
 1858SOL    HW117210   0.146   0.442  17.177  0.7356  2.5606 -0.5549
 1858SOL    HW217211   0.127   0.574  17.241 -0.1298 -0.0261  0.3768
 1859SOL     OW17212   3.070   3.013   1.680 -0.4000  0.5917  0.6558
 1859SOL    HW117213   3.009   2.951   1.638  0.4398  1.0638 -1.2727
 1859SOL    HW217214   3.059   2.998   1.774  1.6314 -0.4843  0.7287
 1860SOL     OW17215   3.074   0.217   2.043  0.3409  0.0893  0.0062
 1860SOL    HW117216   3.003   0.260   1.994  0.0018  0.9771  1.2744
 1860SOL    HW217217   3.066   0.264   2.126  1.5455 -2.1822  1.4103
 1861SOL     OW17218   2.378   1.676   2.369  0.6649  0.2672 -0.4212
 1861SOL    HW117219   2.359   1.685   2.275 -0.3948 -1.2333 -0.3507
 1861SOL    HW217220   2.345   1.758   2.406 -2.1375 -1.1939  0.2531
 1862SOL     OW17221   3.244   1.526   2.381 -0.4748 -0.1962  0.1631
 1862SOL    HW117222   3.228   1.568   2.466 -1.1134  0.9994 -0.5483
 1862SOL    HW217223   3.286   1.447   2.415  0.0975 -0.0479 -0.2119
 1863SOL     OW17224   4.363   1.000   6.858  0.0183 -0.2498 -0.0183
 1863SOL    HW117225   4.331   0.921   6.815 -0.0018  0.1924 -0.8128
 1863SOL    HW217226   4.292   1.060   6.836  2.6454  2.1591 -2.0413
 1864SOL     OW17227   2.647   0.497   9.115 -0.4777 -0.2361  0.2530
 1864SOL    HW117228   2.629   0.591   9.115 -0.4488 -0.2267 -0.5693
 1864SOL    HW217229   2.688   0.486   9.200 -0.9508  0.1092  0.5303
 1865SOL     OW17230   3.247   1.817   5.017  0.8500 -0.3043 -0.1888
 1865SOL    HW117231   3.175   1.756   5.001  0.3285 -0.3071  2.1431
 1865SOL    HW217232   3.320   1.756   5.008 -0.0204 -1.6059  1.5124
 1866SOL     OW17233   0.340   4.415   3.030  0.3189  0.1433  0.4610
 1866SOL    HW117234   0.273   4.460   2.979 -0.5101 -1.2149  0.3516
 1866SOL    HW217235   0.411   4.480   3.029  0.1905  0.2820  0.4251
 1867SOL     OW17236   0.989   0.401   6.873 -0.2557  0.2279  0.0471
 1867SOL    HW117237   0.966   0.357   6.954 -1.3795  0.9217  0.0918
 1867SOL    HW217238   0.912   0.386   6.819 -0.7426 -2.2223  1.4247
 1868SOL     OW17239   3.229   3.616   4.161  0.2693  0.1346  0.0842
 1868SOL    HW117240   3.158   3.654   4.109  3.1753  0.7314 -3.4761
 1868SOL    HW217241   3.274   3.559   4.099 -1.7178 -1.1656 -0.1691
 1869SOL     OW17242   2.252   1.780   3.326 -0.1865 -0.3045  0.5333
 1869SOL    HW117243   2.171   1.735   3.303  0.4602 -0.7363 -0.8804
 1869SOL    HW217244   2.293   1.774   3.240  0.5332  1.0099  0.7901
 1870SOL     OW17245   4.100   4.475  11.206 -0.2435 -0.3302 -0.4437
 1870SOL    HW117246   4.184   4.515  11.182  0.4844 -1.6247 -0.0359
 1870SOL    HW217247   4.128   4.414  11.274  0.1595 -2.1660 -2.2735
 1871SOL     OW17248   1.825   0.056   2.090 -0.4231 -0.1453 -0.2198
 1871SOL    HW117249   1.808   0.120   2.160 -1.2276 -0.5586 -0.0423
 1871SOL    HW217250   1.905   0.104   2.065 -0.2455 -0.3971 -0.1300
 1872SOL     OW17251   1.927   4.646   2.350  0.0338  0.4009  0.4126
 1872SOL    HW117252   1.847   4.697   2.362 -0.4809 -0.8093  2.0819
 1872SOL    HW217253   1.929   4.635   2.255  0.1212  0.4381  0.4104
 1873SOL     OW17254   3.311   2.646   8.779  0.0111  0.1723  0.1524
 1873SOL    HW117255   3.254   2.689   8.715 -0.8932 -0.9939  0.1727
 1873SOL    HW217256   3.284   2.556   8.761  0.5007 -0.2246  1.4123
 1874SOL     OW17257   2.374   2.095   0.612  0.2586  0.5083 -0.3988
 1874SOL    HW117258   2.378   2.142   0.696 -1.6529 -0.4895  0.2423
 1874SOL    HW217259   2.428   2.019   0.634  1.1901  1.2068 -0.2604
 1875SOL     OW17260   2.158   1.489   2.380 -0.5864  0.2903 -0.4891
 1875SOL    HW117261   2.234   1.545   2.396 -1.8263  1.7122  0.5319
 1875SOL    HW217262   2.141   1.437   2.459 -0.6146 -0.2266 -0.8376
 1876SOL     OW17263   3.828   0.507   4.203  0.1997  0.1053 -0.3418
 1876SOL    HW117264   3.849   0.513   4.110 -0.8894  2.9706 -0.4270
 1876SOL    HW217265   3.918   0.518   4.235  0.2059 -0.9522  0.0046
 1877SOL     OW17266   1.319   2.688   4.715 -0.8244 -0.4948 -0.5247
 1877SOL    HW117267   1.371   2.728   4.646  0.0901  0.7466  0.8863
 1877SOL    HW217268   1.312   2.597   4.685 -1.5328 -0.3282 -0.8763
 1878SOL     OW17269   1.951   3.534   9.017  0.0478 -0.1024 -0.3624
 1878SOL    HW117270   1.971   3.459   8.961  1.1792  0.5261 -0.8022
 1878SOL    HW217271   1.989   3.503   9.098 -2.5313 -1.7257  0.2132
 1879SOL     OW17272   4.422   4.206   4.590  0.6682 -0.0894  0.1182
 1879SOL    HW117273   4.356   4.191   4.657  0.3408 -0.0092 -0.1830
 1879SOL    HW217274   4.489   4.254   4.638  3.5128 -2.5659 -1.4330
 1880SOL     OW17275   0.517   0.095  14.195 -0.0407 -0.0033  0.2603
 1880SOL    HW117276   0.591   0.120  14.250 -0.3036 -0.0701  0.6519
 1880SOL    HW217277   0.512   4.740  14.201  2.8766 -0.1019  0.9895
 1881SOL     OW17278   0.294   1.682  11.159  0.5368  0.6465  0.0844
 1881SOL    HW117279   0.249   1.650  11.081 -1.3338  0.9235  1.0540
 1881SOL    HW217280   0.380   1.640  11.148  1.5305  2.6609  0.1127
 1882SOL     OW17281   4.700   0.096   5.879 -0.0513  0.3735 -0.2049
 1882SOL    HW117282   4.648   0.175   5.891 -0.6513 -0.1120  0.4034
 1882SOL    HW217283   0.052   0.121   5.870  0.4036 -0.6158  1.7238
 1883SOL     OW17284   2.318   4.484   8.284 -0.1939 -0.3259 -0.1446
 1883SOL    HW117285   2.258   4.540   8.334  0.7551 -1.4378  2.2743
 1883SOL    HW217286   2.297   4.400   8.325 -1.9299 -0.3516 -1.0575
 1884SOL     OW17287   0.009   1.250   9.471  0.4997  0.0146  0.4108
 1884SOL    HW117288   4.677   1.297   9.512  0.3628  0.4937 -0.3745
 1884SOL    HW217289   0.083   1.245   9.531 -0.7040  2.5582  2.0723
 1885SOL     OW17290   1.526   0.693   5.998  0.3135  0.1295 -0.1442
 1885SOL    HW117291   1.490   0.612   5.961  1.0410  0.0715 -0.7208
 1885SOL    HW217292   1.606   0.697   5.946  1.2772  0.4012  1.3529
 1886SOL     OW17293   0.069   2.733   4.722 -0.0044 -0.0425 -0.5295
 1886SOL    HW117294   0.029   2.818   4.704 -0.2371 -0.1369 -0.4584
 1886SOL    HW217295   0.019   2.673   4.667 -2.2835  1.9346 -0.6628
 1887SOL     OW17296   2.137   1.348   8.049 -0.1255  0.0148  0.0857
 1887SOL    HW117297   2.104   1.430   8.014 -0.9528 -0.7654 -0.9610
 1887SOL    HW217298   2.229   1.369   8.063 -1.0976  2.8898  2.0240
 1888SOL     OW17299   4.218   4.551   3.008  0.1474 -0.7863 -0.2125
 1888SOL    HW117300   4.278   4.476   3.012 -1.3463 -1.9153  0.9567
 1888SOL    HW217301   4.272   4.619   3.047  2.2856 -2.8405  0.4326
 1889SOL     OW17302   0.406   0.176  15.030 -0.2711  0.0885 -0.1439
 1889SOL    HW117303   0.416   0.258  15.077 -2.0997 -0.4162  1.1164
 1889SOL    HW217304   0.438   0.179  14.939  2.4429  1.5333  0.8885
 1890SOL     OW17305   0.641   0.745   3.037  0.1197  0.5788  0.1463
 1890SOL    HW117306   0.558   0.703   3.012  1.2830 -2.4572  1.4311
 1890SOL    HW217307   0.646   0.733   3.132 -0.8463  0.9677  0.2538
 1891SOL     OW17308   3.127   3.693   8.214  0.7929 -0.2779  0.0456
 1891SOL    HW117309   3.121   3.619   8.275 -1.8578  0.1369  0.3014
 1891SOL    HW217310   3.051   3.742   8.246  0.5289 -1.0247  0.5628
 1892SOL     OW17311   2.975   3.121   7.885  0.1650 -0.5235  0.0047
 1892SOL    HW117312   2.884   3.090   7.886 -0.6153  1.7636  1.0356
 1892SOL    HW217313   3.001   3.102   7.795 -0.9549  1.1579 -0.6856
 1893SOL     OW17314   2.073   2.808   5.216  0.2008  0.0176  0.0617
 1893SOL    HW117315   2.065   2.770   5.129 -1.6039  0.5511 -0.0124
 1893SOL    HW217316   2.065   2.724   5.261 -1.7068  0.7675  1.1279
 1894SOL     OW17317   1.269   4.453   9.410  0.0521 -0.3743  0.1736
 1894SOL    HW117318   1.354   4.496   9.412  0.2102 -0.6103 -1.0108
 1894SOL    HW217319   1.219   4.498   9.478  0.1203 -0.8116  0.5081
 1895SOL     OW17320   0.787   2.723   7.227  0.5476  0.0810  0.5895
 1895SOL    HW117321   0.855   2.770   7.275  1.1935  0.4560 -0.6717
 1895SOL    HW217322   0.742   2.793   7.180  1.7568  0.0365 -0.6662
 1896SOL     OW17323   1.870   0.120  16.963  0.8102 -0.1502  0.0374
 1896SOL    HW117324   1.888   0.205  16.924 -0.0458  0.3187  0.6811
 1896SOL    HW217325   1.920   0.124  17.044 -1.4081 -0.3529  1.4335
 1897SOL     OW17326   3.872   3.034   5.177  0.1070 -0.1490 -0.0744
 1897SOL    HW117327   3.960   3.038   5.140 -0.0821 -2.5144 -0.7819
 1897SOL    HW217328   3.887   2.955   5.229 -1.3021 -0.8485 -0.7031
 1898SOL     OW17329   0.340   4.588   9.638  0.3690  0.0097 -0.3748
 1898SOL    HW117330   0.383   4.673   9.632 -0.0618  0.2406 -0.1508
 1898SOL    HW217331   0.256   4.606   9.679  0.5064 -4.1514  1.7155
 1899SOL     OW17332   2.522   0.615   1.218 -0.3650  0.1646 -0.0419
 1899SOL    HW117333   2.438   0.654   1.193 -0.8851 -0.7101  0.3596
 1899SOL    HW217334   2.552   0.584   1.132 -0.0453 -0.1342  0.1773
 1900SOL     OW17335   3.434   4.127   5.149 -0.4623  0.0011  0.1367
 1900SOL    HW117336   3.436   4.072   5.071 -0.8675 -0.1248  0.2152
 1900SOL    HW217337   3.341   4.143   5.164 -0.4619  1.4734 -1.5117
 1901SOL     OW17338   3.104   4.446   1.831  0.0304  0.1924 -0.4555
 1901SOL    HW117339   3.071   4.397   1.755  0.0511  1.5115 -1.3162
 1901SOL    HW217340   3.191   4.409   1.845 -0.0166 -0.5032 -1.9772
 1902SOL     OW17341   3.377   2.489   1.769  0.2769 -0.7562 -0.3424
 1902SOL    HW117342   3.314   2.428   1.804 -1.3182  1.1537  0.1149
 1902SOL    HW217343   3.460   2.443   1.781  2.0517  2.8545  1.3605
 1903SOL     OW17344   2.660   0.814   8.267  0.5199 -0.6488 -0.1116
 1903SOL    HW117345   2.578   0.765   8.275  1.3884 -2.2667 -1.0522
 1903SOL    HW217346   2.637   0.897   8.226  0.6066 -0.2164  0.7192
 1904SOL     OW17347   0.789   3.095   5.590 -0.0102 -0.3940  0.2127
 1904SOL    HW117348   0.880   3.090   5.560  0.0050 -0.1268  0.2113
 1904SOL    HW217349   0.769   3.004   5.611 -0.8412  0.0498  1.3190
 1905SOL     OW17350   3.580   3.559   3.667 -0.1219  0.0894 -0.1565
 1905SOL    HW117351   3.662   3.607   3.674 -1.4443  2.3018  0.1062
 1905SOL    HW217352   3.514   3.628   3.673 -1.4464 -1.2145  0.2027
 1906SOL     OW17353   3.379   4.156  10.601 -0.8780  0.5536  0.3736
 1906SOL    HW117354   3.376   4.163  10.696 -1.0137 -0.1200  0.4174
 1906SOL    HW217355   3.321   4.081  10.591 -0.6378  0.3222  0.7478
 1907SOL     OW17356   3.312   2.798  12.069  0.2235  0.3962 -0.3640
 1907SOL    HW117357   3.262   2.880  12.066 -0.4849 -0.0541 -0.6197
 1907SOL    HW217358   3.371   2.806  12.144  0.2533  0.4219 -0.3896
 1908SOL     OW17359   0.080   0.562   8.193  0.0860 -0.6807  0.2598
 1908SOL    HW117360   0.003   0.620   8.198  0.2931 -0.2372 -1.6295
 1908SOL    HW217361   0.050   0.474   8.218 -0.5322 -0.7302 -0.6553
 1909SOL     OW17362   0.495   1.892   3.457  0.2577 -0.5853  0.9936
 1909SOL    HW117363   0.556   1.884   3.531  1.3149  3.5152  0.6021
 1909SOL    HW217364   0.527   1.824   3.399  0.5796 -1.5716  2.3227
 1910SOL     OW17365   1.412   4.280   8.563 -0.0718  0.2325  0.3800
 1910SOL    HW117366   1.491   4.299   8.512 -1.9262  1.4696 -2.0365
 1910SOL    HW217367   1.454   4.272   8.649 -0.6136 -1.6993  0.4614
 1911SOL     OW17368   0.892   0.844  16.427  0.2460 -0.0075 -0.1528
 1911SOL    HW117369   0.971   0.892  16.402 -0.7515  0.7354 -1.8128
 1911SOL    HW217370   0.913   0.761  16.385 -2.3322 -0.0876 -1.2922
 1912SOL     OW17371   0.484   4.694   2.428 -0.3320 -0.0137  0.2023
 1912SOL    HW117372   0.481   4.677   2.334 -0.4007 -1.5096  0.4769
 1912SOL    HW217373   0.566   4.652   2.454 -0.7573 -1.1043 -0.2306
 1913SOL     OW17374   0.657   0.827  15.268  0.3367  0.1490 -0.0061
 1913SOL    HW117375   0.639   0.804  15.177 -0.8355  0.8315  0.0485
 1913SOL    HW217376   0.571   0.862  15.292  1.2881  1.3817  1.5921
 1914SOL     OW17377   0.870   1.858   3.850  0.3083 -0.0429 -0.2242
 1914SOL    HW117378   0.829   1.853   3.936 -0.0071 -0.3806 -0.3944
 1914SOL    HW217379   0.962   1.835   3.862  0.5647  0.9081 -0.3595
 1915SOL     OW17380   1.989   3.102   9.276  0.2757 -0.1715  0.4962
 1915SOL    HW117381   2.047   3.156   9.223  0.2946 -0.2986  0.3883
 1915SOL    HW217382   1.910   3.110   9.223  0.4162  0.7730  0.4291
 1916SOL     OW17383   0.456   3.674   9.623  0.0435  0.2820 -0.2595
 1916SOL    HW117384   0.434   3.584   9.601  2.6916 -0.0435 -1.5066
 1916SOL    HW217385   0.458   3.723   9.541  1.6924 -0.8183 -0.8667
 1917SOL     OW17386   2.173   2.423   9.317  0.1255  0.4980 -0.2877
 1917SOL    HW117387   2.228   2.487   9.363  0.2344  0.0134  0.2550
 1917SOL    HW217388   2.230   2.348   9.328 -1.2908 -0.7315 -1.2977
 1918SOL     OW17389   0.876   0.880   8.673 -0.6061 -0.7584 -0.0314
 1918SOL    HW117390   0.893   0.809   8.735  0.8207  1.1562  1.7842
 1918SOL    HW217391   0.952   0.866   8.618 -1.1930  0.3284 -1.1303
 1919SOL     OW17392   0.534   3.281   0.431 -0.4634 -0.5481  0.2979
 1919SOL    HW117393   0.446   3.262   0.464 -1.3697 -0.1408 -1.8460
 1919SOL    HW217394   0.561   3.190   0.425 -0.8182 -0.4367 -3.2750
 1920SOL     OW17395   3.516   1.239   6.497  0.3919 -0.1485  0.3545
 1920SOL    HW117396   3.584   1.231   6.429  1.9338  0.6663  1.7998
 1920SOL    HW217397   3.433   1.219   6.453  0.1818  1.2609  0.0996
 1921SOL     OW17398   2.049   4.197   6.997  0.3072  0.6648  0.2574
 1921SOL    HW117399   1.987   4.133   7.031  0.0585  0.9745  0.3824
 1921SOL    HW217400   2.070   4.248   7.075  0.6975  1.0487 -0.0948
 1922SOL     OW17401   2.669   2.270   9.035 -0.0269 -0.3072 -0.1722
 1922SOL    HW117402   2.754   2.294   9.071 -0.3596 -0.2383  0.5623
 1922SOL    HW217403   2.701   2.215   8.963  0.0362 -1.9783  1.1546
 1923SOL     OW17404   2.894   2.672   2.087  0.2168 -0.1899 -0.2238
 1923SOL    HW117405   2.824   2.699   2.147  0.3590  1.6771 -0.9091
 1923SOL    HW217406   2.969   2.669   2.147 -0.2376  0.6850  0.3913
 1924SOL     OW17407   0.696   1.697   7.876 -0.6542 -0.5566 -0.7106
 1924SOL    HW117408   0.720   1.694   7.783  2.6312 -2.5296  0.1805
 1924SOL    HW217409   0.614   1.649   7.878 -0.4373 -0.8936  0.2975
 1925SOL     OW17410   1.717   3.372   8.174 -0.3562  0.0946 -0.0726
 1925SOL    HW117411   1.698   3.278   8.183 -2.3779  0.2569 -2.7004
 1925SOL    HW217412   1.813   3.367   8.172 -0.3141  1.0098 -0.5645
 1926SOL     OW17413   3.718   3.577   5.842 -0.2048  0.2597 -0.1907
 1926SOL    HW117414   3.713   3.642   5.912  2.5470 -1.0198  1.2114
 1926SOL    HW217415   3.803   3.534   5.853 -0.9637 -1.6333 -1.7106
 1927SOL     OW17416   1.777   1.177   7.900 -0.2283  0.7223  0.4896
 1927SOL    HW117417   1.738   1.264   7.900  0.6610  1.1211 -0.0696
 1927SOL    HW217418   1.698   1.126   7.917 -1.0186  1.5567 -0.7012
 1928SOL     OW17419   0.056   1.602   3.158 -0.9627 -0.3767 -0.1805
 1928SOL    HW117420   0.082   1.531   3.217 -0.3129 -0.9168 -1.1118
 1928SOL    HW217421   0.144   1.631   3.135 -1.8726  1.6592 -1.1186
 1929SOL     OW17422   3.854   3.374  14.899  0.1934  0.7110 -0.1748
 1929SOL    HW117423   3.898   3.434  14.959  0.7689  2.3123 -2.2264
 1929SOL    HW217424   3.923   3.309  14.884  1.4744  2.1296 -0.3465
 1930SOL     OW17425   4.560   4.123  11.747  0.9694 -0.2180  0.0055
 1930SOL    HW117426   4.471   4.156  11.730 -0.0671 -1.8206  2.2877
 1930SOL    HW217427   4.607   4.202  11.720 -0.6767  1.0957  0.9317
 1931SOL     OW17428   4.421   3.035   5.093  0.3427  0.2236 -0.2069
 1931SOL    HW117429   4.507   3.077   5.091  0.2216  0.4142 -1.4903
 1931SOL    HW217430   4.407   3.043   5.187  1.4882 -1.2480  0.0968
 1932SOL     OW17431   4.654   2.495   5.433 -0.1229  0.2476 -0.0891
 1932SOL    HW117432   4.600   2.574   5.427  0.6365  0.8454  0.9627
 1932SOL    HW217433   4.673   2.473   5.342 -2.1121  0.1250 -0.4549
 1933SOL     OW17434   2.077   4.463   9.153  0.1213 -0.6154  0.0891
 1933SOL    HW117435   2.052   4.555   9.168 -1.7875 -0.8262 -1.8513
 1933SOL    HW217436   1.990   4.430   9.176  0.2325  1.2108  3.1889
 1934SOL     OW17437   3.021   1.414   3.513 -0.5888 -0.3869 -0.7770
 1934SOL    HW117438   3.040   1.324   3.538  2.2131  1.0220  2.2284
 1934SOL    HW217439   3.110   1.449   3.521 -1.7999  2.4752  0.0495
 1935SOL     OW17440   4.067   4.610  15.130  0.0447 -0.0352 -0.0495
 1935SOL    HW117441   3.994   4.609  15.068 -0.6431  0.5617  0.7557
 1935SOL    HW217442   4.051   4.528  15.176  2.2029  0.7181  1.9912
 1936SOL     OW17443   1.697   2.340  12.591  0.3418 -0.3059  0.2714
 1936SOL    HW117444   1.607   2.308  12.578  0.3855 -0.0477 -0.6773
 1936SOL    HW217445   1.736   2.256  12.567  1.7084  0.6951 -0.9355
 1937SOL     OW17446   3.969   2.882   8.430 -0.4424  0.0993  0.7825
 1937SOL    HW117447   3.959   2.811   8.494  0.7088 -1.0564 -0.3143
 1937SOL    HW217448   3.949   2.960   8.481  0.0354 -0.3114  1.5929
 1938SOL     OW17449   3.817   3.361  12.563  0.2444 -0.4611 -0.1297
 1938SOL    HW117450   3.806   3.402  12.477  0.3070 -1.9785 -0.8610
 1938SOL    HW217451   3.733   3.317  12.573  0.2761 -0.9716 -2.1433
 1939SOL     OW17452   4.079   2.610   7.083  0.8016 -0.0455 -0.1357
 1939SOL    HW117453   4.172   2.633   7.083  0.1463  2.6273 -0.7572
 1939SOL    HW217454   4.073   2.534   7.141 -0.4270 -0.2337 -0.5204
 1940SOL     OW17455   1.273   1.744  13.270 -0.4274 -0.1338  0.2680
 1940SOL    HW117456   1.184   1.779  13.276 -0.3677  0.0821 -0.0890
 1940SOL    HW217457   1.272   1.660  13.315 -0.5970  0.9730  2.3158
 1941SOL     OW17458   1.221   1.604   4.817 -0.2840 -0.2365 -0.0421
 1941SOL    HW117459   1.205   1.583   4.909  0.9470 -2.5711 -0.3578
 1941SOL    HW217460   1.169   1.535   4.775  1.9409 -2.0151  0.1027
 1942SOL     OW17461   4.284   0.754   4.992  0.3547  0.3835  0.5308
 1942SOL    HW117462   4.356   0.692   4.990  1.4251  1.5172  4.3690
 1942SOL    HW217463   4.325   0.837   5.017  1.8884 -0.1749 -0.1503
 1943SOL     OW17464   0.376   0.126   8.405  0.1646 -0.3022 -0.2971
 1943SOL    HW117465   0.297   0.118   8.458  0.8012 -0.8129  0.5861
 1943SOL    HW217466   0.395   0.036   8.377  1.6202  1.1541 -3.9128
 1944SOL     OW17467   3.574   1.524   8.698 -0.3162 -0.1340  0.3969
 1944SOL    HW117468   3.626   1.459   8.649  0.4152  0.4518  0.3927
 1944SOL    HW217469   3.608   1.600   8.650  0.4758 -1.2671 -0.8551
 1945SOL     OW17470   1.018   0.627  16.351 -0.0441  0.0978 -0.0662
 1945SOL    HW117471   0.944   0.567  16.357  1.9358 -2.3843 -0.0517
 1945SOL    HW217472   1.098   0.580  16.376  0.9360  0.1832 -3.0632
 1946SOL     OW17473   4.560   3.845   7.876 -0.0029 -0.1027  0.5437
 1946SOL    HW117474   4.648   3.812   7.894  0.2408  1.0000  1.2954
 1946SOL    HW217475   4.518   3.762   7.850 -0.7940  0.2935  0.5465
 1947SOL     OW17476   4.661   1.899   6.593  0.1687 -0.3709 -0.1215
 1947SOL    HW117477   4.673   1.804   6.599  0.3514 -0.0235  4.9769
 1947SOL    HW217478   0.008   1.924   6.566 -0.3218  1.2739 -0.1438
 1948SOL     OW17479   3.129   3.099  13.883  0.2291 -0.2471 -0.2642
 1948SOL    HW117480   3.186   3.055  13.820 -0.7854 -0.9356 -0.6963
 1948SOL    HW217481   3.156   3.189  13.866 -0.1338  0.0488  0.7276
 1949SOL     OW17482   2.177   2.290  14.852  0.1309 -0.1796 -0.1976
 1949SOL    HW117483   2.107   2.267  14.792  0.1537 -1.3771  0.2490
 1949SOL    HW217484   2.201   2.211  14.901  0.3052  0.0876  0.1559
 1950SOL     OW17485   2.900   4.537   8.792  0.5395  0.1443 -0.2504
 1950SOL    HW117486   2.994   4.518   8.790  0.1634 -1.6989 -0.4693
 1950SOL    HW217487   2.890   4.631   8.809  2.0063  0.3600 -0.5941
 1951SOL     OW17488   4.208   1.066  14.047 -0.5932  0.7854 -0.4572
 1951SOL    HW117489   4.143   1.087  13.980  1.2172  0.0741 -2.4278
 1951SOL    HW217490   4.145   1.030  14.109  1.5343  2.7588  2.8541
 1952SOL     OW17491   2.633   4.592   5.094 -0.4412 -0.5705 -0.1923
 1952SOL    HW117492   2.606   4.639   5.016  1.8231  0.8769 -0.0898
 1952SOL    HW217493   2.725   4.590   5.069 -0.5194 -3.9423 -0.2143
 1953SOL     OW17494   1.405   3.077   2.235 -0.0604 -0.2699  0.6701
 1953SOL    HW117495   1.336   3.012   2.226  0.2867 -0.5715  0.1517
 1953SOL    HW217496   1.375   3.101   2.323  2.3058 -0.0244  1.4157
 1954SOL     OW17497   3.996   0.122  14.265 -0.4172 -0.2209  0.0554
 1954SOL    HW117498   3.964   0.040  14.302 -0.4876  0.7333  2.1317
 1954SOL    HW217499   4.082   0.100  14.230  0.0450 -0.0304  1.0760
 1955SOL     OW17500   1.975   0.519   1.687  0.0241  0.3092 -0.4128
 1955SOL    HW117501   2.055   0.471   1.706 -0.1488 -0.8554 -2.7271
 1955SOL    HW217502   1.927   0.496   1.767  2.2995  0.9723  1.1502
 1956SOL     OW17503   1.483   4.348   6.858 -0.2289 -0.6576 -0.0827
 1956SOL    HW117504   1.523   4.337   6.772 -2.7626  1.5515 -1.5115
 1956SOL    HW217505   1.545   4.318   6.925  2.3718  0.9639 -1.7773
 1957SOL     OW17506   1.992   4.653  12.762  0.0028 -0.2673 -0.0393
 1957SOL    HW117507   1.921   4.699  12.807 -0.2863 -0.8629  0.1091
 1957SOL    HW217508   1.938   4.613  12.693  0.6625  0.0113 -0.7201
 1958SOL     OW17509   3.230   2.398   7.097  0.1694  0.0573 -0.2759
 1958SOL    HW117510   3.189   2.440   7.173 -0.5420 -1.7071  0.3353
 1958SOL    HW217511   3.186   2.434   7.020  0.2216 -0.0291 -0.3454
 1959SOL     OW17512   0.151   4.385  11.586  0.0760 -0.2466  0.0440
 1959SOL    HW117513   0.156   4.361  11.678  0.7098  1.6429  0.4957
 1959SOL    HW217514   0.056   4.390  11.594  0.3410  2.2809  1.6689
 1960SOL     OW17515   0.629   2.585   9.281 -0.0898 -0.5700 -0.5304
 1960SOL    HW117516   0.641   2.540   9.197 -1.1638 -1.3649 -0.2517
 1960SOL    HW217517   0.537   2.610   9.275  0.1212 -0.1771 -2.1874
 1961SOL     OW17518   0.130   1.584  14.680  0.7177 -0.2561  0.1890
 1961SOL    HW117519   0.098   1.505  14.723 -2.5760  1.3368  0.6236
 1961SOL    HW217520   0.198   1.555  14.619  1.8251 -0.2612  1.4181
 1962SOL     OW17521   1.128   0.783   8.057  0.1403 -0.0073 -0.1426
 1962SOL    HW117522   1.223   0.785   8.069  0.0337 -0.7732  0.8984
 1962SOL    HW217523   1.109   0.876   8.059  0.4145  0.0224  1.0844
 1963SOL     OW17524   2.984   1.113   7.002  0.3401  0.4222 -0.3738
 1963SOL    HW117525   3.016   1.034   6.959 -1.4288 -1.5637  1.9692
 1963SOL    HW217526   2.893   1.085   7.011  0.5425 -0.2210 -0.3510
 1964SOL     OW17527   3.103   1.624   3.171 -0.4465 -0.3386  0.4788
 1964SOL    HW117528   3.062   1.592   3.091 -0.7653  2.5569 -0.4989
 1964SOL    HW217529   3.103   1.719   3.158 -0.4840 -0.6952 -2.0563
 1965SOL     OW17530   3.644   3.516  10.876  0.1398 -0.1781 -0.0670
 1965SOL    HW117531   3.697   3.586  10.839 -0.0688  0.0438  0.0586
 1965SOL    HW217532   3.708   3.445  10.881  1.7852  1.1021 -3.3391
 1966SOL     OW17533   0.972   2.302   0.047 -0.2661 -0.7015 -0.3854
 1966SOL    HW117534   1.068   2.302   0.042 -0.3292 -0.3340 -1.3923
 1966SOL    HW217535   0.956   2.370  17.741 -1.1737  0.2792  0.8813
 1967SOL     OW17536   3.061   0.976  14.706  0.1802 -0.3268 -0.2005
 1967SOL    HW117537   3.111   0.962  14.626 -4.2561  0.7002 -3.1597
 1967SOL    HW217538   3.102   1.056  14.738 -1.4878 -0.7946  3.1136
 1968SOL     OW17539   4.226   1.182   5.421 -0.0063  0.0207 -0.0476
 1968SOL    HW117540   4.284   1.245   5.380 -0.2241  0.9673  1.1208
 1968SOL    HW217541   4.155   1.241   5.446 -0.2605  0.1272 -1.0485
 1969SOL     OW17542   2.046   3.758   5.108 -0.4479  0.3517  0.5544
 1969SOL    HW117543   2.048   3.854   5.107 -2.6267  0.3900 -0.9999
 1969SOL    HW217544   2.102   3.742   5.184  0.6747  0.7052 -0.1923
 1970SOL     OW17545   1.409   1.482   0.258 -0.5598  0.8987 -0.0829
 1970SOL    HW117546   1.340   1.429   0.300 -0.9098 -0.1489 -1.9693
 1970SOL    HW217547   1.355   1.552   0.222 -0.2398  0.7038 -0.9244
 1971SOL     OW17548   2.324   1.872   3.061  0.1743  0.3992 -0.2757
 1971SOL    HW117549   2.352   1.908   2.977  2.0420  2.8559  1.4029
 1971SOL    HW217550   2.368   1.926   3.127  1.2609 -0.0315 -0.6612
 1972SOL     OW17551   0.713   1.924   7.437 -0.5108  0.7196 -0.1204
 1972SOL    HW117552   0.621   1.914   7.412 -0.5036 -1.7166  0.7718
 1972SOL    HW217553   0.741   1.973   7.360  2.5802  1.0852  1.2492
 1973SOL     OW17554   1.054   2.255   7.210 -0.3821  0.3072 -0.5609
 1973SOL    HW117555   1.116   2.315   7.168 -0.9916  0.0221 -1.8652
 1973SOL    HW217556   0.984   2.319   7.222  0.2719  1.2067 -1.4984
 1974SOL     OW17557   3.348   4.442  10.788  0.4056 -1.0123  1.1367
 1974SOL    HW117558   3.400   4.522  10.799  0.2461 -0.7591  0.0533
 1974SOL    HW217559   3.416   4.380  10.764 -0.6964 -0.7910 -2.5647
 1975SOL     OW17560   3.698   3.305   4.205  0.3995  0.2749 -0.4798
 1975SOL    HW117561   3.731   3.354   4.130  0.2651 -0.0035 -0.7234
 1975SOL    HW217562   3.758   3.327   4.276  0.0299 -0.6044  0.1094
 1976SOL     OW17563   4.319   1.509   9.650  0.0312 -0.8896 -0.1133
 1976SOL    HW117564   4.250   1.465   9.699 -0.0053  0.7498  1.3156
 1976SOL    HW217565   4.262   1.567   9.598 -0.3541 -0.1890  1.0776
 1977SOL     OW17566   3.404   3.125   9.777  0.1679  0.5003 -0.4296
 1977SOL    HW117567   3.363   3.121   9.863 -2.1686 -0.8846 -1.6172
 1977SOL    HW217568   3.446   3.039   9.779 -0.9549 -0.0308 -0.2706
 1978SOL     OW17569   4.085   1.018  11.041  0.0639  0.0030  0.3527
 1978SOL    HW117570   4.001   1.056  11.066 -1.1275 -2.6606  0.4092
 1978SOL    HW217571   4.075   1.016  10.946  3.4929 -1.2113  0.0509
 1979SOL     OW17572   3.569   0.816   2.728  0.2849 -0.5859  0.4330
 1979SOL    HW117573   3.637   0.794   2.792  1.5463  0.1244 -0.6591
 1979SOL    HW217574   3.623   0.871   2.671 -0.5487  0.5042  0.7077
 1980SOL     OW17575   3.034   3.507   4.397  0.2201  0.5478 -0.3698
 1980SOL    HW117576   3.069   3.463   4.319 -1.5153 -2.3691  0.4931
 1980SOL    HW217577   2.945   3.518   4.365 -0.6101  0.9745  2.0838
 1981SOL     OW17578   1.935   1.467  16.213 -0.5755 -0.1491  0.1831
 1981SOL    HW117579   1.979   1.401  16.266 -0.9562  0.8755  1.7606
 1981SOL    HW217580   1.878   1.504  16.281 -0.7794 -0.6745  0.2979
 1982SOL     OW17581   4.523   4.333  10.868 -0.1789  0.7932 -0.0483
 1982SOL    HW117582   4.448   4.369  10.821 -0.3697  0.0635 -0.3039
 1982SOL    HW217583   4.476   4.278  10.931  1.3274  0.9265  1.1986
 1983SOL     OW17584   1.120   3.486   7.298 -0.2611  0.2024  0.1189
 1983SOL    HW117585   1.035   3.523   7.321  0.0902  0.7173  0.5879
 1983SOL    HW217586   1.127   3.406   7.350 -0.8643 -0.3333 -0.6316
 1984SOL     OW17587   0.044   3.063   1.888 -0.2252 -0.2727 -0.2487
 1984SOL    HW117588   0.105   3.026   1.952  1.8296  2.0686 -0.8441
 1984SOL    HW217589   0.096   3.126   1.838 -1.0623  0.7820  0.2106
 1985SOL     OW17590   2.284   1.259  17.019  0.1467 -0.1800  0.3151
 1985SOL    HW117591   2.300   1.350  16.995 -0.4418 -0.0122  0.5682
 1985SOL    HW217592   2.191   1.244  17.004 -0.0917 -1.5647  3.1230
 1986SOL     OW17593   3.665   4.603   6.675  0.0858  0.4623  0.1289
 1986SOL    HW117594   3.686   4.694   6.696 -0.9377  0.4585  1.1615
 1986SOL    HW217595   3.624   4.615   6.589  1.7635 -0.1976 -0.7512
 1987SOL     OW17596   2.479   4.110   3.792 -0.0218 -0.4174  0.1030
 1987SOL    HW117597   2.464   4.109   3.886 -0.1311 -1.6790  0.0681
 1987SOL    HW217598   2.391   4.119   3.756 -0.2534  0.4037  0.8831
 1988SOL     OW17599   3.166   4.529   8.144  0.2425  0.2412 -0.1732
 1988SOL    HW117600   3.118   4.556   8.222 -0.7265 -0.3415 -0.5693
 1988SOL    HW217601   3.119   4.582   8.079 -1.1744 -0.4193  0.3185
 1989SOL     OW17602   1.186   2.618   2.005 -0.0671 -0.1051 -0.0826
 1989SOL    HW117603   1.222   2.563   2.075  1.2368  0.5730 -0.2178
 1989SOL    HW217604   1.093   2.608   2.026 -0.1180 -0.5970 -0.5275
 1990SOL     OW17605   2.877   3.102  10.094  0.2827  0.2424 -0.1886
 1990SOL    HW117606   2.926   3.021  10.080  0.2780  0.3235 -0.6918
 1990SOL    HW217607   2.937   3.168  10.128 -0.5399 -0.4147  2.5340
 1991SOL     OW17608   3.421   2.670   8.100  0.2844  0.1357  0.1193
 1991SOL    HW117609   3.355   2.687   8.033  1.3074 -1.5923 -1.3079
 1991SOL    HW217610   3.466   2.591   8.072  1.7306  1.3633 -1.0245
 1992SOL     OW17611   2.229   1.885  14.344 -0.2524 -0.0543 -0.0552
 1992SOL    HW117612   2.296   1.896  14.277 -0.9680 -1.0037 -0.9180
 1992SOL    HW217613   2.223   1.790  14.351  1.5380 -0.3251 -2.2582
 1993SOL     OW17614   0.360   1.559   8.156 -0.2269 -0.3671  0.0085
 1993SOL    HW117615   0.313   1.540   8.075  1.7714 -0.4135 -1.1352
 1993SOL    HW217616   0.285   1.566   8.216 -1.2347  0.8197 -1.4031
 1994SOL     OW17617   0.039   3.714   7.649 -0.2716  0.0062 -0.0703
 1994SOL    HW117618   0.049   3.681   7.560 -1.9029 -2.7254  0.7457
 1994SOL    HW217619   4.687   3.738   7.642 -0.6621 -1.1601  1.0546
 1995SOL     OW17620   0.735   0.728   5.733  0.9230 -0.6128 -0.0125
 1995SOL    HW117621   0.659   0.693   5.686  0.4105  0.2256  0.2028
 1995SOL    HW217622   0.766   0.647   5.773  0.3107 -0.5368  0.6125
 1996SOL     OW17623   2.732   4.076   3.961 -0.5362 -0.2331 -0.3260
 1996SOL    HW117624   2.813   4.127   3.968 -0.8304  0.0067  1.3524
 1996SOL    HW217625   2.735   4.037   3.874 -1.8158  3.9173 -2.2311
 1997SOL     OW17626   1.922   0.947   2.731 -0.0253 -0.8738  0.1877
 1997SOL    HW117627   1.943   0.857   2.707  0.3455 -0.1816 -2.0528
 1997SOL    HW217628   1.869   0.972   2.656  0.8757  1.3082  0.2866
 1998SOL     OW17629   1.506   3.312   7.725  0.5887 -0.1248 -0.6543
 1998SOL    HW117630   1.505   3.332   7.818  0.9783 -0.7234 -0.5289
 1998SOL    HW217631   1.521   3.218   7.729  2.0544  0.1614  0.1662
 1999SOL     OW17632   3.045   0.725   9.530 -0.0978  0.5567  0.1305
 1999SOL    HW117633   3.001   0.776   9.599 -2.2989 -2.6900  1.1638
 1999SOL    HW217634   2.999   0.748   9.450 -0.3809  2.2212  0.7807
 2000SOL     OW17635   4.075   0.064   3.098  0.3313 -0.3197  0.1835
 2000SOL    HW117636   4.040   0.088   3.012  0.4622 -0.1620  0.1732
 2000SOL    HW217637   4.114   4.719   3.084  1.2242 -0.1377  1.5808
 2001SOL     OW17638   4.640   1.768   2.785 -0.3261  0.1254 -0.1514
 2001SOL    HW117639   4.576   1.816   2.732 -0.2805 -1.9293 -2.0536
 2001SOL    HW217640   4.600   1.776   2.871 -0.9497 -1.4626 -0.2855
 2002SOL     OW17641   4.508   2.450   2.806  0.1607 -0.3638  0.7414
 2002SOL    HW117642   4.561   2.528   2.792 -0.4113 -0.2503 -0.7645
 2002SOL    HW217643   4.471   2.475   2.891 -0.7753  1.4917 -0.2344
 2003SOL     OW17644   2.169   1.322   5.951  0.5080 -0.3244  0.1181
 2003SOL    HW117645   2.139   1.394   6.006  3.1014  1.5432 -0.9178
 2003SOL    HW217646   2.180   1.363   5.865 -0.2633 -2.0175 -0.8082
 2004SOL     OW17647   0.424   2.023   2.751 -0.4769 -0.6471  0.4169
 2004SOL    HW117648   0.404   1.951   2.809  2.7634 -2.0669 -0.2348
 2004SOL    HW217649   0.338   2.063   2.762 -0.5401 -0.2350 -1.5779
 2005SOL     OW17650   0.495   3.688   1.636 -0.0966  0.1402 -0.3706
 2005SOL    HW117651   0.441   3.744   1.580  0.4456 -2.2441 -3.2983
 2005SOL    HW217652   0.504   3.620   1.570  1.6474  2.7679 -2.7880
 2006SOL     OW17653   2.782   3.668   9.686  0.1107  0.1918  0.0982
 2006SOL    HW117654   2.694   3.638   9.666  1.0132 -2.2321 -0.2932
 2006SOL    HW217655   2.779   3.743   9.745 -2.7727 -0.3078  0.5679
 2007SOL     OW17656   0.298   1.214   5.842  0.5081  0.4959  0.1290
 2007SOL    HW117657   0.248   1.264   5.778  1.3108  2.1597  0.7993
 2007SOL    HW217658   0.387   1.223   5.809  0.3855  1.2634 -0.0012
 2008SOL     OW17659   4.288   4.231   7.344  0.6821  0.4816  0.0311
 2008SOL    HW117660   4.228   4.202   7.276  3.4586 -1.4885 -1.5877
 2008SOL    HW217661   4.230   4.266   7.411  2.6899  1.8474  1.0918
 2009SOL     OW17662   0.138   4.211   8.640 -0.0248 -0.2987  0.3378
 2009SOL    HW117663   0.201   4.248   8.702  2.4234  0.0527 -2.3691
 2009SOL    HW217664   0.050   4.248   8.652 -0.3169 -1.6308  2.2504
 2010SOL     OW17665   3.220   2.417   8.081  0.3783 -0.4382  0.6232
 2010SOL    HW117666   3.239   2.473   8.157  1.6737  0.6526 -0.5144
 2010SOL    HW217667   3.186   2.480   8.018  1.1287 -1.2158 -0.5456
 2011SOL     OW17668   3.261   4.030   7.193 -0.1158  0.0880  0.7208
 2011SOL    HW117669   3.243   3.962   7.258 -1.0113 -0.5855 -0.2395
 2011SOL    HW217670   3.297   3.968   7.130 -0.3082  1.1243 -0.4199
 2012SOL     OW17671   2.076   3.394   2.748 -0.7737 -0.1920  0.1671
 2012SOL    HW117672   2.086   3.312   2.796 -0.3916 -0.8618 -1.0623
 2012SOL    HW217673   2.076   3.457   2.820  1.5386  0.1723 -0.1516
 2013SOL     OW17674   0.848   2.101   2.680 -0.3388  0.4277  0.8613
 2013SOL    HW117675   0.924   2.048   2.704 -1.9071 -2.4938 -0.6024
 2013SOL    HW217676   0.791   2.034   2.642  0.7471 -0.0044 -0.0116
 2014SOL     OW17677   1.748   2.729   5.417  0.0415  0.2445  0.6276
 2014SOL    HW117678   1.838   2.695   5.410 -0.1714 -0.2711  0.4224
 2014SOL    HW217679   1.701   2.681   5.349 -1.4164  0.0635  1.7716
 2015SOL     OW17680   1.111   1.247  14.774 -0.8950 -0.3029 -0.0800
 2015SOL    HW117681   1.073   1.293  14.849  2.5445  2.4074  0.0549
 2015SOL    HW217682   1.167   1.320  14.745 -0.4238 -0.8476 -0.5516
 2016SOL     OW17683   4.460   1.242   8.838 -0.5083 -0.2404  0.6978
 2016SOL    HW117684   4.431   1.175   8.900 -0.7452  0.8493  1.7757
 2016SOL    HW217685   4.551   1.249   8.866 -0.3126  2.0254 -0.5192
 2017SOL     OW17686   2.436   2.614   9.377  0.3996  0.2484 -0.3678
 2017SOL    HW117687   2.409   2.574   9.459  1.1396  1.4447  0.4727
 2017SOL    HW217688   2.528   2.590   9.367 -0.3923 -2.5434 -0.7286
 2018SOL     OW17689   0.498   2.613   8.851  0.6005 -0.0965 -0.1855
 2018SOL    HW117690   0.571   2.638   8.795  0.4910 -0.5227 -0.5200
 2018SOL    HW217691   0.444   2.689   8.831  0.1829 -0.5110 -0.6372
 2019SOL     OW17692   3.584   3.909   7.260 -0.3281 -0.2574  0.3844
 2019SOL    HW117693   3.610   3.998   7.283 -1.8249  0.5234 -0.9965
 2019SOL    HW217694   3.566   3.869   7.346 -1.9164 -2.5338 -1.0231
 2020SOL     OW17695   2.356   4.073   7.253  0.1190 -0.2596  0.2024
 2020SOL    HW117696   2.263   4.076   7.275 -0.1074 -0.6011 -0.7064
 2020SOL    HW217697   2.395   4.096   7.338 -1.6150  0.0597  0.9067
 2021SOL     OW17698   1.847   0.221   9.271 -0.5512 -0.4420 -0.3045
 2021SOL    HW117699   1.849   0.257   9.182 -0.2343  2.7341  0.9904
 2021SOL    HW217700   1.760   0.249   9.301 -1.1305 -2.0190 -0.5131
 2022SOL     OW17701   1.067   2.622  13.239  0.5169  0.6082  0.3608
 2022SOL    HW117702   1.074   2.619  13.334 -0.4385 -0.4578  0.3991
 2022SOL    HW217703   1.032   2.536  13.216  0.5095  0.0958  2.2956
 2023SOL     OW17704   2.745   3.500   2.616  0.4612 -0.7023  0.5212
 2023SOL    HW117705   2.668   3.494   2.672  0.7093 -0.6099  0.8707
 2023SOL    HW217706   2.776   3.587   2.642  3.2236 -1.3838 -0.5427
 2024SOL     OW17707   3.993   1.585  10.885  0.2348 -0.0256 -0.2345
 2024SOL    HW117708   4.084   1.592  10.856 -0.0323 -0.8197 -1.2742
 2024SOL    HW217709   3.982   1.654  10.950 -2.8387  1.2748 -2.1337
 2025SOL     OW17710   1.244   3.394   0.770 -0.2311 -0.2222 -0.1335
 2025SOL    HW117711   1.229   3.468   0.712 -3.0634 -0.2050  0.6247
 2025SOL    HW217712   1.305   3.435   0.832 -0.9821  0.6062  0.0483
 2026SOL     OW17713   0.667   3.381  11.036 -0.1934  0.1769 -0.3249
 2026SOL    HW117714   0.610   3.437  10.984  0.9001  2.5916  1.0854
 2026SOL    HW217715   0.659   3.424  11.122 -0.8141 -0.6555  0.0423
 2027SOL     OW17716   4.615   0.682   9.395  0.0138 -0.1443 -0.4648
 2027SOL    HW117717   4.676   0.610   9.406  2.5460  1.6669 -2.5823
 2027SOL    HW217718   4.528   0.647   9.414  0.6739 -0.6927  1.5168
 2028SOL     OW17719   0.764   0.583  14.089 -0.1425 -0.4068 -0.0287
 2028SOL    HW117720   0.791   0.573  14.180 -2.5991  0.2350  0.7755
 2028SOL    HW217721   0.826   0.646  14.051 -0.6203 -0.3836 -0.7740
 2029SOL     OW17722   4.185   0.462   7.508 -0.1277  0.1556 -0.1156
 2029SOL    HW117723   4.251   0.486   7.444  0.7589 -0.4855  0.5476
 2029SOL    HW217724   4.216   0.515   7.582  0.0129 -0.6491  0.4091
 2030SOL     OW17725   2.516   3.510   3.038 -0.1910  0.7392  0.3265
 2030SOL    HW117726   2.563   3.509   2.955  0.0343  1.8903  0.4318
 2030SOL    HW217727   2.583   3.554   3.090 -0.5810  2.3569 -0.5309
 2031SOL     OW17728   4.654   4.186   7.511  0.7624 -0.3344 -0.0106
 2031SOL    HW117729   4.709   4.143   7.576 -0.0375 -0.7514  0.3940
 2031SOL    HW217730   4.569   4.167   7.552 -0.2000 -1.6831 -2.6274
 2032SOL     OW17731   0.370   4.066   4.288 -0.0908  0.1570 -0.5828
 2032SOL    HW117732   0.399   4.003   4.222  0.4494 -1.1605  0.8958
 2032SOL    HW217733   0.453   4.107   4.316 -1.1049  1.2411  0.8459
 2033SOL     OW17734   1.894   3.722   7.011  0.0549 -0.0951  0.1980
 2033SOL    HW117735   1.868   3.685   7.095 -1.0822 -0.4154 -0.2883
 2033SOL    HW217736   1.988   3.706   7.016 -0.4197 -3.0345 -0.2215
 2034SOL     OW17737   1.579   3.364   2.246  0.1763  0.3112 -0.1374
 2034SOL    HW117738   1.580   3.359   2.342  1.0870  1.0393 -0.1077
 2034SOL    HW217739   1.566   3.269   2.237  0.5760  0.3518 -1.1256
 2035SOL     OW17740   3.834   3.569   6.995  0.1571 -0.7986 -0.2935
 2035SOL    HW117741   3.851   3.600   6.905 -0.5419 -0.2684 -0.2471
 2035SOL    HW217742   3.825   3.650   7.044  0.2484 -1.7383  1.2578
 2036SOL     OW17743   2.779   2.666   5.218  0.3519 -0.4187 -0.1793
 2036SOL    HW117744   2.782   2.748   5.169  0.4550  0.0092  0.5383
 2036SOL    HW217745   2.758   2.695   5.307 -0.1839  1.2056 -0.8365
 2037SOL     OW17746   0.950   0.901   5.686 -0.0109 -0.0776 -0.1904
 2037SOL    HW117747   0.891   0.826   5.689 -0.7927  0.4886 -1.4184
 2037SOL    HW217748   1.026   0.858   5.646  0.4693  0.6488 -0.0698
 2038SOL     OW17749   2.584   0.885   4.038  0.1791  0.3727 -0.2125
 2038SOL    HW117750   2.596   0.968   3.992  2.2108 -0.0899 -0.5368
 2038SOL    HW217751   2.532   0.840   3.972  0.4460  1.2440 -1.0248
 2039SOL     OW17752   2.889   4.411  16.028 -0.1590 -0.0165  0.5352
 2039SOL    HW117753   2.852   4.329  16.063 -3.5489  2.8511  3.6777
 2039SOL    HW217754   2.980   4.383  16.017  0.6791  3.1874 -0.4398
 2040SOL     OW17755   3.754   1.758  16.187  0.3686  0.2181  0.3149
 2040SOL    HW117756   3.811   1.693  16.147  0.2840  0.9421 -0.9586
 2040SOL    HW217757   3.719   1.710  16.262 -0.7841  2.1421  1.0125
 2041SOL     OW17758   4.272   1.028   2.623 -0.0290 -0.2400 -0.3661
 2041SOL    HW117759   4.254   1.087   2.697 -2.6238 -0.5635 -0.7325
 2041SOL    HW217760   4.310   1.093   2.564  1.2560 -0.0452  0.6942
 2042SOL     OW17761   3.571   1.412   0.170 -0.1151  0.4194  0.3344
 2042SOL    HW117762   3.503   1.444   0.110 -1.6669 -0.9755  1.3525
 2042SOL    HW217763   3.612   1.493   0.201 -2.4852  2.5489 -1.9853
 2043SOL     OW17764   4.333   4.669   6.126 -0.1119 -0.0245 -0.3383
 2043SOL    HW117765   4.351   0.023   6.129 -0.6786  0.0750 -0.0637
 2043SOL    HW217766   4.282   4.645   6.203 -0.4435 -0.1893 -0.6057
 2044SOL     OW17767   2.874   1.346   8.279  0.9405  0.1296 -0.0988
 2044SOL    HW117768   2.898   1.272   8.224 -1.1494  0.7400 -1.8253
 2044SOL    HW217769   2.930   1.327   8.355 -0.2825  0.4268  0.8788
 2045SOL     OW17770   2.502   3.617  15.476 -0.1936 -0.0940 -0.0549
 2045SOL    HW117771   2.438   3.638  15.408  0.4713  1.6867 -0.1393
 2045SOL    HW217772   2.532   3.542  15.425 -0.5763  0.1393 -0.6247
 2046SOL     OW17773   3.439   3.676   5.851  0.1422 -0.7938  0.5063
 2046SOL    HW117774   3.528   3.646   5.836 -0.8628 -3.1373 -0.8816
 2046SOL    HW217775   3.405   3.604   5.904 -1.4990 -1.3257 -1.2469
 2047SOL     OW17776   0.837   2.567   2.240  0.5550  0.5568  0.4457
 2047SOL    HW117777   0.884   2.530   2.165  4.3481  1.0546  2.5791
 2047SOL    HW217778   0.763   2.507   2.251  0.3088  0.8761  0.5066
 2048SOL     OW17779   1.242   2.098   2.976 -0.7500  0.2103  0.2634
 2048SOL    HW117780   1.265   2.017   2.931 -2.5500  1.2031 -2.4364
 2048SOL    HW217781   1.325   2.129   3.013  0.7563 -0.7946 -2.2811
 2049SOL     OW17782   2.867   0.070   8.524  0.2100 -0.5992 -0.3611
 2049SOL    HW117783   2.840   0.073   8.616 -0.0123  0.3816 -0.4558
 2049SOL    HW217784   2.793   0.112   8.479 -0.2274 -1.6231 -0.5941
 2050SOL     OW17785   3.697   4.195   4.607 -0.4202 -0.1673 -0.4762
 2050SOL    HW117786   3.745   4.277   4.603 -1.1542  0.5207  4.2276
 2050SOL    HW217787   3.729   4.150   4.529 -0.7943  0.4097 -0.9662
 2051SOL     OW17788   3.380   1.706   6.264  0.5390  0.0939 -0.1380
 2051SOL    HW117789   3.472   1.691   6.239 -0.2173 -2.9607 -1.1460
 2051SOL    HW217790   3.336   1.738   6.185 -0.2153 -2.4652 -0.7415
 2052SOL     OW17791   0.736   2.171   9.393 -0.0705 -0.2042  0.1227
 2052SOL    HW117792   0.791   2.144   9.467 -1.5801 -2.0048  0.5797
 2052SOL    HW217793   0.804   2.190   9.328  0.9841  1.1621  1.5886
 2053SOL     OW17794   3.934   2.348   6.869  0.3287 -0.1326 -0.5797
 2053SOL    HW117795   3.877   2.317   6.799 -0.7399  0.2103  0.1367
 2053SOL    HW217796   3.935   2.266   6.917  1.7096 -0.0544 -0.4691
 2054SOL     OW17797   1.100   0.071  14.640 -0.0899 -0.4794 -1.1745
 2054SOL    HW117798   1.125   0.158  14.609  1.9566  0.1332  2.0911
 2054SOL    HW217799   1.125   0.067  14.733  0.6852  0.3888 -1.3424
 2055SOL     OW17800   3.025   2.643   7.488 -0.5636  0.0988  0.4084
 2055SOL    HW117801   2.978   2.724   7.468  0.0592  0.7710  1.6847
 2055SOL    HW217802   3.116   2.664   7.469 -1.0271  0.4042 -1.4808
 2056SOL     OW17803   0.168   1.463   5.110 -0.1882 -0.3430 -0.3043
 2056SOL    HW117804   0.237   1.523   5.138  0.6695 -1.1021 -0.7900
 2056SOL    HW217805   0.211   1.443   5.027  0.5198 -0.5567  0.1115
 2057SOL     OW17806   3.899   2.571   6.066  0.4943  0.0921  0.3234
 2057SOL    HW117807   3.813   2.565   6.023  0.4884  0.7403  0.2349
 2057SOL    HW217808   3.937   2.485   6.048  0.8787  0.6311 -1.4552
 2058SOL     OW17809   2.086   2.827   3.979 -0.5738  0.0118  0.1537
 2058SOL    HW117810   2.174   2.811   4.014 -0.2552 -1.8155 -1.5455
 2058SOL    HW217811   2.043   2.745   4.002  1.1444 -0.9254  0.0711
 2059SOL     OW17812   1.085   3.761   0.502 -0.5779 -0.4736  0.1414
 2059SOL    HW117813   1.162   3.732   0.452 -1.5327  0.7518 -2.0625
 2059SOL    HW217814   1.070   3.679   0.548 -3.5405  0.1453  0.2591
 2060SOL     OW17815   3.403   2.502   2.896 -0.7828  0.6052  0.8298
 2060SOL    HW117816   3.401   2.593   2.864 -0.0638  0.5556  0.6558
 2060SOL    HW217817   3.458   2.509   2.974 -0.2286 -3.6034  0.7774
 2061SOL     OW17818   3.988   1.830   2.617  0.2690  0.1695 -0.2915
 2061SOL    HW117819   3.899   1.818   2.583  0.2161  0.1320 -0.1415
 2061SOL    HW217820   4.016   1.738   2.623  1.7775  0.6858  0.3562
 2062SOL     OW17821   3.728   1.583   5.247  0.0629 -0.0062 -0.4856
 2062SOL    HW117822   3.696   1.673   5.244 -1.2778 -0.4423  0.6652
 2062SOL    HW217823   3.684   1.552   5.326  2.3642 -0.4047  0.6606
 2063SOL     OW17824   1.601   3.389   6.900 -0.2625  0.2633  0.2916
 2063SOL    HW117825   1.593   3.298   6.927 -2.2715  1.0909  2.5321
 2063SOL    HW217826   1.658   3.421   6.970  0.8987  0.7002 -0.8543
 2064SOL     OW17827   2.983   3.219   1.967  0.2466  0.2849 -0.2876
 2064SOL    HW117828   2.984   3.125   1.948 -0.8741  0.1583  0.2942
 2064SOL    HW217829   2.918   3.241   1.901 -0.2458  0.1082  0.1396
 2065SOL     OW17830   1.047   0.913  14.782 -0.2953  0.5765 -0.9282
 2065SOL    HW117831   0.958   0.914  14.748 -0.1333  0.7444 -1.3483
 2065SOL    HW217832   1.047   0.988  14.842 -0.2848 -1.7267  1.9650
 2066SOL     OW17833   0.322   4.146   7.478 -0.1354  0.1005 -0.2356
 2066SOL    HW117834   0.312   4.217   7.541  1.7985 -1.1947  1.4961
 2066SOL    HW217835   0.406   4.161   7.434 -0.6438  1.9336 -0.6088
 2067SOL     OW17836   2.845   3.065   5.360 -0.3572  0.7002 -0.1137
 2067SOL    HW117837   2.929   3.036   5.324 -1.1196 -1.7005  0.0676
 2067SOL    HW217838   2.871   3.093   5.448 -1.4063  2.2482 -0.2897
 2068SOL     OW17839   0.092   1.570   8.286  0.2013  0.3989 -0.0260
 2068SOL    HW117840   0.138   1.540   8.365 -2.1832 -0.0498  1.1771
 2068SOL    HW217841   0.001   1.552   8.309  0.1902  0.1459 -0.2638
 2069SOL     OW17842   0.500   4.446  11.339 -0.3249  0.0018 -0.0632
 2069SOL    HW117843   0.518   4.531  11.299 -0.6691  0.4399  0.7262
 2069SOL    HW217844   0.550   4.451  11.420  0.6648  1.1789 -0.7494
 2070SOL     OW17845   4.215   1.219   6.377 -0.1006 -0.0127  0.0296
 2070SOL    HW117846   4.147   1.154   6.395 -2.1869  2.3915  0.7338
 2070SOL    HW217847   4.283   1.166   6.335  1.2457  0.7716  1.2144
 2071SOL     OW17848   3.394   3.061   4.441  0.6074  0.5470 -0.0051
 2071SOL    HW117849   3.403   2.969   4.464 -1.9665  0.6827  1.5385
 2071SOL    HW217850   3.298   3.062   4.435  0.6376  0.0225 -0.5651
 2072SOL     OW17851   4.078   0.569   5.257  0.3989  0.2303 -0.8098
 2072SOL    HW117852   4.104   0.546   5.346  1.6974 -2.4488 -1.8704
 2072SOL    HW217853   3.998   0.620   5.269  0.9427  1.1291 -1.0363
 2073SOL     OW17854   3.829   4.170   8.901  0.2943 -0.2326 -0.1956
 2073SOL    HW117855   3.829   4.253   8.854 -0.0030  0.6393  1.3403
 2073SOL    HW217856   3.768   4.183   8.974  1.3850  1.8776  0.3454
 2074SOL     OW17857   2.430   1.125   7.409 -0.2046  0.4044 -0.5675
 2074SOL    HW117858   2.366   1.186   7.446  0.5283 -0.3825  2.0488
 2074SOL    HW217859   2.384   1.041   7.421  2.1163 -0.0755  4.9106
 2075SOL     OW17860   2.003   1.493   4.360 -0.1459  0.1012  0.4189
 2075SOL    HW117861   2.099   1.491   4.364 -0.1651  0.3565  0.9351
 2075SOL    HW217862   2.003   1.477   4.265 -0.8000 -0.1521  0.4592
 2076SOL     OW17863   4.318   4.415   5.161 -0.2560 -0.7779  0.0225
 2076SOL    HW117864   4.251   4.388   5.224 -0.2391 -1.1617 -0.1189
 2076SOL    HW217865   4.282   4.497   5.129 -0.1843  0.8473  4.0584
 2077SOL     OW17866   2.300   3.783   7.713 -0.6217 -0.1944  0.8283
 2077SOL    HW117867   2.345   3.811   7.793 -0.8958  3.7952 -0.4133
 2077SOL    HW217868   2.223   3.838   7.721  0.4064  1.5681 -1.5238
 2078SOL     OW17869   3.141   2.173   8.174 -0.0107  0.1899 -0.2055
 2078SOL    HW117870   3.212   2.186   8.237  1.7502  3.2278 -2.8405
 2078SOL    HW217871   3.139   2.259   8.133 -2.8126  0.1894 -0.0285
 2079SOL     OW17872   3.650   2.028  10.468  0.0993 -0.2883 -0.1113
 2079SOL    HW117873   3.606   1.958  10.420 -1.3507  0.6795 -0.1765
 2079SOL    HW217874   3.658   1.986  10.554  2.5890 -0.9998 -0.7000
 2080SOL     OW17875   0.137   0.519   6.568  0.7054 -0.7841  0.1715
 2080SOL    HW117876   0.086   0.540   6.646 -0.6655  2.6946 -1.6729
 2080SOL    HW217877   0.137   0.424   6.580  0.3299 -0.7780  0.2127
 2081SOL     OW17878   2.468   3.951   2.674 -0.4490 -0.0331  0.0204
 2081SOL    HW117879   2.407   3.925   2.605  0.8045 -2.9234 -0.0229
 2081SOL    HW217880   2.549   3.947   2.624 -0.2080 -1.5094  0.5084
 2082SOL     OW17881   3.255   0.667   2.672 -0.0508 -0.6179  0.0870
 2082SOL    HW117882   3.235   0.727   2.600  0.3612 -2.0072 -1.1624
 2082SOL    HW217883   3.297   0.719   2.742  0.2876  0.6176 -1.0362
 2083SOL     OW17884   2.940   0.296   3.781  0.1889 -0.2458  0.1020
 2083SOL    HW117885   2.902   0.208   3.775  0.4151 -0.5673  3.4071
 2083SOL    HW217886   2.984   0.284   3.697 -0.3966 -2.9325  0.1791
 2084SOL     OW17887   0.045   4.155  13.178  0.5297  0.5595  0.3729
 2084SOL    HW117888   4.722   4.095  13.218  0.7041  0.3507  0.3296
 2084SOL    HW217889   4.722   4.205  13.127  0.6279  1.2375  0.9199
 2085SOL     OW17890   3.518   2.403   5.268 -0.2163  0.3924  0.3687
 2085SOL    HW117891   3.551   2.320   5.235 -2.5120 -0.4017  0.0196
 2085SOL    HW217892   3.572   2.464   5.218  0.6467  0.5183  1.4678
 2086SOL     OW17893   1.704   0.669  14.275 -0.4853  0.3182 -0.6716
 2086SOL    HW117894   1.779   0.612  14.258  0.3626  1.4074 -0.5774
 2086SOL    HW217895   1.718   0.737  14.209  3.1709  2.3089  2.1696
 2087SOL     OW17896   4.219   3.162   3.395  0.7660  0.0110 -0.4173
 2087SOL    HW117897   4.283   3.148   3.465  0.6616 -0.9856 -0.5158
 2087SOL    HW217898   4.258   3.241   3.360 -0.4167  0.3385 -0.9918
 2088SOL     OW17899   0.534   4.420   0.287 -0.2875 -0.1541  0.1310
 2088SOL    HW117900   0.576   4.354   0.231 -2.6572 -0.9621 -0.6772
 2088SOL    HW217901   0.486   4.354   0.336 -0.5267 -0.1347 -0.0768
 2089SOL     OW17902   3.321   0.346   6.773  0.7363 -0.4086  0.0635
 2089SOL    HW117903   3.349   0.343   6.681 -2.3613 -1.2011 -0.8456
 2089SOL    HW217904   3.232   0.380   6.763  0.1518 -1.3586  1.9597
 2090SOL     OW17905   2.838   0.256   4.179  0.0394 -0.1930  0.4453
 2090SOL    HW117906   2.808   0.196   4.246 -0.7635 -0.0037  0.2517
 2090SOL    HW217907   2.808   0.341   4.211 -1.5646 -0.4578 -0.3816
 2091SOL     OW17908   4.537   3.873   6.910  0.5248  0.0924 -0.1599
 2091SOL    HW117909   4.574   3.929   6.842 -1.3455  0.0758 -1.1775
 2091SOL    HW217910   4.592   3.903   6.983  1.1351 -0.5811 -0.3427
 2092SOL     OW17911   2.109   2.738   3.356 -0.1450 -0.0934  0.0726
 2092SOL    HW117912   2.186   2.692   3.325 -0.0935 -0.9715  1.5153
 2092SOL    HW217913   2.138   2.829   3.356  1.7132 -0.6881  0.7266
 2093SOL     OW17914   2.631   3.047   8.753 -0.5462  0.2449 -0.2730
 2093SOL    HW117915   2.691   3.034   8.826  1.0340 -3.0643 -2.1562
 2093SOL    HW217916   2.677   3.112   8.700  2.1965 -2.2516 -0.9457
 2094SOL     OW17917   3.350   3.672  12.978 -0.4444  0.6600  0.3622
 2094SOL    HW117918   3.414   3.613  12.939  1.2880  2.8104 -0.0461
 2094SOL    HW217919   3.355   3.748  12.921  0.1322  0.5164  0.2255
 2095SOL     OW17920   2.120   3.186   4.300 -0.2996 -0.3061  0.1816
 2095SOL    HW117921   2.074   3.237   4.366 -0.0303 -0.0017  0.1332
 2095SOL    HW217922   2.130   3.103   4.346 -0.4776 -0.3466  0.1493
 2096SOL     OW17923   0.084   3.908   4.433  0.5750 -0.3228 -0.1424
 2096SOL    HW117924   0.074   4.002   4.449  0.0654 -0.1332 -1.5561
 2096SOL    HW217925   4.735   3.885   4.407  0.3696  0.5551 -0.2308
 2097SOL     OW17926   2.325   1.047   3.770  0.0705 -0.3307 -0.4533
 2097SOL    HW117927   2.392   1.094   3.820  1.4539 -3.0417  0.2098
 2097SOL    HW217928   2.349   1.093   3.689  1.5818 -1.5959 -0.7330
 2098SOL     OW17929   0.906   3.611   7.396  0.2760 -0.4605 -0.3567
 2098SOL    HW117930   0.811   3.606   7.389  0.2478 -1.5662  0.8906
 2098SOL    HW217931   0.927   3.557   7.473  0.7631 -0.1837 -0.2988
 2099SOL     OW17932   1.116   1.902   8.825  0.7131  0.0803  0.0622
 2099SOL    HW117933   1.125   1.864   8.912  0.2088  2.0613  0.9828
 2099SOL    HW217934   1.030   1.866   8.801  1.6783 -2.5390  0.5702
 2100SOL     OW17935   0.287   0.535  15.618 -0.3029  0.3914 -0.4538
 2100SOL    HW117936   0.261   0.616  15.574  1.5616  1.3419  0.1871
 2100SOL    HW217937   0.370   0.513  15.576  0.1528  3.4682 -1.1384
 2101SOL     OW17938   1.167   4.631   9.605  0.1259 -0.8214 -0.3900
 2101SOL    HW117939   1.096   4.571   9.628 -1.0914  1.0564  0.7267
 2101SOL    HW217940   1.129   4.716   9.585 -0.8750 -1.3003 -0.5379
 2102SOL     OW17941   2.216   0.362   0.659  0.2688 -0.1725 -0.0120
 2102SOL    HW117942   2.254   0.409   0.585  2.2186 -0.4528  0.8136
 2102SOL    HW217943   2.126   0.362   0.627  0.9712 -1.2858 -1.9584
 2103SOL     OW17944   1.314   0.944   7.857 -0.9380  0.1124 -0.4043
 2103SOL    HW117945   1.373   0.891   7.803 -1.8629 -0.8485 -0.4758
 2103SOL    HW217946   1.232   0.955   7.808 -0.9410 -0.7709 -0.5987
 2104SOL     OW17947   3.177   3.299   4.242  0.3243 -0.1828 -0.0617
 2104SOL    HW117948   3.243   3.304   4.173 -0.6136 -3.5577 -1.1903
 2104SOL    HW217949   3.224   3.247   4.307 -0.6818  0.4329  1.1532
 2105SOL     OW17950   0.720   3.198   3.404  0.0526 -0.1905  0.4338
 2105SOL    HW117951   0.782   3.270   3.410 -0.7601  0.5384  0.2188
 2105SOL    HW217952   0.673   3.211   3.322  0.3251  1.8660  0.6012
 2106SOL     OW17953   0.047   1.411  16.301 -0.2334  0.7353 -0.4564
 2106SOL    HW117954   0.063   1.345  16.368 -0.1758  1.3776  0.1552
 2106SOL    HW217955   0.133   1.406  16.258  0.9313  1.2416  1.8615
 2107SOL     OW17956   3.220   1.811   6.047  0.3902  0.1083  0.3056
 2107SOL    HW117957   3.276   1.881   6.015  0.6370  0.2464  1.0403
 2107SOL    HW217958   3.237   1.737   5.988  0.8977 -0.6260  1.3711
 2108SOL     OW17959   1.795   3.981   4.691 -0.3715 -0.0930 -0.2594
 2108SOL    HW117960   1.727   3.925   4.653 -1.6339  0.3285  1.3264
 2108SOL    HW217961   1.738   4.023   4.756 -0.9245 -0.7691 -0.3061
 2109SOL     OW17962   0.196   2.443  15.977 -0.0943  0.4640  0.2732
 2109SOL    HW117963   0.201   2.401  16.063  0.5453 -2.2928 -1.1349
 2109SOL    HW217964   0.211   2.535  16.000  0.5827  0.6438 -0.8939
 2110SOL     OW17965   1.641   2.473  10.536  0.1171  0.2204  0.1286
 2110SOL    HW117966   1.642   2.473  10.631 -1.2629 -0.8771  0.1447
 2110SOL    HW217967   1.591   2.394  10.515 -2.4861  1.4927  1.5505
 2111SOL     OW17968   0.430   1.150   6.250  0.1802  0.4355  0.2248
 2111SOL    HW117969   0.478   1.185   6.176  0.2643 -0.3389 -0.0923
 2111SOL    HW217970   0.357   1.108   6.204  0.0580  0.1068  0.7099
 2112SOL     OW17971   3.910   1.016  11.540  0.2072  0.3436  0.5413
 2112SOL    HW117972   3.959   1.051  11.614 -0.1043 -1.5580  1.6308
 2112SOL    HW217973   3.961   1.046  11.465  1.0364 -0.9289  0.5977
 2113SOL     OW17974   1.323   4.105   8.828 -0.4549  0.2431 -0.5192
 2113SOL    HW117975   1.301   4.087   8.919 -0.0312 -0.0861 -0.4842
 2113SOL    HW217976   1.386   4.177   8.824 -0.4200  0.2020 -0.7063
 2114SOL     OW17977   2.662   2.916   9.831 -0.1648  0.6070  0.1285
 2114SOL    HW117978   2.703   2.974   9.767 -0.1771  0.5205  0.0427
 2114SOL    HW217979   2.660   2.836   9.779 -0.0345  0.0804  0.9272
 2115SOL     OW17980   0.022   1.976   8.508  0.6919 -0.2668 -0.1166
 2115SOL    HW117981   0.105   1.986   8.554  0.8080  1.3741 -0.6863
 2115SOL    HW217982   0.004   1.882   8.516  1.2428 -0.3676 -0.0739
 2116SOL     OW17983   0.639   4.523   9.748 -0.1157  0.0054  0.4136
 2116SOL    HW117984   0.582   4.584   9.796 -0.2824  0.5749 -0.5105
 2116SOL    HW217985   0.585   4.446   9.732  0.3100  0.1217 -1.5873
 2117SOL     OW17986   3.043   0.864   0.466  0.0089 -0.0043 -0.8950
 2117SOL    HW117987   2.977   0.833   0.527 -1.1667 -0.8590 -2.5919
 2117SOL    HW217988   3.116   0.818   0.508  0.2878 -1.0393 -2.4868
 2118SOL     OW17989   1.927   4.308   9.524 -0.1160 -0.0036  0.7827
 2118SOL    HW117990   1.856   4.252   9.556  0.9408  0.1965  3.4059
 2118SOL    HW217991   1.988   4.252   9.476  0.9931  1.3046  0.6917
 2119SOL     OW17992   1.303   4.419  13.309 -0.1736  0.8940 -0.1768
 2119SOL    HW117993   1.358   4.425  13.387 -1.5878  0.5141  0.8520
 2119SOL    HW217994   1.265   4.506  13.302 -0.6460  0.5836 -1.3966
 2120SOL     OW17995   2.829   4.709  11.523 -0.2788 -0.5704 -0.2006
 2120SOL    HW117996   2.916   4.677  11.549  0.4869 -0.6507 -2.8272
 2120SOL    HW217997   2.818   4.662  11.441 -1.2158 -0.0557 -0.3665
 2121SOL     OW17998   2.597   2.762   3.394 -0.4806  0.3501 -0.5708
 2121SOL    HW117999   2.531   2.736   3.457  0.1695  0.8331  0.3154
 2121SOL    HW218000   2.599   2.856   3.415 -2.1278  0.4502 -0.8969
 2122SOL     OW18001   2.733   0.213   4.952  0.9353 -0.3679 -0.2483
 2122SOL    HW118002   2.787   0.280   4.911  0.7058 -0.7789 -1.2077
 2122SOL    HW218003   2.796   0.168   5.008 -0.6521 -2.3972 -0.0650
 2123SOL     OW18004   0.518   4.724   1.633 -0.1237  0.4412  0.5100
 2123SOL    HW118005   0.486   0.072   1.617  1.9699  0.9831 -0.6901
 2123SOL    HW218006   0.607   4.738   1.665 -0.4636  2.5888  0.5191
 2124SOL     OW18007   2.896   0.357   0.992 -0.0899  0.3735  0.5413
 2124SOL    HW118008   2.915   0.441   1.034  2.9844 -1.0232  1.9285
 2124SOL    HW218009   2.873   0.309   1.072 -1.2294 -1.2400 -0.7489
 2125SOL     OW18010   2.845   0.626   4.546  0.7624  0.4296 -0.2329
 2125SOL    HW118011   2.914   0.629   4.613  0.1139  1.7836  0.3745
 2125SOL    HW218012   2.895   0.667   4.476 -0.1110  2.0291  0.0836
 2126SOL     OW18013   1.461   4.392   9.088 -0.4745 -0.7086 -0.2098
 2126SOL    HW118014   1.396   4.419   9.023  0.4145 -1.2277 -1.3115
 2126SOL    HW218015   1.490   4.476   9.125 -1.2565 -1.1122  1.3362
 2127SOL     OW18016   2.535   3.650  13.002 -0.3380 -0.3662 -0.1511
 2127SOL    HW118017   2.446   3.644  13.036  0.9496  0.6313  3.4839
 2127SOL    HW218018   2.554   3.743  13.020  1.0353 -0.6856  0.0721
 2128SOL     OW18019   4.023   1.391   6.137  0.9507 -0.2466 -0.1837
 2128SOL    HW118020   3.953   1.327   6.152  0.3007  0.5964  0.4229
 2128SOL    HW218021   4.021   1.436   6.222  0.6346  1.2653 -0.9779
 2129SOL     OW18022   3.959   2.560   7.860  0.3694  0.4942 -0.5165
 2129SOL    HW118023   3.888   2.620   7.836  1.8803  2.1803 -0.8073
 2129SOL    HW218024   4.036   2.595   7.814  0.5155  1.9522  0.8247
 2130SOL     OW18025   4.166   1.661   9.498 -0.3903  0.0354 -0.0273
 2130SOL    HW118026   4.184   1.755   9.509 -1.6267  0.4646 -1.6696
 2130SOL    HW218027   4.132   1.655   9.408 -1.5777  1.0397  0.3497
 2131SOL     OW18028   1.445   1.327  16.960  0.3611 -0.6036  0.3758
 2131SOL    HW118029   1.508   1.325  17.032 -0.4337 -1.4978  1.0581
 2131SOL    HW218030   1.486   1.272  16.894 -0.6508 -1.1455  0.1887
 2132SOL     OW18031   1.873   2.477  10.027 -0.1202  0.4296 -0.5537
 2132SOL    HW118032   1.883   2.563  10.067  2.1142  0.2468 -0.6823
 2132SOL    HW218033   1.918   2.429  10.096 -2.5389 -0.0953  0.6299
 2133SOL     OW18034   4.322   1.798   2.608  0.4228 -0.1646 -0.0983
 2133SOL    HW118035   4.281   1.836   2.686 -1.0419 -1.8715 -0.0320
 2133SOL    HW218036   4.268   1.818   2.531  1.3080  0.5881 -0.5307
 2134SOL     OW18037   3.648   0.983   1.642  0.0629 -0.6874  0.3521
 2134SOL    HW118038   3.584   0.988   1.571  0.7538  1.3111 -0.1452
 2134SOL    HW218039   3.602   0.954   1.720 -1.7121 -0.3055 -0.5646
 2135SOL     OW18040   1.339   3.244   1.444 -1.0833 -0.7065 -0.2414
 2135SOL    HW118041   1.352   3.179   1.376 -0.3088  0.8563 -1.5747
 2135SOL    HW218042   1.310   3.194   1.521 -2.0994 -0.8019 -0.6789
 2136SOL     OW18043   3.214   1.080   9.106  0.9574  0.4738 -0.0714
 2136SOL    HW118044   3.294   1.028   9.121  0.7446  0.0074 -0.5474
 2136SOL    HW218045   3.193   1.038   9.023 -2.0345 -0.7233  1.3068
 2137SOL     OW18046   1.627   2.979  14.178 -0.5140 -0.0369 -0.1941
 2137SOL    HW118047   1.549   3.015  14.135 -0.8407 -1.2973 -0.6692
 2137SOL    HW218048   1.601   2.887  14.173 -3.6668  0.8194  0.6930
 2138SOL     OW18049   1.732   0.141   3.207 -0.0944  0.4491 -0.3295
 2138SOL    HW118050   1.737   0.209   3.275 -2.5932  0.6964 -0.3906
 2138SOL    HW218051   1.710   0.192   3.129  1.1105  0.2491 -0.8049
 2139SOL     OW18052   0.687   2.914   7.015 -0.2140 -0.4770  0.0012
 2139SOL    HW118053   0.777   2.945   7.001 -0.4794  0.8741  1.2167
 2139SOL    HW218054   0.648   2.973   6.951  0.9181 -0.7213 -0.9097
 2140SOL     OW18055   0.709   0.499   6.274  0.0687  0.6989  0.4419
 2140SOL    HW118056   0.748   0.418   6.243 -0.3070  0.7446 -0.1541
 2140SOL    HW218057   0.758   0.529   6.351  2.3934 -0.6118 -0.5487
 2141SOL     OW18058   1.008   1.530   0.955 -0.4347  0.1726  0.1650
 2141SOL    HW118059   1.002   1.616   0.997 -1.5695  0.2232 -0.1118
 2141SOL    HW218060   1.102   1.517   0.955 -0.4113  0.2937  0.8079
 2142SOL     OW18061   2.223   4.442   6.023  0.7329  0.0429  0.3383
 2142SOL    HW118062   2.294   4.495   5.985 -0.9695  0.8612 -1.7211
 2142SOL    HW218063   2.160   4.507   6.053 -0.1019  1.1275 -3.6904
 2143SOL     OW18064   2.664   3.753   5.605 -0.4603 -0.1700 -0.4894
 2143SOL    HW118065   2.605   3.823   5.634  0.9397  1.2051 -0.9781
 2143SOL    HW218066   2.645   3.742   5.512  2.4859  0.3201 -1.1440
 2144SOL     OW18067   1.460   0.796   0.958 -0.1671  0.6790  0.2046
 2144SOL    HW118068   1.403   0.870   0.978 -0.6491  0.3478  0.0452
 2144SOL    HW218069   1.437   0.736   1.029  0.0344  2.8371  2.0800
 2145SOL     OW18070   3.346   0.838   5.765 -0.0314  0.2906 -0.1043
 2145SOL    HW118071   3.373   0.828   5.673  1.2448  2.2574  0.0565
 2145SOL    HW218072   3.372   0.928   5.787 -0.6266  0.7429 -1.2489
 2146SOL     OW18073   4.639   3.756   3.802  0.3907  0.0047  0.0252
 2146SOL    HW118074   4.616   3.789   3.716  0.8329  0.9244  0.2636
 2146SOL    HW218075   4.580   3.809   3.856  1.9555 -0.7193  2.4597
 2147SOL     OW18076   2.748   2.064   8.564 -0.8086  0.5996 -0.2105
 2147SOL    HW118077   2.837   2.039   8.541 -2.6655 -4.6556 -1.7451
 2147SOL    HW218078   2.756   2.100   8.653  1.7579 -0.5773  0.0163
 2148SOL     OW18079   3.933   0.328  12.852  0.2866 -0.2251  0.3348
 2148SOL    HW118080   3.996   0.351  12.784  0.0001  2.7967  1.0960
 2148SOL    HW218081   3.953   0.235  12.861 -0.2249 -0.4678 -1.1341
 2149SOL     OW18082   1.540   1.848  13.862 -0.2764 -0.5114 -0.0671
 2149SOL    HW118083   1.573   1.760  13.842 -0.3027 -0.9800  1.9933
 2149SOL    HW218084   1.620   1.897  13.879  0.3630 -1.7048  0.2907
 2150SOL     OW18085   1.021   4.134   7.140 -0.6530  0.6685  0.2458
 2150SOL    HW118086   1.071   4.185   7.204 -2.8480  0.0240  2.4798
 2150SOL    HW218087   1.043   4.044   7.161 -0.8017  1.0843  2.1313
 2151SOL     OW18088   2.260   1.847   1.850  0.2107 -0.1998 -0.3142
 2151SOL    HW118089   2.355   1.859   1.846  0.1997  0.8124  2.3481
 2151SOL    HW218090   2.227   1.937   1.853  1.7480  0.3049  1.4950
 2152SOL     OW18091   3.737   4.381   1.810 -0.1257 -0.6730 -0.0826
 2152SOL    HW118092   3.722   4.312   1.745  0.8310 -1.0436  0.0910
 2152SOL    HW218093   3.784   4.336   1.880  0.4173  0.1848  0.1085
 2153SOL     OW18094   2.212   0.407  10.471  0.0285  0.1014  0.2576
 2153SOL    HW118095   2.247   0.349  10.403  0.5658 -0.0477  0.6646
 2153SOL    HW218096   2.194   0.478  10.409  2.2586  0.1966 -0.2774
 2154SOL     OW18097   0.626   2.159   4.454 -0.3749 -0.0099  0.2619
 2154SOL    HW118098   0.648   2.227   4.518 -0.6292  0.6283 -0.3316
 2154SOL    HW218099   0.711   2.137   4.415 -0.6878  0.2818 -0.6005
 2155SOL     OW18100   3.269   0.696   0.573  0.2081  0.1223  0.0908
 2155SOL    HW118101   3.284   0.621   0.630 -0.7693  0.8219  1.2713
 2155SOL    HW218102   3.277   0.777   0.624 -0.7592  1.2472 -1.5293
 2156SOL     OW18103   1.516   3.222   4.498 -0.0882 -0.6526  0.1485
 2156SOL    HW118104   1.535   3.281   4.571 -0.0112  0.8960 -1.1056
 2156SOL    HW218105   1.427   3.246   4.473  0.5370 -0.0604 -1.5393
 2157SOL     OW18106   4.365   3.420  17.302 -0.5326  0.9465  0.3682
 2157SOL    HW118107   4.398   3.504  17.270  2.2307 -0.7692 -1.2718
 2157SOL    HW218108   4.443   3.394  17.352 -0.9872 -1.4022 -0.1700
 2158SOL     OW18109   0.669   3.517   8.784 -0.7309  0.1484  0.2671
 2158SOL    HW118110   0.716   3.437   8.759 -0.3668 -0.7659  3.8867
 2158SOL    HW218111   0.694   3.575   8.713 -0.2355 -0.0522  0.2729
 2159SOL     OW18112   4.226   4.449   1.820  0.0320 -0.8504  0.5027
 2159SOL    HW118113   4.152   4.493   1.862  0.0713 -0.4691  0.1650
 2159SOL    HW218114   4.291   4.458   1.890  0.7857  1.1875 -0.4681
 2160SOL     OW18115   3.754   2.651   4.567 -0.3653 -0.2631 -0.0625
 2160SOL    HW118116   3.815   2.609   4.507 -0.1914 -2.4397  1.6587
 2160SOL    HW218117   3.683   2.587   4.573 -0.1400 -0.4927  0.1794
 2161SOL     OW18118   1.646   2.634  16.143 -0.7861  0.1733  0.7808
 2161SOL    HW118119   1.620   2.674  16.060  0.3857 -1.2981 -0.2942
 2161SOL    HW218120   1.671   2.716  16.185 -2.4970  0.9707  0.2905
 2162SOL     OW18121   2.717   3.408   8.729 -0.2877 -0.0539 -0.0184
 2162SOL    HW118122   2.779   3.479   8.748 -0.7225  0.7749 -1.6447
 2162SOL    HW218123   2.763   3.376   8.651 -0.4341 -0.7738  0.1951
 2163SOL     OW18124   2.375   3.773  13.782  0.3362  0.2665 -0.0800
 2163SOL    HW118125   2.302   3.716  13.760  0.1524  0.1309  0.9141
 2163SOL    HW218126   2.434   3.770  13.706  2.4477  0.5030  1.5501
 2164SOL     OW18127   0.181   4.019   3.449  0.1017  0.6459 -0.1165
 2164SOL    HW118128   0.102   4.061   3.482  0.2430  0.4519  0.4632
 2164SOL    HW218129   0.244   4.065   3.504 -0.1952 -0.4927  1.1671
 2165SOL     OW18130   0.739   0.988   9.185  0.0581 -0.5400 -0.2373
 2165SOL    HW118131   0.697   1.073   9.167 -0.5029 -0.5306  1.1348
 2165SOL    HW218132   0.814   0.983   9.126 -0.3916 -1.2873 -0.7550
 2166SOL     OW18133   1.376   2.253   3.636  0.2053 -0.0441 -0.0107
 2166SOL    HW118134   1.309   2.252   3.705  0.5993 -0.1134  0.3730
 2166SOL    HW218135   1.392   2.348   3.635 -2.8389  0.5145  2.4079
 2167SOL     OW18136   3.082   1.574   5.389  0.0607  0.5679  0.0496
 2167SOL    HW118137   3.073   1.480   5.373 -2.3911  1.2226 -2.3852
 2167SOL    HW218138   3.174   1.590   5.368  0.5021 -0.0808  1.5400
 2168SOL     OW18139   2.161   1.730  15.138  0.6580 -0.7827 -0.2688
 2168SOL    HW118140   2.104   1.657  15.161  0.9642 -1.5528 -1.9652
 2168SOL    HW218141   2.116   1.815  15.143 -0.8445 -1.9746  5.8308
 2169SOL     OW18142   3.663   2.052   8.497 -0.2663  0.2547 -0.3972
 2169SOL    HW118143   3.649   2.127   8.554  0.9467 -0.6377  1.0636
 2169SOL    HW218144   3.736   2.082   8.442 -0.4131  0.3426 -0.5460
 2170SOL     OW18145   4.301   3.096   8.550  0.8074 -0.4335 -0.1131
 2170SOL    HW118146   4.211   3.126   8.533  0.8710 -0.0262  0.2865
 2170SOL    HW218147   4.296   3.079   8.644 -0.6905  0.6843  0.0115
 2171SOL     OW18148   4.044   0.131   0.172 -0.4750 -0.3639 -0.4292
 2171SOL    HW118149   4.076   0.210   0.128 -0.0428  1.0050  2.3504
 2171SOL    HW218150   4.113   0.125   0.238 -0.9550  0.2738  0.1272
 2172SOL     OW18151   2.759   3.264   1.822  0.0865  0.3955 -0.0501
 2172SOL    HW118152   2.740   3.173   1.801  1.4345  0.0651  0.1448
 2172SOL    HW218153   2.751   3.312   1.739  0.4640 -0.8530 -0.8016
 2173SOL     OW18154   4.383   2.522  10.445 -0.2222  0.2514 -0.1770
 2173SOL    HW118155   4.404   2.587  10.378 -1.4565  0.7469 -0.0779
 2173SOL    HW218156   4.435   2.544  10.523 -0.0589  2.3360 -0.8666
 2174SOL     OW18157   2.343   2.437   4.641  0.4561 -0.5214  0.2634
 2174SOL    HW118158   2.392   2.398   4.568  0.2667  1.0076 -0.6712
 2174SOL    HW218159   2.337   2.352   4.685  0.2682 -0.5070  0.2670
 2175SOL     OW18160   2.480   1.002   2.203  0.2387 -0.1572 -0.1661
 2175SOL    HW118161   2.570   1.031   2.216 -0.3322  2.0067 -1.0358
 2175SOL    HW218162   2.428   1.083   2.199 -0.5230 -0.4403  3.8268
 2176SOL     OW18163   4.065   4.709  15.410  0.3999 -0.1419 -0.1529
 2176SOL    HW118164   4.161   4.706  15.410  0.4609  1.6504  0.9988
 2176SOL    HW218165   4.045   4.693  15.318 -2.4137  0.6064  0.3407
 2177SOL     OW18166   1.389   2.419  13.019  0.3006 -0.3743 -0.1943
 2177SOL    HW118167   1.373   2.511  12.996 -1.5160 -0.3731  1.1080
 2177SOL    HW218168   1.412   2.424  13.112 -1.1236 -0.8066  0.1793
 2178SOL     OW18169   2.411   2.366  17.174  0.2364  0.4706 -0.2432
 2178SOL    HW118170   2.459   2.291  17.210  1.1085  1.2719  0.2692
 2178SOL    HW218171   2.410   2.432  17.243 -0.2453 -0.3032  0.4884
 2179SOL     OW18172   0.017   1.133  17.410 -0.2020  0.1303 -0.0809
 2179SOL    HW118173   0.057   1.219  17.397 -0.7434  0.4002  0.0442
 2179SOL    HW218174   4.678   1.160  17.455  1.1005  1.2559  1.5664
 2180SOL     OW18175   0.129   2.366   5.998  0.4905  0.1114 -0.1091
 2180SOL    HW118176   0.145   2.453   5.960 -0.2721  0.5442  0.5759
 2180SOL    HW218177   0.123   2.311   5.919  0.7938  0.4433 -0.3643
 2181SOL     OW18178   3.703   0.162  12.140  0.1762  0.0203 -0.0993
 2181SOL    HW118179   3.699   0.130  12.050  2.6538  0.8514 -0.5175
 2181SOL    HW218180   3.751   0.098  12.193  0.8494  0.6901  0.0907
 2182SOL     OW18181   3.557   3.958   4.684 -0.0626 -0.2757 -0.2262
 2182SOL    HW118182   3.625   3.892   4.702  1.9401  1.8615 -0.0005
 2182SOL    HW218183   3.611   4.037   4.689 -1.7673  0.9203 -0.7263
 2183SOL     OW18184   0.559   1.200  14.180  0.2590 -0.0687 -0.5375
 2183SOL    HW118185   0.516   1.231  14.100 -0.5700  2.4785  0.9080
 2183SOL    HW218186   0.647   1.238  14.178  0.3207 -0.0743  2.2253
 2184SOL     OW18187   0.195   0.638   6.905 -0.2292 -0.1902  0.2657
 2184SOL    HW118188   0.182   0.732   6.917 -2.5323 -0.9899  3.7950
 2184SOL    HW218189   0.109   0.625   6.864  0.2799  1.0535 -1.2072
 2185SOL     OW18190   3.523   1.912  14.948 -0.1224  0.1243 -0.1157
 2185SOL    HW118191   3.539   1.983  14.886 -1.0942 -2.0143 -2.8518
 2185SOL    HW218192   3.496   1.961  15.025  1.6677  0.9080  0.0043
 2186SOL     OW18193   3.131   2.994  11.985 -0.2649  0.2810  0.0457
 2186SOL    HW118194   3.076   2.932  11.938  0.0433  1.1554 -1.4792
 2186SOL    HW218195   3.189   3.016  11.912 -0.6736 -1.0170 -0.6648
 2187SOL     OW18196   1.343   2.256   2.548 -0.3182 -0.3040  0.0544
 2187SOL    HW118197   1.299   2.337   2.522  0.0969 -0.8609 -2.3324
 2187SOL    HW218198   1.279   2.231   2.616 -0.4494 -2.1147 -0.7293
 2188SOL     OW18199   0.241   4.299   4.010  0.0828  0.3636  0.4204
 2188SOL    HW118200   0.320   4.327   4.056 -0.7406  0.7205  1.6030
 2188SOL    HW218201   0.216   4.227   4.067  1.3685 -0.7743 -0.4280
 2189SOL     OW18202   2.796   2.761   0.178  0.1386 -0.4757 -0.0947
 2189SOL    HW118203   2.763   2.822   0.112  0.8234 -0.3798 -0.3533
 2189SOL    HW218204   2.803   2.822   0.251  0.9393 -1.8976  1.0047
 2190SOL     OW18205   4.107   3.824   4.193  0.5447  0.3439 -0.0904
 2190SOL    HW118206   4.142   3.760   4.130 -1.4134 -0.7332 -0.0917
 2190SOL    HW218207   4.154   3.793   4.271 -2.4838 -0.7795  1.2909
 2191SOL     OW18208   2.839   3.619   4.644 -0.2512 -0.0775 -0.3243
 2191SOL    HW118209   2.884   3.689   4.599 -0.1146 -0.4618 -0.7778
 2191SOL    HW218210   2.902   3.582   4.705  1.0500  0.7299 -1.1932
 2192SOL     OW18211   0.054   1.201  14.527  0.2840 -0.4001  0.0213
 2192SOL    HW118212   0.090   1.250  14.601 -0.7979 -1.5161  1.2872
 2192SOL    HW218213   4.708   1.241  14.517  0.7371  0.3611 -0.7967
 2193SOL     OW18214   2.999   1.955   8.247 -0.1141  0.7492 -0.0815
 2193SOL    HW118215   3.033   2.044   8.237  0.9660  0.1721 -1.5188
 2193SOL    HW218216   3.006   1.930   8.339 -0.0852 -0.5358 -0.4379
 2194SOL     OW18217   3.460   0.424   5.318 -0.6278 -0.2186  0.7849
 2194SOL    HW118218   3.499   0.346   5.357  1.6057 -0.0806 -1.2253
 2194SOL    HW218219   3.369   0.395   5.321 -1.6297  2.8629 -0.9191
 2195SOL     OW18220   3.699   0.955  12.652  0.3726  0.0019 -0.5346
 2195SOL    HW118221   3.660   0.867  12.653 -2.2616  1.1302 -3.4505
 2195SOL    HW218222   3.673   0.987  12.566  2.4715  1.7579 -0.4983
 2196SOL     OW18223   3.850   0.641  16.789 -0.0982  0.3195 -0.7256
 2196SOL    HW118224   3.878   0.645  16.697  0.4715 -2.3260 -0.6450
 2196SOL    HW218225   3.892   0.723  16.815  0.3469  0.0727 -0.6741
 2197SOL     OW18226   2.331   4.160   1.934  0.0007 -0.1992 -0.4142
 2197SOL    HW118227   2.409   4.170   1.880  0.0106  1.7701 -0.0446
 2197SOL    HW218228   2.372   4.163   2.020 -1.0563 -1.2844  0.1238
 2198SOL     OW18229   1.485   3.282   9.183  0.1319  0.2431  0.4752
 2198SOL    HW118230   1.420   3.337   9.139 -0.4742 -0.5133  0.4199
 2198SOL    HW218231   1.561   3.336   9.205  0.0240  1.1831 -1.4408
 2199SOL     OW18232   1.308   1.708   6.942 -0.4904 -0.1660  0.2414
 2199SOL    HW118233   1.222   1.696   6.982 -0.8503  0.4532 -0.3406
 2199SOL    HW218234   1.334   1.796   6.969 -0.6375 -0.2243  0.5660
 2200SOL     OW18235   3.810   3.041   7.906 -0.1106 -0.8500  0.1687
 2200SOL    HW118236   3.895   3.086   7.902 -0.6626  0.2329  0.5216
 2200SOL    HW218237   3.793   3.041   8.000  0.1110  1.5465  0.2078
 2201SOL     OW18238   0.425   0.795   5.082 -0.4770  0.0620  0.8000
 2201SOL    HW118239   0.457   0.738   5.152 -0.1287 -1.1880 -0.4003
 2201SOL    HW218240   0.413   0.740   5.005 -1.4892 -1.4136  2.0217
 2202SOL     OW18241   4.062   3.764   4.643  0.0413 -0.0097 -0.0786
 2202SOL    HW118242   3.976   3.750   4.604  0.3508 -0.8125 -0.4637
 2202SOL    HW218243   4.046   3.802   4.729  0.5902 -0.1349  0.0798
 2203SOL     OW18244   4.641   2.268   6.125 -0.8623 -0.0147 -0.4398
 2203SOL    HW118245   4.718   2.294   6.074 -0.4260 -0.8064 -0.1958
 2203SOL    HW218246   4.681   2.226   6.202 -0.8186  2.1832  0.7470
 2204SOL     OW18247   4.675   1.381   1.453  0.3538 -0.1807 -0.5717
 2204SOL    HW118248   4.686   1.329   1.374 -1.9636  2.1790 -2.4362
 2204SOL    HW218249   4.644   1.466   1.422 -4.3200 -1.4668  0.5107
 2205SOL     OW18250   4.568   3.415   2.390 -0.3317 -0.5853  0.1241
 2205SOL    HW118251   4.510   3.344   2.418 -1.1570 -0.3240 -0.9018
 2205SOL    HW218252   4.535   3.425   2.300 -2.9203  0.3305  1.1813
 2206SOL     OW18253   3.987   0.857  15.054 -0.4745 -0.3261 -0.5165
 2206SOL    HW118254   4.000   0.850  14.959 -0.3127 -1.2131 -0.4249
 2206SOL    HW218255   3.972   0.951  15.061 -1.4075 -0.5778  0.8453
 2207SOL     OW18256   4.216   0.761  16.789 -0.4428  0.0480  0.2365
 2207SOL    HW118257   4.294   0.709  16.769 -0.5778 -0.4892  1.0956
 2207SOL    HW218258   4.181   0.752  16.700  0.3197  1.3338 -0.1811
 2208SOL     OW18259   0.639   1.306   3.322 -0.0169 -0.0237  0.4633
 2208SOL    HW118260   0.686   1.256   3.389  1.2278 -0.2279 -0.5603
 2208SOL    HW218261   0.631   1.380   3.383 -0.2303  0.1387  0.2406
 2209SOL     OW18262   0.507   3.670   4.065  0.0850 -0.9998 -0.2112
 2209SOL    HW118263   0.503   3.576   4.081  0.0955 -0.9222  0.2328
 2209SOL    HW218264   0.601   3.688   4.061 -0.3244  1.0905 -0.2850
 2210SOL     OW18265   2.085   0.686  16.024  0.5502  0.2981 -0.5558
 2210SOL    HW118266   2.043   0.631  15.958 -0.7631  0.1536  0.4069
 2210SOL    HW218267   2.131   0.632  16.089 -2.0047  0.0771  1.0542
 2211SOL     OW18268   2.702   1.629   6.811 -0.2736  0.7948 -0.3204
 2211SOL    HW118269   2.669   1.544   6.784 -0.5946  1.4112 -1.9373
 2211SOL    HW218270   2.665   1.639   6.898  1.0306  5.0582 -0.2158
 2212SOL     OW18271   2.714   4.676   7.826 -0.2851 -0.1683 -0.5630
 2212SOL    HW118272   2.740   0.027   7.838 -1.1577  0.2975 -2.3447
 2212SOL    HW218273   2.678   4.680   7.738  0.0313 -0.1995 -0.6927
 2213SOL     OW18274   2.695   1.308   7.732  0.5135  0.3365  1.0828
 2213SOL    HW118275   2.649   1.365   7.669  0.3943 -1.4840 -0.4944
 2213SOL    HW218276   2.746   1.368   7.785  0.1577  0.9519  0.7425
 2214SOL     OW18277   1.472   3.735   6.851 -0.4256 -0.4566  0.0472
 2214SOL    HW118278   1.547   3.675   6.852 -0.5105 -0.5868 -1.4316
 2214SOL    HW218279   1.395   3.678   6.849 -0.6205 -0.2256  1.2026
 2215SOL     OW18280   4.113   1.740   5.758  0.6379  0.4615  0.2180
 2215SOL    HW118281   4.095   1.748   5.852  1.6135 -0.2864  0.4669
 2215SOL    HW218282   4.205   1.712   5.753  0.2476 -0.9907  0.9743
 2216SOL     OW18283   1.597   4.290   5.381  0.2077 -0.1736  0.0054
 2216SOL    HW118284   1.530   4.351   5.349 -0.0259 -0.8711 -0.8240
 2216SOL    HW218285   1.653   4.343   5.437  0.3980  0.2272 -0.5658
 2217SOL     OW18286   2.932   3.686   6.849  0.0286 -0.0343 -0.3476
 2217SOL    HW118287   3.006   3.694   6.908 -1.9053  1.8958  1.8344
 2217SOL    HW218288   2.956   3.608   6.799  0.8459 -0.5560  0.8440
 2218SOL     OW18289   3.025   4.064  10.634 -0.3272 -0.5649 -0.4359
 2218SOL    HW118290   3.038   3.984  10.685  1.4184 -0.5634 -0.8626
 2218SOL    HW218291   3.038   4.026  10.547  2.0295  3.0937 -1.7310
 2219SOL     OW18292   1.562   3.313   8.624 -0.0103 -0.4107  0.5937
 2219SOL    HW118293   1.529   3.366   8.550  0.6856 -0.5148  0.2145
 2219SOL    HW218294   1.527   3.229   8.593  0.9991 -1.1755  1.5789
 2220SOL     OW18295   2.270   2.589  15.807  0.1482  0.8672 -0.0751
 2220SOL    HW118296   2.235   2.598  15.895 -2.9471  0.0306 -1.2268
 2220SOL    HW218297   2.286   2.682  15.790  1.8997  0.8352  1.3690
 2221SOL     OW18298   1.687   3.993   5.645  0.2827  0.4015 -0.8014
 2221SOL    HW118299   1.720   3.913   5.604  1.2845  0.0789  0.6141
 2221SOL    HW218300   1.610   4.013   5.592 -0.6797 -0.1009  0.4065
 2222SOL     OW18301   1.617   1.717   9.198 -0.1042 -0.1177  0.0673
 2222SOL    HW118302   1.568   1.693   9.278  0.4280 -1.9046 -0.1355
 2222SOL    HW218303   1.684   1.772   9.237 -0.0050 -0.2111  0.0269
 2223SOL     OW18304   0.385   0.585  16.606  0.4406  0.0718 -0.4730
 2223SOL    HW118305   0.396   0.494  16.579 -0.3282 -0.6031  1.4969
 2223SOL    HW218306   0.299   0.604  16.568  0.2733  1.1509  0.4557
 2224SOL     OW18307   4.326   4.642   3.366 -0.1788 -0.6611 -0.4146
 2224SOL    HW118308   4.324   4.678   3.278 -0.7899  1.5339  0.5072
 2224SOL    HW218309   4.398   4.579   3.356  0.0630 -0.5906  0.8676
 2225SOL     OW18310   3.766   4.126  15.995 -0.5867 -0.3808 -0.3035
 2225SOL    HW118311   3.699   4.123  15.926 -0.4273  3.1318 -0.6386
 2225SOL    HW218312   3.755   4.207  16.044 -0.2679 -0.3519 -0.2780
 2226SOL     OW18313   3.448   3.746   8.953  0.3801  0.2029 -0.5043
 2226SOL    HW118314   3.460   3.723   9.045  0.1094 -0.1798 -0.5687
 2226SOL    HW218315   3.370   3.803   8.954 -1.0635 -1.7939  0.2212
 2227SOL     OW18316   2.281   2.136   6.741  0.0765  0.1914 -0.0749
 2227SOL    HW118317   2.353   2.113   6.800  1.5814 -0.1065 -2.0302
 2227SOL    HW218318   2.290   2.064   6.679  0.3145  1.3743 -1.4165
 2228SOL     OW18319   3.471   3.065   5.737  0.1868  0.2126  0.3092
 2228SOL    HW118320   3.478   3.160   5.749  1.5893  0.0378  0.8998
 2228SOL    HW218321   3.565   3.045   5.735 -0.1616 -1.5275  1.9183
 2229SOL     OW18322   4.219   1.807   0.506  0.6744  0.0630 -0.7120
 2229SOL    HW118323   4.293   1.756   0.474  1.6877  1.1217 -0.0289
 2229SOL    HW218324   4.271   1.849   0.574  0.2252  0.6230 -0.7183
 2230SOL     OW18325   3.834   0.267   5.273  0.2475  0.3713 -0.0542
 2230SOL    HW118326   3.771   0.219   5.219 -0.6003  2.8967 -1.3458
 2230SOL    HW218327   3.825   0.239   5.364 -0.9927  1.3046  0.1138
 2231SOL     OW18328   2.086   2.883   0.002 -0.3883 -0.7720 -0.0021
 2231SOL    HW118329   2.095   2.929   0.086  0.0165 -0.5349 -0.1770
 2231SOL    HW218330   1.991   2.876  17.748 -0.8845  2.2045  1.9491
 2232SOL     OW18331   2.322   1.312  10.748  0.0259  0.5456 -0.3628
 2232SOL    HW118332   2.401   1.268  10.719 -0.3912 -1.2428  1.1588
 2232SOL    HW218333   2.266   1.272  10.681 -1.1612  0.7277  0.5130
 2233SOL     OW18334   4.091   1.979  14.899  0.9170 -0.5918 -0.0607
 2233SOL    HW118335   4.006   1.954  14.935  0.0031  0.0973 -1.7541
 2233SOL    HW218336   4.074   1.998  14.807  0.1153  1.6321  0.5506
 2234SOL     OW18337   0.503   2.952   1.091  0.0879  0.1812 -0.2141
 2234SOL    HW118338   0.493   2.946   0.996  1.7699  0.1422 -0.3979
 2234SOL    HW218339   0.579   3.010   1.086 -0.9847  1.4931 -1.3522
 2235SOL     OW18340   1.338   3.497   8.944 -0.1206  0.3412  0.4760
 2235SOL    HW118341   1.431   3.481   8.962 -0.7502 -2.1923  1.4459
 2235SOL    HW218342   1.328   3.581   8.988 -2.0873  0.7946 -0.8625
 2236SOL     OW18343   0.571   4.417  12.631  0.5500 -0.1668 -0.6158
 2236SOL    HW118344   0.570   4.380  12.720 -0.2410  1.2664 -0.0257
 2236SOL    HW218345   0.643   4.480  12.630  0.2315  0.2445  1.0621
 2237SOL     OW18346   1.362   4.321   2.831  0.0870 -0.0836 -0.0301
 2237SOL    HW118347   1.384   4.291   2.919 -0.4404 -0.7201 -0.1148
 2237SOL    HW218348   1.424   4.270   2.780  0.1150  0.4531 -0.5340
 2238SOL     OW18349   4.533   1.865   3.803 -0.5745  0.9030  0.1462
 2238SOL    HW118350   4.570   1.936   3.751 -3.5392  1.0696 -1.7249
 2238SOL    HW218351   4.619   1.828   3.824 -1.3931 -0.9631  0.2299
 2239SOL     OW18352   3.485   0.306   4.468 -0.7070  0.0308  0.0017
 2239SOL    HW118353   3.400   0.271   4.440 -1.1737  0.5886  0.6966
 2239SOL    HW218354   3.526   0.326   4.384 -0.2551 -2.4372 -0.3588
 2240SOL     OW18355   1.034   1.601   5.223  0.0619 -0.2563  0.2773
 2240SOL    HW118356   1.072   1.565   5.143 -0.7304 -0.6297  0.0647
 2240SOL    HW218357   1.090   1.574   5.296  0.1655 -0.6739  0.0430
 2241SOL     OW18358   3.631   4.626  13.375 -0.5310  0.1294  0.1755
 2241SOL    HW118359   3.602   4.537  13.397 -0.7171  0.0055 -0.5625
 2241SOL    HW218360   3.711   4.599  13.329 -1.1335  1.2058 -1.4969
 2242SOL     OW18361   1.972   1.737   8.178  0.3130  0.4199  0.0676
 2242SOL    HW118362   1.930   1.810   8.223  0.2166 -1.8503  3.6732
 2242SOL    HW218363   2.059   1.742   8.219 -1.3082  2.5086  3.2759
 2243SOL     OW18364   3.139   1.928   7.670 -0.0477  0.1533 -0.5929
 2243SOL    HW118365   3.054   1.884   7.666  0.3420 -0.8222  1.8748
 2243SOL    HW218366   3.105   2.015   7.693  0.3701 -0.0522  0.7811
 2244SOL     OW18367   3.389   0.079   1.687  0.2805 -0.3745 -0.5932
 2244SOL    HW118368   3.349   0.122   1.611 -1.4801 -1.9395 -0.5538
 2244SOL    HW218369   3.399   4.727   1.666  1.1378 -0.5018  0.4094
 2245SOL     OW18370   2.884   4.046   7.378  0.3867  0.3419 -0.2562
 2245SOL    HW118371   2.845   3.970   7.334  0.7628  0.2099 -0.3581
 2245SOL    HW218372   2.873   4.018   7.469  5.7216 -1.1836 -0.0972
 2246SOL     OW18373   1.723   1.028   2.573 -0.3085 -0.1697  0.0910
 2246SOL    HW118374   1.666   0.960   2.611  0.0544  0.2604  1.4034
 2246SOL    HW218375   1.664   1.101   2.555 -2.5216 -2.3252 -1.4792
 2247SOL     OW18376   2.814   0.336   1.407  0.4113 -0.4674  0.0082
 2247SOL    HW118377   2.777   0.416   1.370  2.6169  1.4479  1.9586
 2247SOL    HW218378   2.828   0.286   1.326  0.1591 -0.1502 -0.2298
 2248SOL     OW18379   3.934   3.716   6.463  0.6275  0.5720  0.2064
 2248SOL    HW118380   3.889   3.799   6.484 -1.1961 -0.6998  1.3109
 2248SOL    HW218381   3.858   3.663   6.439 -1.3815  2.5580  2.0978
 2249SOL     OW18382   4.317   1.478   6.068 -0.0118 -0.0032  0.1280
 2249SOL    HW118383   4.383   1.493   6.136  0.5823  0.3673 -0.5285
 2249SOL    HW218384   4.237   1.501   6.116  2.5524  0.1723  4.3359
 2250SOL     OW18385   2.847   0.813  15.725  0.4778 -0.3605  0.4478
 2250SOL    HW118386   2.759   0.843  15.703  0.6200  1.1912  2.0391
 2250SOL    HW218387   2.835   0.794  15.818 -1.3454  1.7609  0.6336
 2251SOL     OW18388   0.574   2.039   0.337 -0.4899  0.0653  0.1228
 2251SOL    HW118389   0.657   2.070   0.301 -0.0337 -0.3314  0.8304
 2251SOL    HW218390   0.515   2.114   0.332 -1.3638 -0.5345  1.5187
 2252SOL     OW18391   0.814   2.681   0.888  0.0308  0.2090 -0.2819
 2252SOL    HW118392   0.807   2.586   0.875  0.6356  0.2413 -0.8424
 2252SOL    HW218393   0.908   2.697   0.896 -0.0162  0.9534 -1.2428
 2253SOL     OW18394   3.334   4.035   4.140  0.2072  0.4717 -0.5104
 2253SOL    HW118395   3.369   3.965   4.086  2.7921  1.2404  0.1578
 2253SOL    HW218396   3.397   4.040   4.212  1.0458  0.2565 -1.2281
 2254SOL     OW18397   0.410   0.270  16.737  0.0680 -0.1048  0.2722
 2254SOL    HW118398   0.420   0.304  16.825  1.4131  1.8042 -0.6412
 2254SOL    HW218399   0.320   0.239  16.726  0.2160  0.3575 -2.2453
 2255SOL     OW18400   0.676   4.218   1.794  0.4403  0.3350 -0.2690
 2255SOL    HW118401   0.674   4.122   1.804 -1.3287  0.4405  0.5097
 2255SOL    HW218402   0.594   4.230   1.746 -1.0506 -1.7968  1.6954
 2256SOL     OW18403   2.070   0.362   0.333  0.1296  0.3247 -0.6600
 2256SOL    HW118404   2.029   0.284   0.371 -0.4510 -0.1795 -2.3061
 2256SOL    HW218405   2.054   0.348   0.240  0.5511  1.1923 -0.8599
 2257SOL     OW18406   3.947   2.556   3.102  0.0899 -0.4081  0.0836
 2257SOL    HW118407   3.992   2.566   3.186 -0.5618 -0.4265  0.4356
 2257SOL    HW218408   3.887   2.481   3.109 -0.7130  0.1306 -0.9798
 2258SOL     OW18409   1.960   2.421   7.993  0.0240  0.6996  0.6064
 2258SOL    HW118410   1.884   2.407   8.049  0.3284 -0.2339  0.7951
 2258SOL    HW218411   1.934   2.344   7.942  0.9153  0.4195  0.5813
 2259SOL     OW18412   0.086   3.751   6.250  0.3139 -0.1855  0.4590
 2259SOL    HW118413   0.111   3.842   6.235 -0.6212 -0.2000 -1.0894
 2259SOL    HW218414   0.022   3.761   6.320  0.6679  1.3087  0.5849
 2260SOL     OW18415   3.988   2.471  15.732  0.3051 -0.2835  0.6693
 2260SOL    HW118416   3.985   2.385  15.691  0.9646  0.0072  0.0096
 2260SOL    HW218417   3.950   2.451  15.818  0.1666  0.5553  0.7993
 2261SOL     OW18418   4.243   4.187  14.337  0.2384  0.3481 -0.4763
 2261SOL    HW118419   4.171   4.182  14.275  0.3834 -2.1436 -0.4258
 2261SOL    HW218420   4.300   4.238  14.279  1.3097  0.1237  0.3696
 2262SOL     OW18421   0.619   3.206   7.247 -0.0504  0.2423  0.3313
 2262SOL    HW118422   0.539   3.153   7.256 -0.2888  0.9995  2.7924
 2262SOL    HW218423   0.687   3.156   7.292 -0.4127 -1.0917 -0.5982
 2263SOL     OW18424   3.997   3.336   6.951 -0.4254 -0.2819 -0.4412
 2263SOL    HW118425   3.942   3.414   6.960  0.5589  0.4523 -0.7606
 2263SOL    HW218426   4.076   3.382   6.922  0.5699 -0.0674  2.5730
 2264SOL     OW18427   2.354   0.400  11.010 -0.5690  0.4593  0.3752
 2264SOL    HW118428   2.335   0.313  11.046 -0.5666 -0.4797 -1.8615
 2264SOL    HW218429   2.290   0.420  10.942 -1.2019 -2.0698  0.2170
 2265SOL     OW18430   3.257   3.883   5.800 -0.8502 -0.4464  0.1827
 2265SOL    HW118431   3.334   3.940   5.806 -0.9302 -0.5394  2.3214
 2265SOL    HW218432   3.291   3.796   5.816 -0.1063 -0.2133 -0.1407
 2266SOL     OW18433   2.979   3.878   1.444 -0.2063  0.3884 -0.1717
 2266SOL    HW118434   2.969   3.918   1.358 -0.8682 -1.0778 -0.7920
 2266SOL    HW218435   2.890   3.846   1.460 -0.5060  1.7680  0.8607
 2267SOL     OW18436   1.204   0.508   3.818  0.1755 -0.5868  0.0689
 2267SOL    HW118437   1.275   0.521   3.881 -0.7321  1.0610  0.7602
 2267SOL    HW218438   1.159   0.437   3.863  2.7179 -2.2236  0.0248
 2268SOL     OW18439   2.881   1.733   2.801 -0.4735 -0.0878  0.2512
 2268SOL    HW118440   2.819   1.697   2.864  0.9988 -2.2391  0.4649
 2268SOL    HW218441   2.833   1.721   2.719  0.5605  0.3222 -0.4096
 2269SOL     OW18442   2.120   2.724   4.312 -0.2516  0.3379 -0.6836
 2269SOL    HW118443   2.165   2.651   4.355 -0.4869  0.2913 -0.5177
 2269SOL    HW218444   2.186   2.741   4.245 -1.5240  1.1234 -1.7260
 2270SOL     OW18445   0.820   3.477   1.771  0.3103 -0.1758  0.1199
 2270SOL    HW118446   0.736   3.509   1.806  2.5608  2.8373  2.7314
 2270SOL    HW218447   0.797   3.436   1.688  0.8568  2.4033 -1.3009
 2271SOL     OW18448   3.562   0.077   7.576  0.5869 -0.2264 -0.0349
 2271SOL    HW118449   3.564   4.723   7.558 -2.0084 -1.1241  4.5136
 2271SOL    HW218450   3.626   0.111   7.514  0.1900  0.5385 -0.0218
 2272SOL     OW18451   1.831   2.699  17.692 -0.3425 -0.2904  0.3579
 2272SOL    HW118452   1.846   2.628  17.755  1.6329  0.0005  0.2358
 2272SOL    HW218453   1.836   2.649  17.611  1.2531  0.2607  0.1100
 2273SOL     OW18454   4.462   4.490   1.987 -0.6545  0.2203 -0.2782
 2273SOL    HW118455   4.494   4.487   1.897 -4.2277 -0.1143 -1.5306
 2273SOL    HW218456   4.544   4.516   2.030 -0.6366 -0.0667 -0.1364
 2274SOL     OW18457   2.117   0.780   5.566 -0.4091  0.4140  0.9053
 2274SOL    HW118458   2.072   0.706   5.606  0.4490 -0.3722  0.4272
 2274SOL    HW218459   2.166   0.808   5.643  0.0011  0.2859  0.6897
 2275SOL     OW18460   3.830   4.554   4.534 -0.1284 -0.2734 -0.0182
 2275SOL    HW118461   3.788   4.633   4.499  1.8455  0.6953 -0.1496
 2275SOL    HW218462   3.794   4.483   4.480  0.6581 -2.1898  1.9881
 2276SOL     OW18463   3.501   4.523  10.272 -0.0182 -0.5186  0.5572
 2276SOL    HW118464   3.515   4.485  10.358  0.7344 -0.7056  0.3452
 2276SOL    HW218465   3.590   4.513  10.238 -0.4270  0.3635 -0.8045
 2277SOL     OW18466   4.223   2.005  16.050  0.2681 -0.2830  0.0527
 2277SOL    HW118467   4.234   1.997  15.955  1.6665 -0.1024  0.1912
 2277SOL    HW218468   4.172   2.086  16.052 -0.0486 -0.3469 -3.9193
 2278SOL     OW18469   3.835   2.539   3.431  0.5985 -0.0435  0.0135
 2278SOL    HW118470   3.858   2.629   3.409  0.1945  0.4627  1.5872
 2278SOL    HW218471   3.797   2.507   3.349 -0.9521 -1.8699  1.4342
 2279SOL     OW18472   4.372   1.966  11.281  0.1215  0.5497 -0.7075
 2279SOL    HW118473   4.346   2.019  11.205 -0.1940  0.0300 -0.9674
 2279SOL    HW218474   4.467   1.965  11.273  0.0390 -0.4956 -1.5882
 2280SOL     OW18475   4.250   3.782  15.934 -0.8645 -0.0218 -0.4292
 2280SOL    HW118476   4.271   3.872  15.913 -3.4288  0.9134  1.0373
 2280SOL    HW218477   4.336   3.739  15.924 -0.4662  0.9140 -1.0132
 2281SOL     OW18478   1.666   3.454   3.070  0.3496  0.0522 -0.0187
 2281SOL    HW118479   1.635   3.456   3.160  0.7991 -0.4798  0.1471
 2281SOL    HW218480   1.742   3.512   3.078  1.7216 -2.1639  2.8648
 2282SOL     OW18481   1.425   2.282  17.131  0.3780  0.1696  0.6121
 2282SOL    HW118482   1.394   2.192  17.133 -1.0075  0.6277 -0.5018
 2282SOL    HW218483   1.440   2.299  17.224  0.3897 -2.0490  1.0131
 2283SOL     OW18484   4.575   0.810  11.431 -0.3574  0.8271  0.5679
 2283SOL    HW118485   4.561   0.761  11.350 -1.2022 -0.2905  1.3840
 2283SOL    HW218486   4.487   0.844  11.451 -1.0838 -1.8285  1.8186
 2284SOL     OW18487   3.294   0.725  12.335  0.0735  0.2725  1.0587
 2284SOL    HW118488   3.365   0.663  12.351  1.3374  1.5192  0.2472
 2284SOL    HW218489   3.343   0.787  12.281 -1.3515  0.5011  0.0033
 2285SOL     OW18490   0.789   3.886   5.181 -0.8314 -0.3134 -0.4584
 2285SOL    HW118491   0.849   3.889   5.106  0.9165  2.0267  1.0184
 2285SOL    HW218492   0.723   3.830   5.141 -0.3563 -1.2461  0.0669
 2286SOL     OW18493   4.714   0.732  11.973  0.0205  0.0504  0.4600
 2286SOL    HW118494   4.723   0.638  11.957  0.1607  0.1980 -0.3095
 2286SOL    HW218495   4.698   0.774  11.889  0.0469  0.4244  0.6438
 2287SOL     OW18496   2.366   2.843  16.943 -0.2549 -0.0263 -0.4884
 2287SOL    HW118497   2.382   2.853  16.849 -1.2715 -0.6543 -0.7346
 2287SOL    HW218498   2.392   2.932  16.964 -1.4728  0.0468  0.7057
 2288SOL     OW18499   2.267   1.451   4.410 -0.0023 -0.1303  0.2099
 2288SOL    HW118500   2.290   1.412   4.495  0.3440 -1.8481 -0.6789
 2288SOL    HW218501   2.315   1.534   4.410 -2.4435  1.2987 -2.7826
 2289SOL     OW18502   3.018   0.673   9.864  0.2303 -0.6566  0.6024
 2289SOL    HW118503   2.994   0.738   9.799  0.0746  0.0578  1.3711
 2289SOL    HW218504   2.949   0.667   9.930  1.4192 -1.8886  1.7521
 2290SOL     OW18505   3.548   1.056   3.866  0.2560 -0.0151 -0.1322
 2290SOL    HW118506   3.527   1.083   3.956  0.8797  1.9253 -0.5874
 2290SOL    HW218507   3.487   0.982   3.857 -0.0935  0.0107  1.9364
 2291SOL     OW18508   3.119   3.844   3.817  0.1252  0.0988 -0.0085
 2291SOL    HW118509   3.024   3.833   3.816  0.4278 -2.3597 -1.3339
 2291SOL    HW218510   3.130   3.813   3.907 -1.4095  1.5000  0.6512
 2292SOL     OW18511   4.290   0.438   4.794  0.0101 -0.3736 -0.2630
 2292SOL    HW118512   4.217   0.396   4.750  0.1558 -0.0985 -0.7764
 2292SOL    HW218513   4.296   0.516   4.739  1.8092 -0.2544  0.1016
 2293SOL     OW18514   1.380   4.317   1.453  0.2457 -0.2429  0.2255
 2293SOL    HW118515   1.299   4.291   1.408 -0.4304  1.6545  0.3479
 2293SOL    HW218516   1.355   4.284   1.539  1.6429 -1.2918  0.2375
 2294SOL     OW18517   1.658   3.850   7.268 -0.3754 -0.1780 -0.1114
 2294SOL    HW118518   1.746   3.814   7.260  0.9159  2.6909  1.1265
 2294SOL    HW218519   1.598   3.789   7.224  1.7790 -0.8359 -2.1207
 2295SOL     OW18520   0.120   2.873  16.935 -0.8017 -0.0810  0.3192
 2295SOL    HW118521   0.070   2.944  16.895  1.6776  0.5171 -1.6844
 2295SOL    HW218522   0.155   2.917  17.012  1.5893 -0.8275 -0.3392
 2296SOL     OW18523   1.741   3.079   3.828 -0.4065 -0.4313 -0.1860
 2296SOL    HW118524   1.681   3.061   3.756  2.7091 -0.6705 -2.7361
 2296SOL    HW218525   1.757   2.988   3.855 -0.2768 -0.0839  0.9132
 2297SOL     OW18526   3.795   4.453  12.748  1.0133 -0.4598 -0.2142
 2297SOL    HW118527   3.861   4.474  12.682  1.3454  0.7877  0.5163
 2297SOL    HW218528   3.798   4.360  12.726 -0.7180 -0.3129 -1.0385
 2298SOL     OW18529   2.234   3.266   4.968  0.6528  0.4242 -0.3696
 2298SOL    HW118530   2.158   3.286   4.913 -0.4864 -1.3644  0.5480
 2298SOL    HW218531   2.304   3.324   4.937 -0.4286  2.0031  0.1229
 2299SOL     OW18532   2.788   2.795   5.499 -0.0968 -0.2251 -0.2745
 2299SOL    HW118533   2.819   2.878   5.463 -0.1381 -0.1609 -0.1637
 2299SOL    HW218534   2.813   2.810   5.591  0.8700 -1.8218 -0.2725
 2300SOL     OW18535   1.657   2.343   9.154 -0.8054  0.5515 -0.2527
 2300SOL    HW118536   1.602   2.380   9.223 -1.5101 -2.0572  0.5619
 2300SOL    HW218537   1.726   2.409   9.144  2.1918 -2.6797 -0.9063
 2301SOL     OW18538   0.236   4.697   4.741  0.3792  0.0779 -0.2328
 2301SOL    HW118539   0.200   4.647   4.668  1.1918 -1.0115  0.1109
 2301SOL    HW218540   0.160   0.007   4.771  0.2419 -0.2350 -0.0510
 2302SOL     OW18541   0.151   4.515   4.515  0.0687  0.2610  0.2030
 2302SOL    HW118542   0.094   4.438   4.509  0.1082  0.3006 -0.7095
 2302SOL    HW218543   0.238   4.474   4.521 -0.1197 -0.3902 -1.4488
 2303SOL     OW18544   1.130   4.204  14.909 -0.1163  0.3768 -0.2298
 2303SOL    HW118545   1.096   4.133  14.854 -0.7651  2.5316 -2.5951
 2303SOL    HW218546   1.090   4.286  14.882 -2.2900 -0.2030  1.1697
 2304SOL     OW18547   2.666   4.579  16.392  0.3922  0.3482  0.4096
 2304SOL    HW118548   2.686   4.643  16.461  1.7301  0.4711 -0.0864
 2304SOL    HW218549   2.747   4.593  16.342  0.9656 -1.6756  0.7552
 2305SOL     OW18550   0.178   3.024   7.391 -0.6774 -0.4381 -0.0961
 2305SOL    HW118551   0.260   2.986   7.421 -0.6127  1.5029  2.2527
 2305SOL    HW218552   0.194   3.115   7.418 -2.0180 -1.3939  3.9140
 2306SOL     OW18553   1.811   4.106   1.841 -0.2097 -0.6487  0.0434
 2306SOL    HW118554   1.790   4.017   1.815  2.1223 -1.3011  0.3428
 2306SOL    HW218555   1.793   4.101   1.935  0.3073 -2.8194  0.0169
 2307SOL     OW18556   4.239   3.453   4.296  0.2074 -0.7573 -0.3677
 2307SOL    HW118557   4.334   3.461   4.304  0.1844 -1.0639  0.1774
 2307SOL    HW218558   4.228   3.477   4.204  0.4879 -2.5964 -0.8814
 2308SOL     OW18559   1.508   0.134   9.058 -0.1074  0.0509  0.3276
 2308SOL    HW118560   1.469   0.195   9.122  1.2296  0.4625  0.7372
 2308SOL    HW218561   1.424   0.116   9.016 -0.6249 -0.3560  1.5172
 2309SOL     OW18562   0.461   3.896   5.550 -0.3898 -0.1123 -0.1695
 2309SOL    HW118563   0.470   3.833   5.622 -1.2394 -0.2544 -0.1850
 2309SOL    HW218564   0.478   3.839   5.474  0.6673 -0.0401  0.0207
 2310SOL     OW18565   4.384   0.872  14.132  0.5717  0.6081  0.0082
 2310SOL    HW118566   4.380   0.834  14.045  0.1146  0.4845  0.0810
 2310SOL    HW218567   4.362   0.961  14.103  0.4789  0.4658 -0.3495
 2311SOL     OW18568   2.292   2.881   4.658 -0.4118  0.2549  0.7343
 2311SOL    HW118569   2.378   2.882   4.701 -0.6106  1.5353  1.1110
 2311SOL    HW218570   2.230   2.835   4.713  0.6064  1.7333  3.1137
 2312SOL     OW18571   0.464   0.714  10.201 -0.3084 -0.3932  0.4220
 2312SOL    HW118572   0.472   0.625  10.237 -0.5644 -0.9283 -0.8563
 2312SOL    HW218573   0.555   0.732  10.181 -0.5819  0.1212 -0.3298
 2313SOL     OW18574   1.552   3.985   6.748  0.1225 -0.4083  0.5073
 2313SOL    HW118575   1.530   3.898   6.782 -1.2402  0.4180  1.7400
 2313SOL    HW218576   1.641   3.972   6.715 -0.9005  0.2629 -2.4850
 2314SOL     OW18577   3.326   3.339   8.628  0.7898  0.2276  0.1998
 2314SOL    HW118578   3.352   3.350   8.720  1.3923  0.1164  0.0368
 2314SOL    HW218579   3.402   3.373   8.582  0.1888 -1.0027 -1.7006
 2315SOL     OW18580   4.089   2.695   4.637  0.0660  0.1636 -0.2768
 2315SOL    HW118581   4.163   2.756   4.642  1.9180 -2.0096 -0.6489
 2315SOL    HW218582   4.086   2.700   4.541 -1.9675 -2.1129 -0.3334
 2316SOL     OW18583   3.045   1.767   4.664 -0.0452  0.1571 -0.3779
 2316SOL    HW118584   3.052   1.731   4.753 -1.6953 -0.2371 -0.4092
 2316SOL    HW218585   3.128   1.808   4.639  0.7330  0.8850  3.3417
 2317SOL     OW18586   0.265   3.070   1.149  0.4715 -0.1001 -0.4084
 2317SOL    HW118587   0.212   3.011   1.097 -2.0318 -0.6634  2.7473
 2317SOL    HW218588   0.355   3.038   1.145  0.3534 -0.5149  0.3244
 2318SOL     OW18589   4.011   3.699  13.905 -0.3473  0.1544  0.4982
 2318SOL    HW118590   4.005   3.614  13.862  1.0807  0.6752 -0.7209
 2318SOL    HW218591   4.012   3.674  13.998  0.1979 -0.4143  0.3348
 2319SOL     OW18592   0.344   1.568  12.592  0.0906  0.2202  0.2062
 2319SOL    HW118593   0.275   1.528  12.541 -0.4279 -0.2036  1.2483
 2319SOL    HW218594   0.401   1.600  12.522  1.2714 -2.4927 -0.0557
 2320SOL     OW18595   3.665   2.742   6.285  0.3373  0.1509  0.2775
 2320SOL    HW118596   3.736   2.678   6.279  0.1668 -0.1047  0.9609
 2320SOL    HW218597   3.690   2.778   6.370 -1.2421 -0.0409  0.8197
 2321SOL     OW18598   2.167   0.509  17.385 -0.3452  0.0477 -0.0095
 2321SOL    HW118599   2.097   0.545  17.440  2.5176  0.9762  3.0252
 2321SOL    HW218600   2.215   0.586  17.355  1.2960 -1.1237 -0.3211
 2322SOL     OW18601   3.953   4.425   6.902  0.1543 -0.1051 -0.6246
 2322SOL    HW118602   4.025   4.369   6.930  0.4348  0.1107 -0.9110
 2322SOL    HW218603   3.905   4.376   6.835  2.5060 -0.9542 -1.6784
 2323SOL     OW18604   3.706   0.947   1.969  0.0528  0.1937  0.3285
 2323SOL    HW118605   3.675   0.885   2.035  0.8574 -1.0234 -0.4271
 2323SOL    HW218606   3.647   0.927   1.896  0.2007 -1.9970  0.8147
 2324SOL     OW18607   0.438   0.713   8.916  0.1476  0.1614 -0.0303
 2324SOL    HW118608   0.415   0.659   8.841  0.3264 -1.2594  0.9346
 2324SOL    HW218609   0.533   0.709   8.903  0.0522 -0.4524 -0.5226
 2325SOL     OW18610   3.952   2.674   0.894 -0.3478  0.1584 -0.4211
 2325SOL    HW118611   3.899   2.753   0.887 -1.3187 -0.4014  0.6752
 2325SOL    HW218612   3.918   2.613   0.828  3.2496 -0.1786 -1.9914
 2326SOL     OW18613   2.087   1.199   1.686 -0.2643  0.2633 -0.4803
 2326SOL    HW118614   2.002   1.187   1.644 -0.3915  1.7538 -0.6573
 2326SOL    HW218615   2.069   1.259   1.758 -1.1394 -1.0265  0.3749
 2327SOL     OW18616   3.218   1.150   6.431  0.0642 -0.6367  0.5243
 2327SOL    HW118617   3.187   1.060   6.436 -0.3215 -0.5846 -0.9956
 2327SOL    HW218618   3.142   1.189   6.474  0.3167 -0.7375  1.0640
 2328SOL     OW18619   1.204   0.495   1.794  0.3934 -0.5459  0.0729
 2328SOL    HW118620   1.289   0.534   1.774 -0.0007 -0.4561 -1.4080
 2328SOL    HW218621   1.168   0.581   1.813  0.7041  0.3107 -3.2064
 2329SOL     OW18622   2.456   3.797   4.134 -0.1630  1.0377 -0.5754
 2329SOL    HW118623   2.548   3.804   4.158 -0.0984  0.5737 -0.6884
 2329SOL    HW218624   2.418   3.768   4.216 -1.8837  1.7516 -1.1137
 2330SOL     OW18625   3.837   2.136   4.855 -0.2902  0.4047  0.1490
 2330SOL    HW118626   3.928   2.167   4.845  0.0895 -0.8626 -0.2865
 2330SOL    HW218627   3.828   2.108   4.764 -2.6611  1.6484 -0.0047
 2331SOL     OW18628   1.788   2.572   5.946 -0.5463 -0.4372 -0.2511
 2331SOL    HW118629   1.700   2.585   5.981 -0.9395 -1.3155 -0.8925
 2331SOL    HW218630   1.775   2.477   5.935  1.1234 -0.8896  1.7335
 2332SOL     OW18631   3.804   1.699  10.510 -0.4784 -0.2104 -0.3800
 2332SOL    HW118632   3.773   1.766  10.571  1.3380  0.2283  0.0382
 2332SOL    HW218633   3.892   1.731  10.497 -0.8490  2.7267  4.2503
 2333SOL     OW18634   4.669   0.515   5.521  0.2436  0.0041 -0.3328
 2333SOL    HW118635   4.634   0.446   5.465 -0.4600  1.9487 -2.2917
 2333SOL    HW218636   4.611   0.505   5.597 -0.0323 -1.6072 -0.7720
 2334SOL     OW18637   0.947   4.717   3.941 -0.3244 -0.1024  0.1890
 2334SOL    HW118638   0.869   4.686   3.895 -0.3131  2.3068 -1.4469
 2334SOL    HW218639   1.015   4.696   3.877 -0.9824 -1.6931  0.0190
 2335SOL     OW18640   3.423   0.041   9.290 -0.3253 -0.2096  0.1332
 2335SOL    HW118641   3.435   0.135   9.303  1.7101 -0.0674 -2.6063
 2335SOL    HW218642   3.459   0.027   9.202 -0.7542 -1.6246  0.1822
 2336SOL     OW18643   1.774   3.753  15.005 -0.7026  0.7529  0.3022
 2336SOL    HW118644   1.683   3.734  15.029  0.3395 -1.8833  2.1408
 2336SOL    HW218645   1.813   3.671  15.035 -1.1956  0.2996 -0.2903
 2337SOL     OW18646   4.551   4.491   3.491  0.4584  0.2773 -0.0860
 2337SOL    HW118647   4.514   4.409   3.459 -0.0372 -0.0467  1.3251
 2337SOL    HW218648   4.640   4.459   3.502 -0.3047 -1.2739  1.4897
 2338SOL     OW18649   1.986   0.130  16.298  0.0998 -0.2532  0.3726
 2338SOL    HW118650   1.899   0.117  16.259  0.3494  0.3120 -0.3779
 2338SOL    HW218651   1.977   0.183  16.377  0.8162 -0.5069  0.6209
 2339SOL     OW18652   0.415   1.620  16.161 -0.3707 -0.2686  0.2521
 2339SOL    HW118653   0.401   1.600  16.068 -0.5575 -3.1362  0.8874
 2339SOL    HW218654   0.409   1.531  16.197 -1.7742 -0.9260 -1.5898
 2340SOL     OW18655   1.397   1.898  12.868 -0.0143 -0.0461  0.3764
 2340SOL    HW118656   1.382   1.978  12.918  0.9041  0.3647 -0.0174
 2340SOL    HW218657   1.390   1.936  12.781  2.3902  0.6506  0.4889
 2341SOL     OW18658   0.002   2.028   5.398 -0.4797  0.4625 -0.5427
 2341SOL    HW118659   0.044   2.101   5.355 -0.3944 -0.4593 -2.0042
 2341SOL    HW218660   0.071   2.003   5.460 -0.1478  0.3016 -0.9808
 2342SOL     OW18661   1.641   2.068  12.475  0.1473  0.5683  0.4959
 2342SOL    HW118662   1.628   2.067  12.380  1.0045  0.7943  0.3812
 2342SOL    HW218663   1.607   1.982  12.501  0.3268 -0.0222 -1.2583
 2343SOL     OW18664   1.789   0.056   6.168 -0.0903 -0.0981  0.3669
 2343SOL    HW118665   1.709   0.003   6.173  0.5537 -1.1208 -0.0757
 2343SOL    HW218666   1.770   0.112   6.243 -0.7042 -0.0719  0.1960
 2344SOL     OW18667   4.527   3.776   3.221 -0.1260  0.2634  0.1970
 2344SOL    HW118668   4.612   3.772   3.263  0.3785  0.9071 -0.7723
 2344SOL    HW218669   4.469   3.831   3.274 -0.3807 -0.8688  1.1123
 2345SOL     OW18670   2.206   1.468   2.857 -0.3911  0.3630 -0.3126
 2345SOL    HW118671   2.264   1.523   2.910 -0.6393 -0.8858  1.2342
 2345SOL    HW218672   2.269   1.403   2.826 -0.1077  1.1454 -1.3672
 2346SOL     OW18673   1.470   4.036   5.476 -0.0364 -0.1157 -0.0283
 2346SOL    HW118674   1.385   4.079   5.466  0.2034  0.0419 -1.4414
 2346SOL    HW218675   1.522   4.079   5.408 -0.4079  0.4259  0.0214
 2347SOL     OW18676   3.124   0.084   7.752  0.6735  0.0380 -0.3272
 2347SOL    HW118677   3.120   0.180   7.754 -0.3988 -0.0420  1.6988
 2347SOL    HW218678   3.076   0.056   7.674 -1.0717 -0.2374  0.8404
 2348SOL     OW18679   4.322   2.448   4.532 -0.2497  0.1068 -0.6663
 2348SOL    HW118680   4.345   2.437   4.440  0.3931 -2.7291 -0.1721
 2348SOL    HW218681   4.231   2.419   4.530  0.0104 -0.6131 -1.6375
 2349SOL     OW18682   2.624   2.521   4.713 -0.0946 -0.0858 -0.0934
 2349SOL    HW118683   2.542   2.475   4.695  0.1063 -0.6444  0.4260
 2349SOL    HW218684   2.613   2.556   4.801  0.1261  0.0450 -0.1187
 2350SOL     OW18685   2.364   2.941   0.453 -0.1336  0.0370 -0.1233
 2350SOL    HW118686   2.427   3.003   0.415 -2.1232 -0.1838 -3.7798
 2350SOL    HW218687   2.357   2.962   0.546  2.6366 -0.3782  0.1766
 2351SOL     OW18688   4.640   4.682   6.095 -0.6752 -0.3364  0.2282
 2351SOL    HW118689   4.570   0.002   6.122 -1.1777 -0.5783 -0.5655
 2351SOL    HW218690   4.665   4.716   6.010 -1.1516  0.4051  0.3873
 2352SOL     OW18691   2.585   2.287   1.324  0.1724  0.1395 -0.6586
 2352SOL    HW118692   2.655   2.258   1.266 -0.2082 -0.8635 -0.6103
 2352SOL    HW218693   2.628   2.367   1.356  0.1534  0.0395 -0.3814
 2353SOL     OW18694   4.410   0.577   4.396  0.5012  0.9391 -0.2961
 2353SOL    HW118695   4.437   0.491   4.365  1.0723  1.2307 -0.6134
 2353SOL    HW218696   4.444   0.646   4.339  0.8864  0.9596 -0.0402
 2354SOL     OW18697   3.198   2.470   6.682 -0.0149  1.0218  0.6976
 2354SOL    HW118698   3.232   2.388   6.719  2.0459  1.9321  0.8599
 2354SOL    HW218699   3.171   2.519   6.759 -0.6007 -1.5931  2.1513
 2355SOL     OW18700   3.791   3.385   4.582 -0.2320 -0.1758  0.5351
 2355SOL    HW118701   3.871   3.374   4.531 -0.5878 -0.6977  0.0924
 2355SOL    HW218702   3.728   3.360   4.514  1.6621  0.6036 -1.4964
 2356SOL     OW18703   3.291   4.391  10.131 -0.2219 -0.2921 -0.5543
 2356SOL    HW118704   3.374   4.431  10.159 -0.5039  0.4487 -0.7647
 2356SOL    HW218705   3.268   4.358  10.218 -1.8958 -0.3177 -1.0032
 2357SOL     OW18706   3.907   4.448   8.856  0.5174 -0.5563  0.2736
 2357SOL    HW118707   3.896   4.536   8.890 -1.0858 -1.2962  1.6556
 2357SOL    HW218708   3.927   4.461   8.763  0.6289 -0.4695  0.3093
 2358SOL     OW18709   3.927   0.498   6.443 -0.4953  0.2599  0.0230
 2358SOL    HW118710   4.005   0.477   6.495 -1.0384  2.2068  1.6001
 2358SOL    HW218711   3.969   0.548   6.373 -0.1852 -0.0488 -0.0122
 2359SOL     OW18712   1.150   1.206  11.626 -0.5584 -0.0611  0.6887
 2359SOL    HW118713   1.169   1.113  11.641  1.5121  0.2835  0.1590
 2359SOL    HW218714   1.236   1.246  11.615 -0.4827 -0.5918 -0.6791
 2360SOL     OW18715   0.534   3.065   2.874  0.0599  0.3694  0.4343
 2360SOL    HW118716   0.627   3.085   2.866  0.0693  0.6229  1.1563
 2360SOL    HW218717   0.521   3.004   2.802  0.4905  0.1322  0.5554
 2361SOL     OW18718   4.653   1.961  11.283  0.1561  0.2087 -0.6351
 2361SOL    HW118719   4.684   1.982  11.372 -0.1944 -0.2641 -0.4022
 2361SOL    HW218720   4.673   1.867  11.292 -0.3296  0.1045 -0.6389
 2362SOL     OW18721   3.678   2.204   9.897  0.1972  0.3607  0.1230
 2362SOL    HW118722   3.746   2.141   9.921 -1.6346 -1.8901 -0.6195
 2362SOL    HW218723   3.619   2.154   9.841  0.0125 -0.0846  0.7108
 2363SOL     OW18724   4.291   2.587   8.106  0.0531  0.2039  0.1545
 2363SOL    HW118725   4.337   2.663   8.070  0.9298  0.9408  2.8081
 2363SOL    HW218726   4.204   2.625   8.106 -0.4247 -0.8714  2.0541
 2364SOL     OW18727   4.122   0.203   6.338  0.2597  0.2418  0.3080
 2364SOL    HW118728   4.145   0.132   6.398  1.7202 -0.3371 -0.9389
 2364SOL    HW218729   4.176   0.267   6.384  0.6796  0.0259  0.1223
 2365SOL     OW18730   1.673   2.553   5.237 -0.1781  0.4283  0.5013
 2365SOL    HW118731   1.640   2.598   5.160 -1.6868  0.5624  1.2220
 2365SOL    HW218732   1.733   2.486   5.204  1.6469  2.3701 -0.0975
 2366SOL     OW18733   3.932   4.071   1.580  0.8049  0.4272 -0.0423
 2366SOL    HW118734   3.991   4.088   1.507  0.5429  0.9473 -0.1324
 2366SOL    HW218735   3.945   3.976   1.585  2.9535  0.8052  1.5553
 2367SOL     OW18736   2.042   3.426   8.754 -0.2888 -0.2161 -0.5699
 2367SOL    HW118737   2.061   3.339   8.788 -1.2198 -0.3632 -0.4418
 2367SOL    HW218738   1.961   3.418   8.705 -0.5204  0.4493 -0.2943
 2368SOL     OW18739   0.220   4.509   3.304 -0.5020  0.0008 -0.2525
 2368SOL    HW118740   0.306   4.470   3.288 -0.4011 -0.5486  1.6730
 2368SOL    HW218741   0.236   4.603   3.296  0.5059 -0.1511 -0.0206
 2369SOL     OW18742   1.489   3.056   0.025  0.1677  0.9158 -1.0565
 2369SOL    HW118743   1.578   3.067   0.056  1.0486  1.1243 -3.6632
 2369SOL    HW218744   1.517   3.053  17.692 -0.5913 -2.2651 -1.1902
 2370SOL     OW18745   0.005   4.293   6.277 -0.0060 -0.0051  0.2419
 2370SOL    HW118746   0.060   4.368   6.256 -0.2259 -0.0400 -0.4738
 2370SOL    HW218747   0.052   4.254   6.350 -0.8421  0.0679  0.8136
 2371SOL     OW18748   3.220   1.788   4.104 -0.1403 -0.0828 -0.3261
 2371SOL    HW118749   3.301   1.749   4.070 -1.6972 -0.7446 -3.2924
 2371SOL    HW218750   3.163   1.787   4.027  0.0675  1.6970 -0.4992
 2372SOL     OW18751   3.404   3.639   4.681  0.0008 -0.0734  0.2433
 2372SOL    HW118752   3.383   3.677   4.595  0.9336 -1.6047 -0.6581
 2372SOL    HW218753   3.318   3.619   4.717 -0.8723  0.2942 -1.6511
 2373SOL     OW18754   1.782   1.255   9.484  0.5238  0.1996 -0.1999
 2373SOL    HW118755   1.798   1.164   9.457 -0.6995 -0.3171  0.8254
 2373SOL    HW218756   1.869   1.283   9.511  0.0981  0.3943  0.9612
 2374SOL     OW18757   3.691   3.990   6.492 -0.0741 -0.0735  0.1797
 2374SOL    HW118758   3.634   3.979   6.416  0.7425 -0.7276 -0.3382
 2374SOL    HW218759   3.715   4.080   6.472 -1.1168 -0.0565 -1.0581
 2375SOL     OW18760   2.170   4.585   4.692 -0.7334  0.2880  0.0318
 2375SOL    HW118761   2.100   4.538   4.646  0.6811  0.6489 -2.4779
 2375SOL    HW218762   2.129   4.657   4.741  0.3000 -0.1805  1.5737
 2376SOL     OW18763   3.858   3.088   8.617 -0.2676  0.9129  0.4791
 2376SOL    HW118764   3.769   3.103   8.586 -0.1931 -1.0926 -0.7147
 2376SOL    HW218765   3.868   3.121   8.707  0.2467  0.2349  0.6750
 2377SOL     OW18766   2.956   0.558   5.956  0.3913  0.0228 -0.3112
 2377SOL    HW118767   3.028   0.496   5.945  1.0615  0.8386 -0.5278
 2377SOL    HW218768   2.888   0.495   5.933 -1.3229  1.2066  1.5411
 2378SOL     OW18769   2.950   3.759   5.863  0.2832  0.0561 -0.4088
 2378SOL    HW118770   2.952   3.705   5.784 -1.5770 -0.1662 -0.3147
 2378SOL    HW218771   3.044   3.769   5.878  0.4117 -0.2725 -1.0110
 2379SOL     OW18772   0.369   2.134  13.580  0.0217 -0.3635  0.3847
 2379SOL    HW118773   0.419   2.203  13.624 -0.5665  1.0248 -1.1031
 2379SOL    HW218774   0.298   2.191  13.551 -0.5937 -1.7908 -0.9094
 2380SOL     OW18775   0.469   3.041  16.490  0.0357 -0.1372 -0.4041
 2380SOL    HW118776   0.542   3.072  16.544  0.5084  1.0690 -1.7701
 2380SOL    HW218777   0.509   3.051  16.405 -0.3893  0.6042 -0.5184
 2381SOL     OW18778   3.663   3.481   3.387 -0.5289 -0.6664 -0.1131
 2381SOL    HW118779   3.598   3.462   3.454  0.3064 -4.0037 -0.2513
 2381SOL    HW218780   3.747   3.445   3.416 -2.1311 -2.3596  2.3608
 2382SOL     OW18781   4.236   1.063  16.401  0.3943  0.2163  0.2516
 2382SOL    HW118782   4.299   1.030  16.337  0.2442  1.0821 -0.3520
 2382SOL    HW218783   4.265   1.153  16.413  1.5570 -0.0704 -0.3839
 2383SOL     OW18784   3.792   0.105   1.934  0.0995 -0.4206 -0.0143
 2383SOL    HW118785   3.716   0.143   1.889  1.1513  1.7173  0.0056
 2383SOL    HW218786   3.754   0.082   2.019  2.5279  0.1224  1.2000
 2384SOL     OW18787   4.330   1.134   1.977  0.1195 -0.1647 -0.6224
 2384SOL    HW118788   4.296   1.046   1.960  1.0313 -0.8958  1.2686
 2384SOL    HW218789   4.424   1.124   1.968  0.4032  1.5323  0.5659
 2385SOL     OW18790   2.878   0.512  16.455 -0.2509 -0.3633  0.1349
 2385SOL    HW118791   2.788   0.538  16.474  0.4706 -0.3197  3.5246
 2385SOL    HW218792   2.923   0.597  16.453 -1.4323  0.2730  1.2523
 2386SOL     OW18793   0.317   1.658   4.448 -0.1969  0.5188  0.1846
 2386SOL    HW118794   0.406   1.641   4.416  0.7721  3.2048  1.5170
 2386SOL    HW218795   0.332   1.752   4.458 -0.7736  0.7253 -0.9098
 2387SOL     OW18796   4.115   2.066   3.784 -0.3605  0.5525 -0.7296
 2387SOL    HW118797   4.059   2.117   3.842 -0.1608 -0.8446  0.7047
 2387SOL    HW218798   4.055   1.997   3.756 -0.6542  1.0367 -1.3043
 2388SOL     OW18799   3.559   2.310  16.103 -0.2783 -0.3109 -0.4202
 2388SOL    HW118800   3.605   2.263  16.173 -2.4247 -1.1867  0.4008
 2388SOL    HW218801   3.546   2.394  16.146  3.0407 -0.3254  0.6545
 2389SOL     OW18802   2.508   2.193   2.125  0.6949  0.4353  0.0631
 2389SOL    HW118803   2.539   2.233   2.207 -1.4360  0.8376  0.6708
 2389SOL    HW218804   2.495   2.270   2.070  2.3609 -0.1328 -1.1051
 2390SOL     OW18805   3.348   0.931   6.613  0.5015 -0.1158  0.6151
 2390SOL    HW118806   3.256   0.956   6.604  0.1834 -1.0921  1.1876
 2390SOL    HW218807   3.382   0.963   6.529  1.8550  0.5669  1.4233
 2391SOL     OW18808   3.547   1.906   3.936 -0.5169  0.3911 -0.3923
 2391SOL    HW118809   3.529   1.834   3.996  0.7026  0.2309 -0.2339
 2391SOL    HW218810   3.642   1.913   3.945 -0.1933 -1.1606 -2.5621
 2392SOL     OW18811   2.618   1.387  15.935  0.3188  0.1921 -0.0581
 2392SOL    HW118812   2.550   1.418  15.994 -1.3347 -2.6745 -0.4603
 2392SOL    HW218813   2.597   1.294  15.949  1.7524 -0.5961 -3.0484
 2393SOL     OW18814   1.098   2.301   9.573 -0.0745  0.0700 -0.0985
 2393SOL    HW118815   1.067   2.383   9.612  2.0310  0.7326  0.2065
 2393SOL    HW218816   1.176   2.337   9.529 -0.7248  0.1965 -1.1493
 2394SOL     OW18817   0.300   0.756   1.557  0.3745  0.9885  0.2934
 2394SOL    HW118818   0.240   0.741   1.483 -1.0881 -1.9550  2.0929
 2394SOL    HW218819   0.382   0.730   1.515 -0.3951 -0.0188 -0.6021
 2395SOL     OW18820   2.917   1.097   3.352 -0.5320  0.2519 -0.7217
 2395SOL    HW118821   2.890   1.188   3.342  0.6872  0.9680  2.5464
 2395SOL    HW218822   2.868   1.047   3.287 -1.0490 -0.6784  0.3721
 2396SOL     OW18823   3.966   0.371  17.550  0.0355 -0.3899 -0.0645
 2396SOL    HW118824   3.952   0.462  17.577  1.0235 -0.4388  0.6335
 2396SOL    HW218825   3.883   0.352  17.506 -0.9781  0.1101  1.6620
 2397SOL     OW18826   0.991   4.552  17.282 -0.1172 -0.6739  0.3399
 2397SOL    HW118827   1.053   4.621  17.306  1.9315 -2.3757 -0.1439
 2397SOL    HW218828   1.018   4.544  17.190  0.9774  1.9864  0.4078
 2398SOL     OW18829   2.845   3.282   8.523  0.2477 -0.6001 -0.4674
 2398SOL    HW118830   2.793   3.214   8.479 -1.9052  0.4353  0.4419
 2398SOL    HW218831   2.930   3.246   8.546  0.4433  0.9016  1.1755
 2399SOL     OW18832   3.001   3.714  14.171 -0.0748 -0.0528  0.6074
 2399SOL    HW118833   2.978   3.773  14.099 -0.3104 -0.2112  0.5513
 2399SOL    HW218834   3.096   3.724  14.173 -0.0861  0.1149  0.4238
 2400SOL     OW18835   3.890   2.899   3.732  0.6587  0.6519 -0.3556
 2400SOL    HW118836   3.975   2.856   3.718  0.2664 -0.7480  1.4793
 2400SOL    HW218837   3.868   2.853   3.813  2.7367 -0.3399 -0.3700
 2401SOL     OW18838   3.186   3.450  13.047  0.4419  0.3277  0.1982
 2401SOL    HW118839   3.182   3.416  12.957 -0.3386 -1.5132  0.9317
 2401SOL    HW218840   3.230   3.533  13.029 -0.1430  0.1967 -1.9194
 2402SOL     OW18841   2.903   0.310   6.424  0.0002 -0.0940 -0.3271
 2402SOL    HW118842   2.871   0.270   6.343  1.3132  1.4108 -1.5936
 2402SOL    HW218843   2.847   0.388   6.431 -1.3308 -1.0414 -0.3895
 2403SOL     OW18844   0.168   0.497   9.666 -0.5183 -0.0687 -0.0277
 2403SOL    HW118845   0.111   0.496   9.588 -1.1639  0.1135  0.4397
 2403SOL    HW218846   0.253   0.464   9.637  0.3489 -0.7051  3.3379
 2404SOL     OW18847   0.625   3.545   3.332 -0.5545 -0.4164 -0.4086
 2404SOL    HW118848   0.590   3.578   3.249 -1.7906 -0.3227  0.1434
 2404SOL    HW218849   0.564   3.581   3.396 -0.2622  1.5777 -1.2710
 2405SOL     OW18850   4.633   3.026   1.535 -0.1792 -0.3758  0.2461
 2405SOL    HW118851   4.658   2.953   1.593  3.1001  0.9758  0.5774
 2405SOL    HW218852   4.710   3.038   1.480  2.0245 -0.1804  3.3462
 2406SOL     OW18853   1.587   3.935   3.974 -0.0236 -0.5225  0.1547
 2406SOL    HW118854   1.518   3.870   3.984 -1.0360  0.7026  1.1012
 2406SOL    HW218855   1.664   3.895   4.014 -1.4438 -2.5317  0.8803
 2407SOL     OW18856   2.986   0.140  14.378 -0.0502  0.5280 -0.0609
 2407SOL    HW118857   2.944   0.055  14.364  0.2463  0.5341 -0.9957
 2407SOL    HW218858   3.048   0.112  14.445 -1.7547 -1.4603  0.6897
 2408SOL     OW18859   2.604   0.892  11.137 -0.4367  0.4552 -0.0237
 2408SOL    HW118860   2.698   0.909  11.138 -0.4639  0.6512 -0.7616
 2408SOL    HW218861   2.606   0.818  11.077 -1.8499 -0.3632  0.9467
 2409SOL     OW18862   2.968   0.453  13.304 -0.0875 -0.3210  0.3536
 2409SOL    HW118863   2.980   0.548  13.309  3.3117 -0.6980 -1.0952
 2409SOL    HW218864   3.051   0.426  13.265  0.1816 -0.7158  1.1963
 2410SOL     OW18865   4.299   0.724   8.335  0.8019  0.0851 -0.1457
 2410SOL    HW118866   4.260   0.637   8.337 -0.3608  0.6156  0.6278
 2410SOL    HW218867   4.256   0.752   8.254  0.2767 -1.1890 -0.3058
 2411SOL     OW18868   3.695   1.579  16.392  0.0688 -0.0839  0.2834
 2411SOL    HW118869   3.626   1.515  16.374 -0.1987  0.2203  0.2355
 2411SOL    HW218870   3.685   1.602  16.485 -2.2177  1.1029 -0.2666
 2412SOL     OW18871   3.702   2.956  16.460 -0.0868 -0.1503 -0.0126
 2412SOL    HW118872   3.631   2.913  16.413  0.3048 -3.7659  2.7541
 2412SOL    HW218873   3.781   2.903  16.452  0.3487  0.6093 -0.8137
 2413SOL     OW18874   4.428   0.828   2.121  0.0555 -0.3447  0.2042
 2413SOL    HW118875   4.425   0.734   2.140  1.3327 -0.5103 -0.4059
 2413SOL    HW218876   4.371   0.814   2.044  2.3999  1.4830 -1.8549
 2414SOL     OW18877   2.722   0.981   3.200 -0.3317  0.4854 -0.5933
 2414SOL    HW118878   2.679   1.061   3.229  0.1777  0.7688 -0.6251
 2414SOL    HW218879   2.648   0.920   3.198 -1.9333  2.4396 -1.5527
 2415SOL     OW18880   2.463   2.897  16.720 -0.2007 -0.2695 -0.0745
 2415SOL    HW118881   2.535   2.959  16.725  1.1581 -1.4828 -4.9028
 2415SOL    HW218882   2.491   2.833  16.655 -2.5318 -1.3321 -0.0304
 2416SOL     OW18883   2.026   2.638   9.483 -0.3166 -0.1534 -0.3970
 2416SOL    HW118884   2.082   2.565   9.458 -3.4754 -1.9877 -2.1309
 2416SOL    HW218885   2.024   2.689   9.402 -0.6673 -1.5610 -1.2742
 2417SOL     OW18886   1.088   3.718   9.905 -0.1548 -0.1161  0.1006
 2417SOL    HW118887   1.017   3.667   9.943  1.3773 -0.0938  3.0066
 2417SOL    HW218888   1.123   3.661   9.837  0.9030  0.7767 -0.1100
 2418SOL     OW18889   1.333   0.327   0.141  0.3656  0.1626 -0.2989
 2418SOL    HW118890   1.363   0.251   0.091  2.3625  1.0708 -0.4981
 2418SOL    HW218891   1.303   0.286   0.221 -0.7844  0.1166 -0.7591
 2419SOL     OW18892   4.339   0.392   0.613  0.6564 -0.2471  0.1213
 2419SOL    HW118893   4.338   0.343   0.695  2.8497 -0.3529  0.0854
 2419SOL    HW218894   4.434   0.408   0.606  0.4932  0.7993  0.2516
 2420SOL     OW18895   1.691   1.780   5.494  0.0192  0.2692 -0.2321
 2420SOL    HW118896   1.640   1.747   5.420 -1.2446 -0.8816  1.1406
 2420SOL    HW218897   1.710   1.870   5.466  0.5617  0.1680 -0.1765
 2421SOL     OW18898   2.242   2.053   7.679  0.3553 -0.0475  0.6939
 2421SOL    HW118899   2.272   2.138   7.649  0.0299 -0.4576 -0.7892
 2421SOL    HW218900   2.181   2.029   7.609  0.0579  3.9317 -0.3700
 2422SOL     OW18901   3.474   0.601   5.527  0.1057 -0.6375 -0.0700
 2422SOL    HW118902   3.485   0.533   5.594  0.7768  0.2315  0.7079
 2422SOL    HW218903   3.501   0.560   5.445  0.8770 -1.7976  0.7495
 2423SOL     OW18904   3.526   2.158   8.914  0.7542 -0.5515 -0.2969
 2423SOL    HW118905   3.514   2.113   8.997 -0.4620 -0.4957 -0.4467
 2423SOL    HW218906   3.515   2.086   8.851 -0.3712 -0.3133 -0.3680
 2424SOL     OW18907   2.119   0.113   7.946 -0.3367 -0.2362  0.4606
 2424SOL    HW118908   2.141   0.146   8.033  0.8005 -0.6339  0.3145
 2424SOL    HW218909   2.204   0.102   7.904 -1.0045  1.5458 -1.3816
 2425SOL     OW18910   0.380   4.259   0.464 -0.2096  0.1619  0.5027
 2425SOL    HW118911   0.285   4.272   0.467 -0.4181 -1.0040 -1.0569
 2425SOL    HW218912   0.387   4.168   0.437 -1.2151  0.3646 -0.4227
 2426SOL     OW18913   2.293   3.386   8.517 -0.3609  0.7781 -0.2883
 2426SOL    HW118914   2.294   3.300   8.475  0.5414 -1.0250  3.3749
 2426SOL    HW218915   2.244   3.376   8.599  0.0774  2.4670  0.1810
 2427SOL     OW18916   2.560   0.048   3.037  0.3237  0.7230 -0.5828
 2427SOL    HW118917   2.580   4.730   2.964 -0.0747 -0.7241  0.4783
 2427SOL    HW218918   2.636   0.107   3.035  0.0073  1.1480 -0.1966
 2428SOL     OW18919   3.502   2.972  14.002  0.2534 -0.2332  0.5922
 2428SOL    HW118920   3.529   2.962  14.094  1.8676 -0.6837  0.0717
 2428SOL    HW218921   3.407   2.973  14.007  0.2037  1.6814 -0.7914
 2429SOL     OW18922   0.143   2.736   6.527 -0.2503  0.0105 -0.1146
 2429SOL    HW118923   0.149   2.690   6.611  1.8494 -0.2972 -0.4170
 2429SOL    HW218924   0.219   2.795   6.533 -0.7057  0.7367 -1.6680
 2430SOL     OW18925   2.268   0.070   8.765  0.5733 -0.1926  0.2981
 2430SOL    HW118926   2.289   0.139   8.702 -0.0671 -0.4327 -0.1851
 2430SOL    HW218927   2.355   0.058   8.803  0.9922 -0.8843 -0.8811
 2431SOL     OW18928   3.380   0.927   7.446  0.4962 -0.0375 -0.1740
 2431SOL    HW118929   3.410   1.000   7.393  0.4861 -0.3804 -0.6533
 2431SOL    HW218930   3.328   0.978   7.508 -1.1537 -2.1055  0.1786
 2432SOL     OW18931   0.166   1.924   6.438 -0.2477 -0.5287 -0.5058
 2432SOL    HW118932   0.168   1.899   6.345  0.4000  0.6227 -0.8032
 2432SOL    HW218933   0.223   1.852   6.463  2.1033  1.8528  0.9001
 2433SOL     OW18934   2.661   1.077  13.635  0.3611  0.4397  0.1662
 2433SOL    HW118935   2.702   1.133  13.701 -1.0431  0.6344  0.8667
 2433SOL    HW218936   2.629   1.005  13.690  0.2821  1.4980  1.5226
 2434SOL     OW18937   4.460   0.628   6.873  0.0255  0.0404  0.0903
 2434SOL    HW118938   4.451   0.703   6.932 -3.5904  0.7286 -1.3445
 2434SOL    HW218939   4.369   0.626   6.844 -0.8228 -0.4443  2.7753
 2435SOL     OW18940   3.632   1.360   8.084 -0.7174 -0.3443  0.2044
 2435SOL    HW118941   3.676   1.441   8.057 -1.2459 -0.6874 -1.6644
 2435SOL    HW218942   3.571   1.351   8.011  1.5818 -2.2745 -1.5077
 2436SOL     OW18943   1.112   1.172   5.340 -0.1511  0.5345  0.4288
 2436SOL    HW118944   1.164   1.179   5.420 -3.5135  0.6988  2.5817
 2436SOL    HW218945   1.046   1.105   5.357  0.2393 -0.2482 -1.0896
 2437SOL     OW18946   0.893   0.174   7.396 -0.0457 -0.0381  0.5066
 2437SOL    HW118947   0.900   0.086   7.359  0.7888  0.4751 -0.5402
 2437SOL    HW218948   0.909   0.157   7.489 -0.7934 -2.7218  0.1615
 2438SOL     OW18949   3.474   4.250   3.513 -0.3419 -0.5574 -0.4859
 2438SOL    HW118950   3.450   4.173   3.461  0.1260  0.4420 -2.1919
 2438SOL    HW218951   3.551   4.214   3.556  0.2783 -0.0518 -1.1749
 2439SOL     OW18952   1.656   1.348   6.638  0.3899  0.0450  0.0329
 2439SOL    HW118953   1.612   1.384   6.715  0.1835 -0.1637  0.0132
 2439SOL    HW218954   1.609   1.388   6.565  0.4900 -2.7164 -1.5367
 2440SOL     OW18955   2.604   3.445  17.284 -0.2227 -0.2368 -0.2129
 2440SOL    HW118956   2.509   3.449  17.274 -0.3930 -1.7932  0.8240
 2440SOL    HW218957   2.613   3.357  17.319 -1.7506  0.0837  0.9537
 2441SOL     OW18958   4.063   1.592   2.655  0.1011 -0.0434 -0.3602
 2441SOL    HW118959   4.096   1.519   2.602 -0.8409 -1.5783  1.1526
 2441SOL    HW218960   4.022   1.539   2.724  0.1737  0.6650  0.2180
 2442SOL     OW18961   3.022   3.698   4.027 -0.5790 -0.6580  0.0355
 2442SOL    HW118962   2.968   3.649   3.966 -1.8053 -0.0923  0.6704
 2442SOL    HW218963   2.959   3.752   4.074  1.0938 -0.0963  1.6526
 2443SOL     OW18964   4.288   4.294   6.345 -0.0733 -0.6022  0.3404
 2443SOL    HW118965   4.348   4.272   6.274  3.3822  1.5240  2.5895
 2443SOL    HW218966   4.323   4.259   6.427 -0.4491 -2.3466 -0.2518
 2444SOL     OW18967   4.704   2.976   4.536  0.0797 -0.0988 -0.1824
 2444SOL    HW118968   4.686   2.990   4.444  0.5240  0.7823 -0.1317
 2444SOL    HW218969   0.059   2.981   4.546 -0.0200  1.7433 -0.1917
 2445SOL     OW18970   0.106   1.082   9.901  0.3774  0.4972  0.2258
 2445SOL    HW118971   0.118   0.994   9.937 -1.3694  0.0152 -0.3508
 2445SOL    HW218972   0.028   1.068   9.847  0.8685  0.3696 -0.4449
 2446SOL     OW18973   1.868   3.742   6.239  0.1200  0.0505  0.1201
 2446SOL    HW118974   1.869   3.720   6.333 -2.4176  0.1062  0.1722
 2446SOL    HW218975   1.818   3.664   6.214  0.0244 -0.5732  2.2261
 2447SOL     OW18976   0.346   2.884   5.750  0.9485 -0.0170 -0.1212
 2447SOL    HW118977   0.296   2.920   5.823 -1.8011 -2.3294 -0.8897
 2447SOL    HW218978   0.421   2.945   5.751  0.0243  1.1769 -2.9364
 2448SOL     OW18979   1.020   0.369   1.440 -0.1423 -0.8593 -0.3210
 2448SOL    HW118980   1.008   0.343   1.532 -0.1494  1.5540  0.3621
 2448SOL    HW218981   0.982   0.294   1.394 -0.0052 -1.8769  1.2069
 2449SOL     OW18982   0.792   4.450   6.502  0.0470 -0.1735 -0.3622
 2449SOL    HW118983   0.849   4.451   6.426 -0.6274 -1.7228 -0.8834
 2449SOL    HW218984   0.728   4.388   6.466  0.3717 -0.7512  0.0417
 2450SOL     OW18985   2.585   0.485  16.290  1.0119 -0.2520  0.3961
 2450SOL    HW118986   2.617   0.444  16.209 -1.8061 -0.7894 -0.4261
 2450SOL    HW218987   2.514   0.432  16.326 -3.1060  3.4792 -2.3100
 2451SOL     OW18988   3.458   2.645   9.169 -0.9147  0.2020 -0.3436
 2451SOL    HW118989   3.383   2.614   9.118  1.2591 -1.6463 -2.4352
 2451SOL    HW218990   3.422   2.729   9.196 -1.2198 -0.5374  1.5753
 2452SOL     OW18991   1.616   3.752   3.452  0.5715  0.2437 -0.0202
 2452SOL    HW118992   1.629   3.753   3.547 -1.3310 -1.3591  0.2626
 2452SOL    HW218993   1.563   3.831   3.440  0.8667  0.6778  1.4608
 2453SOL     OW18994   1.294   4.690   6.314  0.1267 -0.4928  0.2681
 2453SOL    HW118995   1.295   0.036   6.356 -0.6655  0.3372 -1.4012
 2453SOL    HW218996   1.262   4.633   6.383 -1.2609  0.7682  0.6524
 2454SOL     OW18997   0.986   1.823   6.570 -0.1020 -0.6893  0.1971
 2454SOL    HW118998   0.943   1.739   6.587 -1.3970 -0.2359 -0.8147
 2454SOL    HW218999   1.010   1.851   6.658 -2.9093 -0.6969  0.9785
 2455SOL     OW19000   1.419   3.455  16.039  0.0124 -0.2052  0.6230
 2455SOL    HW119001   1.405   3.413  16.124 -2.6765  0.6894  0.6059
 2455SOL    HW219002   1.490   3.515  16.061  0.1908  0.3697 -1.5390
 2456SOL     OW19003   4.381   3.400  10.819 -0.1612 -0.2972 -0.3097
 2456SOL    HW119004   4.311   3.335  10.832  1.0137 -1.6345 -0.6654
 2456SOL    HW219005   4.343   3.475  10.865  0.9111  0.5028 -0.7385
 2457SOL     OW19006   3.146   4.313  11.526  0.2969 -0.5120  0.0100
 2457SOL    HW119007   3.219   4.328  11.465  0.2946  1.3509  0.4541
 2457SOL    HW219008   3.162   4.364  11.605 -0.4869 -0.9165  0.4346
 2458SOL     OW19009   2.158   0.901   3.913 -0.2505 -0.1337 -0.1257
 2458SOL    HW119010   2.219   0.856   3.972 -0.9637 -1.6770 -0.5495
 2458SOL    HW219011   2.221   0.947   3.859  2.0642 -2.7144  0.3576
 2459SOL     OW19012   0.420   4.128   3.281 -0.2850  0.6083  0.0021
 2459SOL    HW119013   0.397   4.125   3.374 -0.2032  2.6101  0.0854
 2459SOL    HW219014   0.510   4.158   3.282 -0.0229 -0.2246  1.0393
 2460SOL     OW19015   1.902   0.439  14.487  0.0559  0.1070 -0.0615
 2460SOL    HW119016   1.815   0.478  14.502  0.1602  0.3876 -0.1765
 2460SOL    HW219017   1.954   0.516  14.463  1.0055  0.1841  2.2817
 2461SOL     OW19018   0.577   4.244  15.976  0.4710 -0.1294 -0.7894
 2461SOL    HW119019   0.522   4.206  16.045 -0.5742  2.2562 -0.2890
 2461SOL    HW219020   0.584   4.165  15.923 -1.0480  0.7293 -2.2587
 2462SOL     OW19021   0.508   4.603   2.915 -0.3862  0.3135  0.5301
 2462SOL    HW119022   0.460   4.597   2.832 -0.3830 -0.6541  0.5975
 2462SOL    HW219023   0.569   4.530   2.906  0.7575  1.2562  0.6959
 2463SOL     OW19024   0.216   0.795  15.494  0.3017  0.3742 -0.2482
 2463SOL    HW119025   0.306   0.829  15.496  0.9546 -1.3247 -1.2727
 2463SOL    HW219026   0.182   0.818  15.580 -1.5587  0.1377 -0.9316
 2464SOL     OW19027   3.068   2.438   2.541 -0.4744  0.0032  0.8349
 2464SOL    HW119028   3.150   2.415   2.585  0.3428 -0.2167 -0.8334
 2464SOL    HW219029   3.013   2.410   2.615 -1.3647  1.5048  0.7344
 2465SOL     OW19030   2.035   3.715  13.920  0.2569  0.5606 -0.3745
 2465SOL    HW119031   1.944   3.703  13.944 -0.0693  1.8620 -0.9487
 2465SOL    HW219032   2.025   3.797  13.871  0.0277 -0.3047 -1.7655
 2466SOL     OW19033   0.761   3.250  13.327 -0.0928 -0.3337 -0.2505
 2466SOL    HW119034   0.684   3.269  13.382 -1.2030 -2.9567 -0.9163
 2466SOL    HW219035   0.733   3.263  13.236 -0.3927  0.0592 -0.1032
 2467SOL     OW19036   4.360   2.286  14.322  0.1016 -0.1887 -0.0461
 2467SOL    HW119037   4.362   2.379  14.298 -1.4895  0.0730  0.8512
 2467SOL    HW219038   4.429   2.243  14.272 -0.3867 -0.8296 -0.1551
 2468SOL     OW19039   3.050   1.749   7.938  0.1227 -0.3583  0.3267
 2468SOL    HW119040   3.082   1.836   7.961  0.2694 -0.5121  0.7104
 2468SOL    HW219041   3.132   1.720   7.900 -0.1024  0.2854 -0.6430
 2469SOL     OW19042   3.332   0.595   4.275  0.1695  0.0746  0.2501
 2469SOL    HW119043   3.382   0.554   4.346  0.3017 -0.1507  0.0299
 2469SOL    HW219044   3.311   0.518   4.221 -1.3781 -1.4843  3.0532
 2470SOL     OW19045   3.267   1.237  14.306  0.4895 -0.1536  0.2476
 2470SOL    HW119046   3.247   1.328  14.331 -0.5451 -0.1815 -0.4726
 2470SOL    HW219047   3.183   1.219  14.264 -0.5417  0.6948  1.9200
 2471SOL     OW19048   3.894   2.428  15.416 -0.4244 -0.4063 -0.2365
 2471SOL    HW119049   3.982   2.464  15.401 -1.0645  0.4077 -2.1567
 2471SOL    HW219050   3.894   2.373  15.494 -1.6314  2.0312  1.4746
 2472SOL     OW19051   3.913   0.494  11.400  0.2381 -0.2525  0.0330
 2472SOL    HW119052   3.970   0.569  11.382 -0.1381  0.2192  0.8067
 2472SOL    HW219053   3.903   0.447  11.317 -3.6633 -0.7461  0.8201
 2473SOL     OW19054   1.863   2.316  13.357 -0.0123  0.5118  0.3571
 2473SOL    HW119055   1.907   2.397  13.383 -0.7152  0.5738  1.3723
 2473SOL    HW219056   1.919   2.247  13.392  0.9153 -0.4953 -3.1004
 2474SOL     OW19057   2.389   3.484   9.121 -0.2958  0.1006 -0.4287
 2474SOL    HW119058   2.446   3.457   9.048 -0.6183 -0.6554 -0.3990
 2474SOL    HW219059   2.343   3.562   9.091 -2.9337 -0.8712  1.1507
 2475SOL     OW19060   0.327   4.071   7.808 -0.0547 -0.0074  0.6337
 2475SOL    HW119061   0.378   4.152   7.820 -2.7777  1.9283 -0.7847
 2475SOL    HW219062   0.238   4.103   7.800 -0.0402 -0.4755 -1.2522
 2476SOL     OW19063   2.129   4.552   8.467  0.4974 -0.4379 -0.0238
 2476SOL    HW119064   2.095   4.611   8.534 -1.1459 -1.4420  0.0283
 2476SOL    HW219065   2.064   4.481   8.467 -0.8973  0.8367  0.0178
 2477SOL     OW19066   0.433   3.854   7.684  0.2588 -0.2822 -0.4176
 2477SOL    HW119067   0.397   3.933   7.726  0.8326 -1.0384  1.4984
 2477SOL    HW219068   0.518   3.879   7.648  0.8371 -0.8125  0.5638
 2478SOL     OW19069   3.641   2.316   1.809  0.0107  0.3920 -0.5552
 2478SOL    HW119070   3.638   2.291   1.717 -0.3438  1.1502 -0.7473
 2478SOL    HW219071   3.730   2.282   1.822 -0.8581 -0.3861  3.5431
 2479SOL     OW19072   1.486   4.564  11.837 -0.0757  0.5708 -0.3688
 2479SOL    HW119073   1.411   4.580  11.894  0.5215  1.5652  0.1313
 2479SOL    HW219074   1.474   4.631  11.771  2.3769  0.5044 -0.9042
 2480SOL     OW19075   3.593   4.371   6.428  0.4746 -0.8732  0.0169
 2480SOL    HW119076   3.566   4.352   6.338 -1.2654 -0.8061  0.5246
 2480SOL    HW219077   3.573   4.465   6.423  0.6703 -0.7931  0.9140
 2481SOL     OW19078   3.857   3.274  11.253  0.3099  0.0425  0.8573
 2481SOL    HW119079   3.820   3.208  11.312 -0.9511  0.5235  0.6023
 2481SOL    HW219080   3.951   3.257  11.256  0.4446  0.7938  0.8340
 2482SOL     OW19081   4.655   0.805   4.976  0.5122  0.3500  0.7588
 2482SOL    HW119082   4.669   0.852   5.058  0.0726  2.8334 -0.5806
 2482SOL    HW219083   4.712   0.847   4.912 -1.5756  0.5538 -0.9949
 2483SOL     OW19084   4.311   3.337   8.257 -0.0408 -0.1928 -0.1763
 2483SOL    HW119085   4.225   3.335   8.215  0.0198  3.5852 -0.4728
 2483SOL    HW219086   4.336   3.429   8.258 -0.7683  0.0158 -1.4880
 2484SOL     OW19087   3.147   3.635   5.174 -0.5499 -0.1598 -0.3362
 2484SOL    HW119088   3.175   3.551   5.210 -1.9017 -0.0307  0.9909
 2484SOL    HW219089   3.054   3.633   5.196 -0.7666 -0.2145 -1.2538
 2485SOL     OW19090   1.778   3.515   6.413  0.0264  0.1919 -0.2818
 2485SOL    HW119091   1.864   3.481   6.390 -0.3214 -1.6111  1.0353
 2485SOL    HW219092   1.724   3.436   6.421  1.3171 -0.7444 -0.6908
 2486SOL     OW19093   0.150   3.041  16.394 -0.3152  0.1576  0.0890
 2486SOL    HW119094   0.147   3.017  16.301  0.7771  0.7754 -0.1088
 2486SOL    HW219095   0.087   3.112  16.389  0.1553  0.7204  2.3995
 2487SOL     OW19096   1.045   2.103  15.614  0.0532  0.4948  0.4969
 2487SOL    HW119097   0.970   2.157  15.590  0.8741  1.5474  0.2887
 2487SOL    HW219098   1.113   2.146  15.562 -0.3570  0.0908 -0.3685
 2488SOL     OW19099   1.823   3.942   1.180 -0.1424  0.1536 -0.1573
 2488SOL    HW119100   1.815   3.970   1.271  1.1209  3.5484 -1.0853
 2488SOL    HW219101   1.746   3.987   1.146  2.0089  4.4128  0.6381
 2489SOL     OW19102   3.876   1.140   2.303  0.5054 -0.1014  0.1209
 2489SOL    HW119103   3.944   1.131   2.370  0.7099 -1.1149 -0.2240
 2489SOL    HW219104   3.878   1.049   2.273  1.3508 -0.1110  0.1923
 2490SOL     OW19105   0.757   0.373   8.918  0.0036  0.1869  0.2190
 2490SOL    HW119106   0.775   0.458   8.957 -0.2887 -0.3846  1.6224
 2490SOL    HW219107   0.708   0.398   8.839 -1.7071  1.2845  1.6303
 2491SOL     OW19108   0.399   1.785   2.895 -0.4729  0.1540 -0.0222
 2491SOL    HW119109   0.338   1.735   2.840  1.7993 -1.2391 -1.2846
 2491SOL    HW219110   0.389   1.732   2.975 -1.1983  1.8468  1.0127
 2492SOL     OW19111   2.816   2.570   9.098 -0.4571 -0.2595 -0.5278
 2492SOL    HW119112   2.876   2.563   9.172 -0.7046 -2.7194 -0.5574
 2492SOL    HW219113   2.864   2.512   9.038 -1.4265  0.5176 -2.0664
 2493SOL     OW19114   1.331   3.830   5.618  0.1620  0.4688 -0.3181
 2493SOL    HW119115   1.386   3.875   5.554 -0.7634 -0.2943 -1.6761
 2493SOL    HW219116   1.360   3.846   5.707  0.3952  2.6351 -0.7980
 2494SOL     OW19117   4.390   2.016   6.554 -0.2019 -0.0056 -0.3504
 2494SOL    HW119118   4.483   2.003   6.536  0.0260 -1.1390  1.6101
 2494SOL    HW219119   4.376   1.954   6.625  1.7433  1.5159  1.3863
 2495SOL     OW19120   0.561   3.849   6.832  0.3160  0.4827 -0.2643
 2495SOL    HW119121   0.604   3.906   6.768  1.1932 -0.6220 -0.6642
 2495SOL    HW219122   0.511   3.913   6.883 -2.2490 -1.4955 -0.3118
 2496SOL     OW19123   4.093   2.237  15.984  0.3420 -0.1563  0.3004
 2496SOL    HW119124   4.155   2.308  15.967  1.3339 -0.7017  1.6006
 2496SOL    HW219125   4.049   2.263  16.064 -1.8962 -0.3897 -0.8709
 2497SOL     OW19126   2.478   0.944   6.184  0.1888 -0.0029  0.0047
 2497SOL    HW119127   2.443   0.895   6.257 -0.1398  0.4673  0.1644
 2497SOL    HW219128   2.423   1.022   6.196 -0.3042 -0.5067  0.9676
 2498SOL     OW19129   2.409   2.022   5.383  0.0313 -0.2294 -0.5572
 2498SOL    HW119130   2.433   1.942   5.430  2.4202  1.3411  0.8874
 2498SOL    HW219131   2.479   2.045   5.322 -0.5724  0.1159 -1.1149
 2499SOL     OW19132   1.484   2.694   4.491  0.2229 -0.6929  0.0043
 2499SOL    HW119133   1.506   2.602   4.505  0.7546 -0.3762  1.2829
 2499SOL    HW219134   1.565   2.732   4.459  0.0585 -0.7525 -0.4799
 2500SOL     OW19135   3.481   2.414  10.924  0.3135  0.7673 -0.5368
 2500SOL    HW119136   3.554   2.392  10.867  2.5972  2.6945  1.6442
 2500SOL    HW219137   3.420   2.467  10.872 -2.3340  0.0421  1.8135
 2501SOL     OW19138   3.445   2.030   9.837  0.0261 -0.8529 -0.1994
 2501SOL    HW119139   3.387   2.064   9.769 -0.0235  1.6855  1.0834
 2501SOL    HW219140   3.406   1.947   9.864 -0.8237 -0.7452 -1.1136
 2502SOL     OW19141   0.415   4.434   4.153 -0.1453 -0.4328 -0.2692
 2502SOL    HW119142   0.509   4.420   4.167 -0.0771  0.5705  0.2607
 2502SOL    HW219143   0.411   4.514   4.205 -1.7516  0.1292 -1.2796
 2503SOL     OW19144   3.506   4.397  13.497  0.2006 -0.2067  0.4541
 2503SOL    HW119145   3.522   4.399  13.592  0.9616  0.3305  0.3207
 2503SOL    HW219146   3.589   4.359  13.470  0.5685  1.3911 -0.7049
 2504SOL     OW19147   1.294   4.428   4.424 -0.2864 -0.0418  0.0048
 2504SOL    HW119148   1.232   4.475   4.480 -0.4458 -0.8402  0.4884
 2504SOL    HW219149   1.261   4.458   4.339  0.1174  0.0123 -0.1337
 2505SOL     OW19150   2.896   1.518   7.881  0.7372  0.6646  0.0927
 2505SOL    HW119151   2.943   1.598   7.904  1.5486  0.4906 -0.9956
 2505SOL    HW219152   2.931   1.508   7.793  1.3510  3.7310 -0.0323
 2506SOL     OW19153   0.095   3.924   3.889  0.4140 -0.0552 -0.0614
 2506SOL    HW119154   0.026   3.870   3.850 -1.4401  2.7310 -0.6691
 2506SOL    HW219155   0.172   3.899   3.838  0.7336 -0.8864  0.8161
 2507SOL     OW19156   1.554   1.417   6.137  0.8408 -0.0616 -0.0593
 2507SOL    HW119157   1.467   1.456   6.122  1.4876  1.3544 -0.1047
 2507SOL    HW219158   1.594   1.402   6.052 -0.1366 -0.5173 -0.4326
 2508SOL     OW19159   1.267   1.290   8.739 -0.6883 -0.1730 -0.1745
 2508SOL    HW119160   1.300   1.247   8.661  1.3203 -0.8783  1.0618
 2508SOL    HW219161   1.226   1.366   8.698 -1.1031  0.8135  2.0771
 2509SOL     OW19162   2.246   2.428  15.557  0.8687 -0.1245 -0.4272
 2509SOL    HW119163   2.276   2.490  15.624 -1.9445 -0.2376  0.9487
 2509SOL    HW219164   2.176   2.383  15.605 -1.1446  1.7924 -1.5600
 2510SOL     OW19165   3.653   1.365   5.077 -0.0001  0.0467  0.5004
 2510SOL    HW119166   3.679   1.288   5.128  3.0319  0.0894 -1.0149
 2510SOL    HW219167   3.688   1.432   5.136 -0.1616 -0.2302  0.9140
 2511SOL     OW19168   0.880   4.268   4.965  0.3162 -0.0312 -0.1693
 2511SOL    HW119169   0.833   4.188   4.944 -1.9428  0.5406  2.6531
 2511SOL    HW219170   0.970   4.245   4.944  0.6157  1.2121 -0.2551
 2512SOL     OW19171   2.524   2.738  12.731  0.0965  0.0177 -0.8937
 2512SOL    HW119172   2.506   2.798  12.804 -1.4178 -1.1430 -0.3160
 2512SOL    HW219173   2.448   2.753  12.674  0.3832  0.0803 -1.2525
 2513SOL     OW19174   4.624   2.670   2.743 -0.3101  0.0392  0.5101
 2513SOL    HW119175   4.657   2.758   2.726  0.5440 -0.5653 -0.9383
 2513SOL    HW219176   4.636   2.673   2.838  2.2589  0.0647  0.1871
 2514SOL     OW19177   3.661   3.829   1.323 -0.8361  0.0538  0.6220
 2514SOL    HW119178   3.673   3.905   1.380 -0.8233 -0.6204  1.5121
 2514SOL    HW219179   3.587   3.856   1.269 -2.0841  0.7287  2.6943
 2515SOL     OW19180   2.384   4.705   4.570 -0.4895 -0.2762 -1.0079
 2515SOL    HW119181   2.324   0.000   4.505  0.4126  0.4288 -1.4668
 2515SOL    HW219182   2.324   4.708   4.644  1.6414  0.9272  0.6845
 2516SOL     OW19183   1.344   2.940   8.728  0.2736  0.5973 -0.2909
 2516SOL    HW119184   1.293   2.869   8.689 -0.3822  0.0755  1.4984
 2516SOL    HW219185   1.292   2.974   8.801  1.9617 -1.5652  1.9339
 2517SOL     OW19186   2.801   3.856   4.134  0.1542 -0.3152 -0.4755
 2517SOL    HW119187   2.769   3.916   4.067 -2.7181 -1.9210 -0.4983
 2517SOL    HW219188   2.858   3.911   4.188  0.3786  0.6337 -1.6629
 2518SOL     OW19189   2.263   3.512   7.845 -0.0207  0.2150 -0.1662
 2518SOL    HW119190   2.284   3.577   7.779  0.2391 -0.5073 -0.8021
 2518SOL    HW219191   2.324   3.439   7.834  0.9304  0.6845  1.9472
 2519SOL     OW19192   4.392   2.497   7.565  0.5800  0.3555 -0.3621
 2519SOL    HW119193   4.340   2.555   7.509 -0.0014  1.7066  1.5407
 2519SOL    HW219194   4.350   2.522   7.648  0.8770 -0.4940  0.0345
 2520SOL     OW19195   1.176   1.961   6.381  0.7492  0.1555 -0.2172
 2520SOL    HW119196   1.129   1.935   6.460  0.1500  1.3720 -0.1863
 2520SOL    HW219197   1.268   1.953   6.406  0.6930 -1.4033 -0.5076
 2521SOL     OW19198   0.062   1.267   7.274 -0.7359  0.1405  0.0345
 2521SOL    HW119199   4.716   1.241   7.243 -1.1053 -1.6574  2.5815
 2521SOL    HW219200   0.037   1.356   7.300 -0.2807  0.6357 -1.2139
 2522SOL     OW19201   3.303   2.251   1.915  0.4030 -0.1599 -0.0778
 2522SOL    HW119202   3.382   2.257   1.968  0.8106 -0.0566 -0.6930
 2522SOL    HW219203   3.327   2.169   1.871  1.1904  0.4774 -0.8235
 2523SOL     OW19204   3.496   0.879   4.915 -0.0200 -0.1704 -0.3098
 2523SOL    HW119205   3.456   0.849   4.996  0.5902  0.0793  0.0835
 2523SOL    HW219206   3.586   0.890   4.947 -0.0826  2.1679 -0.9472
 2524SOL     OW19207   2.306   1.181  16.306 -0.3740 -0.4181  0.1415
 2524SOL    HW119208   2.313   1.182  16.401  1.3969  1.5116 -0.0010
 2524SOL    HW219209   2.377   1.243  16.291 -1.2751 -0.0526 -2.6236
 2525SOL     OW19210   3.800   1.769   2.093  0.6272  0.4816  0.2418
 2525SOL    HW119211   3.877   1.726   2.054 -0.3565 -0.6856 -0.4224
 2525SOL    HW219212   3.833   1.751   2.181  0.8467 -2.9544 -0.5464
 2526SOL     OW19213   2.746   3.407   0.869 -0.6551  0.1372 -0.2976
 2526SOL    HW119214   2.688   3.395   0.945 -0.1870  0.9811  0.1910
 2526SOL    HW219215   2.786   3.320   0.865 -0.2600  0.3121 -0.1144
 2527SOL     OW19216   1.576   1.452   3.819 -0.4507 -0.5845  0.2365
 2527SOL    HW119217   1.666   1.478   3.802 -0.1760 -1.9126 -0.3090
 2527SOL    HW219218   1.592   1.421   3.909  0.8654 -2.0394 -0.4975
 2528SOL     OW19219   0.251   1.590   6.631  0.1975 -0.2956 -0.0123
 2528SOL    HW119220   0.297   1.522   6.581  2.9294  0.1551  1.8970
 2528SOL    HW219221   0.303   1.665   6.605 -1.8556  0.4815 -1.9312
 2529SOL     OW19222   2.688   1.617   2.970 -0.2940 -0.2913  0.0358
 2529SOL    HW119223   2.604   1.572   2.973  0.0502 -0.8932  0.4635
 2529SOL    HW219224   2.685   1.679   3.043  1.5464  1.2216 -1.1682
 2530SOL     OW19225   3.461   4.044  13.420 -0.0949  0.2703  0.4408
 2530SOL    HW119226   3.521   4.024  13.492  0.0141 -2.9896 -0.5338
 2530SOL    HW219227   3.510   4.112  13.373  1.4764 -0.6146  0.7884
 2531SOL     OW19228   2.513   3.432   5.243  0.2020  0.3306 -0.1599
 2531SOL    HW119229   2.522   3.465   5.154 -1.0268 -2.0163 -1.1696
 2531SOL    HW219230   2.561   3.349   5.239  0.2326  0.2662  1.2804
 2532SOL     OW19231   3.649   1.846   2.986  0.0131  0.2926  0.0995
 2532SOL    HW119232   3.562   1.825   3.020 -0.4565  3.4237  0.8529
 2532SOL    HW219233   3.695   1.763   2.992 -2.2363 -0.9139  0.7567
 2533SOL     OW19234   1.899   1.090  16.549  0.3064 -0.2616  0.6883
 2533SOL    HW119235   1.920   0.998  16.532  0.0261  0.2116 -2.1048
 2533SOL    HW219236   1.877   1.085  16.642  2.2810  2.8020  1.3173
 2534SOL     OW19237   1.843   1.839   9.306  0.1715  0.2831 -0.4026
 2534SOL    HW119238   1.891   1.916   9.276 -1.3750  0.1256 -3.2549
 2534SOL    HW219239   1.917   1.778   9.306  1.0096  1.2935 -0.5735
 2535SOL     OW19240   4.050   2.708   8.082 -0.4371 -0.0111  0.1719
 2535SOL    HW119241   4.011   2.791   8.112  1.6186  0.5208  1.3663
 2535SOL    HW219242   4.013   2.694   7.995  1.3311 -3.3867 -0.0163
 2536SOL     OW19243   0.928   1.591  15.025  0.2776  0.1397 -0.9025
 2536SOL    HW119244   0.978   1.660  14.982 -1.0878  1.7523  0.0776
 2536SOL    HW219245   0.864   1.651  15.065 -1.0820 -0.0432 -2.8046
 2537SOL     OW19246   3.833   4.722  17.246 -0.1270  0.1914 -0.1597
 2537SOL    HW119247   3.810   4.630  17.259  1.4946 -0.1300  0.3664
 2537SOL    HW219248   3.751   0.014  17.208 -2.2912 -0.5009  3.8550
 2538SOL     OW19249   0.763   3.355   9.955 -0.5622 -0.1384  0.4071
 2538SOL    HW119250   0.717   3.412   9.894  1.9449  0.0667 -1.3323
 2538SOL    HW219251   0.684   3.314   9.990 -1.0830 -0.1995 -0.8337
 2539SOL     OW19252   4.212   3.370   9.840 -0.3460  0.0044  0.2660
 2539SOL    HW119253   4.236   3.309   9.770  1.8635 -1.3409  2.2045
 2539SOL    HW219254   4.127   3.337   9.871 -0.7103 -0.8961 -1.7297
 2540SOL     OW19255   4.669   4.084   6.790 -0.0763 -0.8107  0.1588
 2540SOL    HW119256   0.005   4.118   6.742 -1.4636  2.3368  0.2049
 2540SOL    HW219257   4.626   4.165   6.818 -0.8481 -1.2297  0.1682
 2541SOL     OW19258   0.044   3.270   3.208 -0.2968  0.6163  0.5181
 2541SOL    HW119259   0.117   3.308   3.256  0.0943 -0.5692  0.8775
 2541SOL    HW219260   0.039   3.330   3.134  0.8947 -0.9760 -0.8517
 2542SOL     OW19261   0.219   2.252  15.364  0.1341 -0.4986  0.0212
 2542SOL    HW119262   0.213   2.202  15.446  0.6753  1.7289  1.4094
 2542SOL    HW219263   0.136   2.297  15.372 -0.7865 -1.9875 -1.1073
 2543SOL     OW19264   4.279   4.703  10.069 -0.1492 -0.0617  0.1771
 2543SOL    HW119265   4.320   4.656   9.996 -1.6747 -0.8465 -0.1693
 2543SOL    HW219266   4.349   4.718  10.133  1.3976  0.1324 -1.5473
 2544SOL     OW19267   4.082   0.909  16.977  0.0982  0.5068  0.4832
 2544SOL    HW119268   4.103   0.992  16.934 -0.0308  0.0969 -0.3825
 2544SOL    HW219269   4.128   0.837  16.934 -0.5532 -0.8100  1.9791
 2545SOL     OW19270   0.352   0.490   7.058  0.1425 -0.9277  0.6462
 2545SOL    HW119271   0.302   0.535   6.991 -0.0489 -0.8357  0.8501
 2545SOL    HW219272   0.433   0.529   7.027 -0.2958  0.0862  0.7958
 2546SOL     OW19273   0.359   0.935   7.109  0.4428  0.4008  0.4601
 2546SOL    HW119274   0.334   0.894   7.192  0.8403 -0.5176  0.1217
 2546SOL    HW219275   0.285   0.991   7.087 -0.5940 -0.1673  2.5308
 2547SOL     OW19276   3.875   4.278   3.505 -0.5283  0.3419  0.0296
 2547SOL    HW119277   3.833   4.345   3.450 -1.1803 -1.3619 -1.5564
 2547SOL    HW219278   3.905   4.330   3.579  4.5951 -1.7041 -0.6365
 2548SOL     OW19279   1.151   3.547  15.545 -0.3161 -1.1598  0.8506
 2548SOL    HW119280   1.205   3.554  15.466  0.5730 -1.3052  1.4397
 2548SOL    HW219281   1.159   3.453  15.562 -3.6689 -1.6650 -0.3489
 2549SOL     OW19282   3.434   3.786   3.952 -0.0175 -0.0397 -0.0114
 2549SOL    HW119283   3.457   3.720   4.017  0.5126  0.4136  0.2589
 2549SOL    HW219284   3.388   3.725   3.894 -0.8406  1.2331 -0.7106
 2550SOL     OW19285   2.360   1.625  12.871 -0.3601 -0.1695 -0.2977
 2550SOL    HW119286   2.424   1.586  12.811  0.9076  0.9347  0.3724
 2550SOL    HW219287   2.373   1.575  12.951  1.4433  0.9606  0.0955
 2551SOL     OW19288   2.019   0.531   1.097  0.0663 -0.5410  0.4921
 2551SOL    HW119289   1.975   0.597   1.043  0.4903  0.6043  1.5621
 2551SOL    HW219290   2.104   0.571   1.080 -0.5557  0.2109 -0.8482
 2552SOL     OW19291   3.162   1.756   2.901  0.1149 -0.3022 -0.0658
 2552SOL    HW119292   3.101   1.811   2.852  0.3734  0.3113  0.2994
 2552SOL    HW219293   3.133   1.664   2.898  1.1589 -0.6083 -0.7856
 2553SOL     OW19294   2.567   0.470   8.721 -0.0228 -0.4192  0.1831
 2553SOL    HW119295   2.660   0.487   8.710 -0.1690  0.1378 -0.2578
 2553SOL    HW219296   2.542   0.550   8.767 -1.6728 -1.2741  0.7740
 2554SOL     OW19297   2.632   3.903  12.996  0.7780  0.5589  0.3337
 2554SOL    HW119298   2.589   3.987  12.982 -0.8550 -0.5181 -1.1069
 2554SOL    HW219299   2.707   3.927  13.050  2.1931 -1.9800 -0.5260
 2555SOL     OW19300   3.012   0.864   0.197 -0.4318 -0.5500 -0.0607
 2555SOL    HW119301   3.077   0.929   0.173  0.7117 -1.2277  1.2071
 2555SOL    HW219302   3.030   0.862   0.291  2.4968 -0.7405 -0.6415
 2556SOL     OW19303   1.296   0.205   3.952 -0.0164 -0.1284 -0.1155
 2556SOL    HW119304   1.221   0.259   3.929 -1.1040 -2.3873 -1.8999
 2556SOL    HW219305   1.247   0.143   4.004  0.8476 -0.4656  0.3012
 2557SOL     OW19306   2.162   0.701   8.261 -0.1873  0.3936  0.5775
 2557SOL    HW119307   2.155   0.648   8.340 -0.1817 -1.9570 -0.9794
 2557SOL    HW219308   2.179   0.788   8.298  0.9891  0.4161  0.0087
 2558SOL     OW19309   0.094   3.263   4.243  0.0238 -0.8030 -0.7884
 2558SOL    HW119310   0.059   3.346   4.210 -2.1477 -1.4717 -0.1677
 2558SOL    HW219311   0.171   3.285   4.296  0.2591 -1.9523 -0.6621
 2559SOL     OW19312   3.318   0.263   9.747  1.0939  0.0609  0.5360
 2559SOL    HW119313   3.276   0.338   9.789  1.4787  0.0494  0.9457
 2559SOL    HW219314   3.379   0.227   9.812 -0.4758 -0.1905  1.8557
 2560SOL     OW19315   2.521   2.334  12.804 -0.4570  0.0796  0.1040
 2560SOL    HW119316   2.452   2.272  12.828 -2.1264  2.4393  1.4366
 2560SOL    HW219317   2.474   2.389  12.742 -1.3331 -1.3897 -0.5509
 2561SOL     OW19318   3.628   0.002   3.745  0.0414 -0.4132 -0.2920
 2561SOL    HW119319   3.599   4.712   3.659  2.3119 -2.2577 -0.4264
 2561SOL    HW219320   3.722   0.016   3.730  0.6447 -1.3503  2.5839
 2562SOL     OW19321   1.150   2.551   0.714  0.0553  0.5185 -0.1698
 2562SOL    HW119322   1.134   2.583   0.802  0.9163  0.9921 -0.1862
 2562SOL    HW219323   1.162   2.633   0.667 -0.1795  0.2578 -0.6926
 2563SOL     OW19324   2.127   0.593   5.195 -0.2875  0.4839 -0.3174
 2563SOL    HW119325   2.067   0.519   5.198 -1.5750  1.4947 -1.4562
 2563SOL    HW219326   2.215   0.554   5.190 -1.4606 -1.8116 -3.1773
 2564SOL     OW19327   0.718   0.993   8.275  0.3440  0.2115  0.4938
 2564SOL    HW119328   0.639   0.940   8.284 -0.0795  0.9370  1.0051
 2564SOL    HW219329   0.676   1.066   8.229  2.1321 -0.1026 -1.6757
 2565SOL     OW19330   2.940   4.589   0.003  0.2192 -0.1797  0.3920
 2565SOL    HW119331   3.009   4.569   0.066 -0.8117 -2.3173  0.8518
 2565SOL    HW219332   2.955   4.682  17.743 -0.0605  0.0150  1.1443
 2566SOL     OW19333   3.195   4.704   4.405  0.6428  0.1479  0.9702
 2566SOL    HW119334   3.240   4.629   4.444  0.7101  0.5194  1.6132
 2566SOL    HW219335   3.198   4.670   4.316  1.1639 -0.8570  1.3739
 2567SOL     OW19336   0.432   2.438  11.444 -0.1692 -0.0503  0.1806
 2567SOL    HW119337   0.344   2.401  11.454 -0.4576  1.0757  1.7951
 2567SOL    HW219338   0.454   2.464  11.533  0.3545  1.2186 -0.3089
 2568SOL     OW19339   3.957   2.414  10.412 -0.0073  0.0446 -0.1547
 2568SOL    HW119340   3.942   2.334  10.463  2.4366 -1.2785 -1.5094
 2568SOL    HW219341   3.975   2.372  10.328 -1.3541 -0.5562 -0.1452
 2569SOL     OW19342   4.228   2.127   4.501 -0.4880  0.4881  0.2700
 2569SOL    HW119343   4.174   2.191   4.548 -0.4724 -0.0548  1.0260
 2569SOL    HW219344   4.263   2.072   4.571  1.3768  0.4434 -0.6992
 2570SOL     OW19345   2.819   0.753  12.769  0.1424  0.5446 -0.1703
 2570SOL    HW119346   2.901   0.803  12.773  0.0023  1.0942 -3.6247
 2570SOL    HW219347   2.781   0.798  12.694 -2.6691  0.2979  1.1193
 2571SOL     OW19348   1.340   2.524   2.253  0.2810  0.1187  0.1009
 2571SOL    HW119349   1.405   2.455   2.242 -2.1893 -1.9030 -1.8531
 2571SOL    HW219350   1.308   2.516   2.343 -2.3954 -1.2294 -0.9867
 2572SOL     OW19351   2.042   0.667   6.214 -0.4867  0.1569  0.5722
 2572SOL    HW119352   2.087   0.639   6.134  0.2536  2.4686  0.1869
 2572SOL    HW219353   1.955   0.688   6.179 -0.9843 -1.7540  0.6750
 2573SOL     OW19354   1.509   1.719  13.583  0.0255  0.3641  0.5914
 2573SOL    HW119355   1.521   1.804  13.542  2.9471 -0.3153  0.0101
 2573SOL    HW219356   1.415   1.715  13.601  0.2356  0.9571  1.8370
 2574SOL     OW19357   3.377   3.743   9.248 -0.1336 -0.4551  0.2051
 2574SOL    HW119358   3.359   3.658   9.289  0.4529 -0.9763 -0.6093
 2574SOL    HW219359   3.329   3.805   9.303  1.2107  0.1145  0.7411
 2575SOL     OW19360   1.333   4.561   6.046 -0.1927  0.4622  0.1828
 2575SOL    HW119361   1.355   4.602   6.130 -0.7909 -0.1362  0.6294
 2575SOL    HW219362   1.415   4.572   5.998  2.0168 -0.5550  3.7173
 2576SOL     OW19363   4.175   1.031  17.211  0.3715 -0.2773 -0.0326
 2576SOL    HW119364   4.164   0.958  17.150 -0.7359 -0.0749 -0.0930
 2576SOL    HW219365   4.240   0.992  17.268  1.0193  1.6686  0.5770
 2577SOL     OW19366   0.761   1.315   3.069 -0.6474 -0.2325 -0.1930
 2577SOL    HW119367   0.730   1.292   3.156 -2.1765 -0.1601 -0.7237
 2577SOL    HW219368   0.684   1.359   3.034  0.6472  1.8843 -0.3936
 2578SOL     OW19369   3.712   1.960  10.943  0.1021  0.0364  0.2865
 2578SOL    HW119370   3.627   1.973  10.987  0.2038  0.2598  0.4190
 2578SOL    HW219371   3.721   1.867  10.962 -1.3441  0.0693  1.1526
 2579SOL     OW19372   0.839   0.564   1.632  0.6928 -0.5122 -0.2877
 2579SOL    HW119373   0.819   0.483   1.585 -0.1816 -0.3370 -0.2039
 2579SOL    HW219374   0.893   0.525   1.700 -0.4530 -0.4101  0.6701
 2580SOL     OW19375   4.663   1.473   5.278  0.0714 -0.2883  0.2249
 2580SOL    HW119376   4.688   1.552   5.325  1.2774 -0.0754 -0.7639
 2580SOL    HW219377   0.009   1.439   5.254 -0.3577 -0.5679 -0.9226
 2581SOL     OW19378   1.987   4.021   7.535  0.0190 -0.1277 -0.8675
 2581SOL    HW119379   1.911   3.978   7.574 -0.5194 -0.1095 -1.9030
 2581SOL    HW219380   1.985   4.107   7.578  1.3882  0.2919 -1.6546
 2582SOL     OW19381   2.662   4.736   4.645  0.3012  0.3860 -0.1912
 2582SOL    HW119382   2.708   4.713   4.726  0.1345 -2.6822 -0.9711
 2582SOL    HW219383   2.570   0.009   4.666 -0.1112 -2.2165 -0.3279
 2583SOL     OW19384   3.548   2.385   2.480 -0.2057 -0.1887 -0.2306
 2583SOL    HW119385   3.464   2.424   2.458  0.6100  1.5762 -0.2117
 2583SOL    HW219386   3.518   2.294   2.482  0.9504 -0.5507  1.4597
 2584SOL     OW19387   3.452   1.832   0.411 -0.3012  0.4789  0.2679
 2584SOL    HW119388   3.385   1.845   0.343  0.7288 -0.0765 -0.8598
 2584SOL    HW219389   3.513   1.770   0.370 -1.5779 -1.5361  1.3877
 2585SOL     OW19390   0.134   0.348   8.542  0.0088  0.5236 -0.5996
 2585SOL    HW119391   0.074   0.393   8.482 -3.3315 -2.1649  0.7334
 2585SOL    HW219392   0.124   0.260   8.506 -0.9083 -0.1896  1.4389
 2586SOL     OW19393   3.463   1.651  12.637 -0.1224  0.4503  0.4340
 2586SOL    HW119394   3.416   1.732  12.618 -1.6264 -0.6334 -0.4733
 2586SOL    HW219395   3.512   1.645  12.556 -2.0892 -0.0038 -0.7232
 2587SOL     OW19396   2.856   1.403   4.284 -0.3812 -0.3975 -0.1732
 2587SOL    HW119397   2.802   1.481   4.296 -0.0839 -0.1273 -0.5656
 2587SOL    HW219398   2.924   1.451   4.236 -1.0465  1.9691  1.2324
 2588SOL     OW19399   3.042   2.873  16.553  0.6445 -0.0594 -0.0231
 2588SOL    HW119400   3.023   2.963  16.529  0.5827 -0.6128 -2.0854
 2588SOL    HW219401   2.950   2.852  16.574  0.6820 -1.0742 -0.8540
 2589SOL     OW19402   3.985   1.930  12.425 -0.0226 -0.3881  0.0835
 2589SOL    HW119403   3.993   2.024  12.438  0.2589 -0.5664  1.2171
 2589SOL    HW219404   4.072   1.894  12.407 -0.6107 -1.6649 -0.2542
 2590SOL     OW19405   0.390   0.572   6.570  0.1479 -0.2544  0.4784
 2590SOL    HW119406   0.412   0.493   6.521 -0.7546 -0.4918  0.4410
 2590SOL    HW219407   0.294   0.567   6.561  0.2954 -0.4542 -0.9601
 2591SOL     OW19408   1.562   0.946   1.455  0.2511 -0.3888 -0.0688
 2591SOL    HW119409   1.485   1.000   1.472 -0.2108 -1.4128  1.1226
 2591SOL    HW219410   1.525   0.858   1.461  0.2181 -0.2606  1.4727
 2592SOL     OW19411   3.611   0.639   8.404 -0.0398 -0.0211  0.9031
 2592SOL    HW119412   3.530   0.684   8.383 -1.7094 -3.9664 -1.0454
 2592SOL    HW219413   3.671   0.705   8.368 -0.3513 -2.4190 -3.8870
 2593SOL     OW19414   1.171   3.561   9.715  0.0148  0.0320  0.8432
 2593SOL    HW119415   1.122   3.517   9.645  1.3096  2.5525 -1.6277
 2593SOL    HW219416   1.225   3.488   9.744  0.8950  0.1859 -0.4354
 2594SOL     OW19417   4.096   1.656   8.384 -0.0733  0.0987 -0.0642
 2594SOL    HW119418   4.174   1.637   8.332  0.3664 -1.2744  1.0913
 2594SOL    HW219419   4.130   1.693   8.466  1.0441  0.4750 -0.7073
 2595SOL     OW19420   3.317   0.727   7.662  0.1536  0.1952 -0.1804
 2595SOL    HW119421   3.366   0.727   7.744 -1.8452 -2.3443  1.0140
 2595SOL    HW219422   3.237   0.773   7.688  1.4515  2.3789 -0.0299
 2596SOL     OW19423   1.597   3.468   6.653  0.1257  0.4375 -0.2049
 2596SOL    HW119424   1.600   3.446   6.746 -1.3253 -0.6213 -0.4198
 2596SOL    HW219425   1.649   3.549   6.654 -0.0630  0.5458  1.5995
 2597SOL     OW19426   3.849   4.511   2.624  0.5262  0.1254  0.2697
 2597SOL    HW119427   3.755   4.499   2.632  0.4333 -0.2794 -1.4533
 2597SOL    HW219428   3.842   4.606   2.615  3.1399  0.2223 -0.6547
 2598SOL     OW19429   2.009   3.337  11.053  0.8421  0.2544 -0.1512
 2598SOL    HW119430   2.023   3.343  10.958 -1.2083 -0.3054 -0.4927
 2598SOL    HW219431   2.056   3.256  11.073  2.2607  0.7593 -1.4255
 2599SOL     OW19432   3.287   1.031   1.201  0.0765  0.2279 -0.2959
 2599SOL    HW119433   3.235   1.076   1.267  0.7589  0.2440  0.2230
 2599SOL    HW219434   3.366   1.083   1.188  1.5125 -1.2398  2.4187
 2600SOL     OW19435   2.555   4.591   8.172 -0.2228  0.1965 -0.3529
 2600SOL    HW119436   2.594   4.520   8.224 -0.2571 -1.0383 -2.0042
 2600SOL    HW219437   2.467   4.562   8.196 -1.0419  1.8447 -1.3513
 2601SOL     OW19438   3.467   0.660   3.502 -0.8724  0.0673 -0.3528
 2601SOL    HW119439   3.534   0.641   3.568  0.6855  0.3486 -1.8278
 2601SOL    HW219440   3.417   0.730   3.544  0.0329 -0.5061  1.6532
 2602SOL     OW19441   0.308   4.214   8.419 -0.2976 -0.2260 -0.0851
 2602SOL    HW119442   0.252   4.208   8.496  0.1517 -1.7542  0.1131
 2602SOL    HW219443   0.357   4.134   8.435 -0.3778 -0.8494 -2.9748
 2603SOL     OW19444   0.755   0.683   7.554 -0.4863  0.2910 -0.2753
 2603SOL    HW119445   0.829   0.625   7.536 -1.5342 -1.7607  2.0415
 2603SOL    HW219446   0.702   0.679   7.474 -1.0567  2.4628 -0.0113
 2604SOL     OW19447   1.175   2.240   3.849  0.6602  0.3047 -0.7541
 2604SOL    HW119448   1.102   2.278   3.898  3.4772  0.1464  3.5135
 2604SOL    HW219449   1.126   2.168   3.810  1.1630 -1.2406  1.4985
 2605SOL     OW19450   3.022   0.621   4.787  0.1791  0.0393 -0.2417
 2605SOL    HW119451   3.104   0.670   4.786 -1.0320  2.0095 -0.5651
 2605SOL    HW219452   2.969   0.686   4.833 -1.9042 -1.8752  0.0544
 2606SOL     OW19453   1.077   1.468   1.721  0.4908 -0.2512 -0.4720
 2606SOL    HW119454   1.032   1.535   1.669 -1.2195 -0.7076  0.4279
 2606SOL    HW219455   1.134   1.519   1.778  0.4984 -1.4102  0.5523
 2607SOL     OW19456   3.300   3.976   1.885  0.1027 -0.1201  0.2451
 2607SOL    HW119457   3.352   4.056   1.877 -0.9321  0.5034 -0.3906
 2607SOL    HW219458   3.307   3.968   1.980  1.4148  2.0973  0.3457
 2608SOL     OW19459   3.819   0.196   7.868 -0.9512  0.1696 -0.4497
 2608SOL    HW119460   3.803   0.268   7.808 -0.8053 -0.1354 -0.8564
 2608SOL    HW219461   3.735   0.192   7.913 -0.1452 -0.0772  1.0431
 2609SOL     OW19462   3.149   1.326  11.028 -0.0335 -0.2554  0.5077
 2609SOL    HW119463   3.088   1.389  10.989  0.5865 -0.6330 -1.0917
 2609SOL    HW219464   3.229   1.349  10.981 -0.5386 -0.9472 -0.6773
 2610SOL     OW19465   1.903   1.885  11.547  0.0518  0.3929  0.2567
 2610SOL    HW119466   1.882   1.804  11.501  3.6438  0.1276 -0.9003
 2610SOL    HW219467   1.816   1.918  11.567 -0.5389  0.7706 -2.9631
 2611SOL     OW19468   2.297   2.512   7.395 -0.1691 -0.1478  0.0541
 2611SOL    HW119469   2.327   2.598   7.364 -1.3757  0.4625  0.5378
 2611SOL    HW219470   2.221   2.510   7.336  2.3501  0.8088 -3.1993
 2612SOL     OW19471   1.894   0.749  16.663  0.3909 -0.1317 -0.4114
 2612SOL    HW119472   1.908   0.748  16.569 -0.5862  0.1634 -0.5692
 2612SOL    HW219473   1.798   0.745  16.655  0.3072  1.5584 -0.1469
 2613SOL     OW19474   2.959   1.270   5.082  0.3579  0.3714  0.6626
 2613SOL    HW119475   2.944   1.186   5.037  0.2942  1.2202 -0.9195
 2613SOL    HW219476   2.894   1.266   5.152  0.4041 -0.1398  0.6824
 2614SOL     OW19477   3.905   4.264  17.124 -0.4302  0.7126  0.3563
 2614SOL    HW119478   3.929   4.261  17.217  1.8886  3.9599 -0.1242
 2614SOL    HW219479   3.881   4.356  17.112 -1.7144  0.2145 -0.9032
 2615SOL     OW19480   3.215   3.949  13.369 -0.3339 -0.1461 -0.1591
 2615SOL    HW119481   3.174   3.993  13.443  0.4101 -0.6274  0.5333
 2615SOL    HW219482   3.308   3.967  13.377 -0.1236 -1.3540  0.0783
 2616SOL     OW19483   0.274   3.586  11.462  0.2274  0.1128 -0.2897
 2616SOL    HW119484   0.335   3.521  11.428  1.6446  0.7880  0.9569
 2616SOL    HW219485   0.207   3.525  11.494 -0.1652 -0.0223 -1.3786
 2617SOL     OW19486   4.328   4.088   2.003 -0.5363  0.1388 -0.6660
 2617SOL    HW119487   4.322   4.160   1.940  0.1501  1.5254  0.8597
 2617SOL    HW219488   4.399   4.108   2.063 -0.2834 -1.8045 -0.3104
 2618SOL     OW19489   1.569   0.919  13.896  0.4209 -0.5482  1.1709
 2618SOL    HW119490   1.511   0.938  13.970 -1.1469 -0.0763 -0.1833
 2618SOL    HW219491   1.521   0.947  13.818 -0.7295 -2.4684  1.1901
 2619SOL     OW19492   2.444   0.385   0.193 -0.2477 -0.2608 -0.2981
 2619SOL    HW119493   2.502   0.436   0.136 -0.7261  0.6530  0.0344
 2619SOL    HW219494   2.441   0.444   0.268  0.1298  0.9368 -1.2309
 2620SOL     OW19495   2.276   2.793   1.621  0.0516 -0.2500 -0.6434
 2620SOL    HW119496   2.182   2.793   1.640  0.8328 -0.8049  3.0654
 2620SOL    HW219497   2.272   2.853   1.546 -1.3643  0.6921  0.1735
 2621SOL     OW19498   3.517   1.167  16.036 -0.9453  0.4652  0.4857
 2621SOL    HW119499   3.517   1.260  16.011 -2.2441  0.2473 -0.3019
 2621SOL    HW219500   3.431   1.135  16.011 -0.1151 -1.0097 -0.4523
 2622SOL     OW19501   3.878   1.246   1.049  0.0888  0.4322 -0.2735
 2622SOL    HW119502   3.873   1.315   1.115  0.3515 -0.1856  0.3931
 2622SOL    HW219503   3.852   1.293   0.970  2.9333  0.5122 -1.1344
 2623SOL     OW19504   3.652   2.101  16.962 -0.2351 -0.4239  0.8602
 2623SOL    HW119505   3.599   2.075  16.886  0.1986 -1.8047  1.0302
 2623SOL    HW219506   3.611   2.185  16.984 -0.1012 -0.5079  1.4160
 2624SOL     OW19507   4.477   3.980   5.624 -0.0265  0.1463  0.3036
 2624SOL    HW119508   4.530   4.057   5.603  2.2468 -0.8318  2.6293
 2624SOL    HW219509   4.455   3.963   5.532 -0.4889 -0.3908  0.5139
 2625SOL     OW19510   3.441   3.738   6.145  0.6211 -0.0556 -0.5992
 2625SOL    HW119511   3.392   3.677   6.199 -2.3868  2.8109 -0.0632
 2625SOL    HW219512   3.389   3.751   6.065  1.4793  0.4522 -1.0707
 2626SOL     OW19513   3.419   0.295  15.943 -0.6084 -0.2164 -0.1517
 2626SOL    HW119514   3.485   0.286  15.874  1.3663 -1.0955  1.8819
 2626SOL    HW219515   3.420   0.390  15.941  0.8375 -0.2074  1.1281
 2627SOL     OW19516   3.048   4.519   7.374  0.1514  0.0121 -0.5748
 2627SOL    HW119517   3.014   4.527   7.285  2.1254 -0.7129 -1.3830
 2627SOL    HW219518   3.079   4.429   7.383 -0.8067 -0.1820  0.7454
 2628SOL     OW19519   1.680   2.233   4.380 -0.4765 -0.1430 -0.1076
 2628SOL    HW119520   1.656   2.262   4.468  0.6320  3.5305 -1.0186
 2628SOL    HW219521   1.631   2.292   4.323 -0.4120  0.7633  0.7698
 2629SOL     OW19522   1.071   1.129   8.464 -0.5349 -0.1516 -0.5457
 2629SOL    HW119523   1.035   1.182   8.393 -0.1539  0.9687  0.0991
 2629SOL    HW219524   1.153   1.178   8.476 -1.6993  1.5526  0.4185
 2630SOL     OW19525   0.419   1.818   8.220 -0.3128  0.8212  0.1058
 2630SOL    HW119526   0.382   1.747   8.168 -2.1624  1.3995  0.6540
 2630SOL    HW219527   0.420   1.889   8.156 -0.6852  0.4828 -0.2697
 2631SOL     OW19528   0.823   3.278   7.018  0.1014  0.2937  0.0438
 2631SOL    HW119529   0.834   3.367   7.052 -0.2554  1.0938 -1.9547
 2631SOL    HW219530   0.758   3.250   7.082 -1.3006 -0.5121 -1.7374
 2632SOL     OW19531   0.919   0.432   3.436 -0.7047 -0.9573 -0.4946
 2632SOL    HW119532   1.003   0.396   3.409  0.3309  0.0107  1.4572
 2632SOL    HW219533   0.896   0.401   3.523  4.2110 -1.6959  0.5568
 2633SOL     OW19534   1.163   4.256   2.025 -0.3208  0.3981  0.7797
 2633SOL    HW119535   1.074   4.280   1.999  0.3114  1.5948 -0.3116
 2633SOL    HW219536   1.179   4.329   2.085  0.1356 -0.0571  1.2025
 2634SOL     OW19537   2.385   0.053   6.265  0.3874 -0.0072 -0.5822
 2634SOL    HW119538   2.303   0.010   6.288 -0.7902  1.0193 -2.8670
 2634SOL    HW219539   2.363   0.123   6.204 -2.0375  0.4045  0.7903
 2635SOL     OW19540   0.768   1.361   7.196  0.3684  0.3811 -0.5877
 2635SOL    HW119541   0.688   1.325   7.158  0.2780  0.1801 -0.1987
 2635SOL    HW219542   0.828   1.289   7.176 -0.0306 -0.2363  0.4985
 2636SOL     OW19543   2.667   0.761  16.251  0.4897 -0.4441 -0.0136
 2636SOL    HW119544   2.600   0.772  16.183 -0.6746 -1.9378  0.9023
 2636SOL    HW219545   2.640   0.679  16.292 -0.3175 -0.2798 -0.2165
 2637SOL     OW19546   3.993   0.935   6.187  0.2735  0.0516  0.2737
 2637SOL    HW119547   3.958   0.998   6.124  0.2291 -1.0045 -0.7507
 2637SOL    HW219548   4.068   0.902   6.138 -1.3206 -1.8050 -0.9253
 2638SOL     OW19549   1.066   1.285   8.925 -0.5803 -0.0878 -0.1056
 2638SOL    HW119550   1.003   1.272   8.854 -1.9866 -0.6866  1.2568
 2638SOL    HW219551   1.138   1.278   8.863 -0.6233  0.3653 -0.2028
 2639SOL     OW19552   3.856   4.649  16.504  0.2578  0.0341  0.7190
 2639SOL    HW119553   3.792   4.581  16.521 -2.4075  1.8864 -1.8432
 2639SOL    HW219554   3.877   4.636  16.412 -1.8508 -0.0397  0.2462
 2640SOL     OW19555   2.115   4.454   5.324 -0.1475 -0.2163 -0.0947
 2640SOL    HW119556   2.028   4.492   5.308  0.0952  0.3809  0.0274
 2640SOL    HW219557   2.171   4.510   5.377  1.7448 -1.3522 -0.9288
 2641SOL     OW19558   0.967   2.835   3.593 -1.0325  0.1880 -0.0646
 2641SOL    HW119559   0.925   2.793   3.518 -0.7117  1.7270 -1.1176
 2641SOL    HW219560   0.980   2.916   3.543  2.3839  0.1785  0.7863
 2642SOL     OW19561   2.484   0.373   3.193 -0.2541  0.3425  0.2635
 2642SOL    HW119562   2.441   0.448   3.151  0.1488  0.6988  0.4909
 2642SOL    HW219563   2.405   0.329   3.223 -0.4064  0.9065  0.6931
 2643SOL     OW19564   2.207   3.964  15.202  0.4284 -0.4608  0.4355
 2643SOL    HW119565   2.204   4.036  15.140  3.1922  1.1242  2.1521
 2643SOL    HW219566   2.112   3.955  15.203  0.2831  1.1168  0.2584
 2644SOL     OW19567   0.676   4.310   5.848  0.3384 -0.3721  0.6263
 2644SOL    HW119568   0.637   4.223   5.856  0.8503 -0.8610 -2.0072
 2644SOL    HW219569   0.623   4.361   5.909  1.7248  1.0560  0.6402
 2645SOL     OW19570   0.155   1.157   6.108  0.4424 -0.7802 -0.4393
 2645SOL    HW119571   0.154   1.063   6.094 -0.8213 -1.1076  1.9794
 2645SOL    HW219572   0.186   1.186   6.021  1.9239  1.2058  0.7420
 2646SOL     OW19573   1.038   2.863   6.358  0.7525  0.0344 -0.5375
 2646SOL    HW119574   0.974   2.933   6.363  2.0846  1.1682  0.7424
 2646SOL    HW219575   1.038   2.831   6.448  1.2369  0.0657 -0.5243
 2647SOL     OW19576   4.441   1.346   4.493  0.7754  0.1661  0.0576
 2647SOL    HW119577   4.470   1.255   4.499  0.6985  0.1658  0.4128
 2647SOL    HW219578   4.527   1.383   4.512  1.6734 -1.8645 -0.0140
 2648SOL     OW19579   3.359   0.848   5.483  0.2894  0.2203  0.1635
 2648SOL    HW119580   3.447   0.878   5.461 -0.1663  2.9054  1.9219
 2648SOL    HW219581   3.368   0.757   5.511 -3.0370 -0.3220 -0.5239
 2649SOL     OW19582   1.062   0.836   2.346  0.6785 -0.1478  0.0813
 2649SOL    HW119583   1.026   0.901   2.407  1.0449  0.7473 -0.6708
 2649SOL    HW219584   1.121   0.792   2.407  1.5183  0.3422 -0.3913
 2650SOL     OW19585   3.485   0.570   2.253  0.0244 -0.1563  0.2918
 2650SOL    HW119586   3.537   0.651   2.251  0.5449 -0.4744  1.1058
 2650SOL    HW219587   3.485   0.562   2.348 -3.8657 -0.8246  0.2621
 2651SOL     OW19588   3.281   0.938  15.486  0.0469  0.2687 -0.0419
 2651SOL    HW119589   3.344   1.005  15.513  1.0719 -0.6972 -0.0593
 2651SOL    HW219590   3.253   0.977  15.403  1.8333 -0.6221 -1.0515
 2652SOL     OW19591   1.400   2.329   0.544 -0.2300 -0.2150 -0.4618
 2652SOL    HW119592   1.394   2.413   0.590 -3.4528 -0.7923  0.1848
 2652SOL    HW219593   1.493   2.311   0.558 -0.1259  0.9435  0.3930
 2653SOL     OW19594   1.900   1.716   3.978 -0.2138  0.3862  0.3788
 2653SOL    HW119595   1.887   1.648   3.913  1.4238 -1.7953  2.3056
 2653SOL    HW219596   1.838   1.685   4.044 -1.2817  0.4157 -0.6343
 2654SOL     OW19597   4.630   3.207   3.955  0.2247 -0.2531  0.5431
 2654SOL    HW119598   4.724   3.198   3.939  0.3020  0.3028  0.6563
 2654SOL    HW219599   4.622   3.287   4.007 -0.1390 -0.6772  1.1392
 2655SOL     OW19600   1.066   2.121   6.958 -0.0130  0.0795 -0.3664
 2655SOL    HW119601   0.987   2.174   6.970 -1.2127 -1.9773  0.7164
 2655SOL    HW219602   1.121   2.142   7.033 -1.5832 -1.0319  1.0963
 2656SOL     OW19603   0.234   2.113   8.979  0.6672  0.4376  0.1553
 2656SOL    HW119604   0.173   2.093   9.050 -0.5336  0.7286 -0.8023
 2656SOL    HW219605   0.285   2.183   9.019  1.0048 -0.0042  0.5037
 2657SOL     OW19606   2.204   0.339   4.578 -0.0441 -0.2711 -0.4189
 2657SOL    HW119607   2.291   0.340   4.616  0.5798  0.5831 -1.8687
 2657SOL    HW219608   2.189   0.433   4.579 -2.1988 -0.6099 -0.4758
 2658SOL     OW19609   0.459   1.872   5.741 -0.6942 -0.2507 -0.2287
 2658SOL    HW119610   0.530   1.896   5.680  1.3013 -1.1119  1.7469
 2658SOL    HW219611   0.501   1.815   5.805 -0.3226  1.2467  0.8435
 2659SOL     OW19612   0.853   1.247  17.076  0.0226 -0.7579 -0.4620
 2659SOL    HW119613   0.892   1.198  17.004  1.3880 -0.6123  0.1919
 2659SOL    HW219614   0.932   1.284  17.116 -0.0735 -0.4350 -0.5660
 2660SOL     OW19615   0.333   3.279   2.384  0.4462  0.1157  0.4397
 2660SOL    HW119616   0.250   3.284   2.336 -0.0051  3.7240  1.5908
 2660SOL    HW219617   0.363   3.194   2.351 -1.9317 -0.7588  0.4818
 2661SOL     OW19618   3.686   0.917   7.988 -0.4678  0.3891  0.4831
 2661SOL    HW119619   3.707   1.000   8.030  0.3000  0.4752 -0.0726
 2661SOL    HW219620   3.700   0.935   7.895 -1.3903 -1.5112 -0.0240
 2662SOL     OW19621   2.966   4.330   8.528  0.3874  0.0384 -0.1831
 2662SOL    HW119622   2.943   4.256   8.584  0.6370  2.3253  2.9199
 2662SOL    HW219623   2.883   4.378   8.532  0.1935 -0.1313 -2.1680
 2663SOL     OW19624   2.715   2.842   2.247 -0.1550  0.2835 -0.0508
 2663SOL    HW119625   2.764   2.899   2.306 -0.7716 -0.0162  0.7392
 2663SOL    HW219626   2.643   2.898   2.218  1.2211  2.6217  1.0908
 2664SOL     OW19627   1.807   0.222   2.308  0.0450 -0.2106 -0.0228
 2664SOL    HW119628   1.863   0.300   2.305 -2.7320  1.8048  0.7594
 2664SOL    HW219629   1.774   0.220   2.398 -1.1856  1.2988 -0.4351
 2665SOL     OW19630   3.763   4.071   1.870 -0.1643 -0.3659  0.0632
 2665SOL    HW119631   3.837   4.052   1.812  0.3329  2.5416 -0.2243
 2665SOL    HW219632   3.798   4.040   1.953  3.5854  1.1124 -0.9631
 2666SOL     OW19633   1.869   0.355   5.822  0.6474  0.1480 -0.5310
 2666SOL    HW119634   1.796   0.342   5.883  1.6020 -0.1569  0.5476
 2666SOL    HW219635   1.823   0.351   5.738  0.6938  0.1245 -0.5556
 2667SOL     OW19636   3.810   3.914   7.797 -0.3439 -1.0216 -0.2667
 2667SOL    HW119637   3.810   4.008   7.775 -0.1305 -0.6541  1.2697
 2667SOL    HW219638   3.877   3.876   7.741 -0.0411  0.0165 -0.6117
 2668SOL     OW19639   3.768   2.383  15.148 -0.2445  0.2797  0.5337
 2668SOL    HW119640   3.834   2.406  15.082 -0.5497  0.4673  0.2978
 2668SOL    HW219641   3.820   2.390  15.229  2.3898 -3.0241 -0.8813
 2669SOL     OW19642   1.291   2.954   2.516  0.0965  0.7459 -0.4152
 2669SOL    HW119643   1.215   2.932   2.570 -0.6034  0.6230 -1.4444
 2669SOL    HW219644   1.347   2.877   2.520 -0.4006  0.3460 -1.1085
 2670SOL     OW19645   0.104   0.225   2.199 -0.0357 -0.0026 -0.7535
 2670SOL    HW119646   0.073   0.147   2.154  0.0981  1.2040 -2.9525
 2670SOL    HW219647   0.021   0.259   2.232  0.7976  1.7542 -0.4219
 2671SOL     OW19648   0.581   0.437   3.638 -0.1048  0.2749  0.2675
 2671SOL    HW119649   0.560   0.387   3.718 -1.4514  0.2907 -0.0646
 2671SOL    HW219650   0.488   0.457   3.624  0.2920  3.2653  1.9457
 2672SOL     OW19651   1.209   2.178   9.289  0.2282  0.6847 -0.6236
 2672SOL    HW119652   1.303   2.177   9.272  0.1637 -0.1767 -0.9530
 2672SOL    HW219653   1.207   2.249   9.353  1.6363 -0.0254  0.2041
 2673SOL     OW19654   2.975   3.288   2.483 -0.0279 -0.2167  0.3331
 2673SOL    HW119655   2.896   3.264   2.436  0.1358  2.6134 -1.3853
 2673SOL    HW219656   2.940   3.345   2.552 -3.0738 -0.8414 -0.7087
 2674SOL     OW19657   0.393   2.265   7.498  0.1555  0.8549 -0.5286
 2674SOL    HW119658   0.327   2.334   7.491  0.4614  1.0643 -1.3518
 2674SOL    HW219659   0.451   2.300   7.566  0.2279  0.7692 -0.5463
 2675SOL     OW19660   0.754   1.724   5.375  0.0647  0.1999  0.4891
 2675SOL    HW119661   0.709   1.805   5.352  1.5563  0.9078  0.0772
 2675SOL    HW219662   0.846   1.749   5.363 -0.2394  0.3261 -1.5008
 2676SOL     OW19663   1.058   3.179  14.744  0.2910 -0.0808 -0.5757
 2676SOL    HW119664   1.033   3.166  14.653 -0.3617 -2.2448 -0.0619
 2676SOL    HW219665   1.009   3.260  14.759  0.7141 -0.2373  1.6947
 2677SOL     OW19666   4.602   0.337   2.257 -1.0963  0.5211 -0.0242
 2677SOL    HW119667   4.647   0.411   2.297 -1.8841 -0.3402  2.4522
 2677SOL    HW219668   4.516   0.365   2.290 -1.5983 -1.8952  0.7157
 2678SOL     OW19669   2.486   0.494   3.571 -0.0511  0.3072  0.2656
 2678SOL    HW119670   2.442   0.444   3.640  0.1593 -0.4888 -0.1889
 2678SOL    HW219671   2.578   0.471   3.584 -0.4871 -1.3121  0.4843
 2679SOL     OW19672   1.041   1.963   5.482 -0.4836 -0.2882 -0.1596
 2679SOL    HW119673   1.110   1.972   5.548 -1.0859 -2.5901  0.7926
 2679SOL    HW219674   1.090   1.946   5.401 -0.1167 -1.0577  0.2179
 2680SOL     OW19675   3.714   2.398   6.511 -0.3919  0.4188  0.2505
 2680SOL    HW119676   3.772   2.336   6.555  0.1588  1.2172  0.6465
 2680SOL    HW219677   3.776   2.458   6.470 -2.7360  0.9496 -2.4903
 2681SOL     OW19678   1.147   2.734   9.682 -0.5894 -0.5282  0.5345
 2681SOL    HW119679   1.164   2.712   9.774  2.3266 -0.0263  0.0944
 2681SOL    HW219680   1.231   2.748   9.640 -0.5002 -0.6688  0.6656
 2682SOL     OW19681   4.689   0.069   4.436 -0.2809  0.0924  0.8344
 2682SOL    HW119682   4.631   0.145   4.430 -0.0837  0.1909  0.1503
 2682SOL    HW219683   4.625   4.740   4.452 -0.8557  0.6359  0.8902
 2683SOL     OW19684   4.520   4.362   7.976  0.4603 -0.0283 -0.4142
 2683SOL    HW119685   4.555   4.284   7.932 -0.2441 -1.0471  0.8498
 2683SOL    HW219686   4.566   4.430   7.927 -0.5064  0.4548 -0.6586
 2684SOL     OW19687   3.960   4.695   7.350  0.2404 -0.3366  0.3928
 2684SOL    HW119688   3.911   4.614   7.352 -2.0954  1.0965  1.1781
 2684SOL    HW219689   3.944   4.735   7.435  2.3871  3.1059 -0.8256
 2685SOL     OW19690   3.811   1.011   7.770 -0.0439  0.1773  0.2474
 2685SOL    HW119691   3.770   0.998   7.685 -0.7566 -2.5136  0.9950
 2685SOL    HW219692   3.825   1.105   7.776  0.2752  0.0822  1.1133
 2686SOL     OW19693   0.879   2.255  10.245 -0.0576 -0.0154 -0.4495
 2686SOL    HW119694   0.881   2.221  10.156 -0.6970 -0.3257 -0.3489
 2686SOL    HW219695   0.840   2.341  10.229 -1.6971 -1.0229 -1.9419
 2687SOL     OW19696   3.748   1.069   3.040  0.1405  0.2135  0.7509
 2687SOL    HW119697   3.661   1.107   3.039  0.6447  1.3637  0.3767
 2687SOL    HW219698   3.739   0.979   3.071 -0.7292 -0.4006 -1.2502
 2688SOL     OW19699   0.375   3.040   5.430 -0.2934  0.0403  0.0666
 2688SOL    HW119700   0.382   3.074   5.519  0.0545 -0.6876  0.3135
 2688SOL    HW219701   0.434   2.965   5.432 -1.2730 -0.7275  0.3598
 2689SOL     OW19702   0.857   4.563   5.572 -0.6319 -0.1279  0.5870
 2689SOL    HW119703   0.856   4.490   5.634 -3.9703  0.6542  1.4820
 2689SOL    HW219704   0.951   4.578   5.567 -0.5860 -0.5077  0.2537
 2690SOL     OW19705   3.553   4.298  14.973  0.0159  0.2406  0.2394
 2690SOL    HW119706   3.583   4.329  15.059  0.6417 -0.4891  0.2922
 2690SOL    HW219707   3.636   4.268  14.934  0.5855 -1.0591  2.3898
 2691SOL     OW19708   1.450   3.490   7.551 -0.5024 -0.0473  0.4684
 2691SOL    HW119709   1.454   3.424   7.482  0.8716  0.3868  0.1442
 2691SOL    HW219710   1.472   3.434   7.625  0.4910 -1.1396 -0.6674
 2692SOL     OW19711   1.098   1.012   2.016  0.4072  0.5064  0.0882
 2692SOL    HW119712   1.191   1.015   2.037  0.3627 -0.7231  0.4760
 2692SOL    HW219713   1.093   1.045   1.926 -1.1168  0.7599  0.2754
 2693SOL     OW19714   2.943   3.283   5.940 -0.1476  0.1860 -0.2318
 2693SOL    HW119715   2.979   3.208   5.892  0.4782 -0.7348  1.6706
 2693SOL    HW219716   2.918   3.337   5.865  2.1119  0.8456 -0.5185
 2694SOL     OW19717   3.026   0.401  17.325  0.0415 -0.0482 -0.3428
 2694SOL    HW119718   3.085   0.469  17.358  1.1322 -1.6385  0.9696
 2694SOL    HW219719   3.087   0.339  17.284 -1.2451 -0.8446 -1.0494
 2695SOL     OW19720   3.932   4.101   2.664 -0.4359  0.0068 -0.3182
 2695SOL    HW119721   3.958   4.052   2.742  0.9666 -0.4171 -1.0501
 2695SOL    HW219722   3.874   4.041   2.617  1.1628 -0.8891 -1.1555
 2696SOL     OW19723   1.712   3.159   9.283  0.8111  0.5809  0.1737
 2696SOL    HW119724   1.731   3.065   9.281 -1.8021  0.1029 -2.8399
 2696SOL    HW219725   1.648   3.167   9.212  1.6368  0.7880 -0.5474
 2697SOL     OW19726   0.996   3.464   7.606 -0.0403  0.2233  0.2680
 2697SOL    HW119727   0.951   3.379   7.600 -0.3162  0.2815  1.3925
 2697SOL    HW219728   1.051   3.454   7.684  1.2916  0.1081 -0.6947
 2698SOL     OW19729   2.077   0.702   2.680 -0.4107  0.6195  0.0003
 2698SOL    HW119730   2.095   0.641   2.752  0.1255  0.7989  0.0183
 2698SOL    HW219731   2.164   0.741   2.673  0.1358 -0.2631  1.8779
 2699SOL     OW19732   1.790   3.669   1.286 -0.0453  0.3545 -0.0780
 2699SOL    HW119733   1.873   3.691   1.328  0.1989 -0.6770 -0.0037
 2699SOL    HW219734   1.778   3.749   1.236 -1.6797  0.9398  1.2955
 2700SOL     OW19735   2.793   2.054  10.618 -0.2152  0.0713  0.5742
 2700SOL    HW119736   2.804   2.022  10.708  0.7761  0.6462  0.6449
 2700SOL    HW219737   2.730   1.990  10.584 -1.7562  1.6345  0.5003
 2701SOL     OW19738   4.233   3.313   5.305  0.3121  0.4285  0.4374
 2701SOL    HW119739   4.200   3.260   5.378  0.8002  1.9979  1.7777
 2701SOL    HW219740   4.326   3.308   5.324  0.8459  0.0397 -2.2973
 2702SOL     OW19741   3.054   0.216  11.136  0.1687 -0.4315 -0.0204
 2702SOL    HW119742   3.140   0.229  11.177  0.3229  1.1890 -0.8932
 2702SOL    HW219743   2.992   0.248  11.202 -0.4728 -1.7947  0.0277
 2703SOL     OW19744   2.514   2.591  12.422  0.1383  0.2937 -0.0117
 2703SOL    HW119745   2.440   2.643  12.453  0.1897  0.6794 -0.5470
 2703SOL    HW219746   2.481   2.510  12.461  2.1746  0.0803  1.2755
 2704SOL     OW19747   0.126   1.734   7.778 -0.4777  0.6224  0.0675
 2704SOL    HW119748   0.153   1.658   7.830  0.9900  0.7843 -0.4440
 2704SOL    HW219749   0.099   1.691   7.697  0.4472 -1.0816  0.6633
 2705SOL     OW19750   1.340   1.115  17.679 -0.3223  0.2173 -0.3704
 2705SOL    HW119751   1.269   1.074  17.728 -0.8110  1.6866  0.1525
 2705SOL    HW219752   1.290   1.146  17.603 -0.5283 -0.1679 -0.3928
 2706SOL     OW19753   1.635   2.558   3.428  0.2832 -0.2629  0.1663
 2706SOL    HW119754   1.710   2.618   3.430  0.6726 -0.7572  0.3326
 2706SOL    HW219755   1.619   2.555   3.333 -0.8642  1.7816  0.2918
 2707SOL     OW19756   2.949   1.884   6.651 -0.0244  0.1883  0.3721
 2707SOL    HW119757   3.011   1.821   6.688  0.0855 -0.4777 -0.9508
 2707SOL    HW219758   2.997   1.913   6.573  0.8550  1.4786  1.3845
 2708SOL     OW19759   3.879   2.123   9.159 -0.1526 -0.3935  0.2128
 2708SOL    HW119760   3.873   2.058   9.230 -1.9855 -1.6343 -1.0672
 2708SOL    HW219761   3.963   2.099   9.120 -0.0579 -2.6060  1.7480
 2709SOL     OW19762   2.001   3.145  11.999  0.0847  0.2005 -0.2540
 2709SOL    HW119763   1.929   3.204  12.022 -0.5701 -1.3859  1.8268
 2709SOL    HW219764   2.044   3.205  11.938  2.3762 -0.9464  0.2535
 2710SOL     OW19765   2.824   2.683   1.709  0.1437 -0.0678  0.1379
 2710SOL    HW119766   2.906   2.678   1.757  0.8968  0.8908 -1.0668
 2710SOL    HW219767   2.833   2.720   1.621  0.1042 -1.2429 -0.3684
 2711SOL     OW19768   3.021   4.014   1.187 -0.1150 -0.0279  0.0783
 2711SOL    HW119769   2.975   3.957   1.125  0.7327  1.4719 -1.9279
 2711SOL    HW219770   3.102   4.038   1.142 -1.7324  1.5133 -2.0073
 2712SOL     OW19771   4.437   0.853   7.101  0.5038  0.2574 -0.1263
 2712SOL    HW119772   4.388   0.917   7.049  0.8902  0.4415 -0.2628
 2712SOL    HW219773   4.383   0.858   7.180  1.3392 -1.7391  0.5825
 2713SOL     OW19774   3.677   1.739   6.498  0.1686  0.1436  0.3107
 2713SOL    HW119775   3.642   1.761   6.584  1.8252 -0.4065  1.1385
 2713SOL    HW219776   3.652   1.646   6.492  0.7170  0.1470 -2.3733
 2714SOL     OW19777   2.655   2.311  10.583 -0.5596  0.1242  0.0021
 2714SOL    HW119778   2.564   2.284  10.598 -1.0701  1.5650 -0.4342
 2714SOL    HW219779   2.704   2.238  10.545 -0.2226 -1.1707  2.9719
 2715SOL     OW19780   1.225   3.958   3.124 -0.2757 -0.4993 -0.5330
 2715SOL    HW119781   1.151   4.004   3.085 -0.7112  0.1490  1.0547
 2715SOL    HW219782   1.190   3.870   3.115 -1.2014 -0.1414 -0.3875
 2716SOL     OW19783   2.640   4.291   0.639 -0.2493 -0.2432 -0.2516
 2716SOL    HW119784   2.631   4.387   0.634 -0.7878 -0.2211  1.3538
 2716SOL    HW219785   2.722   4.299   0.688 -0.8040 -0.3867  0.6887
 2717SOL     OW19786   3.891   0.931  13.330 -0.5470 -0.0615  0.4878
 2717SOL    HW119787   3.802   0.952  13.359 -0.7929 -0.6180  0.1368
 2717SOL    HW219788   3.951   0.923  13.404 -1.4647  0.2246  1.2658
 2718SOL     OW19789   1.995   3.916   3.931  0.1238  0.0569  0.1037
 2718SOL    HW119790   2.045   3.839   3.905  0.0758  0.5463 -1.4643
 2718SOL    HW219791   1.928   3.866   3.977  0.3380  1.5552  2.0619
 2719SOL     OW19792   1.413   1.413  12.253 -0.2479 -0.3083  0.4684
 2719SOL    HW119793   1.455   1.344  12.304 -1.2689 -0.0884  1.6286
 2719SOL    HW219794   1.326   1.410  12.293 -0.4659 -0.7065 -0.0317
 2720SOL     OW19795   0.676   2.941   6.560  0.0350  0.2927 -0.2505
 2720SOL    HW119796   0.677   2.847   6.578  3.2525  0.2413 -0.7065
 2720SOL    HW219797   0.635   2.982   6.636 -0.5247  0.7444 -0.7905
 2721SOL     OW19798   4.360   1.130   3.717 -0.2946 -0.3264  0.5494
 2721SOL    HW119799   4.386   1.207   3.667 -1.8038 -0.2012 -0.0328
 2721SOL    HW219800   4.446   1.089   3.725 -0.6136 -0.6178  2.6052
 2722SOL     OW19801   2.231   2.217  13.522 -0.2204 -0.4344  0.3874
 2722SOL    HW119802   2.245   2.305  13.556 -0.7646 -0.1503 -0.1122
 2722SOL    HW219803   2.135   2.222  13.524 -0.3022 -0.9864 -1.9245
 2723SOL     OW19804   2.419   1.707  12.350 -0.2369  0.0295 -0.3507
 2723SOL    HW119805   2.334   1.749  12.344 -0.3188 -0.4430 -2.6383
 2723SOL    HW219806   2.430   1.715  12.445 -0.0832 -0.8128 -0.2896
 2724SOL     OW19807   3.339   4.264   6.866 -0.8140  0.3748  0.2148
 2724SOL    HW119808   3.382   4.349   6.870  1.1654 -0.6369  0.2541
 2724SOL    HW219809   3.415   4.206   6.870 -2.6877 -2.1856 -1.2515
 2725SOL     OW19810   3.633   2.806   0.677  0.9054 -0.4492 -0.6449
 2725SOL    HW119811   3.707   2.857   0.709  1.9884 -2.7839  0.6482
 2725SOL    HW219812   3.680   2.746   0.620  0.5319 -1.2937 -0.0762
 2726SOL     OW19813   0.676   3.947   1.776  0.6906  0.4236  0.0582
 2726SOL    HW119814   0.664   3.932   1.683  0.7773 -0.5287  0.2019
 2726SOL    HW219815   0.643   3.859   1.796  0.4953  0.3875 -0.4395
 2727SOL     OW19816   2.008   1.088   8.036 -0.1966 -0.2113  0.6632
 2727SOL    HW119817   1.932   1.090   7.978 -0.0689  0.5926  0.5348
 2727SOL    HW219818   2.028   1.181   8.044 -4.1400  0.8041 -1.6705
 2728SOL     OW19819   4.191   1.371   2.478  0.1221 -0.0146  0.1954
 2728SOL    HW119820   4.265   1.368   2.539  0.6136  1.2721 -0.3439
 2728SOL    HW219821   4.226   1.341   2.394  0.6225 -0.0602  0.4171
 2729SOL     OW19822   1.370   3.581   2.475 -0.3650  0.2710 -0.5979
 2729SOL    HW119823   1.364   3.546   2.386  0.1781 -0.5894 -0.2993
 2729SOL    HW219824   1.423   3.660   2.480  1.0154 -0.6876 -0.1927
 2730SOL     OW19825   2.517   0.819   8.557  0.2117  0.1258 -0.4381
 2730SOL    HW119826   2.602   0.793   8.594  0.6023 -0.8255 -1.9711
 2730SOL    HW219827   2.521   0.754   8.486 -0.3254 -0.1920 -0.1741
 2731SOL     OW19828   1.650   0.451   4.776 -0.8034 -0.0155  0.0030
 2731SOL    HW119829   1.715   0.505   4.732  1.5052 -1.2337  1.9080
 2731SOL    HW219830   1.603   0.416   4.701 -3.3360 -1.4697  2.2832
 2732SOL     OW19831   1.456   0.996   7.323  0.8601 -0.2217 -0.2247
 2732SOL    HW119832   1.501   0.914   7.305  0.8513  0.0496 -1.4739
 2732SOL    HW219833   1.437   0.993   7.417  0.6907  1.1270 -0.2038
 2733SOL     OW19834   0.950   1.768   4.814 -0.5041  0.1561  0.5719
 2733SOL    HW119835   0.931   1.734   4.726 -2.5735  0.3190  0.9500
 2733SOL    HW219836   0.889   1.718   4.869 -1.6583  0.7676 -0.1529
 2734SOL     OW19837   0.228   3.028   5.945  0.2720  0.0047  0.0231
 2734SOL    HW119838   0.247   2.988   6.030  1.1595 -0.8442 -0.5630
 2734SOL    HW219839   0.224   3.116   5.983  0.1428 -0.3851  0.9197
 2735SOL     OW19840   0.507   0.333  15.544  0.0135 -0.1287  0.0917
 2735SOL    HW119841   0.530   0.421  15.513  1.1181 -0.2564  0.5555
 2735SOL    HW219842   0.578   0.270  15.530 -0.0333 -0.2414  0.3604
 2736SOL     OW19843   0.103   0.074   8.503 -0.2692  0.2172 -0.3069
 2736SOL    HW119844   0.084   4.725   8.473  0.5421 -0.7373  1.9887
 2736SOL    HW219845   0.112   0.065   8.598  0.6360 -1.0268 -0.5026
 2737SOL     OW19846   1.961   2.917   2.290 -0.3414  0.1655  0.1081
 2737SOL    HW119847   1.899   2.989   2.291 -0.1420  0.3406 -0.4214
 2737SOL    HW219848   1.910   2.847   2.332  2.6031 -1.4810  0.9614
 2738SOL     OW19849   1.443   3.053   6.214  0.4084  0.5662 -0.0110
 2738SOL    HW119850   1.407   3.054   6.302  1.6485 -0.9409  0.5097
 2738SOL    HW219851   1.468   3.145   6.204  2.5493 -0.1892 -1.7585
 2739SOL     OW19852   3.710   0.331   4.937 -0.4282 -0.2016  1.1143
 2739SOL    HW119853   3.658   0.397   4.983  1.0046  0.5767  1.6212
 2739SOL    HW219854   3.689   0.361   4.848 -0.4527 -0.9468  0.8682
 2740SOL     OW19855   4.736   4.142   1.532  0.2364 -0.0567  0.0101
 2740SOL    HW119856   4.729   4.131   1.627  2.6697 -0.2727  0.1722
 2740SOL    HW219857   4.657   4.102   1.496  1.1646 -1.4748 -0.4856
 2741SOL     OW19858   3.794   4.488   8.329 -0.0866 -0.2888  0.1160
 2741SOL    HW119859   3.750   4.473   8.413 -0.2444  2.1162  0.4629
 2741SOL    HW219860   3.747   4.440   8.261  1.0737  0.8649 -1.5074
 2742SOL     OW19861   2.520   2.816   1.846  0.1649 -0.3560  0.2090
 2742SOL    HW119862   2.474   2.844   1.925 -1.9609 -0.4940 -0.9531
 2742SOL    HW219863   2.553   2.729   1.870 -0.6868 -0.5481  0.6787
 2743SOL     OW19864   4.071   2.088   6.953  0.4445 -0.1771  0.1415
 2743SOL    HW119865   4.043   2.069   7.042 -2.2979 -0.8102 -0.8727
 2743SOL    HW219866   4.044   2.003   6.920  2.5687 -1.3030  1.3314
 2744SOL     OW19867   1.635   4.569  16.007  0.3036  0.4573  0.4703
 2744SOL    HW119868   1.546   4.538  16.026  1.2468 -1.6309  1.5556
 2744SOL    HW219869   1.638   4.561  15.912 -2.3033  0.9764  0.3461
 2745SOL     OW19870   4.352   1.899  11.579  0.2086  0.0677  0.5256
 2745SOL    HW119871   4.367   1.916  11.485  1.1430  0.0465  0.6662
 2745SOL    HW219872   4.285   1.965  11.599  1.1557  1.0262  0.5554
 2746SOL     OW19873   4.079   1.507   4.148  0.0616 -0.6989 -0.3051
 2746SOL    HW119874   4.151   1.450   4.175 -0.2954 -0.8826  0.2390
 2746SOL    HW219875   4.128   1.584   4.118 -0.1019 -0.9878 -1.3403
 2747SOL     OW19876   1.921   3.928  15.154  0.7900 -0.3512 -0.0301
 2747SOL    HW119877   1.866   3.892  15.085  0.3755 -1.3267  0.8001
 2747SOL    HW219878   1.926   3.849  15.208 -0.9629 -0.5903 -0.2164
 2748SOL     OW19879   3.371   4.271  13.892  0.0972  0.0913 -0.1558
 2748SOL    HW119880   3.293   4.318  13.861 -0.7231 -1.8799 -1.0964
 2748SOL    HW219881   3.443   4.290  13.833  1.6409  1.6010  2.2531
 2749SOL     OW19882   1.511   2.160   6.602  0.0096 -0.2153 -0.0596
 2749SOL    HW119883   1.560   2.087   6.563 -0.7228 -1.0763  0.6471
 2749SOL    HW219884   1.481   2.122   6.684 -1.7766 -2.3662 -1.6786
 2750SOL     OW19885   3.663   1.644   7.611 -0.8028 -0.4760 -0.0135
 2750SOL    HW119886   3.751   1.607   7.615 -0.0868  1.3722  1.4325
 2750SOL    HW219887   3.679   1.738   7.608 -1.7753 -0.2559  1.4128
 2751SOL     OW19888   1.336   2.623   1.087  0.1461 -0.2829 -0.4003
 2751SOL    HW119889   1.368   2.671   1.163  2.2298 -1.7510 -0.3500
 2751SOL    HW219890   1.413   2.639   1.032 -0.5816  1.9623 -0.7369
 2752SOL     OW19891   4.243   0.148   7.059  0.2755 -0.1817 -0.6427
 2752SOL    HW119892   4.299   0.220   7.034  0.6367 -0.3309 -0.2578
 2752SOL    HW219893   4.163   0.201   7.066  0.0414 -0.2635 -2.6405
 2753SOL     OW19894   4.382   0.109   5.774  0.4656  0.1518  0.1954
 2753SOL    HW119895   4.449   0.160   5.820 -0.8550  0.1325  2.1676
 2753SOL    HW219896   4.378   0.029   5.826  0.5150 -0.2428 -0.4096
 2754SOL     OW19897   2.620   1.735   7.725 -0.0949  0.4074 -0.2517
 2754SOL    HW119898   2.709   1.765   7.743 -0.1962  1.3257 -1.3574
 2754SOL    HW219899   2.586   1.803   7.668 -0.8515  1.2734  1.2286
 2755SOL     OW19900   4.327   2.536   3.027  0.2534 -0.0143 -0.0582
 2755SOL    HW119901   4.279   2.599   3.081  2.7119  1.2203  0.6514
 2755SOL    HW219902   4.262   2.498   2.967  0.3005  1.7245 -1.1983
 2756SOL     OW19903   2.918   2.396   8.940  0.1923  0.0515  0.4948
 2756SOL    HW119904   2.964   2.318   8.908  2.6286  1.9826 -0.6427
 2756SOL    HW219905   2.917   2.446   8.859  0.6392 -0.6937  0.0272
 2757SOL     OW19906   0.364   2.532   5.130  0.3091  0.8300 -0.0915
 2757SOL    HW119907   0.281   2.490   5.109  0.9904 -1.1258  1.1201
 2757SOL    HW219908   0.429   2.482   5.080 -0.9336 -0.8132 -0.0599
 2758SOL     OW19909   4.566   3.182   7.327  0.5463  0.1504 -0.0720
 2758SOL    HW119910   4.592   3.207   7.416 -0.0949  2.6606 -0.5880
 2758SOL    HW219911   4.629   3.236   7.279 -1.6849  0.6490 -2.4332
 2759SOL     OW19912   0.364   4.696   5.910  0.0677 -0.0607 -0.1742
 2759SOL    HW119913   0.372   4.619   5.854 -0.0838 -1.3147  1.5344
 2759SOL    HW219914   0.444   4.684   5.961 -0.6065 -1.3384  0.5752
 2760SOL     OW19915   0.260   1.640   7.386  0.6980  0.1725 -0.0729
 2760SOL    HW119916   0.200   1.712   7.368  0.8001 -0.1500 -1.6732
 2760SOL    HW219917   0.315   1.643   7.308  0.3973  0.4040 -0.2743
 2761SOL     OW19918   3.897   2.841   3.001  0.4308  0.1257 -0.1380
 2761SOL    HW119919   3.922   2.755   2.968 -2.7057 -0.6789 -0.4223
 2761SOL    HW219920   3.831   2.819   3.067 -1.1704  2.0655 -1.0737
 2762SOL     OW19921   0.891   4.689   5.000 -0.1412  0.0367  0.1910
 2762SOL    HW119922   0.949   4.711   4.927  1.0731 -0.7895  0.9182
 2762SOL    HW219923   0.945   4.677   5.078 -1.5541 -2.5509  0.7845
 2763SOL     OW19924   1.225   0.553   3.233  0.2402  0.5584 -0.5773
 2763SOL    HW119925   1.171   0.596   3.300 -0.0445  0.7338 -0.9201
 2763SOL    HW219926   1.311   0.580   3.263  0.0745  0.4546 -0.0011
 2764SOL     OW19927   2.660   4.058   8.900  0.2276 -0.2197 -0.6217
 2764SOL    HW119928   2.572   4.056   8.860  0.2229  0.9284 -0.6814
 2764SOL    HW219929   2.702   4.076   8.816  0.6819 -1.5144 -0.6556
 2765SOL     OW19930   1.793   4.306   2.424  0.2834  0.0165  0.1538
 2765SOL    HW119931   1.806   4.344   2.337 -1.2587  0.0092 -0.0809
 2765SOL    HW219932   1.876   4.294   2.469  0.6936  2.1590 -0.0731
 2766SOL     OW19933   0.256   4.671   1.716 -0.4682 -0.5314  0.4218
 2766SOL    HW119934   0.344   4.685   1.680 -1.2360 -3.1176 -2.5042
 2766SOL    HW219935   0.210   4.630   1.643  1.1755 -0.7141 -0.5290
 2767SOL     OW19936   2.198   4.509   7.717 -0.3299  0.1519 -0.4685
 2767SOL    HW119937   2.170   4.546   7.634  0.7158  0.8090 -0.5335
 2767SOL    HW219938   2.122   4.496   7.774 -1.2693  0.2585 -1.7186
 2768SOL     OW19939   0.982   1.541   8.681 -0.1248 -0.1743  0.4822
 2768SOL    HW119940   1.008   1.484   8.609 -1.2688 -1.0464  0.7710
 2768SOL    HW219941   1.049   1.610   8.678 -1.0465  0.6630 -0.6530
 2769SOL     OW19942   2.206   4.289  17.146  0.2481 -0.3543 -0.0939
 2769SOL    HW119943   2.165   4.226  17.086 -1.6399  2.0798 -1.3771
 2769SOL    HW219944   2.169   4.265  17.230  0.8515 -0.2675  0.2021
 2770SOL     OW19945   1.719   2.435   5.575 -0.6849 -0.1199 -0.8203
 2770SOL    HW119946   1.751   2.358   5.622 -1.7988 -0.3803 -0.4874
 2770SOL    HW219947   1.671   2.399   5.500 -0.4762  1.6167 -1.7921
 2771SOL     OW19948   2.411   1.606   0.356 -0.8438  0.4972  0.1264
 2771SOL    HW119949   2.389   1.534   0.415 -0.6289  1.1558  1.0162
 2771SOL    HW219950   2.370   1.677   0.407 -0.0795  0.4392  0.8325
 2772SOL     OW19951   3.499   1.311   9.910 -0.3194 -0.5327 -0.0182
 2772SOL    HW119952   3.496   1.367   9.988 -2.0553 -0.8251  0.1288
 2772SOL    HW219953   3.407   1.293   9.892 -0.2303 -2.5343  1.5678
 2773SOL     OW19954   4.302   2.256  13.821 -0.3546  0.0346 -0.0743
 2773SOL    HW119955   4.209   2.260  13.799 -0.3678  3.0683  0.6394
 2773SOL    HW219956   4.322   2.162  13.818 -0.3465  0.0981 -2.3389
 2774SOL     OW19957   0.235   4.210   1.936 -0.1225  0.2543  0.0743
 2774SOL    HW119958   0.291   4.288   1.939 -0.4401  0.5032 -0.6825
 2774SOL    HW219959   0.295   4.161   1.880  0.0681  1.5684 -0.8653
 2775SOL     OW19960   3.328   4.489   4.502 -0.0167 -0.7290  0.3497
 2775SOL    HW119961   3.337   4.399   4.534 -0.3089 -0.0619  2.2803
 2775SOL    HW219962   3.385   4.475   4.426  0.3002  0.4970  0.3686
 2776SOL     OW19963   3.973   1.583   8.887  0.1463 -0.4007  0.4374
 2776SOL    HW119964   3.967   1.661   8.833 -0.8356  0.3560  1.6305
 2776SOL    HW219965   3.886   1.577   8.926  0.0357  0.8853  0.4083
 2777SOL     OW19966   1.083   3.856  14.752 -0.5464 -0.3461  0.8529
 2777SOL    HW119967   1.000   3.904  14.749 -0.3963 -0.1409 -0.0888
 2777SOL    HW219968   1.139   3.928  14.724  0.2637 -1.1077  0.5372
 2778SOL     OW19969   2.038   1.293  16.396 -0.0218 -0.2834 -0.5806
 2778SOL    HW119970   1.999   1.229  16.455 -1.1199  0.9098 -0.0085
 2778SOL    HW219971   2.130   1.266  16.389  0.1832 -0.2051  1.6055
 2779SOL     OW19972   3.149   0.349   7.758  0.0088 -0.3399 -0.0488
 2779SOL    HW119973   3.116   0.405   7.829  0.5591  1.1807 -1.0023
 2779SOL    HW219974   3.166   0.410   7.687 -3.4580 -0.5680 -1.0472
 2780SOL     OW19975   0.401   3.664   8.540  0.1648 -0.5480 -0.2763
 2780SOL    HW119976   0.322   3.689   8.589  0.6039 -0.3541  0.3360
 2780SOL    HW219977   0.404   3.749   8.497  1.5999 -1.0176 -1.0988
 2781SOL     OW19978   4.586   4.108   2.109  0.0766 -0.4449  0.0242
 2781SOL    HW119979   4.674   4.136   2.136  0.2713 -0.2274 -0.8451
 2781SOL    HW219980   4.533   4.150   2.176 -0.0793 -0.6766  0.0472
 2782SOL     OW19981   4.471   0.145  17.350  0.1872  0.4085 -0.3010
 2782SOL    HW119982   4.388   0.189  17.368  0.5707  0.7427  0.6545
 2782SOL    HW219983   4.437   0.082  17.287  1.9737 -1.3799  0.5085
 2783SOL     OW19984   3.565   0.133   2.119  0.1233  0.4355 -0.4234
 2783SOL    HW119985   3.496   0.068   2.128  1.1451 -0.6286 -0.2127
 2783SOL    HW219986   3.516   0.193   2.063 -1.4794 -0.3257  0.1748
 2784SOL     OW19987   4.513   3.597  12.839 -0.2547  0.2153  0.3072
 2784SOL    HW119988   4.471   3.644  12.911 -0.0018  2.8068 -1.2408
 2784SOL    HW219989   4.605   3.608  12.867  0.3964  0.4087 -1.9580
 2785SOL     OW19990   0.426   3.831   7.149 -0.0236  0.8700  0.0491
 2785SOL    HW119991   0.492   3.789   7.094 -0.6794 -0.8163  0.5357
 2785SOL    HW219992   0.360   3.762   7.139 -1.1716  2.1532 -1.1657
 2786SOL     OW19993   4.402   2.487  16.842 -0.0304 -0.4621  0.3410
 2786SOL    HW119994   4.421   2.456  16.930  0.2363 -1.0039  0.0930
 2786SOL    HW219995   4.395   2.403  16.797 -0.2957 -0.4727  0.3994
 2787SOL     OW19996   0.168   1.409   3.744  0.5593  0.0197  0.1717
 2787SOL    HW119997   0.088   1.440   3.701  0.2544  1.1268  1.5296
 2787SOL    HW219998   0.219   1.490   3.753  0.1547  0.4393 -1.2923
 2788SOL     OW19999   1.184   4.544   3.370  0.0762 -0.1775 -0.0671
 2788SOL    HW120000   1.226   4.565   3.287  0.1307  1.2334  0.3158
 2788SOL    HW220001   1.254   4.495   3.414 -1.5749 -0.6738  2.0110
 2789SOL     OW20002   3.399   2.307   5.771  0.2580  0.1797 -0.2372
 2789SOL    HW120003   3.400   2.385   5.715  2.9413  0.0344 -0.4289
 2789SOL    HW220004   3.481   2.262   5.750  2.2954  2.7144  2.2316
 2790SOL     OW20005   2.403   2.877  14.594  0.1255 -0.3308 -0.1135
 2790SOL    HW120006   2.422   2.848  14.683 -1.4241 -0.0616  0.2929
 2790SOL    HW220007   2.329   2.823  14.565 -0.3827 -1.0103  2.5109
 2791SOL     OW20008   3.791   2.756   7.805  0.5231  0.2303 -0.0588
 2791SOL    HW120009   3.834   2.780   7.723  0.2658 -0.5239 -0.4189
 2791SOL    HW220010   3.792   2.844   7.843 -1.4234 -0.1087  0.7659
 2792SOL     OW20011   2.716   1.058   6.966  0.2782  0.1222 -0.1623
 2792SOL    HW120012   2.665   1.038   7.044  1.5736  1.9843  1.1685
 2792SOL    HW220013   2.646   1.032   6.906  0.4378 -0.5494 -0.0579
 2793SOL     OW20014   1.154   3.374   4.892  0.3829  0.3419 -0.7102
 2793SOL    HW120015   1.214   3.302   4.873  1.7235  0.6563  2.2573
 2793SOL    HW220016   1.173   3.393   4.984  0.0110 -2.1371 -0.1151
 2794SOL     OW20017   2.281   2.773   7.223 -0.5015 -0.4126  0.3312
 2794SOL    HW120018   2.198   2.764   7.270 -0.6064  0.4046  0.3029
 2794SOL    HW220019   2.325   2.845   7.270 -2.4503  0.3970  0.9435
 2795SOL     OW20020   2.580   4.454   6.620 -0.2198 -0.4316 -0.4119
 2795SOL    HW120021   2.608   4.367   6.647  0.8099 -0.3411 -1.1720
 2795SOL    HW220022   2.656   4.489   6.574 -0.8609  0.7890 -0.5517
 2796SOL     OW20023   2.074   1.286  14.303  0.1117  0.4875 -0.9922
 2796SOL    HW120024   2.107   1.353  14.244  1.6219  0.0968 -0.5754
 2796SOL    HW220025   2.134   1.212  14.312  1.1206  1.5195  0.8152
 2797SOL     OW20026   3.638   0.409   2.011  0.5530  0.1059 -0.5892
 2797SOL    HW120027   3.556   0.431   2.054  0.0764 -0.0771 -1.3970
 2797SOL    HW220028   3.615   0.341   1.949  0.0428  2.2251 -2.7481
 2798SOL     OW20029   2.297   3.761   5.579  0.2465 -0.3974  0.2381
 2798SOL    HW120030   2.342   3.748   5.662 -0.0785  0.1763  0.5063
 2798SOL    HW220031   2.306   3.855   5.565  2.4792 -0.6176  0.2075
 2799SOL     OW20032   0.188   1.096   2.975 -0.3547  0.6945 -0.1323
 2799SOL    HW120033   0.124   1.031   2.947 -0.1669 -0.7405  2.8136
 2799SOL    HW220034   0.208   1.070   3.065  0.7215  0.8474 -0.3210
 2800SOL     OW20035   3.071   3.484   9.171  0.1598 -0.7694  0.1454
 2800SOL    HW120036   2.979   3.496   9.196  0.6420  3.9287 -0.2099
 2800SOL    HW220037   3.092   3.575   9.148  0.9112 -1.3600 -1.4615
 2801SOL     OW20038   1.655   0.945   6.857  0.2091  0.0447 -0.3052
 2801SOL    HW120039   1.628   1.012   6.794  0.2052 -1.6332 -2.0884
 2801SOL    HW220040   1.612   0.867   6.823  2.9280 -0.8174 -1.7795
 2802SOL     OW20041   3.322   3.357   9.663  0.0549  0.1042 -0.1594
 2802SOL    HW120042   3.344   3.388   9.751  2.1186  0.8655 -0.9534
 2802SOL    HW220043   3.314   3.261   9.669  1.4450 -0.0769 -1.3031
 2803SOL     OW20044   3.906   1.363   2.559  0.3696  0.1359 -0.3451
 2803SOL    HW120045   3.887   1.277   2.596  0.7881 -0.3315 -1.2126
 2803SOL    HW220046   3.994   1.350   2.523  0.7920 -0.1316  0.7862
 2804SOL     OW20047   3.260   2.308  12.728 -0.3905  0.4140 -0.4162
 2804SOL    HW120048   3.226   2.320  12.817  1.4256  0.8184  0.2345
 2804SOL    HW220049   3.351   2.317  12.757 -0.5539  0.1358  0.1923
 2805SOL     OW20050   4.388   4.176   7.658 -0.0139  0.4451 -0.5225
 2805SOL    HW120051   4.380   4.271   7.666  0.4243  0.6955 -2.9861
 2805SOL    HW220052   4.321   4.148   7.719 -0.1251  0.9770 -0.4042
 2806SOL     OW20053   4.553   0.304   9.172  0.7858  0.7594 -0.1837
 2806SOL    HW120054   4.496   0.320   9.096 -0.9800 -3.8103  0.2031
 2806SOL    HW220055   4.629   0.274   9.122  0.3787 -0.6705  0.0517
 2807SOL     OW20056   3.826   2.990   4.242  0.1003  0.0459  1.0077
 2807SOL    HW120057   3.824   2.981   4.337  0.0128  0.4022  1.0383
 2807SOL    HW220058   3.898   3.052   4.238 -1.6428  1.9987  0.0147
 2808SOL     OW20059   1.002   2.372  13.186 -0.4395  0.0207 -0.2913
 2808SOL    HW120060   0.921   2.329  13.215 -0.3946 -0.1699 -0.4539
 2808SOL    HW220061   1.046   2.300  13.143 -1.6278  0.2876 -1.9399
 2809SOL     OW20062   3.382   2.794   0.798  0.6831 -0.3747  0.2101
 2809SOL    HW120063   3.466   2.771   0.759 -0.2950 -2.3664 -0.6837
 2809SOL    HW220064   3.410   2.876   0.840  0.5100 -0.0873 -0.2440
 2810SOL     OW20065   3.220   0.301   4.579 -0.2242 -0.1671  0.3116
 2810SOL    HW120066   3.197   0.271   4.491  1.2049 -0.3476 -0.0148
 2810SOL    HW220067   3.199   0.394   4.581 -1.4193 -0.4505  0.7471
 2811SOL     OW20068   0.390   2.723  15.781 -0.3333 -0.5795 -0.8486
 2811SOL    HW120069   0.321   2.764  15.834  1.0460 -1.2944  1.5316
 2811SOL    HW220070   0.391   2.777  15.702  0.2588 -1.8092 -1.6690
 2812SOL     OW20071   2.541   0.422   1.672  0.0442 -0.2870 -0.6751
 2812SOL    HW120072   2.483   0.458   1.605  2.0648  2.5721 -0.8585
 2812SOL    HW220073   2.559   0.334   1.640 -1.6103 -0.5763 -0.8571
 2813SOL     OW20074   4.178   1.814   7.271  0.0955 -0.0186 -0.2429
 2813SOL    HW120075   4.196   1.908   7.274 -0.6805  0.0880  1.2193
 2813SOL    HW220076   4.207   1.783   7.356  0.9308 -0.2188 -0.6034
 2814SOL     OW20077   0.943   2.099   9.566 -0.3013 -0.2745  0.0214
 2814SOL    HW120078   0.987   2.183   9.575 -0.5556 -0.0999 -0.3373
 2814SOL    HW220079   1.017   2.054   9.526 -0.7896 -3.3249  2.6028
 2815SOL     OW20080   2.479   2.262  13.165  0.3257  0.2977  0.1078
 2815SOL    HW120081   2.433   2.234  13.086  2.6016  1.0095 -1.4896
 2815SOL    HW220082   2.453   2.202  13.235  2.1008 -1.2892 -0.6000
 2816SOL     OW20083   1.631   2.249   9.556  0.0241  0.3035  0.4334
 2816SOL    HW120084   1.716   2.293   9.564 -0.0560  0.9013 -1.7731
 2816SOL    HW220085   1.656   2.158   9.567  1.5396  0.6164 -0.3186
 2817SOL     OW20086   3.669   0.334   3.016 -0.4363 -0.3224  0.3362
 2817SOL    HW120087   3.630   0.250   3.040 -0.2110 -0.0694  1.5881
 2817SOL    HW220088   3.676   0.377   3.101  1.7017 -0.7988  0.4154
 2818SOL     OW20089   3.184   1.221   2.238  0.0747  0.1530  0.4399
 2818SOL    HW120090   3.276   1.218   2.265  0.3785 -0.3047 -0.6528
 2818SOL    HW220091   3.157   1.131   2.256  1.4111 -0.3354  0.0554
 2819SOL     OW20092   2.535   1.405  17.092 -0.1533  0.5589  0.4926
 2819SOL    HW120093   2.529   1.317  17.129 -1.4074  0.4328 -0.0179
 2819SOL    HW220094   2.442   1.424  17.087 -0.4182 -0.5116  1.3550
 2820SOL     OW20095   3.032   2.262   5.485  0.2041  0.3671  0.6520
 2820SOL    HW120096   3.108   2.257   5.426 -1.3629 -2.8673 -1.1072
 2820SOL    HW220097   3.006   2.354   5.474  2.7322  1.2463  2.0594
 2821SOL     OW20098   1.270   2.428   9.400  0.6635  0.2598  0.1127
 2821SOL    HW120099   1.365   2.432   9.394  0.8374 -0.8689  2.1895
 2821SOL    HW220100   1.240   2.494   9.337 -0.6298 -0.4102  0.0273
 2822SOL     OW20101   0.336   1.741   5.366 -0.2392 -0.6530  0.6863
 2822SOL    HW120102   0.391   1.669   5.398 -0.8021 -1.0863  0.6784
 2822SOL    HW220103   0.389   1.783   5.298  1.4752 -0.9357  1.8595
 2823SOL     OW20104   4.315   0.648  11.398  0.0626 -0.5660  0.0933
 2823SOL    HW120105   4.394   0.594  11.403  1.3737  1.2242 -1.4268
 2823SOL    HW220106   4.304   0.656  11.493 -2.1294 -1.7124 -0.0706
 2824SOL     OW20107   2.473   1.089   5.306  1.1677 -0.5256 -0.8908
 2824SOL    HW120108   2.415   1.021   5.272  0.7571 -0.2169 -0.8111
 2824SOL    HW220109   2.521   1.040   5.372 -2.1502 -1.3261  0.9277
 2825SOL     OW20110   0.054   3.327   7.212  0.2041  0.5425 -0.2694
 2825SOL    HW120111   0.120   3.359   7.273 -0.7565 -2.3382  2.3054
 2825SOL    HW220112   0.101   3.254   7.172  0.3834 -0.3440  1.5249
 2826SOL     OW20113   3.020   3.265   9.436  0.1576 -0.0763  0.3400
 2826SOL    HW120114   2.969   3.204   9.488  0.6154 -0.0880  0.7713
 2826SOL    HW220115   2.982   3.350   9.461  1.4059 -0.1809  2.5060
 2827SOL     OW20116   4.492   1.799   5.531  0.5043 -0.4121 -0.0434
 2827SOL    HW120117   4.455   1.853   5.461  1.0787  0.6156  0.4645
 2827SOL    HW220118   4.454   1.842   5.607 -0.1234 -1.8397  0.4434
 2828SOL     OW20119   2.659   3.133  16.707 -0.6654 -0.3759  0.2078
 2828SOL    HW120120   2.714   3.189  16.653 -1.6217 -1.9441 -2.3937
 2828SOL    HW220121   2.576   3.165  16.673 -0.5346  0.4308  0.6481
 2829SOL     OW20122   0.980   2.535   6.630 -0.6680 -0.2059  0.2407
 2829SOL    HW120123   1.000   2.483   6.552 -1.5468  0.6304 -0.5502
 2829SOL    HW220124   0.996   2.476   6.703  1.1880 -0.8538 -0.7200
 2830SOL     OW20125   1.109   3.947  12.576 -0.0986  0.8352  0.5336
 2830SOL    HW120126   1.121   4.009  12.504  1.9552  0.6421  0.6927
 2830SOL    HW220127   1.048   3.996  12.631 -0.5282  0.2826  0.5446
 2831SOL     OW20128   0.362   4.540   6.237  0.1524 -0.2662  0.2457
 2831SOL    HW120129   0.268   4.541   6.217  0.0923 -0.4731  0.5204
 2831SOL    HW220130   0.364   4.518   6.330  0.1631 -0.9946  0.0724
 2832SOL     OW20131   4.412   4.731   3.116 -0.0622  0.3689 -0.3686
 2832SOL    HW120132   4.507   4.723   3.117 -0.0074  1.0431 -0.4606
 2832SOL    HW220133   4.390   0.080   3.092 -1.6577  0.0716 -0.0237
 2833SOL     OW20134   1.635   0.480   1.049 -0.2244 -0.1729 -0.1567
 2833SOL    HW120135   1.678   0.507   1.130  3.2959  0.2928 -2.1608
 2833SOL    HW220136   1.574   0.415   1.083 -1.5020  2.2581  2.1294
 2834SOL     OW20137   1.691   2.865   8.485 -0.4698  0.1217  0.0260
 2834SOL    HW120138   1.744   2.863   8.405  1.9991  0.6684  1.6447
 2834SOL    HW220139   1.681   2.772   8.506  0.6164  0.2051  0.9097
 2835SOL     OW20140   2.145   4.191  15.063 -0.2717  0.2243 -0.4319
 2835SOL    HW120141   2.139   4.277  15.103 -0.8140 -0.5475  1.1820
 2835SOL    HW220142   2.185   4.219  14.981  0.3680 -3.2721 -1.3179
 2836SOL     OW20143   3.550   0.082   5.855  0.3865 -0.1711  0.4358
 2836SOL    HW120144   3.640   0.112   5.870  0.8849 -0.8235 -1.2645
 2836SOL    HW220145   3.520   0.064   5.944  2.1211  1.0763  1.2796
 2837SOL     OW20146   0.664   3.666   8.518 -0.3330  0.4287 -0.3634
 2837SOL    HW120147   0.672   3.623   8.433  0.7562 -0.3553  0.1286
 2837SOL    HW220148   0.572   3.691   8.522 -0.1244  1.6198 -2.8344
 2838SOL     OW20149   0.655   4.447  10.127  0.2736 -0.0288  0.1877
 2838SOL    HW120150   0.560   4.439  10.118  0.2319 -3.0256  3.3344
 2838SOL    HW220151   0.672   4.430  10.220  1.8378  1.1842  0.1317
 2839SOL     OW20152   0.014   2.743   8.278  0.4897  0.7018 -0.0031
 2839SOL    HW120153   0.020   2.673   8.342  0.7240 -0.5240 -1.3629
 2839SOL    HW220154   4.670   2.730   8.233  0.1195  0.9939  0.6027
 2840SOL     OW20155   2.155   2.028   8.767  0.2633  0.0277 -0.0391
 2840SOL    HW120156   2.095   2.065   8.702 -1.1592 -0.4664  0.9876
 2840SOL    HW220157   2.113   1.948   8.797 -0.2850 -0.5203 -2.2772
 2841SOL     OW20158   3.464   1.032   6.079 -0.0967 -0.7378 -0.1589
 2841SOL    HW120159   3.438   1.116   6.116 -1.4324 -2.1151  2.0216
 2841SOL    HW220160   3.500   1.056   5.993 -3.7307  1.1902 -1.1484
 2842SOL     OW20161   4.283   4.631  16.544  0.0924  0.1962 -0.6000
 2842SOL    HW120162   4.265   4.565  16.611 -1.3690 -1.6381 -2.7903
 2842SOL    HW220163   4.378   4.630  16.537  0.0760  1.3420 -1.1544
 2843SOL     OW20164   1.012   3.153  14.494  0.1449 -0.2860  0.5023
 2843SOL    HW120165   1.079   3.202  14.447 -1.9874  1.1498 -1.0139
 2843SOL    HW220166   0.942   3.168  14.430  1.4071 -1.2979 -1.1020
 2844SOL     OW20167   2.801   0.007   1.439  0.9943  0.2181 -0.7700
 2844SOL    HW120168   2.775   4.661   1.471  0.1372  0.9718  0.5750
 2844SOL    HW220169   2.876   4.722   1.385 -0.7731 -0.7061 -2.7986
 2845SOL     OW20170   1.948   2.989   2.644  0.3579 -0.0825  0.1467
 2845SOL    HW120171   1.951   2.937   2.724 -0.3659  1.6866  1.3416
 2845SOL    HW220172   1.858   2.966   2.619  0.8249 -0.5620 -1.1065
 2846SOL     OW20173   0.987   4.341   2.336  0.2723 -0.0376  0.1194
 2846SOL    HW120174   1.056   4.363   2.273 -0.8183  1.7161 -0.4683
 2846SOL    HW220175   0.956   4.253   2.315  1.7044 -0.0156 -2.1169
 2847SOL     OW20176   0.180   1.311   2.137  0.3238 -0.3521  0.5291
 2847SOL    HW120177   0.239   1.383   2.114 -1.9037  1.6238  0.9870
 2847SOL    HW220178   0.237   1.239   2.162 -1.9005 -0.5131  5.1748
 2848SOL     OW20179   0.463   4.533   7.284  0.2239 -0.9410 -0.0786
 2848SOL    HW120180   0.394   4.524   7.350 -0.0107 -1.3422 -0.3765
 2848SOL    HW220181   0.532   4.571   7.338  0.7772  0.8980 -2.0990
 2849SOL     OW20182   1.910   2.106   9.512 -0.0221  0.2341  0.1627
 2849SOL    HW120183   1.975   2.050   9.555  0.5813  0.2378 -0.7575
 2849SOL    HW220184   1.945   2.195   9.525 -1.1581  0.4215  1.9747
 2850SOL     OW20185   2.831   3.738  10.687  0.0417  0.2725 -0.0747
 2850SOL    HW120186   2.786   3.816  10.720 -0.6724 -0.9130  1.7633
 2850SOL    HW220187   2.921   3.769  10.698 -0.4802  1.2716  1.3163
 2851SOL     OW20188   3.600   2.300   3.964 -0.1741  0.0637 -0.2672
 2851SOL    HW120189   3.629   2.368   3.904 -2.2807  0.1741 -1.1717
 2851SOL    HW220190   3.514   2.277   3.929  0.0357 -1.3179  0.1125
 2852SOL     OW20191   0.877   1.412  13.147 -0.0320  0.4574  0.1684
 2852SOL    HW120192   0.856   1.462  13.227 -0.7884 -1.3962  1.1237
 2852SOL    HW220193   0.957   1.363  13.164 -0.5287 -1.1404 -2.1948
 2853SOL     OW20194   1.420   0.688  13.938 -0.0156  0.1862 -0.2000
 2853SOL    HW120195   1.478   0.753  13.900  0.2953 -0.8827 -1.5567
 2853SOL    HW220196   1.436   0.682  14.032  1.5840 -1.4372 -0.5734
 2854SOL     OW20197   4.690   2.003   5.804  0.0796 -0.5128 -0.3604
 2854SOL    HW120198   4.643   1.936   5.753 -0.2355 -1.9238  1.8011
 2854SOL    HW220199   4.616   2.049   5.843  0.4515  2.7175 -3.4616
 2855SOL     OW20200   4.558   4.234   7.105  0.2869  0.9332 -0.5987
 2855SOL    HW120201   4.492   4.170   7.082  0.6175  0.4386 -0.1799
 2855SOL    HW220202   4.502   4.305   7.139 -1.3607 -0.4328 -0.4804
 2856SOL     OW20203   2.087   1.299   9.278 -0.4141 -0.4552  0.2984
 2856SOL    HW120204   2.134   1.304   9.194  2.1557  2.0416  1.8568
 2856SOL    HW220205   2.091   1.391   9.304  1.0158 -1.0392  2.1919
 2857SOL     OW20206   1.635   1.912  13.374 -0.1185 -0.7405  0.2410
 2857SOL    HW120207   1.623   2.000  13.410 -1.9028 -0.9412  0.1586
 2857SOL    HW220208   1.724   1.920  13.340 -0.4857 -1.3355 -0.8396
 2858SOL     OW20209   2.197   3.140  16.887  0.4130 -0.1554  0.0584
 2858SOL    HW120210   2.134   3.210  16.872  0.3181 -0.6150 -1.7363
 2858SOL    HW220211   2.150   3.078  16.831  1.9537 -1.0159 -0.2932
 2859SOL     OW20212   1.442   0.705   1.495  0.3218  0.2457 -0.0052
 2859SOL    HW120213   1.386   0.628   1.493  1.2599 -0.4560  0.2802
 2859SOL    HW220214   1.443   0.706   1.591 -0.1004 -4.1878  0.0223
 2860SOL     OW20215   1.533   4.095   1.305  0.2097 -0.1702 -0.1549
 2860SOL    HW120216   1.467   4.121   1.241  1.2771  0.4519 -1.0023
 2860SOL    HW220217   1.533   4.173   1.361  5.2850  0.0207 -0.3941
 2861SOL     OW20218   0.988   2.098   3.128 -0.0219  0.4953 -0.1066
 2861SOL    HW120219   1.055   2.129   3.067 -0.0154 -0.5380 -0.6241
 2861SOL    HW220220   0.987   2.011   3.089  1.0616  0.0279  0.9145
 2862SOL     OW20221   0.703   0.392   9.699 -0.0339  0.3302  0.0799
 2862SOL    HW120222   0.700   0.431   9.612 -1.6255  2.2418  1.0094
 2862SOL    HW220223   0.694   0.298   9.679 -0.8787  0.6933 -1.2077
 2863SOL     OW20224   2.302   2.495  13.486  0.2578 -0.4751  0.0346
 2863SOL    HW120225   2.354   2.497  13.405  1.0392  1.7596  0.5791
 2863SOL    HW220226   2.338   2.574  13.527  0.6060 -0.4665 -0.2881
 2864SOL     OW20227   2.274   1.296   9.085  0.1518  0.2378  0.3311
 2864SOL    HW120228   2.211   1.312   9.015 -0.6828  0.5821  1.1544
 2864SOL    HW220229   2.353   1.340   9.054 -0.6965  0.0305 -2.0643
 2865SOL     OW20230   2.828   3.016   0.066  0.1935 -0.2804 -0.5140
 2865SOL    HW120231   2.829   2.972  17.740 -0.8929 -0.9539 -0.1774
 2865SOL    HW220232   2.732   3.019   0.072  0.2331 -0.4407  0.2372
 2866SOL     OW20233   3.528   2.351   2.079 -0.1523 -0.0292 -0.2668
 2866SOL    HW120234   3.569   2.332   1.995 -0.8096 -0.4347 -0.4936
 2866SOL    HW220235   3.589   2.309   2.141 -0.2711 -1.0303 -0.8277
 2867SOL     OW20236   3.634   3.666   4.848  0.2068  0.1625 -0.2463
 2867SOL    HW120237   3.613   3.619   4.929 -0.4279 -1.8198 -1.5473
 2867SOL    HW220238   3.554   3.645   4.799  1.1819 -1.5284 -1.1214
 2868SOL     OW20239   2.651   2.021   0.235 -0.6200  0.6671  0.1577
 2868SOL    HW120240   2.637   2.010   0.141  1.3374 -1.3460  0.0924
 2868SOL    HW220241   2.722   2.084   0.238 -0.7689  0.9669 -2.8774
 2869SOL     OW20242   1.313   3.654  17.724 -0.1341 -0.1438 -0.1969
 2869SOL    HW120243   1.348   3.736  17.758 -0.7408  0.2543 -0.5419
 2869SOL    HW220244   1.256   3.626   0.037  0.6149 -1.5432 -0.1382
 2870SOL     OW20245   2.482   2.364  16.324  0.3091 -0.7968  0.8386
 2870SOL    HW120246   2.485   2.456  16.296  1.1101 -0.5394  1.7372
 2870SOL    HW220247   2.504   2.314  16.245 -0.3418  0.8173 -0.3564
 2871SOL     OW20248   4.440   1.334   0.560 -0.0548 -0.4715  0.2085
 2871SOL    HW120249   4.461   1.247   0.527 -0.0838 -0.4289  0.0746
 2871SOL    HW220250   4.356   1.362   0.522  1.2239  2.0040 -0.8366
 2872SOL     OW20251   3.750   0.694   6.071  0.0282 -0.3699  0.3966
 2872SOL    HW120252   3.774   0.602   6.071  0.8235 -0.1724 -2.7307
 2872SOL    HW220253   3.656   0.674   6.071 -0.0200 -0.1866 -0.8796
 2873SOL     OW20254   3.202   3.208   2.349 -0.6137 -0.0854  0.1377
 2873SOL    HW120255   3.164   3.187   2.264  0.6404  0.1974 -0.4992
 2873SOL    HW220256   3.129   3.212   2.410  2.3102  0.6614  3.6145
 2874SOL     OW20257   3.581   3.199   3.059  0.7536 -0.2769 -0.1047
 2874SOL    HW120258   3.486   3.185   3.054  0.5375  0.8003  0.8173
 2874SOL    HW220259   3.591   3.208   3.154 -0.5584 -0.0086  0.0092
 2875SOL     OW20260   2.765   3.034   7.649  0.1390 -0.6857 -0.8138
 2875SOL    HW120261   2.746   3.018   7.742 -2.0860  2.5645 -0.7127
 2875SOL    HW220262   2.679   3.032   7.608 -0.2316  1.7787 -0.1730
 2876SOL     OW20263   0.901   1.169   4.356 -0.1575  0.1813  0.3057
 2876SOL    HW120264   0.818   1.170   4.406 -1.3328  2.8582 -1.7113
 2876SOL    HW220265   0.872   1.145   4.268  0.7475 -1.9259  0.5891
 2877SOL     OW20266   2.373   3.232   2.018  0.1776 -0.2388  0.7295
 2877SOL    HW120267   2.365   3.221   2.113  0.6335  2.3119  1.0665
 2877SOL    HW220268   2.451   3.288   2.017 -0.6311  0.8732 -0.2708
 2878SOL     OW20269   3.674   0.878   8.293 -0.2394  0.5137 -0.0711
 2878SOL    HW120270   3.696   0.818   8.222  0.0553 -0.9225  1.2177
 2878SOL    HW220271   3.707   0.955   8.247  1.2386 -0.6148 -0.8902
 2879SOL     OW20272   0.342   1.664   5.048 -0.1034 -0.3595 -0.0489
 2879SOL    HW120273   0.429   1.691   5.079  0.6971  0.0547 -2.6907
 2879SOL    HW220274   0.288   1.738   5.074  0.0662 -0.2056 -0.1332
 2880SOL     OW20275   4.169   2.507  15.378  0.0661 -0.4803  0.4883
 2880SOL    HW120276   4.204   2.592  15.350  0.6796 -0.9692 -0.2183
 2880SOL    HW220277   4.242   2.460  15.418  0.8320  1.7700  1.7123
 2881SOL     OW20278   3.040   2.947   2.953  0.0641  0.3332  0.5278
 2881SOL    HW120279   3.115   2.998   2.983  0.3388  0.7984 -0.9689
 2881SOL    HW220280   3.056   2.947   2.859  2.1326  4.0057  0.8527
 2882SOL     OW20281   4.068   0.873   8.799  0.0953  0.6992  0.4696
 2882SOL    HW120282   4.063   0.939   8.730  0.6640 -0.2892 -0.4988
 2882SOL    HW220283   4.044   0.919   8.880 -0.3936  1.1832  0.0451
 2883SOL     OW20284   4.019   2.131   5.685 -0.2986 -0.4333 -0.0706
 2883SOL    HW120285   3.974   2.132   5.600 -0.2944 -1.1430 -0.0733
 2883SOL    HW220286   4.000   2.221   5.711  0.4691 -0.6369  1.1809
 2884SOL     OW20287   2.065   2.377   2.242 -0.0875 -0.1201 -0.5117
 2884SOL    HW120288   2.120   2.425   2.304  1.3981 -1.2603 -0.9456
 2884SOL    HW220289   2.124   2.314   2.201  0.1806  0.2453 -0.6855
 2885SOL     OW20290   0.551   2.389   6.238  0.0453  0.3509  0.2597
 2885SOL    HW120291   0.540   2.480   6.264  0.5311  0.4454  0.1228
 2885SOL    HW220292   0.547   2.401   6.144  0.2794 -1.9928 -0.0478
 2886SOL     OW20293   1.170   0.312   8.227  0.5061  0.9049 -0.5067
 2886SOL    HW120294   1.125   0.245   8.175  1.7274 -1.5009  1.5630
 2886SOL    HW220295   1.179   0.373   8.153  0.8169 -0.0522 -1.2537
 2887SOL     OW20296   0.775   2.839   5.650  0.0953 -0.0907  0.5578
 2887SOL    HW120297   0.705   2.776   5.665 -1.3875  1.0098 -1.6387
 2887SOL    HW220298   0.811   2.797   5.572  0.8547 -2.0596  1.9787
 2888SOL     OW20299   2.411   3.994  11.752  0.5920 -0.0642 -0.4825
 2888SOL    HW120300   2.388   4.078  11.792 -0.6520 -0.5316 -0.1897
 2888SOL    HW220301   2.410   3.940  11.832 -1.3069  1.6575  0.6504
 2889SOL     OW20302   1.836   4.393  13.732  0.0983 -0.5841  0.0551
 2889SOL    HW120303   1.817   4.451  13.659 -1.5768 -0.1082  0.8769
 2889SOL    HW220304   1.918   4.352  13.703  0.5644  0.4691 -0.1062
 2890SOL     OW20305   3.433   4.418  16.661  0.2786 -0.2717  0.3131
 2890SOL    HW120306   3.382   4.493  16.692  1.9240  1.6036 -1.4814
 2890SOL    HW220307   3.363   4.353  16.659  1.6693 -1.7780  0.4795
 2891SOL     OW20308   3.645   2.839   9.002 -0.4914  0.5295 -0.3900
 2891SOL    HW120309   3.651   2.749   9.034  1.7211  1.0424  0.6006
 2891SOL    HW220310   3.590   2.822   8.925 -0.5612 -0.1853 -0.1851
 2892SOL     OW20311   4.133   1.072  17.640  0.1553 -0.5899 -0.0045
 2892SOL    HW120312   4.072   1.065  17.566  0.4208  0.5528 -0.3243
 2892SOL    HW220313   4.077   1.101  17.712  1.3808  1.0403  0.2735
 2893SOL     OW20314   0.849   2.796   9.426  0.2874 -0.3235 -0.2249
 2893SOL    HW120315   0.826   2.724   9.484 -1.0951 -0.8161 -1.3825
 2893SOL    HW220316   0.893   2.749   9.356  0.7391 -2.4434  1.4990
 2894SOL     OW20317   2.325   1.410  10.412  0.3769  0.0402  0.2339
 2894SOL    HW120318   2.309   1.496  10.452 -1.6086 -0.2074 -0.0343
 2894SOL    HW220319   2.251   1.369  10.456  0.1515 -0.8390 -0.9717
 2895SOL     OW20320   2.485   4.231  17.160 -0.0273 -0.0633  0.0375
 2895SOL    HW120321   2.512   4.312  17.118 -1.6477  0.5291  0.1333
 2895SOL    HW220322   2.391   4.249  17.159 -0.8333 -4.3876 -2.0822
 2896SOL     OW20323   2.289   4.126   3.345  0.8615  0.0083  0.0150
 2896SOL    HW120324   2.288   4.221   3.355  0.2990  0.2785 -2.4733
 2896SOL    HW220325   2.264   4.113   3.436 -5.1958 -2.6884 -2.0178
 2897SOL     OW20326   2.619   3.922  10.599  0.3561 -0.3091 -0.2477
 2897SOL    HW120327   2.536   3.898  10.639 -0.6579 -2.1435 -3.4938
 2897SOL    HW220328   2.626   4.018  10.594 -2.6564  0.0054  1.3538
 2898SOL     OW20329   2.388   0.084   8.193  0.0762  0.4009 -0.1898
 2898SOL    HW120330   2.400   0.114   8.103  3.0462 -0.2857 -0.0489
 2898SOL    HW220331   2.442   0.004   8.191 -0.7495 -0.1342 -0.9485
 2899SOL     OW20332   2.130   0.814  16.811 -0.4464 -0.0878 -0.2921
 2899SOL    HW120333   2.163   0.728  16.838 -0.6792  0.0914  0.5529
 2899SOL    HW220334   2.063   0.789  16.748  1.6497  1.9245 -3.3523
 2900SOL     OW20335   0.250   1.590   4.168 -0.0513 -0.3087 -0.1732
 2900SOL    HW120336   0.241   1.596   4.263  1.4914  0.5723 -0.0804
 2900SOL    HW220337   0.215   1.673   4.135  2.6780  0.5270 -0.9466
 2901SOL     OW20338   4.606   0.687   7.943 -0.0509 -0.1643  0.1107
 2901SOL    HW120339   4.514   0.661   7.938 -0.2993  0.2710  2.2290
 2901SOL    HW220340   4.610   0.722   8.032  2.1258  1.7705 -0.7588
 2902SOL     OW20341   0.587   2.267  15.715  0.1808  0.1695  0.0362
 2902SOL    HW120342   0.550   2.316  15.788  0.0113 -0.1952  0.1991
 2902SOL    HW220343   0.597   2.346  15.663 -2.3628  1.1322  1.0485
 2903SOL     OW20344   4.035   2.228   9.484  0.3050  0.8159 -0.4046
 2903SOL    HW120345   3.981   2.201   9.410 -1.3746 -0.2187  1.1959
 2903SOL    HW220346   4.122   2.195   9.462 -0.5569 -1.9855  0.4020
 2904SOL     OW20347   0.463   2.162   7.916  0.0882 -0.0237  0.9732
 2904SOL    HW120348   0.383   2.117   7.944 -0.1463 -0.2578 -0.0652
 2904SOL    HW220349   0.526   2.114   7.970  0.2114 -1.2064 -0.2310
 2905SOL     OW20350   3.144   2.939   4.497  0.1277  0.1341 -0.5759
 2905SOL    HW120351   3.082   2.978   4.436 -1.7844 -0.9510  0.6996
 2905SOL    HW220352   3.077   2.907   4.557  0.5067  0.6107  0.1036
 2906SOL     OW20353   3.479   3.061   5.222 -0.0014 -0.2967 -0.2602
 2906SOL    HW120354   3.481   3.120   5.146 -0.6454  0.6802  0.4790
 2906SOL    HW220355   3.389   3.065   5.253 -0.5587 -0.9411 -1.7834
 2907SOL     OW20356   1.936   1.486   4.947 -0.3223  0.6015 -0.4162
 2907SOL    HW120357   1.877   1.448   5.011 -1.1548  2.0757 -0.3199
 2907SOL    HW220358   1.904   1.465   4.859  2.2929 -0.2514 -1.1869
 2908SOL     OW20359   3.591   0.250   8.433  0.0214  0.6975 -0.2052
 2908SOL    HW120360   3.675   0.236   8.388 -0.3198 -3.7844  0.5413
 2908SOL    HW220361   3.587   0.184   8.502 -0.5857  3.0939  2.0536
 2909SOL     OW20362   2.512   3.856  13.298  0.4828  0.4620  0.1687
 2909SOL    HW120363   2.459   3.919  13.248 -0.1907 -0.2695 -0.0488
 2909SOL    HW220364   2.482   3.771  13.265  0.6584  0.8380 -0.9709
 2910SOL     OW20365   4.363   1.119   6.168 -0.3284  0.4932 -0.1310
 2910SOL    HW120366   4.428   1.159   6.111  0.9134  1.2205  1.7908
 2910SOL    HW220367   4.293   1.102   6.105 -0.0081 -0.4112 -0.2347
 2911SOL     OW20368   0.492   0.330   3.168  0.5496  1.0872 -0.2098
 2911SOL    HW120369   0.422   0.376   3.213 -0.8879 -1.7196  0.3658
 2911SOL    HW220370   0.455   0.267   3.106 -0.1733  0.8045  0.5190
 2912SOL     OW20371   2.334   2.790   3.562 -0.0345 -0.1872 -0.7096
 2912SOL    HW120372   2.380   2.740   3.629 -4.0952  0.1202  2.3175
 2912SOL    HW220373   2.254   2.810   3.610  1.6093  0.8677  1.6545
 2913SOL     OW20374   2.932   3.334  11.976  0.2999  0.3726 -0.2660
 2913SOL    HW120375   2.861   3.349  11.913  2.2551 -0.3672 -2.6788
 2913SOL    HW220376   3.016   3.348  11.933 -0.9476  1.7901 -2.2632
 2914SOL     OW20377   3.058   2.342   7.530  0.1585  0.2126 -0.0990
 2914SOL    HW120378   3.022   2.430   7.526 -1.3317 -0.3796  0.3730
 2914SOL    HW220379   3.003   2.285   7.477 -0.6470  1.6430 -0.8048
 2915SOL     OW20380   3.740   2.521   5.628 -0.5361 -0.6496  0.0919
 2915SOL    HW120381   3.716   2.607   5.593 -0.6879 -0.6128  0.2887
 2915SOL    HW220382   3.749   2.541   5.722 -0.4448  0.9622 -0.2679
 2916SOL     OW20383   0.180   2.024   3.634 -0.1391  0.1344 -0.5253
 2916SOL    HW120384   0.194   2.012   3.541  0.8704 -1.3387 -0.1712
 2916SOL    HW220385   0.238   2.100   3.645 -0.9119  0.5577  0.7718
 2917SOL     OW20386   3.629   1.334   3.964 -0.0950 -0.1065 -0.2266
 2917SOL    HW120387   3.614   1.287   4.046 -0.8226 -3.0978 -2.0937
 2917SOL    HW220388   3.650   1.255   3.915  0.7615 -0.9355  1.4833
 2918SOL     OW20389   2.794   3.876  10.384 -0.4160  0.0473 -0.2232
 2918SOL    HW120390   2.869   3.925  10.417 -0.2479 -0.8055  0.6893
 2918SOL    HW220391   2.732   3.881  10.458 -1.5414  1.1660 -1.2501
 2919SOL     OW20392   2.588   2.038   4.685 -0.7572 -0.4288 -0.6053
 2919SOL    HW120393   2.666   2.005   4.729 -0.3885  0.5244 -0.5606
 2919SOL    HW220394   2.527   1.999   4.749  1.1668  0.7952  1.9677
 2920SOL     OW20395   1.594   3.017   5.818 -0.0372 -0.0220 -0.0806
 2920SOL    HW120396   1.637   2.949   5.766  0.3868 -1.0517  1.6274
 2920SOL    HW220397   1.528   2.963   5.860  0.7152 -1.4295 -0.7163
 2921SOL     OW20398   3.470   4.031   5.936  0.3881 -0.0515 -0.3796
 2921SOL    HW120399   3.543   4.064   5.987 -0.9901  0.9878  0.9250
 2921SOL    HW220400   3.495   4.056   5.847 -1.6526  1.5635 -0.5041
 2922SOL     OW20401   1.769   0.483   7.492  0.5019  0.0401 -0.0915
 2922SOL    HW120402   1.812   0.440   7.419 -1.0516 -1.6258 -0.0106
 2922SOL    HW220403   1.747   0.412   7.553 -0.2479  0.5817  0.2685
 2923SOL     OW20404   1.504   0.114   6.874 -0.1001 -0.0840 -0.1954
 2923SOL    HW120405   1.419   0.147   6.900 -0.1628 -0.8038  0.5090
 2923SOL    HW220406   1.488   0.020   6.882  1.3157 -0.2620  0.5555
 2924SOL     OW20407   2.151   2.461  17.145 -0.2504 -0.1855 -0.1758
 2924SOL    HW120408   2.236   2.418  17.142 -0.0175  0.2266  0.5166
 2924SOL    HW220409   2.148   2.501  17.058 -0.6870  0.7066  0.2434
 2925SOL     OW20410   0.632   0.770   6.484 -0.3572 -0.4559 -0.0652
 2925SOL    HW120411   0.677   0.756   6.400  1.3694  1.0693  0.6151
 2925SOL    HW220412   0.570   0.697   6.488  0.9141 -1.5070  0.6397
 2926SOL     OW20413   2.208   4.541  17.038 -0.3994 -0.4981 -0.5360
 2926SOL    HW120414   2.198   4.449  17.062 -0.1084 -0.1690  0.8674
 2926SOL    HW220415   2.133   4.536  16.979 -1.1619 -1.1476  0.4813
 2927SOL     OW20416   4.100   4.373   7.528 -0.1698 -0.3358 -0.1513
 2927SOL    HW120417   4.057   4.339   7.606 -2.9347  0.4296 -1.3204
 2927SOL    HW220418   4.024   4.405   7.478 -0.0731  3.1260  1.9619
 2928SOL     OW20419   3.361   2.365   9.501  0.2055  0.1745 -0.3286
 2928SOL    HW120420   3.406   2.434   9.550 -0.5898  0.9447 -0.6643
 2928SOL    HW220421   3.326   2.430   9.439  0.5527 -0.4662 -1.1982
 2929SOL     OW20422   2.163   0.196  15.825  0.2177  0.1516  0.1308
 2929SOL    HW120423   2.102   0.252  15.776  1.6485 -1.1267 -3.1028
 2929SOL    HW220424   2.227   0.172  15.758  0.1723 -2.2899  0.9970
 2930SOL     OW20425   4.220   0.965   2.316 -1.0175 -0.4116  0.1750
 2930SOL    HW120426   4.312   0.985   2.299 -1.7726  2.3451 -0.5279
 2930SOL    HW220427   4.218   0.879   2.274  3.3130  0.1258 -1.1087
 2931SOL     OW20428   4.574   3.186   6.714  0.0183  0.2990  0.2139
 2931SOL    HW120429   4.592   3.224   6.629  1.1031  1.7108  1.0845
 2931SOL    HW220430   4.565   3.262   6.772  0.3487 -0.7105  1.6160
 2932SOL     OW20431   1.525   1.651   2.207 -0.0643 -0.1449 -0.0387
 2932SOL    HW120432   1.432   1.634   2.195 -0.4212  0.8993  1.2729
 2932SOL    HW220433   1.537   1.722   2.144  0.2911  2.5521  3.0722
 2933SOL     OW20434   0.400   3.093   4.027 -0.1860 -0.6671 -0.0705
 2933SOL    HW120435   0.447   3.010   4.031 -2.4265 -1.8907  1.6081
 2933SOL    HW220436   0.411   3.135   4.113  2.9523  0.4217 -1.0397
 2934SOL     OW20437   3.892   2.818  17.160  0.1686  0.0937 -0.1130
 2934SOL    HW120438   3.802   2.821  17.127 -0.6334 -1.7469  1.8578
 2934SOL    HW220439   3.899   2.903  17.203 -1.9334  0.4619 -0.5056
 2935SOL     OW20440   3.357   0.103   6.368 -0.6908  0.1193 -0.0093
 2935SOL    HW120441   3.267   0.114   6.399  0.0200  1.7177  1.4760
 2935SOL    HW220442   3.391   0.192   6.376  2.7863 -1.1992 -0.0899
 2936SOL     OW20443   1.901   4.134   7.276  0.5261  0.1331 -0.2656
 2936SOL    HW120444   1.957   4.091   7.341 -2.3881  0.4070  2.3732
 2936SOL    HW220445   1.876   4.216   7.319 -2.0539  0.0013 -1.5101
 2937SOL     OW20446   4.246   1.142   3.959  0.0259  0.3079  1.0687
 2937SOL    HW120447   4.261   1.234   3.940  0.3474  0.6996  3.2743
 2937SOL    HW220448   4.281   1.099   3.881  2.3609  2.1691  1.1168
 2938SOL     OW20449   0.881   2.146   8.675  0.3892  0.2123 -0.1085
 2938SOL    HW120450   0.955   2.132   8.615 -0.5526 -1.7875 -0.8182
 2938SOL    HW220451   0.886   2.064   8.724 -2.7610  0.1289  0.0589
 2939SOL     OW20452   2.946   4.056   6.611 -0.3683  0.3617  0.3150
 2939SOL    HW120453   2.951   3.968   6.573  0.0351  1.0664 -1.2508
 2939SOL    HW220454   3.015   4.055   6.677  1.3977  0.6740 -1.5394
 2940SOL     OW20455   2.706   3.752  15.634  0.5084  0.4304 -0.3900
 2940SOL    HW120456   2.652   3.708  15.568  0.1739  0.5644 -0.2062
 2940SOL    HW220457   2.647   3.826  15.645 -0.1585 -0.2501  0.6231
 2941SOL     OW20458   3.952   1.810   8.757 -0.2258 -0.2791  0.2661
 2941SOL    HW120459   3.999   1.884   8.718 -0.6669  0.2885  0.8238
 2941SOL    HW220460   3.868   1.816   8.711 -0.3721 -0.4680  0.5095
 2942SOL     OW20461   4.208   3.361   6.557  0.2330 -0.5182 -0.0909
 2942SOL    HW120462   4.161   3.292   6.603  1.1170 -1.8142 -1.1265
 2942SOL    HW220463   4.137   3.401   6.508 -0.0227  0.6701  1.2357
 2943SOL     OW20464   2.800   1.531   5.051  0.6591 -0.6813  0.3484
 2943SOL    HW120465   2.763   1.592   5.115 -2.4377 -0.4074 -1.7238
 2943SOL    HW220466   2.808   1.455   5.109  2.8757 -0.7701 -0.0602
 2944SOL     OW20467   1.206   1.315   3.275  0.0158 -0.0317 -0.0222
 2944SOL    HW120468   1.215   1.395   3.327 -1.6519  1.2722 -1.7878
 2944SOL    HW220469   1.156   1.270   3.344  0.0196 -0.6055 -0.3938
 2945SOL     OW20470   3.845   3.710   0.186  0.1390  0.2145 -0.0279
 2945SOL    HW120471   3.932   3.675   0.208 -0.5097 -0.1590  1.9185
 2945SOL    HW220472   3.796   3.658   0.249  0.0400 -0.1732 -0.4244
 2946SOL     OW20473   0.427   2.653   3.731 -0.1039 -0.0482  0.1131
 2946SOL    HW120474   0.408   2.656   3.824  0.5558 -1.5168  0.2837
 2946SOL    HW220475   0.500   2.716   3.727 -0.5228  0.4841  0.8101
 2947SOL     OW20476   2.297   3.677   0.399 -0.8050  0.2530  0.2883
 2947SOL    HW120477   2.283   3.602   0.457 -0.8658 -0.4127 -0.5912
 2947SOL    HW220478   2.206   3.691   0.374 -0.4678 -0.6420 -1.4107
 2948SOL     OW20479   1.014   0.339   3.947 -0.1727 -0.4697 -0.2992
 2948SOL    HW120480   0.930   0.297   3.928 -0.1329  0.5041 -2.5723
 2948SOL    HW220481   0.984   0.400   4.015  1.9813 -0.2498  0.4538
 2949SOL     OW20482   0.347   3.678   6.163  0.2972 -0.4227  0.1713
 2949SOL    HW120483   0.369   3.724   6.082  0.2713 -1.5209 -0.4459
 2949SOL    HW220484   0.257   3.705   6.181  0.6238 -0.6783  2.2342
 2950SOL     OW20485   2.075   0.195   5.431  0.0688  0.0323 -1.1082
 2950SOL    HW120486   2.120   0.119   5.467  0.1438  0.4429 -0.3468
 2950SOL    HW220487   2.079   0.263   5.498  2.1109 -0.9674 -0.2267
 2951SOL     OW20488   0.055   4.552   1.561  0.2006  0.3153  0.4130
 2951SOL    HW120489   0.008   4.481   1.517 -1.0046  0.1443  2.0173
 2951SOL    HW220490   0.020   4.546   1.649 -0.8777 -1.2770 -0.1277
 2952SOL     OW20491   3.770   0.351   0.812 -0.1004  0.4634 -0.1629
 2952SOL    HW120492   3.808   0.343   0.724 -0.4783  0.1065 -0.2945
 2952SOL    HW220493   3.838   0.324   0.874 -0.5006 -0.7563 -0.2594
 2953SOL     OW20494   0.607   3.401   7.497 -0.1039  0.3394  0.3384
 2953SOL    HW120495   0.621   3.488   7.532  0.9925 -0.5946  2.1848
 2953SOL    HW220496   0.663   3.399   7.419  4.4624  0.4477  3.6309
 2954SOL     OW20497   4.509   2.744   0.797  0.5458 -0.2082  0.5196
 2954SOL    HW120498   4.443   2.717   0.860  0.1462  0.8794  0.5606
 2954SOL    HW220499   4.468   2.729   0.711  3.2210 -0.4149 -0.7280
 2955SOL     OW20500   3.149   1.636   2.624 -0.2469 -0.0005  0.2060
 2955SOL    HW120501   3.066   1.680   2.641  0.2337  0.2833  1.7632
 2955SOL    HW220502   3.157   1.561   2.683  3.0807 -1.2027 -1.7715
 2956SOL     OW20503   1.850   1.803  13.914 -0.0768  0.1159  0.1135
 2956SOL    HW120504   1.850   1.775  14.005  0.2766 -0.2394  0.0036
 2956SOL    HW220505   1.868   1.896  13.926 -0.8632 -0.3061  4.5881
 2957SOL     OW20506   4.558   1.100   4.484  0.1804 -0.4687  0.4200
 2957SOL    HW120507   4.519   1.014   4.504 -0.8562 -0.0081  0.3938
 2957SOL    HW220508   4.635   1.070   4.436  0.1313 -2.0691  1.3522
 2958SOL     OW20509   0.499   3.416   4.173 -0.2227  0.1135 -0.4384
 2958SOL    HW120510   0.572   3.389   4.229 -1.5496 -0.1556  1.2045
 2958SOL    HW220511   0.416   3.405   4.221  0.2943  2.5483  0.9932
 2959SOL     OW20512   0.742   3.671   1.414 -0.5179  0.1910 -0.3168
 2959SOL    HW120513   0.685   3.605   1.452 -0.7767 -0.7026 -2.2686
 2959SOL    HW220514   0.711   3.748   1.462 -1.5963  0.3923 -1.3275
 2960SOL     OW20515   3.552   0.196   8.005  0.1700 -0.3945  0.5131
 2960SOL    HW120516   3.481   0.162   7.951 -0.4137 -1.3639  1.9115
 2960SOL    HW220517   3.558   0.285   7.968 -0.5847 -0.3507  0.4927
 2961SOL     OW20518   0.554   2.471   8.493 -0.5298 -0.1767  0.6730
 2961SOL    HW120519   0.562   2.412   8.568  1.6408 -1.2995 -0.4321
 2961SOL    HW220520   0.588   2.546   8.543  1.7007 -0.8763  0.2036
 2962SOL     OW20521   2.090   2.398   3.678 -0.4643  0.3885  0.0384
 2962SOL    HW120522   2.020   2.448   3.720 -2.1847 -0.6981 -1.5241
 2962SOL    HW220523   2.096   2.318   3.730 -1.0332  1.0439  1.1278
 2963SOL     OW20524   4.172   2.490   0.622  0.2121 -0.0408 -0.3316
 2963SOL    HW120525   4.086   2.485   0.580 -0.6765  2.7664  1.1493
 2963SOL    HW220526   4.224   2.495   0.542 -0.7036 -2.1510 -1.0681
 2964SOL     OW20527   0.919   0.523   8.448  0.4949  0.3100  0.3693
 2964SOL    HW120528   0.878   0.465   8.513 -2.5289  0.2268 -1.6434
 2964SOL    HW220529   0.852   0.579   8.410 -1.4362 -1.1463  1.6042
 2965SOL     OW20530   3.127   1.233   2.954  0.5008 -0.5856  0.0199
 2965SOL    HW120531   3.137   1.253   3.047  0.5659  0.6604 -0.2504
 2965SOL    HW220532   3.058   1.166   2.951 -0.1146  0.1406 -2.2080
 2966SOL     OW20533   2.159   0.081   6.019  0.0411  0.0039 -0.0786
 2966SOL    HW120534   2.108   0.096   5.940 -0.2327 -0.0956  0.0799
 2966SOL    HW220535   2.094   0.034   6.071 -1.1893  1.0303 -0.7067
 2967SOL     OW20536   2.855   0.164   6.792  0.3283 -0.3181 -0.4056
 2967SOL    HW120537   2.938   0.162   6.744  0.4185 -0.9365 -0.2273
 2967SOL    HW220538   2.797   0.221   6.742 -0.3434  0.0498  0.7941
 2968SOL     OW20539   0.764   2.028   0.575 -0.5044 -0.1404 -0.1450
 2968SOL    HW120540   0.720   1.987   0.649 -1.3915  0.6266 -0.2327
 2968SOL    HW220541   0.705   1.993   0.508  0.0659 -0.6663 -0.3670
 2969SOL     OW20542   0.553   2.565   3.068  0.3272 -0.0648  0.2140
 2969SOL    HW120543   0.510   2.627   3.009 -0.5076  0.3774  1.2902
 2969SOL    HW220544   0.474   2.536   3.113 -0.0109  3.1017  1.6538
 2970SOL     OW20545   1.801   3.874   4.357  0.0819  0.0951 -0.5027
 2970SOL    HW120546   1.876   3.881   4.417 -0.8565 -1.3343  0.8202
 2970SOL    HW220547   1.736   3.826   4.407  1.3934 -1.0547  0.1077
 2971SOL     OW20548   3.696   4.209   1.557 -0.1218 -0.0465  0.3461
 2971SOL    HW120549   3.659   4.121   1.557 -1.8168  0.6775  1.3494
 2971SOL    HW220550   3.788   4.184   1.570 -0.0901  1.3333  2.8769
 2972SOL     OW20551   1.284   2.946   0.339 -0.8628  0.2160 -0.0801
 2972SOL    HW120552   1.222   3.018   0.330 -1.1408  0.3394  2.8355
 2972SOL    HW220553   1.293   2.908   0.252  2.1037 -3.2374  1.7200
 2973SOL     OW20554   0.171   1.810  14.835  0.6640 -0.1494 -0.6336
 2973SOL    HW120555   0.135   1.732  14.792 -0.8649  0.2339 -0.0282
 2973SOL    HW220556   0.222   1.780  14.911 -0.7645 -1.5713 -0.2239
 2974SOL     OW20557   0.828   3.588   3.078  0.1555  0.1020  0.0775
 2974SOL    HW120558   0.769   3.621   3.146  1.0084  0.0011  0.8680
 2974SOL    HW220559   0.778   3.613   3.000  1.6233  2.4984 -0.0993
 2975SOL     OW20560   4.725   4.117   3.642  0.2469 -0.1618 -0.0467
 2975SOL    HW120561   0.031   4.200   3.636 -0.1777 -0.1140 -3.0382
 2975SOL    HW220562   4.737   4.092   3.733 -2.4855 -0.2252  0.3002
 2976SOL     OW20563   0.331   0.246   6.874 -0.4972 -0.0946 -0.1467
 2976SOL    HW120564   0.349   0.166   6.924 -0.9113 -0.5892 -0.7723
 2976SOL    HW220565   0.343   0.310   6.943  0.1963 -0.7945  0.3773
 2977SOL     OW20566   3.309   0.057   6.870  0.1086 -0.1042 -0.2811
 2977SOL    HW120567   3.296   0.151   6.856 -1.7007 -0.2026  0.7134
 2977SOL    HW220568   3.383   0.064   6.930 -0.1600  0.0208  0.0374
 2978SOL     OW20569   2.335   0.426   7.542 -0.0813  0.0481  0.4070
 2978SOL    HW120570   2.346   0.501   7.600  0.7292 -0.6145  1.1249
 2978SOL    HW220571   2.420   0.382   7.552 -0.2833 -0.4285  0.0022
 2979SOL     OW20572   1.349   1.260   5.827  0.0315 -0.5326  0.0545
 2979SOL    HW120573   1.294   1.264   5.905 -1.8251  0.1336 -1.2852
 2979SOL    HW220574   1.382   1.350   5.827  0.2448 -0.6104 -0.9977
 2980SOL     OW20575   2.966   2.465  12.815 -0.1022  0.2105  0.3863
 2980SOL    HW120576   2.896   2.531  12.809 -0.8520 -0.7966 -1.8950
 2980SOL    HW220577   2.917   2.398  12.864 -2.1292  1.6095  0.2920
 2981SOL     OW20578   4.460   1.557   4.106 -0.3509  0.0694  0.3622
 2981SOL    HW120579   4.473   1.619   4.178  0.4479  1.6015 -1.1083
 2981SOL    HW220580   4.408   1.611   4.046  0.4287  0.8351  0.3787
 2982SOL     OW20581   3.545   0.163   5.366 -0.8055  0.1737  0.4183
 2982SOL    HW120582   3.581   0.171   5.277  1.4050 -0.6523  1.2474
 2982SOL    HW220583   3.594   0.093   5.409 -0.1130 -0.6234 -1.6497
 2983SOL     OW20584   3.979   2.951  12.478  0.2353  0.0164 -0.2476
 2983SOL    HW120585   4.057   2.967  12.425  0.9903  2.6943  1.6491
 2983SOL    HW220586   3.974   3.036  12.521 -0.8350 -0.8676  1.3848
 2984SOL     OW20587   4.048   2.036  14.632  0.0502  0.3854 -0.1697
 2984SOL    HW120588   4.128   2.073  14.595  1.6143 -2.5248  0.3108
 2984SOL    HW220589   3.993   2.043  14.553  0.3035  1.4231 -0.2512
 2985SOL     OW20590   3.979   0.601   7.866 -0.5605 -0.0019 -0.9477
 2985SOL    HW120591   3.886   0.612   7.888  0.1245  0.5064  1.6779
 2985SOL    HW220592   3.996   0.693   7.848 -1.2048  0.3332  0.1456
 2986SOL     OW20593   4.547   0.888   2.488  0.3805  0.0715  0.3000
 2986SOL    HW120594   4.623   0.893   2.430 -0.4895  1.4763 -0.7307
 2986SOL    HW220595   4.504   0.968   2.458 -1.9865 -1.7387 -1.2042
 2987SOL     OW20596   4.264   3.608  10.924  0.6396  0.0272 -0.2103
 2987SOL    HW120597   4.201   3.581  10.857  2.0207 -1.4715 -0.9179
 2987SOL    HW220598   4.282   3.699  10.901  0.2422 -0.2422 -1.5950
 2988SOL     OW20599   2.406   2.880   6.161  0.0273  0.3210 -0.3888
 2988SOL    HW120600   2.385   2.966   6.198  2.2219  1.3284 -1.4620
 2988SOL    HW220601   2.358   2.818   6.216 -2.1109  1.4621 -0.9814
 2989SOL     OW20602   0.266   0.747   3.200 -0.1663  0.1546 -0.1461
 2989SOL    HW120603   0.349   0.723   3.242 -1.5800 -2.3957  1.2258
 2989SOL    HW220604   0.252   0.839   3.222  0.7015  0.3761 -0.5443
 2990SOL     OW20605   0.985   4.475   6.296 -0.0943  0.2451  0.0194
 2990SOL    HW120606   1.009   4.416   6.224 -2.1382 -0.5750  0.0179
 2990SOL    HW220607   1.013   4.558   6.258  1.0072 -0.2698 -0.2821
 2991SOL     OW20608   2.670   0.292   5.400 -0.5868  0.0437  0.4298
 2991SOL    HW120609   2.588   0.260   5.362 -0.4727 -0.1163  0.3186
 2991SOL    HW220610   2.641   0.382   5.418  0.9311  0.7200 -0.6058
 2992SOL     OW20611   1.866   3.876   2.458  0.2000  0.0719  0.1282
 2992SOL    HW120612   1.908   3.802   2.414  2.3292  1.5757 -0.4067
 2992SOL    HW220613   1.928   3.945   2.434 -1.3176  1.9132  1.4918
 2993SOL     OW20614   0.529   0.204   7.556 -0.1914 -0.1080 -0.0543
 2993SOL    HW120615   0.477   0.165   7.487 -1.6301  2.8730 -0.6432
 2993SOL    HW220616   0.457   0.256   7.592 -0.5425 -0.7364  0.1414
 2994SOL     OW20617   2.087   3.149   7.305  0.0669 -0.2269  0.0112
 2994SOL    HW120618   2.059   3.191   7.224  3.6415 -0.1899 -1.2054
 2994SOL    HW220619   2.083   3.220   7.368 -0.3151  0.3684 -0.6819
 2995SOL     OW20620   3.330   3.099  10.045 -0.1789  0.1303  0.3490
 2995SOL    HW120621   3.262   3.162  10.067  0.6892  1.0233  0.4673
 2995SOL    HW220622   3.403   3.135  10.096 -1.6118  0.8718  1.8384
 2996SOL     OW20623   0.258   4.135   1.405 -0.2356 -0.4346  0.4189
 2996SOL    HW120624   0.172   4.120   1.445  0.4774 -2.7857  1.1033
 2996SOL    HW220625   0.230   4.179   1.325 -1.6804 -0.9039  0.6702
 2997SOL     OW20626   0.814   4.270   8.765  0.6484  0.1785  0.3806
 2997SOL    HW120627   0.735   4.216   8.762  0.3390  0.6944 -0.6074
 2997SOL    HW220628   0.883   4.210   8.794  2.4977  1.0736 -2.1488
 2998SOL     OW20629   1.523   3.703  15.123  0.3729  0.2717 -0.2734
 2998SOL    HW120630   1.484   3.777  15.077 -0.1336 -0.9735 -1.8323
 2998SOL    HW220631   1.462   3.691  15.196 -0.7539  0.1420 -1.2438
 2999SOL     OW20632   0.645   4.045   3.646  0.0565 -0.9732  0.1342
 2999SOL    HW120633   0.606   3.962   3.619 -0.3706 -0.4758 -0.7855
 2999SOL    HW220634   0.606   4.063   3.732 -1.1285 -1.2130 -0.3512
 3000SOL     OW20635   0.026   4.587   5.397  0.5838 -0.0527  0.9649
 3000SOL    HW120636   4.674   4.572   5.378 -0.0437  1.6285  2.6818
 3000SOL    HW220637   0.018   4.662   5.456  0.4791 -0.0168  0.9059
 3001SOL     OW20638   1.385   0.464   8.639 -0.0998  0.0442 -0.1482
 3001SOL    HW120639   1.327   0.436   8.710  0.4626  0.6448  0.5397
 3001SOL    HW220640   1.311   0.473   8.578 -1.0744  0.2120  1.0605
 3002SOL     OW20641   3.619   3.653   8.432 -0.6304  0.5197 -0.1993
 3002SOL    HW120642   3.703   3.692   8.409 -0.1809 -0.9883 -1.1267
 3002SOL    HW220643   3.561   3.728   8.419  0.4880  1.1945 -1.2915
 3003SOL     OW20644   1.755   2.040  15.261  0.0282 -0.0332  0.3041
 3003SOL    HW120645   1.788   1.996  15.339  0.1921 -1.6268 -0.6735
 3003SOL    HW220646   1.803   1.989  15.196 -0.4246 -1.5646  1.1799
 3004SOL     OW20647   0.537   0.565  12.461  0.4915 -0.1487 -0.2915
 3004SOL    HW120648   0.577   0.487  12.425 -0.0091 -0.9142  0.7915
 3004SOL    HW220649   0.495   0.533  12.541  0.2929 -0.4206 -0.5031
 3005SOL     OW20650   0.635   0.652  15.083 -0.4333  0.0538 -0.0258
 3005SOL    HW120651   0.665   0.563  15.103  2.6635  0.9023 -0.8978
 3005SOL    HW220652   0.565   0.620  15.026 -0.6548  1.4361 -0.5176
 3006SOL     OW20653   2.313   3.520   2.604 -0.2962  0.1618 -0.4710
 3006SOL    HW120654   2.261   3.599   2.590  2.6920  1.8401 -2.1766
 3006SOL    HW220655   2.251   3.464   2.650  2.0113 -1.4692  0.6781
 3007SOL     OW20656   1.252   1.503  16.170  0.4718  0.1376 -0.0906
 3007SOL    HW120657   1.344   1.529  16.165  0.6756 -0.8415 -1.4969
 3007SOL    HW220658   1.219   1.584  16.210 -0.9797  0.7916 -2.5606
 3008SOL     OW20659   3.000   0.803   4.411  0.0572 -0.3222  0.5434
 3008SOL    HW120660   2.962   0.816   4.324  0.6443 -1.7226  0.0639
 3008SOL    HW220661   3.027   0.890   4.439 -1.0602  0.5214 -1.0133
 3009SOL     OW20662   2.144   1.866  11.451 -0.2259  0.5826 -0.5175
 3009SOL    HW120663   2.128   1.850  11.358 -1.6030  1.4842 -0.4332
 3009SOL    HW220664   2.064   1.913  11.473 -0.5907 -0.4699  0.3936
 3010SOL     OW20665   0.758   2.727   3.187  0.5947 -0.4849  0.3977
 3010SOL    HW120666   0.688   2.665   3.167  0.0033  0.6345 -0.9677
 3010SOL    HW220667   0.715   2.803   3.150 -0.4920 -0.7254  1.1725
 3011SOL     OW20668   2.475   1.081   8.514 -0.0612 -0.5245  0.1452
 3011SOL    HW120669   2.485   0.985   8.514 -0.5552 -0.5634  1.8049
 3011SOL    HW220670   2.465   1.102   8.606 -0.7342  2.3910 -0.5973
 3012SOL     OW20671   4.489   1.291   6.551  0.3383  0.0168 -0.0873
 3012SOL    HW120672   4.552   1.298   6.480  2.7851  1.5620  2.2268
 3012SOL    HW220673   4.483   1.196   6.555  2.0487 -0.0659  0.2985
 3013SOL     OW20674   0.112   1.284   8.170  0.0768 -0.3299  0.0369
 3013SOL    HW120675   0.054   1.340   8.222  0.0087 -0.2222 -0.1558
 3013SOL    HW220676   0.199   1.304   8.204 -0.3313  2.1357 -0.4056
 3014SOL     OW20677   1.541   3.147   1.869  0.1546 -0.2754  0.0559
 3014SOL    HW120678   1.450   3.158   1.897 -0.3944 -0.8380 -1.4695
 3014SOL    HW220679   1.556   3.193   1.786  0.0439  0.7270  0.5935
 3015SOL     OW20680   0.933   1.133   7.127 -0.1189 -0.5842  0.0405
 3015SOL    HW120681   0.879   1.073   7.075 -2.6571  0.0458  1.9156
 3015SOL    HW220682   1.013   1.140   7.077  0.7034 -0.4982  1.3675
 3016SOL     OW20683   4.736   2.151   4.036  0.1388 -0.2562 -0.4121
 3016SOL    HW120684   0.048   2.179   3.961  1.2423 -1.3196 -0.0385
 3016SOL    HW220685   4.732   2.233   4.085  0.0599 -0.4750 -0.0543
 3017SOL     OW20686   0.240   2.525   1.758  0.5141 -0.2582  0.0336
 3017SOL    HW120687   0.333   2.542   1.742  0.7407  0.2187  1.7825
 3017SOL    HW220688   0.223   2.576   1.837 -0.1133 -1.4610  0.6801
 3018SOL     OW20689   1.271   3.089  10.058  0.2425  0.0034 -0.2222
 3018SOL    HW120690   1.332   3.130   9.997  0.1961  0.0590 -0.2312
 3018SOL    HW220691   1.332   3.083  10.131  0.5102  0.1263 -0.4348
 3019SOL     OW20692   1.971   2.038   2.495  0.0919 -0.0281  0.1095
 3019SOL    HW120693   2.020   1.961   2.465  0.6930  0.7805 -1.0033
 3019SOL    HW220694   1.906   2.012   2.560  0.0240  1.5720  0.6773
 3020SOL     OW20695   2.359   3.884  16.593 -0.3238  0.0503 -0.1584
 3020SOL    HW120696   2.325   3.825  16.661 -1.9489  1.2194  0.0342
 3020SOL    HW220697   2.452   3.893  16.616 -0.8459  0.0706  1.9442
 3021SOL     OW20698   3.745   3.471   3.995  0.0424  0.0744  0.0447
 3021SOL    HW120699   3.835   3.494   3.974  0.3686 -0.3130  1.0255
 3021SOL    HW220700   3.688   3.534   3.951  2.4158  1.1550 -1.4373
 3022SOL     OW20701   4.008   2.581   7.519 -0.0197 -0.3291  0.0815
 3022SOL    HW120702   4.091   2.618   7.488  0.9721 -1.9261  0.8017
 3022SOL    HW220703   3.954   2.633   7.460 -0.9801 -0.7495  0.5898
 3023SOL     OW20704   3.226   3.865  14.086  0.0503  0.3872  0.3502
 3023SOL    HW120705   3.212   3.960  14.093 -0.6618  0.3380 -0.5191
 3023SOL    HW220706   3.221   3.847  13.992 -2.0181  3.0346 -0.0561
 3024SOL     OW20707   3.851   2.895  13.829  0.0482 -0.4768  0.1567
 3024SOL    HW120708   3.901   2.968  13.792 -1.0054 -0.2018 -0.7222
 3024SOL    HW220709   3.765   2.909  13.790 -0.5607 -0.9792  1.3377
 3025SOL     OW20710   2.794   1.297   1.794 -0.4239  0.1389 -0.3233
 3025SOL    HW120711   2.757   1.385   1.796 -1.3199 -0.2529  0.2466
 3025SOL    HW220712   2.719   1.251   1.832 -0.9576  1.6240  0.4068
 3026SOL     OW20713   1.002   4.135   4.316  0.6372 -0.3074  0.3372
 3026SOL    HW120714   0.986   4.142   4.410  0.5752 -1.5484  0.4196
 3026SOL    HW220715   1.065   4.064   4.318  0.1270 -0.7819 -0.2991
 3027SOL     OW20716   1.309   3.278   0.002  0.1590 -0.3259 -0.2323
 3027SOL    HW120717   1.295   3.311   0.091  2.1070 -2.0621  0.7325
 3027SOL    HW220718   1.355   3.195   0.015 -1.4448 -1.3155 -0.8193
 3028SOL     OW20719   2.842   3.792   9.192  0.6153 -0.3153  0.0676
 3028SOL    HW120720   2.869   3.717   9.246  1.0935 -0.5193 -0.4444
 3028SOL    HW220721   2.792   3.839   9.258 -0.9339 -1.0680 -0.5770
 3029SOL     OW20722   0.845   2.183   5.303 -0.0670 -0.6070 -0.1519
 3029SOL    HW120723   0.810   2.153   5.387 -1.1434  0.7845 -0.1072
 3029SOL    HW220724   0.925   2.220   5.340 -0.0566 -2.0227  1.2555
 3030SOL     OW20725   0.122   0.758   8.756  0.0858 -0.0651  0.0823
 3030SOL    HW120726   0.180   0.687   8.728  1.4030 -0.3044  3.3453
 3030SOL    HW220727   0.061   0.711   8.814  0.1455 -0.6329 -0.3163
 3031SOL     OW20728   0.104   0.290   6.276  0.2163  0.2888 -0.0153
 3031SOL    HW120729   0.155   0.233   6.218 -0.6594  0.4356 -0.9430
 3031SOL    HW220730   0.088   0.363   6.217 -0.0567 -0.8800 -1.3994
 3032SOL     OW20731   0.773   1.637   7.092  0.0215 -0.0508  0.5364
 3032SOL    HW120732   0.788   1.553   7.136  1.3285 -0.0830  0.0116
 3032SOL    HW220733   0.725   1.685   7.160 -1.9474  0.7884 -1.4372
 3033SOL     OW20734   3.390   1.863   5.467  0.2023 -0.0374 -0.2275
 3033SOL    HW120735   3.388   1.871   5.562  1.5615  0.0718 -0.2087
 3033SOL    HW220736   3.373   1.956   5.454  1.1152 -0.0794 -1.6857
 3034SOL     OW20737   4.031   3.404   9.409  0.2816 -0.3345  0.0216
 3034SOL    HW120738   3.948   3.374   9.446 -0.1567  4.5144  3.0057
 3034SOL    HW220739   4.050   3.483   9.460 -0.9271 -0.1702  0.2155
 3035SOL     OW20740   1.013   1.334   1.288  0.2871  0.7688 -0.3771
 3035SOL    HW120741   0.964   1.293   1.217 -0.0932 -0.6294  0.7040
 3035SOL    HW220742   0.967   1.418   1.290  0.7706  0.9972  1.2047
 3036SOL     OW20743   2.972   2.185   9.200  0.0088  0.1845 -0.0122
 3036SOL    HW120744   2.989   2.271   9.238  0.9614 -0.7087  1.5488
 3036SOL    HW220745   3.042   2.160   9.139 -0.5668  0.7534 -0.9232
 3037SOL     OW20746   1.042   0.518   4.880 -0.3731  0.0657  1.0377
 3037SOL    HW120747   1.117   0.575   4.867 -0.1579 -0.2313  0.9685
 3037SOL    HW220748   0.970   0.571   4.846  1.4406  0.5434 -2.0212
 3038SOL     OW20749   1.953   0.285   0.941 -0.2310  0.0851  0.5145
 3038SOL    HW120750   1.981   0.316   1.027 -1.0533  1.9118  0.1293
 3038SOL    HW220751   1.928   0.366   0.896  0.9181  1.2211  1.8994
 3039SOL     OW20752   2.014   2.964   9.949 -0.1816  0.6097  0.5672
 3039SOL    HW120753   2.015   2.908   9.872  0.9113  0.8410  0.4144
 3039SOL    HW220754   2.104   2.971   9.981  0.2081 -0.0744 -0.3853
 3040SOL     OW20755   1.362   2.585  10.794  0.1351 -0.1950 -0.0022
 3040SOL    HW120756   1.410   2.668  10.796  1.1100 -0.7375 -0.7409
 3040SOL    HW220757   1.425   2.514  10.788  0.8800  0.2908  2.3330
 3041SOL     OW20758   3.782   0.217  17.412 -0.0713 -0.2981 -0.0483
 3041SOL    HW120759   3.782   0.171  17.496  1.9267 -1.3037 -0.5723
 3041SOL    HW220760   3.833   0.158  17.356  1.0062  0.3063  0.2916
 3042SOL     OW20761   0.795   2.517   5.315  0.6704  0.5643 -0.0902
 3042SOL    HW120762   0.761   2.470   5.239  0.1754  1.2332 -0.2797
 3042SOL    HW220763   0.835   2.456   5.378  0.4896 -1.7219 -2.2080
 3043SOL     OW20764   4.417   2.841   8.339  0.0976  0.2880  0.3854
 3043SOL    HW120765   4.462   2.825   8.256  1.1959  0.9376  0.8597
 3043SOL    HW220766   4.366   2.920   8.322  0.7888  0.1421 -2.2555
 3044SOL     OW20767   0.025   3.350   3.731  0.4892  0.2512 -0.0695
 3044SOL    HW120768   4.711   3.282   3.692 -1.6163  2.3322 -0.7929
 3044SOL    HW220769   0.113   3.317   3.711 -0.5675 -0.9685 -2.7228
 3045SOL     OW20770   2.295   0.488   9.426 -0.1949  0.0835 -0.5116
 3045SOL    HW120771   2.305   0.395   9.409  0.0903 -0.0327  0.3124
 3045SOL    HW220772   2.242   0.508   9.349  0.4843 -1.7342 -1.4472
 3046SOL     OW20773   0.299   4.316   7.667 -0.5699  0.0016 -0.3562
 3046SOL    HW120774   0.385   4.330   7.707 -0.2154  1.2992 -1.5345
 3046SOL    HW220775   0.233   4.320   7.736  0.6973 -1.7238  0.9480
 3047SOL     OW20776   4.692   4.071   9.165  0.0109 -0.2164  0.0830
 3047SOL    HW120777   4.674   4.121   9.244 -2.0392  1.3752 -1.4025
 3047SOL    HW220778   4.661   4.128   9.094  3.0563  0.3442 -0.8232
 3048SOL     OW20779   2.773   1.893   3.992 -0.0709 -0.1841 -0.4522
 3048SOL    HW120780   2.777   1.801   4.017 -2.0792 -0.6463 -1.8541
 3048SOL    HW220781   2.776   1.934   4.079 -0.6227 -0.6728 -0.2009
 3049SOL     OW20782   0.740   3.552   5.261  0.3563 -0.0678  0.3414
 3049SOL    HW120783   0.775   3.469   5.293 -1.5768 -0.7589  0.6993
 3049SOL    HW220784   0.694   3.521   5.183 -1.9967  1.0186  1.3102
 3050SOL     OW20785   1.584   3.272   5.083  0.4110  0.6355 -0.1163
 3050SOL    HW120786   1.596   3.214   5.008 -1.0675  0.3564 -0.1402
 3050SOL    HW220787   1.523   3.220   5.135 -2.9584  2.9192 -1.8148
 3051SOL     OW20788   2.593   1.560  17.534  0.0832  1.1494 -0.1239
 3051SOL    HW120789   2.647   1.615  17.477 -1.0780  1.4931 -0.8945
 3051SOL    HW220790   2.631   1.579  17.620  0.9564 -0.2761 -0.2037
 3052SOL     OW20791   0.045   2.775   7.854 -0.2721  0.1588 -0.1312
 3052SOL    HW120792   0.085   2.824   7.925  3.1069 -0.7825 -1.3904
 3052SOL    HW220793   4.718   2.840   7.832 -0.0974  0.0618 -0.9436
 3053SOL     OW20794   3.010   1.811   6.204  0.2684 -0.2376  0.9396
 3053SOL    HW120795   3.084   1.825   6.145  0.4735 -2.8246  0.5779
 3053SOL    HW220796   2.942   1.779   6.145  0.8768  1.0308 -0.4533
 3054SOL     OW20797   0.022   2.860   4.035  0.1962  0.1092  0.5336
 3054SOL    HW120798   0.060   2.854   4.123  2.0322 -0.4883 -0.2904
 3054SOL    HW220799   0.102   2.894   3.994 -1.3898  2.7261 -0.4009
 3055SOL     OW20800   1.543   2.048   6.119 -0.2683  0.0719 -1.2370
 3055SOL    HW120801   1.484   2.121   6.141 -0.3185 -0.5452  0.6518
 3055SOL    HW220802   1.622   2.065   6.171 -1.7203 -1.9732  1.6011
 3056SOL     OW20803   2.424   2.454   6.105 -0.3257  0.7860  0.0227
 3056SOL    HW120804   2.334   2.422   6.108  0.1467 -0.5878 -0.3896
 3056SOL    HW220805   2.439   2.518   6.036  0.7359 -0.8485 -1.2622
 3057SOL     OW20806   3.223   2.884   9.003 -0.6454  0.1504 -0.1830
 3057SOL    HW120807   3.188   2.908   8.917  0.3168  0.8901 -0.3826
 3057SOL    HW220808   3.316   2.877   8.979  0.0296  0.9784  2.1685
 3058SOL     OW20809   1.057   3.975   1.863  0.4360  0.1701 -0.1308
 3058SOL    HW120810   0.995   3.917   1.907 -0.8284  1.5817 -0.0567
 3058SOL    HW220811   1.004   3.995   1.785  0.6000 -0.3968 -0.3899
 3059SOL     OW20812   0.892   0.386  15.634 -0.2647 -0.5805 -0.0492
 3059SOL    HW120813   0.911   0.421  15.547 -1.6267  2.1536  0.7565
 3059SOL    HW220814   0.918   0.458  15.692  0.2748 -0.8160 -0.0011
 3060SOL     OW20815   2.318   1.478   6.420  0.2420 -0.0812  0.0011
 3060SOL    HW120816   2.361   1.562   6.409 -2.5310  1.3205 -0.1467
 3060SOL    HW220817   2.357   1.432   6.345  0.6415 -0.9056  0.7137
 3061SOL     OW20818   4.502   3.503  11.544  0.0844 -0.1816 -0.0134
 3061SOL    HW120819   4.559   3.472  11.614 -2.9217  0.3626  2.6810
 3061SOL    HW220820   4.559   3.543  11.478 -0.0469  1.8714  1.1212
 3062SOL     OW20821   2.868   1.944   5.981 -0.2087 -0.8478 -0.4039
 3062SOL    HW120822   2.830   2.016   6.031 -2.5019 -2.8460  0.7383
 3062SOL    HW220823   2.960   1.971   5.979 -0.7651  1.1435  0.5184
 3063SOL     OW20824   0.011   3.513   4.180 -0.2071  0.1626 -0.2580
 3063SOL    HW120825   0.079   3.558   4.230 -0.3259  0.7843 -0.6550
 3063SOL    HW220826   0.023   3.550   4.092  0.6803  0.1126 -0.1588
 3064SOL     OW20827   3.072   4.014   4.146  0.0709  0.7888 -0.0616
 3064SOL    HW120828   3.159   3.975   4.152 -0.3115 -0.3216 -1.5503
 3064SOL    HW220829   3.085   4.064   4.226 -0.7234  0.5404  0.2191
 3065SOL     OW20830   2.562   2.928   2.795  0.0199  0.2859  0.1594
 3065SOL    HW120831   2.549   2.866   2.867  0.6832  0.2171  0.2185
 3065SOL    HW220832   2.485   2.898   2.748 -0.5587  3.0250 -0.6250
 3066SOL     OW20833   3.259   4.377   5.732  0.4459  0.2257 -0.4836
 3066SOL    HW120834   3.205   4.445   5.691 -0.4603 -0.5121 -0.5065
 3066SOL    HW220835   3.317   4.329   5.673 -2.0231 -2.1466 -1.0165
 3067SOL     OW20836   2.864   2.304   4.376 -0.9223 -0.7697 -0.2050
 3067SOL    HW120837   2.889   2.282   4.466 -2.5739 -1.2005  0.1462
 3067SOL    HW220838   2.820   2.388   4.389  0.2637 -0.2700  0.5635
 3068SOL     OW20839   2.729   2.356  15.489  0.2635 -0.3859  0.1323
 3068SOL    HW120840   2.687   2.326  15.408  0.2693  0.0969 -0.0476
 3068SOL    HW220841   2.821   2.367  15.462 -0.7517  0.5242 -2.9305
 3069SOL     OW20842   2.480   2.171  16.640  0.6243  0.1342 -0.0529
 3069SOL    HW120843   2.408   2.111  16.659  0.5006  0.2202 -0.2413
 3069SOL    HW220844   2.552   2.111  16.656 -0.5321 -1.3165 -0.2871
 3070SOL     OW20845   1.480   1.722   9.843  0.3373 -0.8122 -0.3129
 3070SOL    HW120846   1.475   1.775   9.764 -3.4677  0.9128  1.0677
 3070SOL    HW220847   1.477   1.633   9.807  1.6731 -0.7104 -0.6658
 3071SOL     OW20848   2.877   0.797  16.021  0.4365  0.4725 -0.4357
 3071SOL    HW120849   2.794   0.789  16.067  1.0983  1.1071  0.8632
 3071SOL    HW220850   2.923   0.723  16.059 -0.5831  1.0641  1.9279
 3072SOL     OW20851   0.123   3.710  17.413  0.0234 -0.2458  0.3144
 3072SOL    HW120852   0.076   3.630  17.386  0.0375 -0.4926  1.0098
 3072SOL    HW220853   0.178   3.723  17.336 -1.5535  0.4692 -0.6998
 3073SOL     OW20854   0.957   3.012   5.227  0.1828  0.1975 -0.3391
 3073SOL    HW120855   0.918   3.098   5.219 -1.8414 -0.6956  0.0231
 3073SOL    HW220856   1.046   3.037   5.201  0.2844 -0.4943 -0.6598
 3074SOL     OW20857   2.996   4.152   3.904 -0.1644 -0.1085  0.4372
 3074SOL    HW120858   3.076   4.125   3.860 -1.0601  1.6288 -2.2180
 3074SOL    HW220859   3.027   4.124   3.990  1.7049 -1.8088 -0.7902
 3075SOL     OW20860   3.077   4.036   5.633  0.6057 -0.0089 -0.1660
 3075SOL    HW120861   3.152   4.015   5.689  0.3167  0.5655  0.4425
 3075SOL    HW220862   3.032   4.100   5.688 -0.5314 -0.9960  0.0636
 3076SOL     OW20863   0.082   3.150   2.723 -0.1598  0.1271 -0.9348
 3076SOL    HW120864   0.053   3.218   2.662 -0.4843 -1.4370 -2.5306
 3076SOL    HW220865   0.155   3.113   2.673  2.2345  1.9111  1.2827
 3077SOL     OW20866   2.221   3.599   6.369  0.0569  0.0554 -0.2124
 3077SOL    HW120867   2.263   3.679   6.401  1.2542  0.0403 -1.7900
 3077SOL    HW220868   2.217   3.628   6.278  1.2108 -1.3616 -0.6977
 3078SOL     OW20869   4.269   2.105  11.061 -0.2472  0.1537  0.0579
 3078SOL    HW120870   4.278   2.133  10.970 -0.9943 -0.1904 -0.1240
 3078SOL    HW220871   4.243   2.187  11.103  2.0530  0.6875  0.4041
 3079SOL     OW20872   2.688   3.812  13.779 -0.3678 -0.5698  0.1408
 3079SOL    HW120873   2.633   3.828  13.702 -0.1117  1.1305  0.3036
 3079SOL    HW220874   2.740   3.739  13.747 -1.1055 -0.5755 -1.0410
 3080SOL     OW20875   4.708   4.327  15.945  0.3389 -0.2744  0.1840
 3080SOL    HW120876   4.622   4.298  15.917  0.7028  0.3023 -1.5813
 3080SOL    HW220877   4.691   4.397  16.009 -1.1552 -0.3384 -0.1609
 3081SOL     OW20878   0.871   1.292   2.787 -0.0273  0.0481 -0.3050
 3081SOL    HW120879   0.823   1.289   2.870  0.4750 -0.1312 -0.0197
 3081SOL    HW220880   0.833   1.223   2.732  2.5895 -1.0382 -0.7309
 3082SOL     OW20881   4.497   2.952   3.886 -0.0355  0.5246  0.4274
 3082SOL    HW120882   4.543   3.035   3.894  1.7410 -0.4677  0.5776
 3082SOL    HW220883   4.416   2.957   3.938 -0.2039  0.4545  0.1733
 3083SOL     OW20884   1.900   3.228   0.944 -0.0841 -0.0610  0.6227
 3083SOL    HW120885   1.986   3.232   0.903  0.0633  0.0674  0.9434
 3083SOL    HW220886   1.923   3.218   1.037  2.1801  1.8562  0.2783
 3084SOL     OW20887   0.450   1.053   5.512  0.4345 -0.3214 -0.8283
 3084SOL    HW120888   0.487   1.124   5.564 -0.3729 -0.1744 -0.4656
 3084SOL    HW220889   0.386   1.014   5.572 -1.7732  0.1674 -2.8627
 3085SOL     OW20890   0.676   1.489   6.716  0.6509 -0.0192  0.5751
 3085SOL    HW120891   0.770   1.506   6.715  0.7902 -0.7620  1.8597
 3085SOL    HW220892   0.674   1.398   6.747  0.5420  0.6223  2.4212
 3086SOL     OW20893   0.060   3.994   7.603  0.1531 -0.2437 -0.0096
 3086SOL    HW120894   0.057   3.902   7.629  1.5047 -0.4127 -0.4717
 3086SOL    HW220895   0.155   4.010   7.601 -0.0526  1.0177 -0.1096
 3087SOL     OW20896   0.828   1.050  16.061  0.0650 -0.2943 -0.1820
 3087SOL    HW120897   0.848   1.141  16.039  0.7312 -0.4946 -0.4047
 3087SOL    HW220898   0.887   1.038  16.136  0.3167  0.1807 -0.3056
 3088SOL     OW20899   1.759   4.680   4.955  0.2063  0.0082 -0.0220
 3088SOL    HW120900   1.714   0.024   4.952 -1.6788 -1.0073 -0.1717
 3088SOL    HW220901   1.732   4.648   5.041  2.3009  0.8961  0.9475
 3089SOL     OW20902   1.486   2.753   2.216 -0.1746  0.1250 -0.4606
 3089SOL    HW120903   1.424   2.681   2.224  0.3512 -0.0440  2.0146
 3089SOL    HW220904   1.515   2.765   2.306  0.8626 -1.4295 -0.5828
 3090SOL     OW20905   1.658   2.491  13.153  0.3010  0.0213  0.4319
 3090SOL    HW120906   1.727   2.544  13.192  1.3351  2.0584 -4.1876
 3090SOL    HW220907   1.676   2.401  13.181 -0.1331 -0.0055  0.6369
 3091SOL     OW20908   1.891   4.643   3.890  0.5878  0.3362  0.0148
 3091SOL    HW120909   1.852   4.729   3.876  0.5683  0.0619 -1.6081
 3091SOL    HW220910   1.932   4.660   3.975 -0.0639 -2.4376  0.8867
 3092SOL     OW20911   2.445   2.791   7.702  0.8438  0.1264  0.0896
 3092SOL    HW120912   2.415   2.715   7.752  0.2150 -0.4696 -1.2028
 3092SOL    HW220913   2.508   2.745   7.647 -0.1618 -1.6293  0.4088
 3093SOL     OW20914   2.311   1.649  17.467 -1.4046 -0.0244 -0.2382
 3093SOL    HW120915   2.341   1.634  17.557  1.2156 -1.5375 -1.3603
 3093SOL    HW220916   2.318   1.559  17.435 -1.5174 -1.0981  2.7838
 3094SOL     OW20917   1.131   0.744   4.426  0.2646 -0.1141 -0.3924
 3094SOL    HW120918   1.070   0.674   4.448 -1.5868  1.2483 -1.1996
 3094SOL    HW220919   1.217   0.701   4.430 -0.9847 -2.4516  1.0872
 3095SOL     OW20920   3.391   2.720   1.370 -0.6971 -0.2067  0.5422
 3095SOL    HW120921   3.410   2.813   1.384 -0.2305  0.0045 -1.5242
 3095SOL    HW220922   3.469   2.687   1.413 -0.6778  0.5758  1.1249
 3096SOL     OW20923   2.999   1.691  14.023 -0.5607  0.1395  0.1330
 3096SOL    HW120924   3.035   1.771  13.984  0.4022 -0.6283 -0.5736
 3096SOL    HW220925   3.039   1.682  14.109 -1.7509  3.7685  1.0486
 3097SOL     OW20926   0.435   4.597   4.909 -0.5678 -0.6454 -0.2347
 3097SOL    HW120927   0.361   4.640   4.865 -1.1686 -1.0897  0.3502
 3097SOL    HW220928   0.430   4.503   4.892 -1.1488 -0.6987  0.2015
 3098SOL     OW20929   1.552   2.194   8.245  0.5321  0.0572 -0.5091
 3098SOL    HW120930   1.532   2.100   8.248  0.0346  0.1596 -0.6004
 3098SOL    HW220931   1.468   2.236   8.264 -0.2723 -1.2490 -1.1668
 3099SOL     OW20932   0.114   4.087   4.146  0.4649 -0.0962 -0.2262
 3099SOL    HW120933   0.141   4.028   4.075  2.2106  1.1870 -0.6199
 3099SOL    HW220934   0.170   4.054   4.216 -0.6452 -2.3289 -0.3793
 3100SOL     OW20935   1.964   3.338   4.494 -0.2154 -0.3307 -0.5194
 3100SOL    HW120936   2.009   3.307   4.572 -0.6547 -1.9259 -0.8898
 3100SOL    HW220937   1.902   3.401   4.531  1.9720  0.3028  2.0687
 3101SOL     OW20938   2.476   4.056  15.242 -0.2320 -0.4360 -0.0277
 3101SOL    HW120939   2.514   4.032  15.158  0.6502  1.2116 -0.0810
 3101SOL    HW220940   2.383   4.036  15.228 -0.4242  1.3933 -1.3253
 3102SOL     OW20941   3.690   1.758  11.393  0.7272  0.5459  0.2183
 3102SOL    HW120942   3.750   1.823  11.357  0.0306  0.5171 -1.0052
 3102SOL    HW220943   3.745   1.681  11.407 -0.2817  0.0929  1.7655
 3103SOL     OW20944   0.408   4.040   9.846  0.4318  0.0537 -0.2512
 3103SOL    HW120945   0.325   4.006   9.880  0.3461  2.1554  1.6627
 3103SOL    HW220946   0.453   3.971   9.894  2.5510  2.2020  0.8472
 3104SOL     OW20947   3.318   2.248   7.519  0.0316  0.4318 -0.0328
 3104SOL    HW120948   3.223   2.264   7.519  0.0416  0.4691 -1.7093
 3104SOL    HW220949   3.341   2.340   7.533  1.6539  0.3268 -2.0803
 3105SOL     OW20950   3.219   0.977   1.876  0.2253  0.0028 -0.3475
 3105SOL    HW120951   3.173   0.979   1.792  1.0314 -1.0232 -0.8194
 3105SOL    HW220952   3.152   1.007   1.938 -2.1041 -0.9226 -2.3861
 3106SOL     OW20953   1.725   1.767  12.567 -0.5411 -0.4511  0.2509
 3106SOL    HW120954   1.766   1.830  12.627  1.5569 -0.9636 -0.6691
 3106SOL    HW220955   1.735   1.689  12.621 -0.9879 -1.1576 -0.7020
 3107SOL     OW20956   3.116   0.203  10.064  0.0533 -0.3799  0.5541
 3107SOL    HW120957   3.151   0.289  10.088 -2.9357  0.7710  0.7978
 3107SOL    HW220958   3.141   0.161  10.147  2.2991  0.7950  0.4718
 3108SOL     OW20959   3.010   3.424   6.692 -0.1355  0.1168  0.0143
 3108SOL    HW120960   3.029   3.471   6.611  0.3482 -0.8172 -0.4156
 3108SOL    HW220961   2.918   3.404   6.676 -0.7395  2.6186  0.3351
 3109SOL     OW20962   1.012   3.274   9.172 -0.1460 -0.1549  0.4931
 3109SOL    HW120963   1.017   3.291   9.078 -2.6606  0.0547  0.4043
 3109SOL    HW220964   1.084   3.212   9.185  0.1093 -0.0082 -0.2570
 3110SOL     OW20965   0.171   4.168   8.121 -0.2798  0.0597  0.5655
 3110SOL    HW120966   0.179   4.212   8.206 -1.3265 -0.2424  0.8293
 3110SOL    HW220967   0.191   4.076   8.137  0.7453  0.8700  3.8675
 3111SOL     OW20968   0.297   1.397  14.022  0.0455  0.3702 -0.3236
 3111SOL    HW120969   0.297   1.304  14.001 -0.4192 -0.2058  2.2396
 3111SOL    HW220970   0.206   1.419  14.001 -0.3881 -0.6580  0.5176
 3112SOL     OW20971   1.973   4.737   4.791  0.0093  0.2166  0.3593
 3112SOL    HW120972   1.896   4.723   4.847 -0.9335  2.2376 -0.4473
 3112SOL    HW220973   1.977   0.092   4.784  1.5008 -0.1289 -3.4027
 3113SOL     OW20974   1.955   0.832   5.342 -0.2730 -0.5207  0.0810
 3113SOL    HW120975   1.961   0.736   5.337  1.7532 -0.3605 -0.7017
 3113SOL    HW220976   2.012   0.843   5.418 -0.9070  0.7791  0.3613
 3114SOL     OW20977   4.434   2.419   7.172  0.2185 -0.4182 -0.3474
 3114SOL    HW120978   4.419   2.325   7.161 -0.0562 -0.2329 -1.5726
 3114SOL    HW220979   4.355   2.454   7.215  1.8336  0.5316  1.8382
 3115SOL     OW20980   2.357   2.215   5.857 -0.1164 -0.2764  0.0766
 3115SOL    HW120981   2.427   2.162   5.895 -0.3537 -0.9689 -0.4501
 3115SOL    HW220982   2.386   2.215   5.765 -1.6181  3.0310 -0.3744
 3116SOL     OW20983   1.638   4.260   7.604 -0.6769  0.2528  0.3749
 3116SOL    HW120984   1.596   4.266   7.690 -0.6240  1.9552  0.2884
 3116SOL    HW220985   1.594   4.197   7.548 -0.2694 -0.6462  1.0797
 3117SOL     OW20986   3.060   0.161   9.803  0.2188  0.1917  0.4391
 3117SOL    HW120987   3.145   0.158   9.760  0.6727 -2.1305  1.4745
 3117SOL    HW220988   3.081   0.172   9.896  0.0382 -0.0532  0.5084
 3118SOL     OW20989   0.513   1.937   6.743 -0.1100  0.3493  0.4690
 3118SOL    HW120990   0.466   1.994   6.803 -0.6797 -0.0717  0.4161
 3118SOL    HW220991   0.533   1.861   6.798 -0.9528 -0.5597 -0.4841
 3119SOL     OW20992   3.737   1.384   9.126 -0.5918  0.6958  0.1896
 3119SOL    HW120993   3.775   1.412   9.209  1.0295 -3.0945  0.7296
 3119SOL    HW220994   3.762   1.456   9.068 -1.2788  1.5236  0.9250
 3120SOL     OW20995   1.151   0.289   5.645 -0.1934 -0.3093 -0.3515
 3120SOL    HW120996   1.098   0.351   5.697 -1.1150 -0.6980 -0.8264
 3120SOL    HW220997   1.205   0.271   5.722  0.9431  0.1894 -1.0407
 3121SOL     OW20998   1.638   1.317   7.647  0.4742 -0.6020  0.6996
 3121SOL    HW120999   1.596   1.307   7.561  0.0220 -0.6987  0.9285
 3121SOL    HW221000   1.711   1.256   7.637  0.4006 -0.4359 -0.8109
 3122SOL     OW21001   1.856   3.313   3.312 -0.3149  0.3171 -0.2947
 3122SOL    HW121002   1.908   3.300   3.232 -0.6923 -1.9879 -0.1468
 3122SOL    HW221003   1.869   3.408   3.322  1.3971 -0.0018  0.5720
 3123SOL     OW21004   1.071   1.714   5.661  0.0173 -0.6823 -0.1654
 3123SOL    HW121005   1.124   1.737   5.585 -1.1121 -0.7119 -0.9587
 3123SOL    HW221006   1.057   1.619   5.655 -3.0736 -0.1973 -0.8337
 3124SOL     OW21007   2.354   3.707   2.347 -0.1297  0.4000 -0.3413
 3124SOL    HW121008   2.306   3.772   2.399 -1.0164  0.4958 -1.2752
 3124SOL    HW221009   2.291   3.636   2.333 -0.3526  0.5534 -0.1321
 3125SOL     OW21010   1.810   1.732   3.412  0.2349 -0.1173  0.0841
 3125SOL    HW121011   1.764   1.812   3.387  0.1721 -0.0290  0.4796
 3125SOL    HW221012   1.734   1.683   3.442 -0.1799  0.8830  0.6646
 3126SOL     OW21013   1.202   3.357   6.475  0.1931  0.4286  0.6488
 3126SOL    HW121014   1.169   3.308   6.399  0.0723  0.8654  0.4187
 3126SOL    HW221015   1.288   3.383   6.443 -0.2328  0.1612 -0.7512
 3127SOL     OW21016   2.570   4.656   5.376  0.1862 -0.6988 -0.3768
 3127SOL    HW121017   2.584   4.646   5.281  2.3469  0.0818 -0.1462
 3127SOL    HW221018   2.569   0.012   5.378  0.7836 -0.6820 -0.8149
 3128SOL     OW21019   2.571   0.968  11.406 -0.8561 -0.0965 -0.2028
 3128SOL    HW121020   2.531   0.924  11.480  0.9585 -0.5674  0.5036
 3128SOL    HW221021   2.531   0.917  11.336  0.6540 -0.4408 -0.8124
 3129SOL     OW21022   1.845   1.432   4.698  0.6984  0.1984  0.4736
 3129SOL    HW121023   1.785   1.446   4.625 -0.2589 -2.0770  0.8367
 3129SOL    HW221024   1.924   1.475   4.664  0.6794 -0.7290 -0.7552
 3130SOL     OW21025   4.361   4.056   7.003  0.0818  0.2802 -0.4011
 3130SOL    HW121026   4.280   4.014   6.975  0.3026 -1.7873  2.0051
 3130SOL    HW221027   4.428   3.989   6.989 -0.9211 -0.8982  0.3607
 3131SOL     OW21028   2.598   2.641  15.205  0.1730 -0.6875  0.4967
 3131SOL    HW121029   2.633   2.555  15.181  1.0089 -0.4416  0.8510
 3131SOL    HW221030   2.629   2.649  15.295  2.9429  1.4127 -0.6375
 3132SOL     OW21031   0.726   1.052   3.486  0.0703 -0.2965  0.7404
 3132SOL    HW121032   0.750   1.033   3.395 -2.1396  2.0230 -0.3147
 3132SOL    HW221033   0.716   0.964   3.524  0.2296  0.1259  1.7502
 3133SOL     OW21034   0.324   1.778  15.058 -0.0502  0.5645 -0.2375
 3133SOL    HW121035   0.354   1.860  15.098 -0.3070  0.2008  0.7174
 3133SOL    HW221036   0.357   1.713  15.120 -0.6411  2.0885  1.6797
 3134SOL     OW21037   2.640   3.318   7.953  0.3343 -0.8536 -0.4673
 3134SOL    HW121038   2.627   3.314   8.047  1.5078 -0.0965 -0.2818
 3134SOL    HW221039   2.710   3.382   7.949 -1.1497  0.8128  0.1866
 3135SOL     OW21040   4.476   2.539  11.757  0.4412 -0.2258 -0.3900
 3135SOL    HW121041   4.540   2.469  11.743  1.9268  0.9576  0.4528
 3135SOL    HW221042   4.518   2.604  11.700 -0.6603  2.7029  2.1544
 3136SOL     OW21043   0.060   3.017   7.129 -0.6475  0.1190  0.8170
 3136SOL    HW121044   4.710   2.988   7.138 -1.2287  1.1468 -1.7256
 3136SOL    HW221045   0.092   3.005   7.218 -2.4134  2.5831  1.7652
 3137SOL     OW21046   1.884   3.357   9.394 -0.3854 -0.2681  0.3906
 3137SOL    HW121047   1.923   3.372   9.480 -0.8776  0.6102  0.4683
 3137SOL    HW221048   1.886   3.262   9.395  1.7346 -0.2291 -0.1598
 3138SOL     OW21049   2.779   2.821   3.724  0.2206  0.3413  0.1592
 3138SOL    HW121050   2.711   2.820   3.792 -0.4768 -1.1727 -0.5506
 3138SOL    HW221051   2.761   2.912   3.700 -1.2945 -0.3508 -1.3350
 3139SOL     OW21052   2.261   0.601   3.880 -0.2042  0.1278  0.5563
 3139SOL    HW121053   2.269   0.638   3.967 -2.0031  0.8791  0.4118
 3139SOL    HW221054   2.343   0.634   3.844 -1.1896 -0.0381 -1.8639
 3140SOL     OW21055   4.413   4.419   7.217  0.2017  0.4611 -0.2081
 3140SOL    HW121056   4.344   4.485   7.213 -1.0157 -0.8363 -0.8854
 3140SOL    HW221057   4.388   4.353   7.282 -1.5930  0.6578 -0.6867
 3141SOL     OW21058   2.824   3.025   0.981  0.0651 -0.2359 -0.0141
 3141SOL    HW121059   2.894   2.961   0.989 -0.5255 -1.0678 -1.6186
 3141SOL    HW221060   2.756   2.977   1.028  0.2247 -0.9071 -0.4711
 3142SOL     OW21061   0.652   0.917   2.020 -0.0710  0.2408 -0.0104
 3142SOL    HW121062   0.733   0.966   2.030 -0.4347  0.8230  0.1194
 3142SOL    HW221063   0.631   0.950   1.932  0.0464  0.6660  0.1216
 3143SOL     OW21064   2.925   3.249   9.150  0.4524 -0.1157  0.3313
 3143SOL    HW121065   2.891   3.311   9.214 -1.5411 -0.9359  0.0986
 3143SOL    HW221066   3.016   3.276   9.161  1.1397 -1.5020 -1.8287
 3144SOL     OW21067   3.942   3.478   2.940  0.7998  0.1729  0.6480
 3144SOL    HW121068   3.920   3.414   3.007  4.2857 -1.6728 -0.0031
 3144SOL    HW221069   3.873   3.474   2.874  0.8384  0.5854  0.5826
 3145SOL     OW21070   1.077   1.109  17.229  0.4165 -0.3498  0.3127
 3145SOL    HW121071   1.021   1.146  17.161 -0.6720 -0.5980  1.0692
 3145SOL    HW221072   1.051   1.017  17.222 -0.7739  0.0969 -1.1012
 3146SOL     OW21073   2.215   2.210  12.707  0.1663 -0.2117  0.3978
 3146SOL    HW121074   2.169   2.257  12.638  0.5367  2.8206  2.2249
 3146SOL    HW221075   2.253   2.144  12.649  2.2807  1.1543  0.2035
 3147SOL     OW21076   3.465   4.480   3.233 -0.0775  0.2910  0.3501
 3147SOL    HW121077   3.416   4.446   3.158  2.3779  1.9991 -2.0563
 3147SOL    HW221078   3.458   4.416   3.303 -0.2983 -0.7383 -0.6155
 3148SOL     OW21079   3.233   4.314   6.621  0.1057  0.2781  0.5720
 3148SOL    HW121080   3.278   4.393   6.648 -2.1014  1.7504 -0.0691
 3148SOL    HW221081   3.236   4.278   6.710 -0.7439 -0.0186  0.4831
 3149SOL     OW21082   4.624   4.407  11.665  0.0834  0.0156  0.3470
 3149SOL    HW121083   4.650   4.495  11.691  2.2740 -0.6262  0.3746
 3149SOL    HW221084   4.533   4.419  11.639 -0.4722 -2.4261  1.0933
 3150SOL     OW21085   2.163   0.277   6.369 -0.1807  0.0536  0.7338
 3150SOL    HW121086   2.157   0.191   6.410  0.2304  0.5046  1.7237
 3150SOL    HW221087   2.072   0.297   6.393 -0.3114 -0.0580  0.3314
 3151SOL     OW21088   0.786   3.123  15.818  0.2610  0.2520  0.1815
 3151SOL    HW121089   0.877   3.128  15.845 -0.2937  1.5642  1.7855
 3151SOL    HW221090   0.797   3.068  15.740 -0.2842  0.2101  0.1312
 3152SOL     OW21091   3.872   2.541   1.400 -0.6532  0.1023 -0.2939
 3152SOL    HW121092   3.852   2.448   1.390 -1.0988  0.2306 -0.5707
 3152SOL    HW221093   3.950   2.532   1.456 -0.3652 -0.2213 -0.7418
 3153SOL     OW21094   1.447   1.159   4.967 -0.1586  0.3952  0.3854
 3153SOL    HW121095   1.492   1.135   5.048  0.9142  2.6611  0.4827
 3153SOL    HW221096   1.359   1.149   5.002 -1.2099 -1.2290 -2.7255
 3154SOL     OW21097   0.394   0.192   0.323 -0.1021 -0.5237 -0.3021
 3154SOL    HW121098   0.470   0.213   0.378 -0.7599 -0.7389  0.6764
 3154SOL    HW221099   0.413   0.098   0.319  1.8550 -0.1280 -0.6304
 3155SOL     OW21100   4.315   0.968  11.721 -0.2656 -0.0314  0.4017
 3155SOL    HW121101   4.393   0.978  11.775  0.3755 -1.7625 -0.2003
 3155SOL    HW221102   4.348   0.991  11.634 -1.4193  1.7213  0.4242
 3156SOL     OW21103   0.305   3.362   4.387 -0.0152 -0.1114  0.1476
 3156SOL    HW121104   0.358   3.313   4.449  0.2940  0.8864  0.6747
 3156SOL    HW221105   0.264   3.435   4.434  2.2288 -0.4309  2.5960
 3157SOL     OW21106   4.212   4.181  10.792 -0.1314 -0.1452  0.5044
 3157SOL    HW121107   4.205   4.169  10.886  1.5652  0.4061  0.6893
 3157SOL    HW221108   4.231   4.273  10.778  1.3218 -0.5509 -0.1285
 3158SOL     OW21109   3.244   3.094   9.330  0.0645 -0.1579  0.5230
 3158SOL    HW121110   3.275   3.171   9.282  1.2163  0.7022  2.6353
 3158SOL    HW221111   3.189   3.136   9.397 -2.1786 -1.1215 -0.7236
 3159SOL     OW21112   3.959   1.224  16.142 -0.0795 -0.0393  0.6872
 3159SOL    HW121113   3.865   1.225  16.158 -0.1510 -0.5288  0.2733
 3159SOL    HW221114   4.002   1.256  16.222  1.6737 -2.4181  0.7205
 3160SOL     OW21115   1.170   0.314   3.387 -0.0110 -0.4597  0.2817
 3160SOL    HW121116   1.216   0.359   3.317  1.1321 -3.8106 -1.0675
 3160SOL    HW221117   1.233   0.259   3.433 -0.0396  0.2781  1.2139
 3161SOL     OW21118   1.179   3.708  16.919  0.0126  0.8192  0.4548
 3161SOL    HW121119   1.255   3.653  16.899 -0.5217 -0.7426  2.6642
 3161SOL    HW221120   1.172   3.738  16.829  0.5545  2.1729  0.8592
 3162SOL     OW21121   3.987   2.795   5.327 -0.4102 -0.2038  0.6248
 3162SOL    HW121122   3.975   2.787   5.422 -0.7772 -3.3857  0.3322
 3162SOL    HW221123   4.070   2.749   5.314 -0.3086  0.4937 -1.1960
 3163SOL     OW21124   4.236   2.368   1.590 -0.3727 -0.0142 -0.1213
 3163SOL    HW121125   4.165   2.432   1.599 -0.9569 -0.4775 -1.5325
 3163SOL    HW221126   4.313   2.422   1.571  1.0066 -0.9698  2.8046
 3164SOL     OW21127   4.228   2.207   6.035 -0.0411 -0.1088  0.2289
 3164SOL    HW121128   4.280   2.264   5.978  1.3015  0.2347  1.7819
 3164SOL    HW221129   4.262   2.229   6.122 -1.0008 -1.1208  0.8550
 3165SOL     OW21130   3.772   3.050   3.259 -0.3087 -0.7170  0.6397
 3165SOL    HW121131   3.806   2.966   3.226 -1.6001 -0.9061 -0.2259
 3165SOL    HW221132   3.742   3.029   3.347  0.6246  1.0688  1.3770
 3166SOL     OW21133   4.490   2.103  14.728 -0.0015 -0.2613 -0.0970
 3166SOL    HW121134   4.583   2.089  14.740  0.0865  1.3138  1.1062
 3166SOL    HW221135   4.446   2.042  14.786  4.9350 -1.9119  1.8760
 3167SOL     OW21136   1.847   1.197   8.769  0.2925  0.0724  0.8779
 3167SOL    HW121137   1.893   1.127   8.815  0.1635  0.8376  2.1769
 3167SOL    HW221138   1.872   1.185   8.678 -0.3710 -1.0725  0.8544
 3168SOL     OW21139   4.589   4.422   8.226 -0.6826 -0.1330  0.0966
 3168SOL    HW121140   4.669   4.475   8.227  0.1611 -1.3583 -2.6928
 3168SOL    HW221141   4.563   4.408   8.135  0.2546  1.8487 -0.4871
 3169SOL     OW21142   0.392   4.662   5.202 -0.2298  0.0134 -0.4645
 3169SOL    HW121143   0.324   4.599   5.225 -1.6669  1.5377 -0.5336
 3169SOL    HW221144   0.412   4.641   5.111 -1.9085 -1.7197 -0.4273
 3170SOL     OW21145   0.492   3.586   6.781  0.6282 -0.3784  0.3278
 3170SOL    HW121146   0.542   3.668   6.778  1.9870 -1.2471 -1.2339
 3170SOL    HW221147   0.516   3.558   6.869  1.7042  1.3622  0.5892
 3171SOL     OW21148   2.691   2.507  12.221 -0.0416  0.5028 -0.2603
 3171SOL    HW121149   2.644   2.545  12.295  1.6018  1.7686  0.1400
 3171SOL    HW221150   2.647   2.553  12.150  1.0431 -1.3966 -2.1505
 3172SOL     OW21151   2.109   3.713   4.544 -0.1123 -0.1783  0.3776
 3172SOL    HW121152   2.065   3.796   4.560  0.4163  0.1467  0.1397
 3172SOL    HW221153   2.096   3.667   4.627  3.2214 -0.6789  0.6497
 3173SOL     OW21154   2.678   3.963   7.086 -0.0634  0.6697 -0.1840
 3173SOL    HW121155   2.712   3.917   7.163 -1.6929 -0.4048 -0.1110
 3173SOL    HW221156   2.751   4.021   7.064  1.1116 -0.6981  0.1025
 3174SOL     OW21157   1.053   3.511  10.559  0.0689  0.6776 -0.0581
 3174SOL    HW121158   1.046   3.604  10.538  1.2061  0.8447  0.2786
 3174SOL    HW221159   0.965   3.491  10.528 -0.2930 -0.5128  1.7772
 3175SOL     OW21160   2.548   3.814   6.179  0.5291 -0.5123  0.4741
 3175SOL    HW121161   2.536   3.900   6.218  0.2413  0.4756 -1.8017
 3175SOL    HW221162   2.469   3.776   6.140  0.7062  2.2363 -2.5173
 3176SOL     OW21163   1.553   0.066   3.830 -0.1720 -0.2597  0.3094
 3176SOL    HW121164   1.630   0.113   3.860 -0.0758  0.7649 -1.5887
 3176SOL    HW221165   1.491   0.119   3.880 -1.0582 -0.3045 -0.7488
 3177SOL     OW21166   2.329   4.272   7.713 -0.0628 -0.4171 -0.1500
 3177SOL    HW121167   2.309   4.365   7.706 -0.7870 -0.4981  0.7437
 3177SOL    HW221168   2.276   4.256   7.792 -1.0338  0.3474 -0.6553
 3178SOL     OW21169   0.931   0.041  12.256 -0.4560  0.2176  0.3483
 3178SOL    HW121170   0.946   0.116  12.199  1.8449 -0.3830  0.1808
 3178SOL    HW221171   0.920   4.714  12.189 -3.2795  0.7614  0.2560
 3179SOL     OW21172   3.399   3.965   3.413 -0.5341  0.2805  0.3833
 3179SOL    HW121173   3.306   3.974   3.435 -1.1348 -2.5753 -1.0052
 3179SOL    HW221174   3.418   3.873   3.433  0.3915  0.4593  0.3302
 3180SOL     OW21175   0.026   0.478   4.109  0.2555  0.5263  0.1166
 3180SOL    HW121176   4.722   0.563   4.111 -1.8742 -0.5224 -1.4756
 3180SOL    HW221177   4.717   0.422   4.049 -0.1346  1.2768 -0.2791
 3181SOL     OW21178   1.899   1.496   6.640 -0.2411  0.0223  0.1968
 3181SOL    HW121179   1.828   1.439   6.610 -0.1830  0.0606 -0.0148
 3181SOL    HW221180   1.848   1.576   6.631  0.9253  0.8270  0.8500
 3182SOL     OW21181   1.584   1.091  12.607 -0.3037 -0.2016  0.8910
 3182SOL    HW121182   1.529   1.017  12.631 -0.7422 -0.1766 -0.0403
 3182SOL    HW221183   1.628   1.057  12.529 -1.0064  1.6777 -0.3202
 3183SOL     OW21184   0.072   4.484   6.877 -0.0747 -0.0715 -0.0286
 3183SOL    HW121185   0.166   4.503   6.870 -0.2877  0.7262 -0.7950
 3183SOL    HW221186   0.068   4.408   6.935 -0.6263  0.4175  0.5801
 3184SOL     OW21187   0.606   1.117  11.885  0.3473 -0.2298 -0.5189
 3184SOL    HW121188   0.596   1.181  11.814 -0.0103 -0.5976 -0.7999
 3184SOL    HW221189   0.578   1.163  11.965  1.0437  0.2473 -0.5490
 3185SOL     OW21190   3.448   2.717   0.407  0.2731  0.2902 -0.3723
 3185SOL    HW121191   3.395   2.773   0.463 -0.4743  0.7135 -1.5102
 3185SOL    HW221192   3.391   2.714   0.331 -1.5197  0.1936  0.9859
 3186SOL     OW21193   1.098   3.196   8.098 -0.8946  0.7520  0.1569
 3186SOL    HW121194   1.136   3.257   8.161  0.6402 -0.7792  0.7145
 3186SOL    HW221195   1.025   3.161   8.150 -0.0866  0.6951  1.2490
 3187SOL     OW21196   1.444   1.788  12.482 -0.0080 -0.2572 -0.6347
 3187SOL    HW121197   1.436   1.779  12.387  0.9432 -2.2579 -0.5166
 3187SOL    HW221198   1.503   1.714  12.496 -0.5825 -0.5962  0.0343
 3188SOL     OW21199   3.690   2.145  16.293  0.3929 -0.5825 -0.1722
 3188SOL    HW121200   3.725   2.137  16.382  2.7163 -1.2646 -1.1589
 3188SOL    HW221201   3.649   2.059  16.285 -3.1715  1.1954 -0.9187
 3189SOL     OW21202   2.871   2.146   7.383  0.0123 -0.7651  0.3258
 3189SOL    HW121203   2.922   2.068   7.358 -0.8665 -0.7606 -1.5247
 3189SOL    HW221204   2.784   2.111   7.365 -0.0410 -1.1196  1.2585
 3190SOL     OW21205   0.764   3.976   4.506  0.1597 -0.3684  0.1057
 3190SOL    HW121206   0.835   4.030   4.541  0.2150 -0.3662 -0.0101
 3190SOL    HW221207   0.815   3.899   4.481 -0.5452 -0.8718  0.2150
 3191SOL     OW21208   4.652   3.494  11.761 -0.1472 -0.3436  0.2694
 3191SOL    HW121209   4.647   3.482  11.856 -1.3467  1.0530  0.3817
 3191SOL    HW221210   4.703   3.575  11.753 -0.2122 -0.3498 -0.1894
 3192SOL     OW21211   2.577   2.625   5.893  0.6962  0.8817 -0.1456
 3192SOL    HW121212   2.625   2.598   5.815  1.7906 -4.2536  2.3169
 3192SOL    HW221213   2.487   2.636   5.860  0.2764  0.2773  0.8132
 3193SOL     OW21214   3.681   4.003   8.472  0.4702 -0.0871  0.4282
 3193SOL    HW121215   3.680   3.969   8.562  1.5903  1.5483  1.0748
 3193SOL    HW221216   3.773   4.027   8.461  0.9175 -1.7938  0.5100
 3194SOL     OW21217   2.209   0.826   9.012  0.1261  0.2421 -0.5781
 3194SOL    HW121218   2.301   0.849   9.006 -0.2068  2.1899  1.8176
 3194SOL    HW221219   2.175   0.913   9.033  2.7815  0.4804  2.6177
 3195SOL     OW21220   3.774   3.859   5.659 -0.3916 -0.0441  0.5568
 3195SOL    HW121221   3.823   3.779   5.636 -1.3564 -0.6533  0.6328
 3195SOL    HW221222   3.801   3.869   5.750  1.4330 -1.1244  0.1521
 3196SOL     OW21223   2.194   2.323  15.966  0.1510  0.1777  0.3701
 3196SOL    HW121224   2.105   2.342  15.937 -0.5298 -0.0381  2.3151
 3196SOL    HW221225   2.179   2.276  16.048  0.7528 -1.0380 -0.2221
 3197SOL     OW21226   3.472   2.708   4.666 -0.7133 -0.3285 -0.0063
 3197SOL    HW121227   3.414   2.678   4.597 -0.1117 -2.2540  0.3198
 3197SOL    HW221228   3.514   2.627   4.696  0.0855 -0.0372 -0.3165
 3198SOL     OW21229   0.160   0.739   2.313 -0.0033  0.1430  0.7565
 3198SOL    HW121230   0.148   0.670   2.248 -2.1499  0.5267  0.7445
 3198SOL    HW221231   0.253   0.723   2.332  0.6156  2.6663 -0.1395
 3199SOL     OW21232   4.477   4.307   3.296  0.4104 -0.6633  0.5517
 3199SOL    HW121233   4.572   4.306   3.296  0.4469  1.1844 -1.3971
 3199SOL    HW221234   4.461   4.327   3.203  2.8980  0.4230  0.3660
 3200SOL     OW21235   3.269   4.100   8.152  0.2311  0.5174 -0.2029
 3200SOL    HW121236   3.219   4.120   8.231 -0.0949 -1.0756 -0.0022
 3200SOL    HW221237   3.279   4.188   8.116 -2.3756  1.7284  2.0775
 3201SOL     OW21238   3.640   2.650   1.500  0.5207 -0.1547  0.1879
 3201SOL    HW121239   3.623   2.562   1.532  0.9609 -0.8008 -1.3554
 3201SOL    HW221240   3.730   2.636   1.471  0.1763 -3.5177  0.8178
 3202SOL     OW21241   2.751   2.691   2.586  0.1624  0.1757  0.2010
 3202SOL    HW121242   2.729   2.783   2.569 -1.4761 -0.0871  0.8853
 3202SOL    HW221243   2.825   2.694   2.646  0.1258 -3.1363  0.4278
 3203SOL     OW21244   2.407   2.859   8.022  0.9259  0.0575  0.0584
 3203SOL    HW121245   2.455   2.912   8.085  0.8314 -1.4352  1.3730
 3203SOL    HW221246   2.458   2.873   7.942 -0.9821  0.3743 -1.0960
 3204SOL     OW21247   2.451   0.213   6.451 -0.2714  0.0135  0.8834
 3204SOL    HW121248   2.428   0.302   6.423 -0.7909 -0.0205  1.2042
 3204SOL    HW221249   2.410   0.149   6.393 -0.7385  2.4052 -1.4326
 3205SOL     OW21250   2.186   0.090  12.703 -0.6276  0.2664  0.2189
 3205SOL    HW121251   2.180   0.141  12.784 -0.4473 -1.0356  1.0673
 3205SOL    HW221252   2.134   0.013  12.730 -1.6288  0.5739 -0.8672
 3206SOL     OW21253   2.183   2.430   5.687 -0.7363 -0.0392 -0.3751
 3206SOL    HW121254   2.128   2.353   5.697  1.5650 -1.6011  0.2737
 3206SOL    HW221255   2.262   2.388   5.653  0.1506  0.5412  0.9530
 3207SOL     OW21256   3.214   2.650   4.506  0.1258 -0.1489  0.0222
 3207SOL    HW121257   3.193   2.733   4.463 -1.7300 -0.0386  1.1054
 3207SOL    HW221258   3.166   2.668   4.586 -0.8845  0.4136 -0.7061
 3208SOL     OW21259   2.077   2.687   5.990  0.0040  0.5288 -0.0539
 3208SOL    HW121260   2.078   2.669   6.084  0.9027 -0.0598 -0.1790
 3208SOL    HW221261   1.993   2.648   5.964  0.2494 -0.5608  0.7565
 3209SOL     OW21262   2.452   2.563   4.232  0.3594 -0.1029 -0.3018
 3209SOL    HW121263   2.416   2.600   4.312  1.1054 -1.1733  0.5302
 3209SOL    HW221264   2.538   2.606   4.228 -0.0200  0.8642  2.2782
 3210SOL     OW21265   4.590   1.322   4.092  0.7037 -0.0303 -0.0674
 3210SOL    HW121266   4.659   1.360   4.147 -0.5586  0.2906  1.2969
 3210SOL    HW221267   4.537   1.401   4.086 -0.4845 -0.7545  0.8388
 3211SOL     OW21268   4.479   3.164   4.374 -0.4326 -0.0120  0.7371
 3211SOL    HW121269   4.466   3.254   4.343  1.2802 -0.0649 -0.1387
 3211SOL    HW221270   4.540   3.133   4.308  0.9526  1.9740  1.0755
 3212SOL     OW21271   4.126   0.137  15.787  0.3037  0.0587 -0.2437
 3212SOL    HW121272   4.213   0.171  15.767 -0.0556  0.6309 -0.8180
 3212SOL    HW221273   4.062   0.200  15.756 -1.2741 -2.0505 -1.2767
 3213SOL     OW21274   2.094   1.867   2.306  0.5672 -0.0353 -0.3600
 3213SOL    HW121275   2.163   1.857   2.240  1.5831  0.9924  0.5367
 3213SOL    HW221276   2.017   1.885   2.251  0.3849  0.3374  0.0122
 3214SOL     OW21277   3.664   3.869   0.995  0.8125  0.6103 -0.0459
 3214SOL    HW121278   3.686   3.802   1.060 -2.2076 -0.7243 -0.4138
 3214SOL    HW221279   3.599   3.824   0.940 -0.2557 -1.0183  2.5562
 3215SOL     OW21280   2.420   0.477   2.588 -0.1796 -0.1034 -0.3448
 3215SOL    HW121281   2.492   0.457   2.527 -0.1559  0.8344 -0.6181
 3215SOL    HW221282   2.476   0.516   2.655 -0.2389 -2.5101  1.1072
 3216SOL     OW21283   3.481   3.314   3.578  0.5695  0.7311  0.2600
 3216SOL    HW121284   3.412   3.310   3.644  0.9108 -0.0302  0.5822
 3216SOL    HW221285   3.536   3.383   3.614  0.6616  0.1504  1.2657
 3217SOL     OW21286   1.662   1.063  12.973  0.4998 -0.4201 -0.1044
 3217SOL    HW121287   1.594   1.121  13.007  1.1794  0.3432 -0.0419
 3217SOL    HW221288   1.729   1.129  12.954 -0.2909  0.6072  0.6358
 3218SOL     OW21289   3.939   0.393   5.547  0.2540 -0.1602  0.0207
 3218SOL    HW121290   4.030   0.423   5.542 -0.0204 -0.0517 -4.3140
 3218SOL    HW221291   3.900   0.429   5.467 -0.4165 -0.5205  0.1868
 3219SOL     OW21292   2.727   1.927   7.165 -0.1001  0.1511 -0.4036
 3219SOL    HW121293   2.822   1.916   7.175 -0.0480 -1.8005 -2.9562
 3219SOL    HW221294   2.700   1.930   7.256  2.4469 -1.5401  0.4151
 3220SOL     OW21295   4.488   2.150   5.926 -0.1240 -0.4918 -0.1213
 3220SOL    HW121296   4.533   2.192   5.999  0.9989 -0.6380 -0.7255
 3220SOL    HW221297   4.416   2.112   5.975  0.1132 -3.7125 -2.2720
 3221SOL     OW21298   2.501   3.143   0.338  0.1704 -0.6793 -0.0097
 3221SOL    HW121299   2.572   3.206   0.348 -1.6257  1.6224 -1.7241
 3221SOL    HW221300   2.436   3.195   0.291 -0.2303 -2.4997 -1.4742
 3222SOL     OW21301   0.392   4.492   6.509 -0.5518 -0.0908  0.2217
 3222SOL    HW121302   0.415   4.542   6.588 -2.3348 -0.1379  0.7614
 3222SOL    HW221303   0.395   4.400   6.535  0.0552  0.3375  1.7163
 3223SOL     OW21304   3.738   2.271   2.672  0.3160 -0.6649  0.4941
 3223SOL    HW121305   3.738   2.182   2.638 -1.0596 -0.1921 -0.7069
 3223SOL    HW221306   3.650   2.307   2.660  0.9018  0.0376 -1.6563
 3224SOL     OW21307   2.351   2.561   3.031  0.5842 -0.2395 -0.4734
 3224SOL    HW121308   2.261   2.591   3.020 -0.0177 -1.2340  1.5750
 3224SOL    HW221309   2.404   2.602   2.963 -1.7524  2.5814 -0.6081
 3225SOL     OW21310   3.905   2.925   7.602  0.3080 -0.7425  0.1565
 3225SOL    HW121311   3.860   2.888   7.526 -1.4080  0.9695  0.3349
 3225SOL    HW221312   3.905   3.019   7.585  0.4164 -0.7957 -0.1242
 3226SOL     OW21313   2.930   2.365   8.368  0.0999 -0.4798  0.1799
 3226SOL    HW121314   2.907   2.302   8.299  1.8694  0.6627 -1.4467
 3226SOL    HW221315   2.848   2.371   8.417 -0.1341  2.3547 -0.5448
 3227SOL     OW21316   0.613   2.292   8.724  0.2200  0.1946 -0.5488
 3227SOL    HW121317   0.540   2.246   8.767  1.1890 -1.3514 -0.5424
 3227SOL    HW221318   0.676   2.220   8.718 -1.9726 -1.4723 -3.4101
 3228SOL     OW21319   1.204   4.451   2.216  0.5243  0.5916  0.0016
 3228SOL    HW121320   1.204   4.537   2.173  0.0747  0.8412  0.4821
 3228SOL    HW221321   1.286   4.445   2.265 -0.4205 -1.8376  1.2825
 3229SOL     OW21322   0.500   1.523   7.858 -0.3404  0.2103  0.9737
 3229SOL    HW121323   0.455   1.555   7.779  1.4160 -1.3925 -0.6683
 3229SOL    HW221324   0.439   1.460   7.894  0.5734 -0.6777  0.9500
 3230SOL     OW21325   2.366   3.936   5.016 -0.0408  0.1021 -0.9330
 3230SOL    HW121326   2.351   4.027   5.042  0.0900 -0.1891  0.1744
 3230SOL    HW221327   2.274   3.910   5.026  0.1017  0.0493  0.2674
 3231SOL     OW21328   1.749   2.815   3.836 -0.0645 -1.0777 -0.2204
 3231SOL    HW121329   1.811   2.754   3.796  1.1133 -0.6319  0.9251
 3231SOL    HW221330   1.708   2.753   3.896 -1.0307 -0.7342 -0.5225
 3232SOL     OW21331   1.363   2.654   8.586 -0.3689 -0.2314  0.0971
 3232SOL    HW121332   1.374   2.591   8.658 -3.8138 -1.2786 -0.2908
 3232SOL    HW221333   1.436   2.632   8.529  0.0952 -1.1753  1.0368
 3233SOL     OW21334   2.022   4.222   8.294 -0.9138  0.7023  0.0036
 3233SOL    HW121335   2.024   4.201   8.201  2.2754  2.4356 -0.3144
 3233SOL    HW221336   1.978   4.307   8.303  2.2600  2.2575  0.9663
 3234SOL     OW21337   0.358   0.423  12.648 -0.3296  0.3175  0.2130
 3234SOL    HW121338   0.320   0.499  12.692 -0.7199  0.7351 -0.8337
 3234SOL    HW221339   0.310   0.350  12.687  0.3166 -0.3958 -0.3349
 3235SOL     OW21340   3.197   4.370   8.785  0.1988  0.2417  0.3169
 3235SOL    HW121341   3.205   4.436   8.855  1.7268  2.0435 -1.5586
 3235SOL    HW221342   3.198   4.417   8.702 -0.0389 -3.6621 -1.8700
 3236SOL     OW21343   0.683   1.003  16.449  0.3487  0.5154  0.1924
 3236SOL    HW121344   0.726   1.088  16.460  1.6886 -0.4190  2.1361
 3236SOL    HW221345   0.750   0.939  16.425 -0.1271  0.1857 -0.2780
 3237SOL     OW21346   4.577   4.687   2.687  0.3650 -0.5067  0.5304
 3237SOL    HW121347   4.483   4.667   2.682  0.6820 -1.2066 -2.4499
 3237SOL    HW221348   4.578   0.027   2.739  0.9371  1.2278 -2.1810
 3238SOL     OW21349   1.001   0.592   3.669 -0.8031 -1.1735 -0.2040
 3238SOL    HW121350   0.950   0.512   3.680  0.6380 -1.7872  2.0855
 3238SOL    HW221351   1.082   0.569   3.716 -1.7497 -0.7608  1.6174
 3239SOL     OW21352   1.258   3.236   3.689 -0.5316  0.0445 -0.2286
 3239SOL    HW121353   1.166   3.251   3.713 -0.2070  1.9819 -0.1610
 3239SOL    HW221354   1.299   3.321   3.706  0.6966 -0.3631 -1.2252
 3240SOL     OW21355   3.646   2.648   2.561  0.5388 -0.2428  0.0941
 3240SOL    HW121356   3.557   2.681   2.545  0.5971  0.0934  0.4893
 3240SOL    HW221357   3.628   2.554   2.568 -1.8579  0.0236 -2.3755
 3241SOL     OW21358   0.880   0.858   3.631 -0.2470 -0.3821  0.9532
 3241SOL    HW121359   0.912   0.771   3.654  1.7379 -0.3964 -1.9209
 3241SOL    HW221360   0.951   0.889   3.576  0.2715  0.2463  1.9864
 3242SOL     OW21361   2.150   4.094  16.950  0.2658  0.4872  0.5708
 3242SOL    HW121362   2.151   4.122  16.859  2.4210 -1.3771  0.0111
 3242SOL    HW221363   2.064   4.053  16.961 -0.1586  1.2163 -0.0183
 3243SOL     OW21364   0.963   1.689   4.150 -0.4646 -0.1601  0.2447
 3243SOL    HW121365   0.889   1.632   4.126  0.8831 -1.0447 -1.8413
 3243SOL    HW221366   1.023   1.668   4.078  0.1370  0.5755  0.5454
 3244SOL     OW21367   3.983   0.285  10.776  0.0001  0.5476  0.3043
 3244SOL    HW121368   3.973   0.193  10.751 -0.5459  0.5152  0.6349
 3244SOL    HW221369   3.891   0.310  10.778  0.3683  2.0318 -1.4867
 3245SOL     OW21370   2.860   3.062   9.577  0.0719 -0.2288 -0.0351
 3245SOL    HW121371   2.783   3.084   9.524  0.4157  0.5316 -0.2146
 3245SOL    HW221372   2.834   3.103   9.660 -0.0904  0.2808 -0.3380
 3246SOL     OW21373   2.686   0.654  10.245  0.2874 -0.3312 -0.1667
 3246SOL    HW121374   2.667   0.570  10.287 -0.7485  1.1070  2.2743
 3246SOL    HW221375   2.702   0.711  10.320 -2.2713 -1.3602  1.1703
 3247SOL     OW21376   1.320   4.656   4.661  0.0631  0.2690 -0.4071
 3247SOL    HW121377   1.415   4.660   4.676  0.0453  0.5301 -0.3635
 3247SOL    HW221378   1.304   4.714   4.587 -0.2792 -0.5937 -1.0081
 3248SOL     OW21379   0.147   2.572   3.735 -0.0620 -0.0161  1.0565
 3248SOL    HW121380   0.232   2.609   3.711  0.4747 -0.1167  2.7787
 3248SOL    HW221381   0.094   2.620   3.671 -0.2156 -0.1207  1.1053
 3249SOL     OW21382   1.748   2.189   4.860  0.3267  0.1486 -0.0367
 3249SOL    HW121383   1.836   2.208   4.828 -0.6829  2.9171 -1.1855
 3249SOL    HW221384   1.759   2.099   4.831  0.4868 -0.4830  2.0048
 3250SOL     OW21385   2.172   3.470   2.326 -0.1425 -0.4890  0.4742
 3250SOL    HW121386   2.233   3.401   2.351  1.6399  0.7707 -0.4366
 3250SOL    HW221387   2.097   3.427   2.369  0.5164  0.6230  2.7062
 3251SOL     OW21388   4.565   0.207   0.027  0.0025 -0.0620  0.6288
 3251SOL    HW121389   4.496   0.241   0.084 -1.7672 -2.1496 -0.2443
 3251SOL    HW221390   4.541   0.118   0.001  0.6624 -0.4473  1.3319
 3252SOL     OW21391   0.837   2.157   0.270 -0.0096 -0.0425  0.3299
 3252SOL    HW121392   0.882   2.235   0.237 -2.0963  1.4086  0.9237
 3252SOL    HW221393   0.897   2.146   0.344  1.6234  1.7271 -0.7219
 3253SOL     OW21394   1.083   1.948   2.638  0.3356  0.4760 -0.2678
 3253SOL    HW121395   1.121   2.025   2.681  3.3510 -1.0217 -0.2094
 3253SOL    HW221396   1.161   1.923   2.588  0.0699  0.4129 -0.6535
 3254SOL     OW21397   3.723   1.918   0.468  0.0144 -0.0257 -0.5822
 3254SOL    HW121398   3.731   1.827   0.495 -0.6847 -0.0456 -0.4460
 3254SOL    HW221399   3.631   1.924   0.446 -0.0064 -2.0276 -0.9703
 3255SOL     OW21400   1.225   4.079   9.072 -0.2536  0.4086 -0.5664
 3255SOL    HW121401   1.230   4.137   9.148  1.1127  1.1700 -1.2456
 3255SOL    HW221402   1.199   3.996   9.112  1.6090 -0.8827 -2.0420
 3256SOL     OW21403   1.912   2.254   3.076 -0.4844 -0.5241 -0.6862
 3256SOL    HW121404   2.002   2.224   3.070 -0.0319  0.9926 -1.3995
 3256SOL    HW221405   1.923   2.326   3.138  0.5770  0.5267 -2.0951
 3257SOL     OW21406   3.267   2.898   5.893 -0.7241 -0.0301  0.0419
 3257SOL    HW121407   3.341   2.943   5.852  1.0827  0.0658  3.4258
 3257SOL    HW221408   3.306   2.811   5.906 -0.5931 -0.1736 -1.2777
 3258SOL     OW21409   4.623   4.218  10.231 -0.1567 -0.4377  0.4711
 3258SOL    HW121410   4.716   4.206  10.212 -0.2040 -0.6260  0.3559
 3258SOL    HW221411   4.592   4.129  10.251  0.3568 -0.0740  2.8444
 3259SOL     OW21412   0.943   2.509   9.102  0.0250 -0.9931 -0.1736
 3259SOL    HW121413   0.956   2.473   9.014 -1.4822 -1.8642 -0.0218
 3259SOL    HW221414   0.848   2.496   9.104 -0.0577 -0.5576 -1.2361
 3260SOL     OW21415   3.982   1.059   7.024 -0.6217 -0.9761 -0.1925
 3260SOL    HW121416   3.892   1.028   7.027 -1.2876  1.0819  0.9581
 3260SOL    HW221417   3.967   1.130   6.961 -0.5319 -2.3981 -1.8086
 3261SOL     OW21418   3.224   1.459   8.683 -0.7658 -0.4410 -0.5438
 3261SOL    HW121419   3.259   1.548   8.689 -1.2993 -0.1546 -1.7812
 3261SOL    HW221420   3.208   1.454   8.589 -0.8550  2.0796 -0.6723
 3262SOL     OW21421   2.622   4.572   1.270 -0.1880 -0.2791  0.0356
 3262SOL    HW121422   2.597   4.492   1.315 -0.1071  0.1349  0.8137
 3262SOL    HW221423   2.568   4.635   1.318  1.6575  1.3889 -0.0822
 3263SOL     OW21424   3.648   1.782   8.567  0.6865  0.6620  0.2059
 3263SOL    HW121425   3.663   1.866   8.523 -2.7621  2.2072  2.0191
 3263SOL    HW221426   3.653   1.729   8.488 -0.6059 -1.2364  1.4129
 3264SOL     OW21427   1.108   0.019  17.003  0.5008 -0.7662  0.1456
 3264SOL    HW121428   1.015   0.042  17.003  0.4984 -0.7730 -1.3767
 3264SOL    HW221429   1.101   4.666  17.026  0.3670 -1.3946 -2.4694
 3265SOL     OW21430   2.672   3.774   1.517  0.1776  0.1872 -0.1810
 3265SOL    HW121431   2.626   3.702   1.475  0.7516 -0.7423  0.7755
 3265SOL    HW221432   2.677   3.741   1.607  3.4821  0.9971 -0.0678
 3266SOL     OW21433   1.505   1.625   4.286  0.3213 -0.4136 -0.1752
 3266SOL    HW121434   1.436   1.688   4.307  1.1610  0.1207  0.9497
 3266SOL    HW221435   1.455   1.554   4.246 -0.2953 -0.5813  0.8758
 3267SOL     OW21436   4.644   0.026   5.616 -0.1907  0.3941  0.4219
 3267SOL    HW121437   4.556   4.727   5.622  0.1992 -0.4456  0.6017
 3267SOL    HW221438   4.677   0.016   5.706 -1.6077  1.3250  1.0532
 3268SOL     OW21439   2.334   4.700   7.872  0.0646 -0.4568 -0.6483
 3268SOL    HW121440   2.305   4.650   7.795 -1.2877  0.6456 -0.8564
 3268SOL    HW221441   2.338   4.629   7.936 -0.1839  0.0474 -0.0884
 3269SOL     OW21442   1.953   1.153  15.952  0.1867  0.1462 -0.1479
 3269SOL    HW121443   1.918   1.223  16.007 -2.9831 -1.4828 -0.0848
 3269SOL    HW221444   2.043   1.184  15.961  0.5449 -0.1631 -2.8115
 3270SOL     OW21445   3.244   0.855   6.052 -0.6009 -0.4930  0.0694
 3270SOL    HW121446   3.282   0.797   5.986 -1.2000 -0.3179 -0.4245
 3270SOL    HW221447   3.320   0.903   6.086 -0.7843 -1.1943  1.4567
 3271SOL     OW21448   1.742   2.861   1.801  0.3279 -0.5289 -0.4992
 3271SOL    HW121449   1.746   2.922   1.874 -0.5307 -3.0802  1.6889
 3271SOL    HW221450   1.826   2.873   1.758  0.2667  1.2982 -0.1179
 3272SOL     OW21451   3.087   3.733   9.101  0.1637 -0.3178  0.5690
 3272SOL    HW121452   3.100   3.778   9.018  1.4100 -2.8231 -0.5742
 3272SOL    HW221453   3.005   3.778   9.123  0.5020  0.9874 -0.8429
 3273SOL     OW21454   2.206   1.802   8.345  0.0644 -0.1842 -0.5009
 3273SOL    HW121455   2.284   1.747   8.339 -0.5221 -1.1147  0.5370
 3273SOL    HW221456   2.239   1.891   8.359 -0.7518  0.0542 -0.1204
 3274SOL     OW21457   3.619   0.347  15.087 -0.1976  0.5023  0.1867
 3274SOL    HW121458   3.679   0.275  15.103 -0.4910  0.4256  0.9256
 3274SOL    HW221459   3.633   0.374  14.996 -0.5298  0.3050  0.0773
 3275SOL     OW21460   1.843   2.977   8.733 -0.2108  0.5193  0.0530
 3275SOL    HW121461   1.876   2.893   8.699  0.8734  0.7752  0.4698
 3275SOL    HW221462   1.751   2.957   8.717  0.2986 -1.7745 -0.0395
 3276SOL     OW21463   3.944   2.057   6.551  0.2054 -0.5514  0.1505
 3276SOL    HW121464   3.991   2.137   6.528  2.4988 -1.7649  0.5051
 3276SOL    HW221465   3.891   2.081   6.626 -1.0389  0.7434 -1.1581
 3277SOL     OW21466   4.470   0.531   5.730 -0.2153 -0.0360  0.4105
 3277SOL    HW121467   4.421   0.452   5.707 -0.6593  0.0966  0.9060
 3277SOL    HW221468   4.405   0.599   5.712 -0.9079 -0.1823  2.4482
 3278SOL     OW21469   4.108   2.151   4.829 -0.2465 -0.1257  0.3366
 3278SOL    HW121470   4.145   2.231   4.867  2.2788 -1.1379 -0.0388
 3278SOL    HW221471   4.186   2.113   4.790 -1.1996 -1.3832 -0.3410
 3279SOL     OW21472   4.192   3.745   5.543  0.0311 -0.2693  0.3793
 3279SOL    HW121473   4.165   3.837   5.540 -0.0828 -0.2806  1.0091
 3279SOL    HW221474   4.276   3.743   5.499  1.2525 -0.8851  2.7209
 3280SOL     OW21475   1.018   0.821   9.157 -0.5106 -0.1901  0.0028
 3280SOL    HW121476   1.004   0.862   9.242  1.7647  0.7733 -0.0816
 3280SOL    HW221477   1.016   0.903   9.107 -2.5684 -0.3817 -0.2362
 3281SOL     OW21478   4.309   1.009  16.691  0.1026  0.0105  0.2195
 3281SOL    HW121479   4.330   1.036  16.601 -2.0456  2.2651  0.3955
 3281SOL    HW221480   4.281   0.918  16.684  1.8995 -0.3431 -2.3392
 3282SOL     OW21481   1.382   0.073  16.146  0.2070 -0.0024 -0.4760
 3282SOL    HW121482   1.287   0.062  16.152  0.4411 -1.8759 -0.2562
 3282SOL    HW221483   1.407   0.047  16.235  0.9553  0.2106 -0.6216
 3283SOL     OW21484   2.190   2.523  14.989 -0.3874 -0.3002  0.3860
 3283SOL    HW121485   2.182   2.449  14.930 -2.3123 -0.2438  0.5694
 3283SOL    HW221486   2.224   2.479  15.067  0.7635 -0.7180 -0.3701
 3284SOL     OW21487   0.005   2.045   0.739  0.1064 -0.3026 -0.0705
 3284SOL    HW121488   4.688   1.968   0.744  2.6424 -2.2246 -0.1783
 3284SOL    HW221489   4.682   2.109   0.772  1.9638  1.1266  0.6819
 3285SOL     OW21490   1.629   1.285   2.192  0.0105 -0.1875  0.0219
 3285SOL    HW121491   1.630   1.253   2.102  1.4692 -2.9452  1.0276
 3285SOL    HW221492   1.695   1.229   2.233 -0.3833 -1.4655 -1.0962
 3286SOL     OW21493   4.005   1.044   3.182 -0.3326 -0.3307 -0.2244
 3286SOL    HW121494   3.973   1.043   3.272  0.1912  1.7898  0.0039
 3286SOL    HW221495   3.925   1.067   3.135 -0.4505  3.2988  1.7525
 3287SOL     OW21496   1.255   1.588   2.160 -0.0311  0.2199 -0.4417
 3287SOL    HW121497   1.204   1.625   2.088  0.1484  0.8505 -0.2398
 3287SOL    HW221498   1.287   1.511   2.113  0.0467  0.3730 -0.6383
 3288SOL     OW21499   0.316   3.878   5.116 -0.2661  0.1857  0.5466
 3288SOL    HW121500   0.321   3.899   5.023 -1.7227 -0.3182  0.3576
 3288SOL    HW221501   0.409   3.875   5.139 -0.0312 -1.9038 -0.6918
 3289SOL     OW21502   4.113   2.125  17.473  0.0311 -0.0292 -0.6135
 3289SOL    HW121503   4.098   2.214  17.440 -0.3221  0.0118 -0.3448
 3289SOL    HW221504   4.026   2.087  17.460  0.3295 -1.5817  1.8757
 3290SOL     OW21505   1.591   4.638   9.154  0.6845  0.0542  0.2378
 3290SOL    HW121506   1.575   4.726   9.119  0.2606 -0.3368 -0.5507
 3290SOL    HW221507   1.687   4.640   9.159  0.7186  1.2685 -0.9230
 3291SOL     OW21508   1.275   1.973   7.359  0.1046  0.8565 -0.7609
 3291SOL    HW121509   1.285   1.925   7.441 -0.7844  0.5997 -0.8105
 3291SOL    HW221510   1.181   1.969   7.340 -0.1260  0.0101  0.5620
 3292SOL     OW21511   1.972   1.832   4.380  1.2604 -0.0206  0.4885
 3292SOL    HW121512   2.021   1.773   4.439  2.4600  1.3885  0.9097
 3292SOL    HW221513   2.015   1.813   4.297 -1.2316 -0.6659 -0.6306
 3293SOL     OW21514   0.697   1.979  12.477 -0.2041  0.1757  0.0813
 3293SOL    HW121515   0.605   1.975  12.448  0.3370 -1.2211 -1.4075
 3293SOL    HW221516   0.719   1.889  12.496  2.0904  0.7573  0.0987
 3294SOL     OW21517   3.134   4.348  10.889  0.2365 -0.6516  0.2775
 3294SOL    HW121518   3.147   4.398  10.969 -1.4138  0.0784  0.0938
 3294SOL    HW221519   3.219   4.363  10.848 -0.6267  0.9222 -0.9213
 3295SOL     OW21520   4.035   0.216   1.857 -0.0336  0.4214 -0.2743
 3295SOL    HW121521   4.013   0.308   1.867  1.2106  0.7979 -0.9209
 3295SOL    HW221522   3.956   0.176   1.893  1.0479 -0.5773  1.0009
 3296SOL     OW21523   3.663   1.825   6.241  0.3815 -0.3235  0.7464
 3296SOL    HW121524   3.668   1.920   6.241  0.8120 -0.3367 -2.2103
 3296SOL    HW221525   3.668   1.800   6.333 -0.4880 -1.2830  0.5374
 3297SOL     OW21526   0.526   1.562  11.054 -0.1665  0.0634  0.0474
 3297SOL    HW121527   0.534   1.651  11.020  1.7287  0.5639  1.7469
 3297SOL    HW221528   0.577   1.571  11.135 -0.9887  0.3533  0.5333
 3298SOL     OW21529   2.997   0.532   6.954 -0.8921 -0.7573 -0.3925
 3298SOL    HW121530   3.017   0.491   6.869  0.8619 -1.8905  0.5705
 3298SOL    HW221531   3.070   0.592   6.970  0.3009 -2.3896  0.1670
 3299SOL     OW21532   1.259   0.312  11.664 -0.0308 -0.0154 -0.1279
 3299SOL    HW121533   1.268   0.349  11.576  0.9924 -0.7060 -0.3058
 3299SOL    HW221534   1.272   0.219  11.649 -2.4543 -0.4415  0.4182
 3300SOL     OW21535   0.766   3.659   3.799 -0.6379 -0.8603 -0.2372
 3300SOL    HW121536   0.763   3.705   3.883  1.8861 -0.0669 -0.5875
 3300SOL    HW221537   0.823   3.587   3.828 -0.2310 -1.0638 -1.5523
 3301SOL     OW21538   1.825   1.966   8.218  0.1266  0.0030 -0.2330
 3301SOL    HW121539   1.841   2.035   8.154  2.3348  0.4132  0.7794
 3301SOL    HW221540   1.730   1.976   8.230  0.1272  0.8502 -0.9334
 3302SOL     OW21541   1.308   0.098   8.672 -0.4375 -0.0095  0.7011
 3302SOL    HW121542   1.290   0.090   8.766  2.6061  0.9663  1.3529
 3302SOL    HW221543   1.231   0.146   8.641 -0.3220  0.0652  0.5350
 3303SOL     OW21544   1.505   1.480   8.313 -0.3471 -0.7431  0.0288
 3303SOL    HW121545   1.536   1.449   8.398 -0.4018 -2.4462 -0.5748
 3303SOL    HW221546   1.459   1.562   8.334  1.5794  0.2856  0.1808
 3304SOL     OW21547   0.692   1.833  11.919  0.0937 -0.5024 -0.0990
 3304SOL    HW121548   0.653   1.909  11.875  0.3919 -0.8745 -1.0012
 3304SOL    HW221549   0.615   1.777  11.920 -0.1750 -0.1313  0.3009
 3305SOL     OW21550   4.030   4.011   4.863  0.2315 -0.4189  0.5844
 3305SOL    HW121551   4.016   4.097   4.822  0.9140 -0.9760 -0.8372
 3305SOL    HW221552   3.939   3.983   4.874  0.3660 -0.8245  0.6565
 3306SOL     OW21553   0.020   0.073   3.724  0.5774 -0.1140 -0.3098
 3306SOL    HW121554   0.081   0.140   3.695 -1.6525  2.8206  1.7816
 3306SOL    HW221555   4.729   0.041   3.640 -1.2023  0.3338  0.1873
 3307SOL     OW21556   0.769   1.902   4.203  0.4117 -0.3284 -0.3390
 3307SOL    HW121557   0.723   1.846   4.265  0.3009 -2.9931 -2.8390
 3307SOL    HW221558   0.836   1.840   4.174  1.7777  1.1080 -0.2761
 3308SOL     OW21559   1.422   4.454   7.254 -0.3675  0.3679  0.1385
 3308SOL    HW121560   1.468   4.373   7.230  0.9194  1.0720  0.2511
 3308SOL    HW221561   1.486   4.522   7.232 -1.5560  0.5622 -2.7074
 3309SOL     OW21562   4.136   3.988  15.656  0.3914 -0.4280 -0.0784
 3309SOL    HW121563   4.052   3.960  15.619  0.2966  1.5287 -1.3942
 3309SOL    HW221564   4.108   4.030  15.737 -1.1520  0.5008 -1.0865
 3310SOL     OW21565   2.799   3.597   4.286 -0.6858  0.1093 -0.2003
 3310SOL    HW121566   2.726   3.611   4.345  1.1149 -1.3134  2.3637
 3310SOL    HW221567   2.776   3.668   4.226 -1.7574 -0.5819 -0.6306
 3311SOL     OW21568   3.193   0.152   2.596  0.3712  0.5116 -0.1610
 3311SOL    HW121569   3.196   0.241   2.631  0.0850  0.5339 -0.1885
 3311SOL    HW221570   3.284   0.150   2.565  1.5296  2.0935  3.1534
 3312SOL     OW21571   0.646   3.350  12.276 -0.2467  0.4401  0.3696
 3312SOL    HW121572   0.632   3.430  12.226  1.5517  0.4744 -0.0841
 3312SOL    HW221573   0.571   3.351  12.336 -0.7900 -1.4523 -0.2693
 3313SOL     OW21574   1.447   0.220   2.159  0.1035 -0.5142 -0.1737
 3313SOL    HW121575   1.398   0.260   2.087 -0.2695  2.6654  1.8090
 3313SOL    HW221576   1.420   0.282   2.227 -0.3511 -0.8636 -0.0375
 3314SOL     OW21577   4.379   4.371  14.233  0.9508 -0.4681 -0.0960
 3314SOL    HW121578   4.390   4.462  14.259 -0.4541 -0.7745  1.5624
 3314SOL    HW221579   4.457   4.338  14.277  0.4349 -1.2951  0.2076
 3315SOL     OW21580   0.711   3.180   4.555 -1.0322  0.4475  0.6169
 3315SOL    HW121581   0.793   3.130   4.564 -0.6430  1.1813  1.0889
 3315SOL    HW221582   0.722   3.220   4.641  1.0236  0.6594  0.2715
 3316SOL     OW21583   3.239   4.301   8.474 -0.1933  0.1037 -0.2758
 3316SOL    HW121584   3.263   4.208   8.468  1.0225  0.2844  2.0815
 3316SOL    HW221585   3.151   4.301   8.513  0.3383 -0.1217  0.9148
 3317SOL     OW21586   4.349   3.687   8.575 -0.2546  0.1330  0.2391
 3317SOL    HW121587   4.297   3.746   8.630  0.2186 -0.1417  0.9808
 3317SOL    HW221588   4.362   3.731   8.491  1.7595  2.2058  1.6334
 3318SOL     OW21589   0.556   2.801   5.430  0.1755  0.1268  0.3870
 3318SOL    HW121590   0.517   2.714   5.435  0.6550 -0.1033  0.1564
 3318SOL    HW221591   0.578   2.801   5.336 -1.1922 -0.4333  0.0566
 3319SOL     OW21592   4.431   3.519   3.205 -0.4653 -0.0885 -0.2251
 3319SOL    HW121593   4.482   3.600   3.195 -0.9260  0.3607  1.1184
 3319SOL    HW221594   4.479   3.456   3.152 -1.4875 -2.1434  1.3162
 3320SOL     OW21595   3.485   3.220  13.862 -0.6554 -0.2827  0.0452
 3320SOL    HW121596   3.475   3.142  13.916 -0.6791 -0.1292  0.2598
 3320SOL    HW221597   3.397   3.257  13.865  0.4358  2.4173 -0.9216
 3321SOL     OW21598   2.372   2.159   8.523 -0.9021  0.0021  0.5528
 3321SOL    HW121599   2.416   2.074   8.528  1.1163  0.8838 -2.4716
 3321SOL    HW221600   2.379   2.183   8.616 -0.0094  1.8732  0.0042
 3322SOL     OW21601   1.537   1.863   6.955  0.7713  0.5150  0.6464
 3322SOL    HW121602   1.627   1.884   6.980  1.3148 -0.1191 -0.8034
 3322SOL    HW221603   1.543   1.787   6.897 -2.2485  0.3709  0.5211
 3323SOL     OW21604   2.186   2.428   8.181 -0.0216  0.2984  0.3367
 3323SOL    HW121605   2.150   2.379   8.107 -0.0011 -0.7040  0.9965
 3323SOL    HW221606   2.232   2.495   8.131  0.3938 -0.9850 -0.9892
 3324SOL     OW21607   1.686   0.920   0.886  0.4838  0.3700  0.2981
 3324SOL    HW121608   1.624   0.961   0.825 -0.4131 -0.3398  0.7282
 3324SOL    HW221609   1.627   0.886   0.953 -0.7025  0.7384 -0.5428
 3325SOL     OW21610   4.225   2.469   1.983 -0.5982 -0.6528  0.3048
 3325SOL    HW121611   4.239   2.465   2.078  1.7375 -1.8272 -0.0941
 3325SOL    HW221612   4.150   2.529   1.985 -0.7303 -0.8174  0.1850
 3326SOL     OW21613   1.589   4.470   5.602  0.0976 -0.1510  0.3837
 3326SOL    HW121614   1.522   4.429   5.655  0.7650  0.8175  1.9734
 3326SOL    HW221615   1.659   4.471   5.667 -0.1778 -1.1839  0.6949
 3327SOL     OW21616   1.173   0.869   6.242 -0.4395  0.3307  0.0239
 3327SOL    HW121617   1.249   0.904   6.196 -2.1633 -0.2392 -3.2332
 3327SOL    HW221618   1.103   0.882   6.178 -1.0036 -0.8339  0.4057
 3328SOL     OW21619   2.988   1.868   7.342 -0.0710  0.2642 -0.3715
 3328SOL    HW121620   3.026   1.862   7.255  2.9934 -1.6913  1.1029
 3328SOL    HW221621   2.952   1.781   7.355 -0.4171  0.5052  0.3247
 3329SOL     OW21622   0.386   3.473   8.977  0.0537  0.2182 -0.9010
 3329SOL    HW121623   0.459   3.520   8.936 -1.3433  1.7411 -1.6288
 3329SOL    HW221624   0.370   3.402   8.915  1.5432 -1.8067  1.0626
 3330SOL     OW21625   1.789   1.618   1.707  0.3623 -0.3020 -0.0007
 3330SOL    HW121626   1.876   1.657   1.703 -1.4775  3.8320 -0.0287
 3330SOL    HW221627   1.743   1.639   1.625  2.0251  0.3460 -0.7575
 3331SOL     OW21628   3.772   4.163   7.735 -0.5749  0.4039 -0.0435
 3331SOL    HW121629   3.834   4.233   7.753  0.9018 -1.2819  1.4519
 3331SOL    HW221630   3.706   4.186   7.801  0.3910  0.4789  0.8912
 3332SOL     OW21631   1.561   0.036  12.764  0.0215  0.9736  0.1482
 3332SOL    HW121632   1.507   4.701  12.788 -0.3316  1.1914  0.0398
 3332SOL    HW221633   1.557   0.036  12.668 -1.5727  1.2897  0.2253
 3333SOL     OW21634   1.536   3.514   2.810 -0.0100 -0.4075  0.0514
 3333SOL    HW121635   1.616   3.506   2.758  2.0101 -0.4260  3.1684
 3333SOL    HW221636   1.569   3.495   2.897  0.7153  2.0625  0.3240
 3334SOL     OW21637   0.343   3.324   4.887  0.1846  0.1476 -0.0475
 3334SOL    HW121638   0.345   3.304   4.981  2.5866  2.5275  0.4071
 3334SOL    HW221639   0.347   3.419   4.878 -0.7712  0.2243  0.3083
 3335SOL     OW21640   3.220   3.307   4.662 -0.2139  0.3742  0.6106
 3335SOL    HW121641   3.252   3.364   4.591 -1.8550 -2.1987 -2.2281
 3335SOL    HW221642   3.299   3.260   4.688  1.9545  2.0184 -2.9221
 3336SOL     OW21643   1.381   3.271   7.421  0.2178  0.2929 -0.6832
 3336SOL    HW121644   1.325   3.194   7.412 -0.1830  0.6211 -0.9861
 3336SOL    HW221645   1.446   3.241   7.484 -0.6199 -2.1757 -0.9952
 3337SOL     OW21646   3.627   2.562  11.124 -0.2371 -0.1553 -0.3167
 3337SOL    HW121647   3.595   2.512  11.049 -0.5832 -0.5612  0.0984
 3337SOL    HW221648   3.554   2.557  11.186 -0.2357 -0.1736 -0.3164
 3338SOL     OW21649   3.955   3.913   8.458 -0.0405 -0.0943  0.3143
 3338SOL    HW121650   3.927   3.937   8.546 -1.0827 -2.7736  0.7178
 3338SOL    HW221651   3.982   3.822   8.467 -0.5468 -0.2871 -0.1789
 3339SOL     OW21652   1.722   2.233  10.014  0.0910  0.1890  0.0291
 3339SOL    HW121653   1.655   2.217   9.948 -1.9504  1.2917  1.8126
 3339SOL    HW221654   1.737   2.327  10.011 -1.0648  0.3386 -1.1208
 3340SOL     OW21655   0.408   3.640  17.586  0.4133 -0.6146 -0.1822
 3340SOL    HW121656   0.412   3.731  17.555 -0.0481 -0.1879  1.0236
 3340SOL    HW221657   0.475   3.651  17.653  0.2446 -3.5952  0.4562
 3341SOL     OW21658   1.254   4.295  16.022 -0.9043  0.1828 -0.0447
 3341SOL    HW121659   1.158   4.295  16.023 -0.8950 -0.7595  1.3774
 3341SOL    HW221660   1.274   4.210  15.985  1.2778  0.3332  0.7974
 3342SOL     OW21661   2.932   2.370  13.170  0.1505  0.5349  0.2284
 3342SOL    HW121662   2.847   2.381  13.128 -0.1208 -1.7356  0.1532
 3342SOL    HW221663   2.971   2.304  13.113 -1.1887  0.8163 -1.0203
 3343SOL     OW21664   1.127   3.149   6.305  0.2609 -0.0717  0.0232
 3343SOL    HW121665   1.048   3.168   6.356  0.7153  1.8443  0.0226
 3343SOL    HW221666   1.175   3.073   6.339  0.9913  0.3362 -0.0936
 3344SOL     OW21667   3.102   3.597   8.700  0.6911 -0.1085  0.6710
 3344SOL    HW121668   3.062   3.579   8.785 -0.7465 -2.8664 -0.5910
 3344SOL    HW221669   3.029   3.599   8.638  2.2619 -0.5063 -1.1930
 3345SOL     OW21670   2.672   0.828   8.858 -0.6577 -0.2007  0.1666
 3345SOL    HW121671   2.740   0.803   8.920 -1.3477  0.1312  1.0629
 3345SOL    HW221672   2.719   0.860   8.781 -1.3124  1.8149  0.5941
 3346SOL     OW21673   0.795   1.817   6.885 -0.3476  0.0949 -0.3791
 3346SOL    HW121674   0.783   1.754   6.956  0.5067 -0.2128 -0.5180
 3346SOL    HW221675   0.778   1.759   6.810  0.0924 -0.5843  0.0443
 3347SOL     OW21676   3.373   2.795   2.916 -0.6410  0.4025  0.6956
 3347SOL    HW121677   3.437   2.819   2.983  1.3869  0.1214 -1.1327
 3347SOL    HW221678   3.318   2.733   2.964  2.6656 -1.0032  2.6246
 3348SOL     OW21679   2.788   3.885   3.690 -0.4831 -0.2909 -0.3097
 3348SOL    HW121680   2.835   3.843   3.618  1.0163 -0.5459  0.8242
 3348SOL    HW221681   2.728   3.944   3.644 -0.3374  1.2746  1.4997
 3349SOL     OW21682   1.790   1.160   4.508  0.1485 -0.3917  0.4185
 3349SOL    HW121683   1.822   1.235   4.558 -1.5266 -0.4972  1.6904
 3349SOL    HW221684   1.838   1.093   4.556  2.8584 -0.5545 -2.5567
 3350SOL     OW21685   4.087   2.700   4.387  0.2755  0.1095 -0.4057
 3350SOL    HW121686   4.158   2.720   4.326  2.6043 -1.3254  1.8183
 3350SOL    HW221687   4.059   2.616   4.351  2.6677 -1.3299  1.0869
 3351SOL     OW21688   1.149   0.127   1.576 -0.0247 -0.0514  0.1977
 3351SOL    HW121689   1.225   0.185   1.587  0.8362 -1.4795  1.6395
 3351SOL    HW221690   1.088   0.168   1.636 -0.0498  1.7784 -1.0520
 3352SOL     OW21691   0.100   0.593   2.042 -0.3260 -0.2389 -0.0018
 3352SOL    HW121692   0.151   0.571   1.964  1.0134 -1.8393  1.3259
 3352SOL    HW221693   0.048   0.666   2.009 -0.8847  0.5609  2.6559
 3353SOL     OW21694   0.635   2.948  11.753 -0.0176  0.1085  0.4883
 3353SOL    HW121695   0.563   2.966  11.813  0.4500  1.4124  0.6532
 3353SOL    HW221696   0.587   2.910  11.679  0.4195  0.7479 -0.1238
 3354SOL     OW21697   2.023   2.300  14.605 -0.0278 -0.3586 -0.5568
 3354SOL    HW121698   2.059   2.389  14.602 -2.6181  0.7191  0.1596
 3354SOL    HW221699   1.932   2.316  14.629 -0.0672 -0.1014 -0.8701
 3355SOL     OW21700   1.498   2.304  13.400  0.8811 -0.1343 -0.6442
 3355SOL    HW121701   1.420   2.308  13.344 -0.1350 -0.4661  0.7450
 3355SOL    HW221702   1.517   2.393  13.427  0.6968  0.0453 -1.0995
 3356SOL     OW21703   1.527   2.140  13.002  0.0111 -0.2900 -0.3326
 3356SOL    HW121704   1.467   2.201  12.958  2.5680  0.5431 -2.6688
 3356SOL    HW221705   1.594   2.192  13.047  1.1598 -0.0175 -2.3756
 3357SOL     OW21706   1.440   2.881  13.660 -0.5452 -0.3025  0.1194
 3357SOL    HW121707   1.465   2.885  13.568  0.4413  0.0279  0.3994
 3357SOL    HW221708   1.366   2.821  13.658  1.1166 -2.3851  0.9737
 3358SOL     OW21709   4.359   1.965   6.268 -0.2583  0.4769  0.5775
 3358SOL    HW121710   4.378   1.981   6.360  2.5856  1.5900 -0.2303
 3358SOL    HW221711   4.281   2.018   6.251  0.2967  1.0194 -0.2667
 3359SOL     OW21712   4.441   2.812  15.393  0.0585 -0.4743 -0.4321
 3359SOL    HW121713   4.379   2.787  15.324  0.4040 -0.2608 -0.8252
 3359SOL    HW221714   4.430   2.906  15.378 -2.1334 -0.2689  2.5444
 3360SOL     OW21715   4.301   3.317   6.014  0.7804  0.4014  0.0038
 3360SOL    HW121716   4.261   3.375   6.079  0.6660  0.2292  0.0878
 3360SOL    HW221717   4.391   3.349   6.022  1.5526 -1.2457 -2.0514
 3361SOL     OW21718   3.750   1.150   4.615 -0.0932  1.0018  0.0582
 3361SOL    HW121719   3.829   1.199   4.592  0.8158  0.6674  2.4899
 3361SOL    HW221720   3.773   1.124   4.704 -0.7028 -1.6097 -0.5574
 3362SOL     OW21721   0.299   0.858   9.463 -0.1027 -0.3142  0.3215
 3362SOL    HW121722   0.218   0.821   9.498  0.1395  2.3102  3.5942
 3362SOL    HW221723   0.341   0.918   9.523  1.4852 -1.0159 -0.0755
 3363SOL     OW21724   2.160   1.308  16.043 -0.0029  0.2590 -0.6685
 3363SOL    HW121725   2.234   1.368  16.052  0.5732 -0.4311 -0.8778
 3363SOL    HW221726   2.174   1.244  16.112 -1.7931  0.1838 -0.3799
 3364SOL     OW21727   0.489   4.704   0.033  0.8325 -0.4172  0.0783
 3364SOL    HW121728   0.555   4.701  17.722  1.0112  1.5986  0.1619
 3364SOL    HW221729   0.417   0.020   0.004  2.3737  2.1596  1.3326
 3365SOL     OW21730   0.262   4.298  15.549  0.3616 -0.1313  0.6184
 3365SOL    HW121731   0.213   4.242  15.489 -2.8550  2.0960  1.1732
 3365SOL    HW221732   0.302   4.362  15.490  0.9236 -0.3977  0.7093
 3366SOL     OW21733   1.071   1.394  17.095  0.1213  0.0477 -0.1392
 3366SOL    HW121734   1.009   1.459  17.060 -0.4665 -0.4541 -0.0208
 3366SOL    HW221735   1.086   1.425  17.184  2.7165  1.5885 -1.1001
 3367SOL     OW21736   2.371   2.699  14.825 -0.1742 -0.3215 -0.1414
 3367SOL    HW121737   2.296   2.654  14.864 -1.6909  3.2866  1.1409
 3367SOL    HW221738   2.403   2.622  14.778  1.5455  0.9788 -1.0745
 3368SOL     OW21739   3.746   2.694   1.211 -0.5408  0.3078  0.1365
 3368SOL    HW121740   3.815   2.646   1.257 -0.2799 -0.9904 -1.6096
 3368SOL    HW221741   3.774   2.786   1.207  0.3423 -0.1279 -3.1214
 3369SOL     OW21742   3.062   1.275   8.795  0.8462  1.0029 -0.3397
 3369SOL    HW121743   3.114   1.349   8.763  1.7149  0.9307  0.9390
 3369SOL    HW221744   3.140   1.219   8.790 -0.3447 -0.5237 -1.6964
 3370SOL     OW21745   2.581   2.599   8.262  0.4518 -0.5928  0.2021
 3370SOL    HW121746   2.612   2.511   8.240  0.2764 -0.7412  0.5643
 3370SOL    HW221747   2.487   2.597   8.248  0.2171  1.0302  1.6289
 3371SOL     OW21748   4.139   3.202  16.332  0.0119 -0.2247  0.4222
 3371SOL    HW121749   4.125   3.114  16.297 -0.2967 -0.4117  1.0059
 3371SOL    HW221750   4.088   3.254  16.269  0.3624  0.2794  0.5543
 3372SOL     OW21751   4.578   3.499   7.258  0.5967  0.2180  0.6722
 3372SOL    HW121752   4.659   3.457   7.229 -0.0017 -1.3727  1.2989
 3372SOL    HW221753   4.605   3.590   7.257  0.5398  0.2145 -0.6523
 3373SOL     OW21754   1.318   3.303   8.768 -0.2033  0.3979 -0.0185
 3373SOL    HW121755   1.312   3.383   8.820 -1.3629 -0.3424  0.9844
 3373SOL    HW221756   1.406   3.303   8.729 -1.9142 -0.4751 -3.8760
 3374SOL     OW21757   0.759   4.045   2.802  0.2788  0.9339  1.3237
 3374SOL    HW121758   0.796   4.128   2.770  1.5206 -0.0307  0.2786
 3374SOL    HW221759   0.815   3.977   2.765 -1.0227  0.3628  0.4421
 3375SOL     OW21760   2.694   1.606   8.087 -0.3080  0.1951 -0.2066
 3375SOL    HW121761   2.637   1.640   8.018 -0.8719  3.6120  1.9231
 3375SOL    HW221762   2.766   1.561   8.044 -0.2953 -0.5059  0.5362
 3376SOL     OW21763   1.243   0.779   6.878  0.5311 -0.1858 -0.6307
 3376SOL    HW121764   1.294   0.828   6.943 -0.9625  2.4455 -1.4230
 3376SOL    HW221765   1.235   0.840   6.804 -0.5935 -0.9624 -1.1383
 3377SOL     OW21766   1.938   2.599   4.075  0.5762 -0.5317 -0.4232
 3377SOL    HW121767   1.967   2.610   4.166 -0.2393  0.1801 -0.2506
 3377SOL    HW221768   1.846   2.619   4.095  1.0585 -0.4718  1.7297
 3378SOL     OW21769   3.407   4.729  10.455 -0.2065  0.1416 -0.1977
 3378SOL    HW121770   3.387   4.674  10.380  0.7694  0.3412 -0.5977
 3378SOL    HW221771   3.410   0.078  10.420 -1.1363  0.3227  0.1799
 3379SOL     OW21772   2.497   0.563   7.728 -0.1820  0.4570  0.2768
 3379SOL    HW121773   2.535   0.564   7.816  0.0384 -1.4238  0.2037
 3379SOL    HW221774   2.558   0.503   7.686 -1.0300 -1.6794  2.0780
 3380SOL     OW21775   0.555   3.693   5.410 -0.6053  0.1246 -0.4794
 3380SOL    HW121776   0.635   3.674   5.361  0.7091  1.8541  0.9868
 3380SOL    HW221777   0.571   3.625   5.475 -1.2819 -0.1394 -0.5826
 3381SOL     OW21778   3.151   1.548   8.964  0.0033  0.0419  0.3931
 3381SOL    HW121779   3.195   1.547   8.878  0.8575  3.6159  0.7819
 3381SOL    HW221780   3.195   1.479   9.013  0.5038 -0.4927 -0.8133
 3382SOL     OW21781   1.575   4.662   5.172 -0.9334  0.4131  0.4493
 3382SOL    HW121782   1.528   4.605   5.233  1.9869 -2.0271  0.3783
 3382SOL    HW221783   1.515   4.671   5.098 -1.4145  1.2579  0.9350
 3383SOL     OW21784   3.812   4.080   1.026 -0.1833  0.1101 -0.0869
 3383SOL    HW121785   3.765   3.997   1.037 -0.9461  0.6365  0.5589
 3383SOL    HW221786   3.778   4.120   0.947  0.5081  0.9928  0.0626
 3384SOL     OW21787   3.486   0.893   6.379  0.2081  0.1278 -0.4115
 3384SOL    HW121788   3.579   0.883   6.402  0.1957  2.1859  0.5580
 3384SOL    HW221789   3.494   0.934   6.293  1.7019  0.1187 -0.2765
 3385SOL     OW21790   2.218   4.289   8.645  0.2228 -0.0762 -0.0906
 3385SOL    HW121791   2.264   4.345   8.708 -0.8337  1.5238 -0.7257
 3385SOL    HW221792   2.277   4.291   8.569  0.9192 -0.1544  0.4553
 3386SOL     OW21793   2.024   0.907   3.577  0.4733 -0.2681 -0.0023
 3386SOL    HW121794   2.106   0.860   3.584  0.9376  0.2071 -2.2685
 3386SOL    HW221795   2.017   0.915   3.482  1.5179 -2.2951 -0.2411
 3387SOL     OW21796   0.446   3.768   8.263 -0.3634 -0.5890  0.0020
 3387SOL    HW121797   0.446   3.816   8.181  2.5933  2.3345  1.7331
 3387SOL    HW221798   0.531   3.725   8.269  0.5108  1.3482  1.5169
 3388SOL     OW21799   1.596   2.646   1.931 -0.2442 -0.1827 -0.0165
 3388SOL    HW121800   1.618   2.733   1.896 -0.8083 -0.2586 -0.5573
 3388SOL    HW221801   1.634   2.654   2.019  1.3794  1.4404 -0.8552
 3389SOL     OW21802   2.652   1.268   9.959  0.2465 -0.3923  0.0021
 3389SOL    HW121803   2.716   1.290  10.025  2.1421 -1.1034 -1.5889
 3389SOL    HW221804   2.578   1.299  10.011 -1.1360 -0.7563 -1.7257
 3390SOL     OW21805   3.583   0.240   1.794  0.8873 -0.7287  0.7772
 3390SOL    HW121806   3.500   0.203   1.763  0.9126 -0.6641  0.6342
 3390SOL    HW221807   3.650   0.224   1.728 -1.3023  0.7057 -1.7835
 3391SOL     OW21808   1.604   0.176   8.220  0.7254 -0.6357  0.5618
 3391SOL    HW121809   1.697   0.163   8.201  0.1157 -4.3750  0.1632
 3391SOL    HW221810   1.614   0.199   8.313 -1.1276  0.4474  0.4883
 3392SOL     OW21811   1.763   2.566   8.500  0.0238 -0.1928  0.6800
 3392SOL    HW121812   1.679   2.534   8.468  0.0211 -0.9025  1.3845
 3392SOL    HW221813   1.823   2.500   8.466 -0.7880  0.6331 -2.2781
 3393SOL     OW21814   3.076   2.175   7.753 -0.1349 -0.9818 -0.3780
 3393SOL    HW121815   3.020   2.187   7.829  1.5538 -0.2880  0.7440
 3393SOL    HW221816   3.066   2.257   7.706  3.6516 -0.0288  0.4665
 3394SOL     OW21817   1.185   0.763   4.962  0.1960 -0.2932 -0.1108
 3394SOL    HW121818   1.278   0.780   4.949  0.2080 -0.9398 -0.8655
 3394SOL    HW221819   1.143   0.830   4.908  1.0495  0.5212  0.2243
 3395SOL     OW21820   4.641   2.959   4.817 -0.2132 -0.1727 -0.0311
 3395SOL    HW121821   4.627   2.965   4.723  0.0317  0.3284 -0.0368
 3395SOL    HW221822   4.621   3.050   4.839  1.3116  0.5345 -1.5494
 3396SOL     OW21823   0.836   2.445   4.652  0.2038 -0.2371 -0.3171
 3396SOL    HW121824   0.858   2.522   4.705  1.4233 -0.6407 -0.2393
 3396SOL    HW221825   0.767   2.485   4.600  0.0003  0.2514  0.3345
 3397SOL     OW21826   2.283   3.964   5.958  0.3153  0.4509  0.7048
 3397SOL    HW121827   2.293   3.874   5.989 -2.8777 -1.0090 -2.4828
 3397SOL    HW221828   2.360   3.971   5.900  0.8282 -0.4413  1.2859
 3398SOL     OW21829   3.738   0.180   4.572 -0.2294  0.5259 -1.0114
 3398SOL    HW121830   3.707   0.270   4.582 -0.2254  0.3267  0.7561
 3398SOL    HW221831   3.824   0.196   4.532 -0.8067 -0.2841 -2.5686
 3399SOL     OW21832   3.606   0.258   9.466 -0.3681 -0.0750 -0.0235
 3399SOL    HW121833   3.536   0.277   9.528 -0.9728 -0.7240 -0.5066
 3399SOL    HW221834   3.679   0.254   9.527  0.0720  0.5052 -0.5110
 3400SOL     OW21835   2.804   0.556   8.248 -0.1870 -0.0515  0.0949
 3400SOL    HW121836   2.790   0.651   8.254  0.9782  0.0957  0.5413
 3400SOL    HW221837   2.753   0.513   8.317  0.5105  0.1617  0.7476
 3401SOL     OW21838   1.447   0.757   8.397 -0.4960  0.1052  0.5808
 3401SOL    HW121839   1.383   0.778   8.329 -1.4139  3.1591  2.3910
 3401SOL    HW221840   1.428   0.663   8.398 -0.3308  0.0619 -0.8839
 3402SOL     OW21841   0.394   4.003   1.846 -0.2735  0.3038  0.4915
 3402SOL    HW121842   0.407   3.915   1.881 -0.6908  0.5931  1.3502
 3402SOL    HW221843   0.463   4.012   1.780 -1.2089 -0.9379 -0.6749
 3403SOL     OW21844   2.518   4.464   1.970 -0.6149  0.1617  0.7659
 3403SOL    HW121845   2.562   4.380   1.985 -3.4589 -1.2466  1.2626
 3403SOL    HW221846   2.574   4.510   1.907 -1.2382 -0.5305 -0.2896
 3404SOL     OW21847   1.836   1.309   9.171  0.0915 -0.5202 -0.1950
 3404SOL    HW121848   1.865   1.386   9.121  0.5515 -0.0203  0.8547
 3404SOL    HW221849   1.915   1.294   9.223  0.5363  1.1864 -0.3904
 3405SOL     OW21850   2.830   0.957   6.339  0.0514 -0.1105 -0.1793
 3405SOL    HW121851   2.842   0.885   6.277 -2.5752 -0.3325 -0.3975
 3405SOL    HW221852   2.893   0.939   6.409  1.4951  0.5779 -1.2808
 3406SOL     OW21853   0.767   2.435   4.988  0.4662 -0.3177  0.5057
 3406SOL    HW121854   0.853   2.412   5.024 -0.2285 -0.3855  2.0955
 3406SOL    HW221855   0.752   2.369   4.920 -0.3554  1.0238 -0.6138
 3407SOL     OW21856   4.558   3.536   8.538 -0.4588 -1.3651 -0.4659
 3407SOL    HW121857   4.485   3.597   8.545 -0.0791 -0.9534 -0.0512
 3407SOL    HW221858   4.518   3.460   8.581  2.7127 -1.5209  2.2507
 3408SOL     OW21859   4.390   1.860   5.993  0.6950 -0.4674  0.3146
 3408SOL    HW121860   4.476   1.820   5.995  0.5971 -0.6036  2.3651
 3408SOL    HW221861   4.373   1.875   6.086 -0.1398  0.4508  0.0301
 3409SOL     OW21862   2.161   2.375   6.076 -0.0039 -0.0287  0.2442
 3409SOL    HW121863   2.139   2.288   6.111 -0.0680 -0.2946 -0.4497
 3409SOL    HW221864   2.200   2.342   5.995  0.2994  0.1556  0.3170
 3410SOL     OW21865   2.878   4.450   3.473 -0.4780  0.2272  0.1597
 3410SOL    HW121866   2.917   4.389   3.536 -0.3275  1.0231  0.8305
 3410SOL    HW221867   2.783   4.443   3.485 -0.6059  0.5779 -0.6466
 3411SOL     OW21868   0.475   1.211   5.284  0.3597 -0.3950  0.8669
 3411SOL    HW121869   0.430   1.170   5.358 -0.8647  0.8116  0.7867
 3411SOL    HW221870   0.564   1.206   5.319  1.0899 -1.4965 -1.1217
 3412SOL     OW21871   0.365   1.369   0.209  0.5529  0.3384  0.6554
 3412SOL    HW121872   0.459   1.379   0.224  0.6638  1.0102 -0.4812
 3412SOL    HW221873   0.331   1.411   0.288 -0.2311 -1.8916  1.4720
 3413SOL     OW21874   0.369   0.393   2.534 -0.0493  0.0963 -0.5664
 3413SOL    HW121875   0.388   0.484   2.510 -1.4010  0.9756  1.5713
 3413SOL    HW221876   0.434   0.372   2.601 -0.4728  0.0710 -0.1637
 3414SOL     OW21877   2.941   4.281   3.203 -0.0852  0.3515 -0.0983
 3414SOL    HW121878   2.889   4.339   3.258  1.4878 -0.1686  1.9187
 3414SOL    HW221879   2.884   4.248   3.134 -1.1517  0.8185  0.5580
 3415SOL     OW21880   4.148   4.701   4.829  0.3659 -0.4049 -0.7652
 3415SOL    HW121881   4.115   4.644   4.759  0.5067 -0.9180 -0.4158
 3415SOL    HW221882   4.068   0.010   4.845  0.9036  0.2884 -0.1753
 3416SOL     OW21883   0.778   4.258   3.115  0.1061  0.6777 -0.6229
 3416SOL    HW121884   0.842   4.297   3.174 -0.6586  1.3008 -0.2185
 3416SOL    HW221885   0.724   4.216   3.180  0.4111 -0.1270 -0.8855
 3417SOL     OW21886   0.818   2.497  10.151  0.7239  0.1584  0.2385
 3417SOL    HW121887   0.826   2.522  10.059 -0.4856  2.1055  0.6742
 3417SOL    HW221888   0.878   2.554  10.200  2.8948 -2.1406  0.2919
 3418SOL     OW21889   2.743   4.682  16.855 -0.6209 -0.2389  0.6004
 3418SOL    HW121890   2.799   4.674  16.932 -1.5027  0.3408  1.2965
 3418SOL    HW221891   2.691   4.602  16.856 -2.6741  1.0971 -1.5343
 3419SOL     OW21892   2.299   2.965   3.334 -0.1576 -0.1545 -0.1083
 3419SOL    HW121893   2.383   2.997   3.301  0.7906 -3.6152 -1.0397
 3419SOL    HW221894   2.339   2.918   3.407  1.0620 -1.4562 -1.6213
 3420SOL     OW21895   2.893   1.105   2.948 -0.3042  0.0282  0.5583
 3420SOL    HW121896   2.833   1.113   2.874 -1.4525  1.5325  1.6406
 3420SOL    HW221897   2.828   1.087   3.016 -1.2926 -1.2927 -0.7294
 3421SOL     OW21898   3.534   0.686  16.707 -0.0951 -0.0577  0.1052
 3421SOL    HW121899   3.472   0.616  16.685  0.1926 -1.0585  2.5403
 3421SOL    HW221900   3.578   0.702  16.623 -3.3080  2.1801 -1.1417
 3422SOL     OW21901   2.720   4.206   7.790  0.8729 -0.7469 -0.6019
 3422SOL    HW121902   2.754   4.245   7.710  1.1428  0.4608  0.1110
 3422SOL    HW221903   2.669   4.275   7.831  1.9576  0.1666 -0.7948
 3423SOL     OW21904   3.144   4.696   9.016  0.1102  0.1245  0.6185
 3423SOL    HW121905   3.078   4.680   9.084  0.2074 -0.1629  0.6452
 3423SOL    HW221906   3.158   0.051   9.020 -1.4422  0.3680 -0.0076
 3424SOL     OW21907   4.326   0.644   1.077 -0.0796  0.1839  0.9498
 3424SOL    HW121908   4.317   0.611   0.988 -0.7170  1.2634  0.6152
 3424SOL    HW221909   4.236   0.647   1.111 -1.6635 -1.6649 -3.0324
 3425SOL     OW21910   0.635   1.089  11.111 -0.1136 -0.6066  0.1917
 3425SOL    HW121911   0.560   1.146  11.127 -0.6262 -0.7974 -1.4347
 3425SOL    HW221912   0.600   1.000  11.109  0.8862 -0.9956  0.0732
 3426SOL     OW21913   4.204   1.468   0.470 -0.1980  0.1692 -0.0345
 3426SOL    HW121914   4.131   1.530   0.464 -0.5459 -0.3300 -1.1175
 3426SOL    HW221915   4.192   1.385   0.423 -0.3487 -1.0360  2.1331
 3427SOL     OW21916   4.037   0.347   7.072  0.1288  0.5416 -0.2490
 3427SOL    HW121917   4.025   0.382   7.160  2.0561  1.6211 -0.3939
 3427SOL    HW221918   3.996   0.263   7.090  2.7791 -0.8116 -0.4293
 3428SOL     OW21919   3.322   2.708   7.442 -0.1814  0.2191 -0.0627
 3428SOL    HW121920   3.382   2.782   7.449 -1.3880  1.0278  1.9163
 3428SOL    HW221921   3.369   2.657   7.377 -0.5529  3.2743 -2.7579
 3429SOL     OW21922   2.706   3.343  11.437  0.0528  0.2666  0.0228
 3429SOL    HW121923   2.616   3.374  11.423 -0.2044  0.4780  2.2493
 3429SOL    HW221924   2.702   3.254  11.403 -0.8018  0.6626 -0.9422
 3430SOL     OW21925   3.493   4.180   7.387 -0.4703 -0.1823 -0.1404
 3430SOL    HW121926   3.415   4.133   7.355 -1.1601  0.9603 -0.1375
 3430SOL    HW221927   3.462   4.268   7.367  1.2121  0.2446 -0.8098
 3431SOL     OW21928   1.444   4.476   6.515 -0.4982  0.2240 -0.0002
 3431SOL    HW121929   1.527   4.447   6.553 -1.2654  1.8554  2.9260
 3431SOL    HW221930   1.465   4.569   6.520 -0.8440  0.3861 -1.7077
 3432SOL     OW21931   3.319   3.062  16.499 -0.7289  0.2039  0.4729
 3432SOL    HW121932   3.404   3.101  16.520  1.6087 -3.1321 -2.8353
 3432SOL    HW221933   3.289   3.020  16.580 -1.3431 -0.4765 -0.1163
 3433SOL     OW21934   1.176   1.700  16.310  0.2535  0.2551  0.1242
 3433SOL    HW121935   1.135   1.774  16.354 -0.4752 -0.5145  0.7474
 3433SOL    HW221936   1.227   1.663  16.382  2.0046  0.1031 -1.1853
 3434SOL     OW21937   3.293   1.139   8.795  0.1899 -0.0338 -0.3383
 3434SOL    HW121938   3.388   1.144   8.793  0.1309  1.0706  0.1393
 3434SOL    HW221939   3.286   1.070   8.728  0.1375 -0.7693  0.4176
 3435SOL     OW21940   1.759   0.144  15.574 -0.5028  0.2280  0.1166
 3435SOL    HW121941   1.693   0.177  15.635 -0.7206 -0.9889  0.5351
 3435SOL    HW221942   1.704   0.143  15.496  0.4360  1.9504 -0.5964
 3436SOL     OW21943   4.284   4.066   8.145  0.0156  0.0241  0.1878
 3436SOL    HW121944   4.233   4.135   8.187 -0.0325  0.9144 -1.3246
 3436SOL    HW221945   4.354   4.060   8.210 -0.5473  1.2596  0.9234
 3437SOL     OW21946   3.896   4.050  12.519  0.2301 -0.6046 -0.3348
 3437SOL    HW121947   3.895   4.137  12.558  1.0295  0.5178 -2.8868
 3437SOL    HW221948   3.985   4.040  12.486  1.0852  0.0633  1.7399
 3438SOL     OW21949   2.647   3.937   4.657  0.3516 -0.0716 -0.0173
 3438SOL    HW121950   2.733   3.961   4.692 -0.6799  1.0897  1.7439
 3438SOL    HW221951   2.609   4.025   4.651 -0.1650 -0.2701  0.3784
 3439SOL     OW21952   3.331   3.403   2.480  0.1254  0.1870  0.1269
 3439SOL    HW121953   3.297   3.319   2.449  1.1089  0.3542 -1.4126
 3439SOL    HW221954   3.359   3.447   2.400  2.0290  0.6556  1.0480
 3440SOL     OW21955   3.579   2.706   6.893 -0.3812  0.0216 -0.3129
 3440SOL    HW121956   3.673   2.714   6.911 -0.1303  1.5437 -2.3029
 3440SOL    HW221957   3.568   2.614   6.871 -0.3530  0.4039 -1.9020
 3441SOL     OW21958   2.405   3.486   1.623  0.3274  0.4739  0.5548
 3441SOL    HW121959   2.402   3.551   1.694 -0.5092  0.7118  0.2987
 3441SOL    HW221960   2.418   3.538   1.544 -3.6375 -0.4664 -0.7268
 3442SOL     OW21961   0.374   3.394   8.531  0.3457 -0.9529 -0.0068
 3442SOL    HW121962   0.385   3.489   8.538  2.7550 -1.3313  1.3817
 3442SOL    HW221963   0.323   3.386   8.450 -0.8516  2.5823  0.3819
 3443SOL     OW21964   1.251   1.538   2.942 -0.2446  0.3254  0.2185
 3443SOL    HW121965   1.300   1.555   2.862  1.2237  1.1867  1.3023
 3443SOL    HW221966   1.286   1.609   2.995 -0.3760  0.4549  0.1302
 3444SOL     OW21967   1.107   3.351  12.370  0.0287  0.1159 -0.0686
 3444SOL    HW121968   1.065   3.423  12.418 -1.3662 -1.3575  0.9124
 3444SOL    HW221969   1.197   3.376  12.349  0.6313 -2.7984 -0.9678
 3445SOL     OW21970   1.522   2.149  11.090  0.2613 -0.5821  0.8519
 3445SOL    HW121971   1.613   2.167  11.068 -0.0587 -0.7072 -0.5631
 3445SOL    HW221972   1.474   2.140  11.008  1.8630  3.2777 -0.5371
 3446SOL     OW21973   1.670   2.078   8.519  0.1657 -0.6790 -0.6222
 3446SOL    HW121974   1.765   2.081   8.519  0.1633 -0.5889 -0.3212
 3446SOL    HW221975   1.651   2.160   8.473 -2.1760 -2.0447 -2.1024
 3447SOL     OW21976   1.336   1.189   7.666 -0.1048 -0.7246  0.4162
 3447SOL    HW121977   1.400   1.117   7.670 -1.3124 -1.7837  0.6003
 3447SOL    HW221978   1.300   1.196   7.754  0.5179  4.4384  0.2275
 3448SOL     OW21979   1.604   1.779   2.429 -0.1056 -0.0342 -0.2508
 3448SOL    HW121980   1.573   1.727   2.354  0.1793  0.1213 -0.4747
 3448SOL    HW221981   1.665   1.718   2.470  0.7618  0.7028 -0.4527
 3449SOL     OW21982   3.224   0.754   9.141 -0.1378 -0.5117  0.1194
 3449SOL    HW121983   3.224   0.806   9.060 -1.0106 -2.4916 -1.1543
 3449SOL    HW221984   3.317   0.730   9.143 -0.6776 -2.7742 -2.0517
 3450SOL     OW21985   2.058   0.229   4.369  0.5516 -0.8577  0.4912
 3450SOL    HW121986   2.096   0.141   4.372  0.1317 -1.0064  1.6311
 3450SOL    HW221987   2.124   0.268   4.427  1.4533  1.4152 -2.1225
 3451SOL     OW21988   3.541   1.289   2.906  0.6640 -0.1128 -0.3008
 3451SOL    HW121989   3.521   1.365   2.960  0.0938  0.8221 -1.8344
 3451SOL    HW221990   3.467   1.233   2.929 -1.4869  2.6431 -0.5377
 3452SOL     OW21991   3.466   3.875  15.915 -0.3398  0.1383 -0.3203
 3452SOL    HW121992   3.422   3.828  15.844 -1.6894  2.7144 -1.1831
 3452SOL    HW221993   3.520   3.926  15.854 -1.4249  1.0952 -0.4679
 3453SOL     OW21994   2.991   0.242   7.368 -0.4176 -0.0042 -0.2398
 3453SOL    HW121995   3.068   0.298   7.355  0.1207 -0.7356 -0.1565
 3453SOL    HW221996   2.930   0.284   7.307 -0.4393  0.4450  0.0923
 3454SOL     OW21997   1.638   1.182   4.283  0.4073  0.2482  0.1080
 3454SOL    HW121998   1.697   1.172   4.357  1.4026  1.4423 -0.5086
 3454SOL    HW221999   1.551   1.190   4.323  0.3223  1.2853 -0.2832
 3455SOL     OW22000   4.310   3.238   2.156 -0.0657  0.1258 -0.3457
 3455SOL    HW122001   4.223   3.263   2.125  0.1188 -1.0133 -1.7543
 3455SOL    HW222002   4.370   3.257   2.084  0.8567 -0.9027  0.1451
 3456SOL     OW22003   0.890   1.011   5.398  0.0359  0.1865  0.1360
 3456SOL    HW122004   0.804   0.968   5.390 -0.3080  0.8218  0.4149
 3456SOL    HW222005   0.939   0.956   5.458  1.2364  0.4462 -0.6068
 3457SOL     OW22006   3.773   0.793   3.804  0.5959  0.2385 -0.4119
 3457SOL    HW122007   3.825   0.866   3.838  0.3129 -0.0128  0.5579
 3457SOL    HW222008   3.806   0.788   3.714 -1.2825  0.0848 -1.1022
 3458SOL     OW22009   4.367   4.153   6.584 -0.2156  0.0533  0.6411
 3458SOL    HW122010   4.444   4.185   6.631 -0.5727  0.9911  0.5864
 3458SOL    HW222011   4.298   4.191   6.639  0.3221 -0.7096  1.8373
 3459SOL     OW22012   2.621   0.426   7.544 -0.0134  0.3043  0.4558
 3459SOL    HW122013   2.698   0.370   7.555  0.3285  0.2940 -2.0198
 3459SOL    HW222014   2.598   0.420   7.451  0.6444 -0.6692  0.3504
 3460SOL     OW22015   3.498   2.705  10.063  0.3360 -0.5759  0.3871
 3460SOL    HW122016   3.498   2.611  10.043  0.3266  0.0223 -2.3969
 3460SOL    HW222017   3.417   2.730  10.018  0.1180  0.8730  1.6239
 3461SOL     OW22018   1.642   3.744   3.064  0.1344 -0.1951 -0.7922
 3461SOL    HW122019   1.612   3.833   3.045  0.2253  0.1022  0.5291
 3461SOL    HW222020   1.568   3.703   3.109 -2.5737  1.0106 -4.0788
 3462SOL     OW22021   3.256   3.762   6.501 -0.1004 -0.4742 -0.2107
 3462SOL    HW122022   3.226   3.803   6.420  1.4738  0.4960 -0.3158
 3462SOL    HW222023   3.181   3.783   6.557  0.7751 -0.9005  1.1291
 3463SOL     OW22024   1.196   1.253   3.017 -0.1226 -0.3486 -0.0621
 3463SOL    HW122025   1.210   1.340   2.979 -1.3863  0.0723  0.4352
 3463SOL    HW222026   1.195   1.272   3.111 -2.3315  1.2163 -0.4028
 3464SOL     OW22027   0.737   1.660   7.612 -0.0531  0.2083 -0.4521
 3464SOL    HW122028   0.717   1.716   7.538 -0.5989  2.0837  1.1178
 3464SOL    HW222029   0.689   1.578   7.597  2.1712 -0.9905 -1.0103
 3465SOL     OW22030   1.444   2.720  16.889 -0.0281  0.4898 -0.1316
 3465SOL    HW122031   1.355   2.749  16.867 -0.1682  0.9444  1.0409
 3465SOL    HW222032   1.455   2.767  16.972 -3.4883 -0.0104  0.6496
 3466SOL     OW22033   3.020   1.465   7.651 -0.4499 -0.1528  0.4709
 3466SOL    HW122034   3.047   1.417   7.573 -1.6588 -0.6459  0.3460
 3466SOL    HW222035   3.076   1.542   7.645 -1.4459  0.5427  0.0605
 3467SOL     OW22036   1.005   1.820   8.313 -0.2883 -0.0475 -0.3374
 3467SOL    HW122037   1.009   1.901   8.261 -1.1990 -0.6638 -1.3712
 3467SOL    HW222038   0.916   1.786   8.306  0.3351 -1.3781 -1.7361
 3468SOL     OW22039   2.215   3.505   1.304  0.3881 -0.3470  0.0926
 3468SOL    HW122040   2.184   3.529   1.217 -1.9945  0.4293  1.1788
 3468SOL    HW222041   2.152   3.540   1.366  1.3181 -0.4854  1.1132
 3469SOL     OW22042   0.162   2.452   6.253 -0.5874  0.0937  0.3418
 3469SOL    HW122043   0.186   2.416   6.168  1.3501 -1.7500  1.6435
 3469SOL    HW222044   0.134   2.368   6.291 -1.9370  0.4751  0.2050
 3470SOL     OW22045   3.859   1.506   8.396 -0.4274 -0.3357  0.0225
 3470SOL    HW122046   3.938   1.543   8.358  1.2017 -2.9356  0.8922
 3470SOL    HW222047   3.789   1.539   8.340  0.6774  0.8441 -0.6508
 3471SOL     OW22048   4.228   1.832   8.549  0.6347 -0.0598  0.2781
 3471SOL    HW122049   4.248   1.887   8.473  3.2714 -1.5167 -0.0854
 3471SOL    HW222050   4.301   1.771   8.560  1.0709  0.5915  1.0225
 3472SOL     OW22051   3.040   0.912   9.277 -0.5548 -0.0352  0.4175
 3472SOL    HW122052   3.112   0.860   9.242 -1.8796 -1.1216 -0.7092
 3472SOL    HW222053   3.089   0.993   9.284  1.5413 -1.3402  0.6619
 3473SOL     OW22054   2.470   0.513   6.679 -0.2193 -0.2851 -0.1400
 3473SOL    HW122055   2.472   0.600   6.718  1.4848 -0.5249  0.3139
 3473SOL    HW222056   2.388   0.473   6.706 -0.9344 -0.5955 -2.7299
 3474SOL     OW22057   0.577   4.324  12.219  0.1672 -0.5065 -0.2958
 3474SOL    HW122058   0.548   4.265  12.289 -0.3478  0.4783  0.3252
 3474SOL    HW222059   0.528   4.401  12.247 -0.4692 -0.4448 -1.5781
 3475SOL     OW22060   4.125   2.380   8.516 -0.4601 -0.3207  0.3605
 3475SOL    HW122061   4.200   2.329   8.545 -0.9603  0.3038  2.7746
 3475SOL    HW222062   4.126   2.441   8.590  0.5790  2.7275 -2.1329
 3476SOL     OW22063   4.703   1.162   2.782 -0.3760  0.4198 -0.0813
 3476SOL    HW122064   4.668   1.238   2.736 -1.5970  0.2861  0.6369
 3476SOL    HW222065   0.024   1.202   2.844  0.1592 -1.8349  0.8546
 3477SOL     OW22066   0.589   3.629   4.735 -0.2013  0.3118 -0.3127
 3477SOL    HW122067   0.544   3.623   4.650 -1.7378  2.5183  0.3659
 3477SOL    HW222068   0.647   3.554   4.723  1.3698  1.4470  0.1086
 3478SOL     OW22069   4.641   4.389   1.424 -0.2156 -0.2143 -0.3298
 3478SOL    HW122070   4.618   4.385   1.331 -0.6593  0.5392 -0.2591
 3478SOL    HW222071   4.670   4.299   1.436  0.7518  0.1322 -0.1457
 3479SOL     OW22072   3.797   1.001   7.479 -0.6548  0.4455 -0.8822
 3479SOL    HW122073   3.762   0.912   7.474 -0.8696  0.3425  2.2140
 3479SOL    HW222074   3.872   0.996   7.420  0.5530  0.1014  0.6803
 3480SOL     OW22075   3.145   2.767   8.294 -0.1461  0.2753  0.1899
 3480SOL    HW122076   3.058   2.727   8.289  0.0172  0.1457 -1.6227
 3480SOL    HW222077   3.111   2.852   8.320  2.5237  0.9129  1.6338
 3481SOL     OW22078   3.373   3.695   4.362 -0.2030  0.1319 -0.5982
 3481SOL    HW122079   3.315   3.666   4.292 -1.4385  2.6826 -0.6611
 3481SOL    HW222080   3.456   3.692   4.313  0.6084 -0.7304  0.8284
 3482SOL     OW22081   3.207   0.406   6.031 -0.1518  0.0365 -0.2749
 3482SOL    HW122082   3.285   0.412   6.085  1.4548  0.9211 -2.7174
 3482SOL    HW222083   3.183   0.314   6.043 -0.5637  0.4368  1.9636
 3483SOL     OW22084   2.188   1.970  12.554  0.1170 -0.3551  0.3623
 3483SOL    HW122085   2.120   1.990  12.618 -0.5801  0.1279 -0.5286
 3483SOL    HW222086   2.206   1.878  12.569 -0.5101 -0.8436 -1.8504
 3484SOL     OW22087   2.621   1.569  15.205 -0.1560 -0.0909  0.6774
 3484SOL    HW122088   2.677   1.548  15.280  1.7713 -1.1960 -1.0884
 3484SOL    HW222089   2.627   1.664  15.194 -0.6553 -0.2207 -0.6801
 3485SOL     OW22090   0.156   0.336  11.979 -0.1169  0.1524  0.2602
 3485SOL    HW122091   0.107   0.353  12.060 -0.5757 -2.0297  0.4326
 3485SOL    HW222092   0.241   0.369  12.009  0.6999 -2.2732  0.5876
 3486SOL     OW22093   4.217   0.349   6.592 -0.1550  0.1423  0.6388
 3486SOL    HW122094   4.131   0.308   6.608 -0.7710  1.1587 -0.1339
 3486SOL    HW222095   4.268   0.284   6.641 -1.4318 -1.8404 -0.6448
 3487SOL     OW22096   2.720   1.449   6.375 -0.5619 -0.1456 -0.0917
 3487SOL    HW122097   2.647   1.465   6.316 -1.8603 -2.5476  0.8416
 3487SOL    HW222098   2.722   1.530   6.426  0.4625 -0.2942  0.1155
 3488SOL     OW22099   2.617   2.571   1.940  0.5521  0.3715 -0.5369
 3488SOL    HW122100   2.676   2.591   1.867 -0.9989  0.3942 -1.7890
 3488SOL    HW222101   2.668   2.502   1.983  0.1591  0.8865  0.7555
 3489SOL     OW22102   3.103   2.153   1.675 -0.1514 -0.2680  0.3054
 3489SOL    HW122103   3.176   2.199   1.633  0.4637 -0.8305  0.7656
 3489SOL    HW222104   3.086   2.216   1.746 -1.1491 -0.6335  0.3894
 3490SOL     OW22105   0.301   1.699   9.825 -0.4103 -0.0409  0.0268
 3490SOL    HW122106   0.251   1.618   9.820  0.5734 -0.6244 -0.2883
 3490SOL    HW222107   0.356   1.680   9.749  0.5386  2.1261  0.1781
 3491SOL     OW22108   3.974   0.365   4.857  0.0721 -0.1647  0.2392
 3491SOL    HW122109   3.898   0.353   4.915 -1.6531 -2.3194 -2.4528
 3491SOL    HW222110   3.998   0.454   4.882  3.3713 -1.6094  2.1602
 3492SOL     OW22111   0.534   2.387   7.705 -0.1796  0.5884 -1.0258
 3492SOL    HW122112   0.559   2.302   7.742 -0.0881  1.0738  0.0164
 3492SOL    HW222113   0.456   2.404   7.759 -0.8630 -1.4958 -1.3504
 3493SOL     OW22114   4.055   3.603  16.320  0.3102  0.0968  0.2879
 3493SOL    HW122115   4.030   3.519  16.282 -0.6553 -0.4156  2.0374
 3493SOL    HW222116   4.061   3.660  16.244 -3.1684  1.9518  1.3684
 3494SOL     OW22117   0.904   0.695  15.264  0.2018 -0.5435 -0.0280
 3494SOL    HW122118   0.866   0.725  15.182  0.8906 -0.1391 -0.2042
 3494SOL    HW222119   0.852   0.755  15.318 -2.0707 -0.0006 -2.8527
 3495SOL     OW22120   2.492   2.494   3.513  0.0835 -0.4463 -0.0667
 3495SOL    HW122121   2.466   2.546   3.589 -2.7272  0.0312 -1.3511
 3495SOL    HW222122   2.560   2.440   3.553  0.3378  1.4966  2.1533
 3496SOL     OW22123   3.305   3.612   5.617 -0.2775  0.0901 -0.0975
 3496SOL    HW122124   3.338   3.526   5.593  0.4654  0.1353  0.7903
 3496SOL    HW222125   3.359   3.627   5.694  0.5485 -0.4249 -0.5808
 3497SOL     OW22126   3.336   4.173   5.536  0.1823 -0.0750 -0.1292
 3497SOL    HW122127   3.271   4.104   5.550 -1.5758  1.5861 -0.1746
 3497SOL    HW222128   3.408   4.114   5.557  0.4746  0.1380 -0.5261
 3498SOL     OW22129   2.896   3.550   1.254 -0.4426 -0.4719  0.2569
 3498SOL    HW122130   2.826   3.484   1.256  0.5544 -1.5452 -0.5362
 3498SOL    HW222131   2.924   3.555   1.345  1.2313  0.2708 -0.2978
 3499SOL     OW22132   0.894   0.731  12.613  0.6922 -0.4001  0.0645
 3499SOL    HW122133   0.943   0.730  12.696  1.8495  0.3843 -0.6090
 3499SOL    HW222134   0.823   0.675  12.644  0.5135 -1.5654 -2.4557
 3500SOL     OW22135   2.143   2.925   3.706 -0.0188 -0.2211  0.2119
 3500SOL    HW122136   2.120   2.860   3.772 -1.6160  0.2238  0.0848
 3500SOL    HW222137   2.126   3.009   3.750 -1.2898 -0.3976  0.0498
 3501SOL     OW22138   2.320   4.165   1.352 -0.3092 -0.0127 -0.1760
 3501SOL    HW122139   2.364   4.083   1.328  0.7741  0.6977 -0.6018
 3501SOL    HW222140   2.265   4.183   1.276 -0.7983 -0.3653  0.0968
 3502SOL     OW22141   0.541   2.802   5.115  0.3498  0.0871 -0.2564
 3502SOL    HW122142   0.501   2.720   5.086 -2.9112  1.0641  1.4944
 3502SOL    HW222143   0.611   2.800   5.050  1.2174  1.8593  0.6286
 3503SOL     OW22144   1.587   3.864   4.555  0.5674 -0.1410  0.1654
 3503SOL    HW122145   1.508   3.903   4.594  0.1803 -0.8608  0.0899
 3503SOL    HW222146   1.550   3.799   4.497 -1.4101 -0.5211  1.8528
 3504SOL     OW22147   2.366   3.314   7.364  0.1658  0.0716 -0.1413
 3504SOL    HW122148   2.317   3.384   7.407  1.5173  0.4467  0.7611
 3504SOL    HW222149   2.420   3.368   7.306  0.2731  0.4978  0.3623
 3505SOL     OW22150   3.597   4.177  15.777  0.6875 -0.0056 -0.4522
 3505SOL    HW122151   3.621   4.268  15.791  0.9807 -0.1086 -0.2691
 3505SOL    HW222152   3.507   4.172  15.746  0.4813  1.8316 -0.1030
 3506SOL     OW22153   0.853   3.481   2.067  0.1046 -0.1501 -0.2041
 3506SOL    HW122154   0.889   3.406   2.114  0.8411  1.3931  1.6466
 3506SOL    HW222155   0.854   3.459   1.973 -0.1089  2.3084 -0.7874
 3507SOL     OW22156   1.744   3.826   3.676 -0.0224  0.6380  0.7757
 3507SOL    HW122157   1.826   3.776   3.677 -0.3292  0.1080 -0.6451
 3507SOL    HW222158   1.781   3.914   3.667 -2.5035  1.5041 -0.8292
 3508SOL     OW22159   3.895   3.073   6.521 -0.0244  0.1539 -0.1372
 3508SOL    HW122160   3.941   3.081   6.605 -3.4157  0.6478  1.6616
 3508SOL    HW222161   3.965   3.028   6.474 -1.5123  0.0128 -2.1777
 3509SOL     OW22162   0.921   0.546   4.488  0.0753  0.4994 -0.6432
 3509SOL    HW122163   0.938   0.452   4.495  3.3205  0.9576 -2.6396
 3509SOL    HW222164   0.834   0.543   4.448  0.5167 -1.0148 -1.4906
 3510SOL     OW22165   0.606   0.200   7.841 -0.4731  0.7854  0.4673
 3510SOL    HW122166   0.597   0.290   7.871  0.0623  1.2786 -0.8179
 3510SOL    HW222167   0.584   0.205   7.748  0.9653 -0.1595  0.0789
 3511SOL     OW22168   2.080   0.545   6.697  0.3679 -0.0148  0.2063
 3511SOL    HW122169   2.149   0.502   6.748  1.3426 -0.8164 -1.7604
 3511SOL    HW222170   2.006   0.542   6.757  0.6914  2.5796  0.7397
 3512SOL     OW22171   0.864   2.467   8.613  0.6052  0.4855 -0.1563
 3512SOL    HW122172   0.802   2.534   8.642 -0.7627 -0.7970 -0.0990
 3512SOL    HW222173   0.850   2.402   8.682  0.0199  0.7726 -0.0060
 3513SOL     OW22174   1.325   3.867   9.413 -0.2895  0.2953 -0.3380
 3513SOL    HW122175   1.308   3.833   9.325 -0.3253  0.1574 -0.2770
 3513SOL    HW222176   1.270   3.807   9.463  1.3229 -2.7512 -2.2396
 3514SOL     OW22177   0.065   4.421   3.521 -0.0388 -0.0606 -0.1716
 3514SOL    HW122178   0.096   4.420   3.612  2.0847 -1.9832 -0.9257
 3514SOL    HW222179   0.145   4.444   3.474 -0.7453 -1.8907 -2.2924
 3515SOL     OW22180   1.079   3.153   8.776 -0.8047  0.3553  0.4517
 3515SOL    HW122181   1.094   3.107   8.859  1.3271 -1.1262 -0.7645
 3515SOL    HW222182   1.155   3.210   8.775  0.6620 -1.5891  2.1790
 3516SOL     OW22183   0.500   0.025   5.434  0.1382 -0.0716 -0.1568
 3516SOL    HW122184   0.466   4.737   5.350 -0.8781  2.5050 -0.6194
 3516SOL    HW222185   0.594   0.039   5.427  0.1455 -0.0219  0.0478
 3517SOL     OW22186   0.748   3.681  13.155 -0.1213  0.1688 -0.2194
 3517SOL    HW122187   0.822   3.740  13.141  0.9851 -1.1655 -0.0156
 3517SOL    HW222188   0.673   3.732  13.124  0.2868 -0.3642 -2.0828
 3518SOL     OW22189   1.561   0.161   5.453  0.3946  0.0569 -0.3409
 3518SOL    HW122190   1.631   0.096   5.462  0.0500 -0.0149  1.9437
 3518SOL    HW222191   1.482   0.115   5.480 -0.3280  1.7002  0.3406
 3519SOL     OW22192   2.331   4.617   4.066  0.3718 -0.2419 -0.1798
 3519SOL    HW122193   2.316   4.617   4.160 -0.8902 -0.8902 -0.3774
 3519SOL    HW222194   2.424   4.638   4.059  0.7482 -2.0046 -0.3043
 3520SOL     OW22195   1.064   1.528   8.192 -0.4197 -0.6934 -0.0737
 3520SOL    HW122196   1.018   1.560   8.114 -0.9847 -0.1391  0.4895
 3520SOL    HW222197   1.073   1.604   8.248  2.9853 -1.4361  0.4134
 3521SOL     OW22198   0.632   0.688   3.554  0.4569  0.0080 -0.2155
 3521SOL    HW122199   0.726   0.680   3.536  0.1022  0.9402 -2.5089
 3521SOL    HW222200   0.619   0.602   3.594 -2.3312  0.0458 -1.0747
 3522SOL     OW22201   0.806   3.458   2.455 -0.0555 -0.2785 -0.2089
 3522SOL    HW122202   0.714   3.462   2.431 -0.3023  2.1632  1.1888
 3522SOL    HW222203   0.814   3.532   2.515 -0.0292 -0.9068  0.5654
 3523SOL     OW22204   4.322   3.842   6.497  0.0324 -0.4546 -0.4582
 3523SOL    HW122205   4.307   3.929   6.461 -2.2312 -0.6456  0.0196
 3523SOL    HW222206   4.281   3.786   6.430 -0.1950  2.7337 -3.0050
 3524SOL     OW22207   3.677   2.625  11.453 -0.3606 -0.0481 -0.1216
 3524SOL    HW122208   3.654   2.718  11.457 -1.0864 -0.2845  1.2044
 3524SOL    HW222209   3.598   2.571  11.459  0.3812 -1.0778  0.3982
 3525SOL     OW22210   0.825   3.027   6.363  0.2309 -0.2469 -0.5285
 3525SOL    HW122211   0.806   3.120   6.373 -2.7193 -1.0020  0.6283
 3525SOL    HW222212   0.803   2.993   6.449 -1.2570  1.7253 -0.1236
 3526SOL     OW22213   2.073   4.652   9.448 -0.4581 -0.2363  0.1773
 3526SOL    HW122214   2.160   4.686   9.469 -1.5197  1.5193  1.8180
 3526SOL    HW222215   2.080   4.576   9.505  1.0919  1.2428  1.9805
 3527SOL     OW22216   0.233   0.098  15.455  0.0193  0.3730  0.1878
 3527SOL    HW122217   0.161   0.036  15.444  0.2866  0.5044 -2.2943
 3527SOL    HW222218   0.296   0.062  15.392  0.0621 -1.8055  1.4510
 3528SOL     OW22219   1.903   3.587  11.073  0.0186 -0.8909  0.1975
 3528SOL    HW122220   1.826   3.573  11.130 -0.1351  2.5428  0.7942
 3528SOL    HW222221   1.930   3.495  11.070 -1.1343 -1.2845  1.4389
 3529SOL     OW22222   4.663   1.484   8.794  0.3040  0.0821  0.2659
 3529SOL    HW122223   4.571   1.479   8.823  0.5568 -3.4779  0.4463
 3529SOL    HW222224   4.689   1.399   8.829  3.6551  1.3969  0.9399
 3530SOL     OW22225   2.519   1.326  13.697 -1.0254 -0.8001 -0.3334
 3530SOL    HW122226   2.522   1.421  13.685 -0.1719 -0.3958  3.0393
 3530SOL    HW222227   2.611   1.298  13.694 -0.8428 -0.3279  0.8592
 3531SOL     OW22228   3.083   4.647  16.788  0.0699  0.5739  0.8151
 3531SOL    HW122229   3.055   4.714  16.727  3.3473  1.1622 -0.0510
 3531SOL    HW222230   3.171   4.640  16.752 -0.6450 -1.4966 -0.5455
 3532SOL     OW22231   0.365   0.116   9.633  0.8841  0.1813  0.2730
 3532SOL    HW122232   0.294   0.168   9.669  0.9266  1.5458 -1.6040
 3532SOL    HW222233   0.380   0.173   9.558  1.6487  1.0598  1.0933
 3533SOL     OW22234   3.817   0.858   5.558  0.0303  0.1478 -0.6235
 3533SOL    HW122235   3.862   0.805   5.624 -0.5701  1.1938  0.6295
 3533SOL    HW222236   3.891   0.883   5.504 -0.3437  1.0066 -0.7354
 3534SOL     OW22237   4.647   3.078   5.459  0.2841 -0.1275 -0.3721
 3534SOL    HW122238   4.714   3.046   5.400  0.4377 -4.4744  2.1443
 3534SOL    HW222239   4.707   3.114   5.524 -0.9409  1.0857  0.0873
 3535SOL     OW22240   1.675   2.567   9.868 -0.0531  0.1139  0.7009
 3535SOL    HW122241   1.749   2.532   9.917 -0.7433 -2.2268  0.0752
 3535SOL    HW222242   1.646   2.635   9.929 -1.1247  0.8148 -0.5939
 3536SOL     OW22243   4.482   4.581   9.066  0.8109  0.2167  0.9905
 3536SOL    HW122244   4.406   4.614   9.114  0.8969  1.0265  0.5825
 3536SOL    HW222245   4.455   4.492   9.044 -2.0128  1.3510 -0.2138
 3537SOL     OW22246   3.758   2.353   9.274  0.5085 -0.5770 -0.1170
 3537SOL    HW122247   3.672   2.315   9.293  0.6001 -1.1671 -0.8454
 3537SOL    HW222248   3.798   2.289   9.216 -0.2992  0.9804 -2.4084
 3538SOL     OW22249   0.970   3.643   9.216 -0.0256 -0.5705 -0.1311
 3538SOL    HW122250   0.924   3.580   9.162  1.1674 -0.6399 -1.0643
 3538SOL    HW222251   0.900   3.669   9.276  1.1428 -0.2222  1.0967
 3539SOL     OW22252   2.857   1.906   9.259 -0.4136  0.5567  0.1721
 3539SOL    HW122253   2.898   1.992   9.257  1.3245 -0.2109  2.1916
 3539SOL    HW222254   2.929   1.852   9.226 -1.1572 -1.0791  1.2211
 3540SOL     OW22255   3.363   0.253   7.265 -0.0361 -0.1637 -0.4602
 3540SOL    HW122256   3.390   0.322   7.204 -0.6261  0.6701  0.2236
 3540SOL    HW222257   3.290   0.293   7.312  0.0472  1.5976 -1.8396
 3541SOL     OW22258   1.483   3.173   9.905  0.6388  0.0028  0.2888
 3541SOL    HW122259   1.529   3.252   9.933  0.9469  0.1308 -0.5622
 3541SOL    HW222260   1.554   3.109   9.909  0.3157 -0.3502  0.3667
 3542SOL     OW22261   2.251   0.625   2.439 -0.1177  0.3543 -0.0475
 3542SOL    HW122262   2.309   0.663   2.373  0.4203 -1.2333 -0.4687
 3542SOL    HW222263   2.306   0.561   2.483  0.3799 -0.6024 -2.0529
 3543SOL     OW22264   2.520   4.163   6.110  0.1148 -0.2731  0.5831
 3543SOL    HW122265   2.447   4.123   6.063  0.8471  0.3068 -1.0308
 3543SOL    HW222266   2.471   4.215   6.174 -0.6236  1.4250 -1.3573
 3544SOL     OW22267   3.516   4.207   1.314  0.0778 -0.1513 -0.1644
 3544SOL    HW122268   3.605   4.225   1.345  0.0797 -0.4903  0.0321
 3544SOL    HW222269   3.499   4.123   1.356  1.5104 -1.3491 -1.9974
 3545SOL     OW22270   3.418   4.489   8.487  0.3590  0.1997  0.7229
 3545SOL    HW122271   3.350   4.425   8.469  0.6958 -0.1266  0.6064
 3545SOL    HW222272   3.391   4.564   8.434 -4.3111 -0.3968  2.3356
 3546SOL     OW22273   0.846   4.143   6.291  0.1799  0.1400 -0.5427
 3546SOL    HW122274   0.914   4.154   6.357 -0.7530  0.7216  0.3289
 3546SOL    HW222275   0.852   4.050   6.270  2.2077  0.5027 -1.5303
 3547SOL     OW22276   0.935   3.658  12.266  0.1780  0.6925 -0.4399
 3547SOL    HW122277   1.019   3.654  12.220  0.3583 -0.2223 -0.0359
 3547SOL    HW222278   0.963   3.642  12.356 -0.4296 -0.1301 -0.3970
 3548SOL     OW22279   1.664   3.610   8.304 -0.4786  0.6350 -0.4149
 3548SOL    HW122280   1.746   3.651   8.330  0.7708 -0.9643 -1.7780
 3548SOL    HW222281   1.689   3.528   8.260  2.0183  0.2520  1.7044
 3549SOL     OW22282   3.162   3.693   6.981  0.3210 -0.0510 -0.3386
 3549SOL    HW122283   3.241   3.747   6.974  0.3819 -0.1429 -0.3506
 3549SOL    HW222284   3.186   3.605   6.952  3.2513  0.4223  0.6167
 3550SOL     OW22285   2.577   0.992  12.414 -0.3481  0.3560  0.5389
 3550SOL    HW122286   2.554   0.899  12.412  0.6488  0.1106  0.5685
 3550SOL    HW222287   2.652   0.991  12.356  0.5777 -1.7964  1.7783
 3551SOL     OW22288   2.056   3.598   6.590 -0.2204 -0.0944 -0.4822
 3551SOL    HW122289   2.043   3.691   6.571  1.6932  0.3251  0.2894
 3551SOL    HW222290   2.106   3.580   6.510  1.2883 -0.1205  0.4747
 3552SOL     OW22291   3.923   2.100  14.401  0.2492  0.1731 -0.3332
 3552SOL    HW122292   3.835   2.067  14.382  0.6758 -1.0369 -0.1958
 3552SOL    HW222293   3.944   2.158  14.327  1.9454 -1.0204 -0.7891
 3553SOL     OW22294   2.651   4.601   6.105 -0.5033 -0.6470 -0.2735
 3553SOL    HW122295   2.645   4.669   6.171 -0.8718 -0.7558 -0.1931
 3553SOL    HW222296   2.743   4.588   6.086  0.2801  0.5963  2.7439
 3554SOL     OW22297   3.146   0.883   8.916 -0.3707  0.5119 -0.4763
 3554SOL    HW122298   3.112   0.796   8.896 -0.6418  1.0332 -2.2763
 3554SOL    HW222299   3.081   0.926   8.860 -2.7119 -2.4896 -0.0771
 3555SOL     OW22300   2.972   0.095   9.327 -0.0888 -0.0147 -0.0856
 3555SOL    HW122301   2.913   0.155   9.372 -1.4606 -0.0528 -1.8631
 3555SOL    HW222302   2.917   0.076   9.251  0.9019 -0.2609 -0.7330
 3556SOL     OW22303   3.400   4.138   2.339  0.4910 -0.7263 -0.4932
 3556SOL    HW122304   3.455   4.149   2.417  2.7086  0.5882 -2.2501
 3556SOL    HW222305   3.442   4.209   2.291 -1.0988  0.0517 -0.7356
 3557SOL     OW22306   0.330   2.783  16.805 -0.7869  0.5226 -0.0998
 3557SOL    HW122307   0.310   2.689  16.811  2.5654 -0.1425  0.9379
 3557SOL    HW222308   0.256   2.830  16.843  1.5970  3.3915  1.0360
 3558SOL     OW22309   0.706   0.930   5.942 -0.3581 -0.2276 -0.1533
 3558SOL    HW122310   0.791   0.889   5.958 -1.4785 -2.4075  0.3421
 3558SOL    HW222311   0.672   0.872   5.873  0.6168 -0.3298 -0.5482
 3559SOL     OW22312   4.120   2.976   7.189  0.1467 -0.8701  0.2531
 3559SOL    HW122313   4.210   3.009   7.189  0.4091 -1.5135 -2.7368
 3559SOL    HW222314   4.122   2.914   7.115  0.8130 -1.5542  0.8357
 3560SOL     OW22315   0.521   4.440  11.008  0.6260 -0.1618  0.5416
 3560SOL    HW122316   0.516   4.429  11.103  1.2690  1.2407  0.7462
 3560SOL    HW222317   0.473   4.363  10.978  0.3827  0.0544  0.3814
 3561SOL     OW22318   2.349   4.553   9.311  0.1968 -0.1912 -0.1800
 3561SOL    HW122319   2.408   4.479   9.326  0.2917  0.0665  0.7492
 3561SOL    HW222320   2.314   4.534   9.224  0.3351  0.2585 -0.3334
 3562SOL     OW22321   0.828   2.062   6.766  0.3751 -0.1647 -0.3096
 3562SOL    HW122322   0.828   1.971   6.795  0.5159  0.6906  2.4518
 3562SOL    HW222323   0.742   2.088   6.734 -1.1628 -0.5714  3.4487
 3563SOL     OW22324   1.854   1.989  17.682 -0.0629 -0.3334  0.3419
 3563SOL    HW122325   1.878   2.024   0.010  1.1333 -0.6856  0.1438
 3563SOL    HW222326   1.760   2.006  17.696 -0.5097 -1.8907 -0.7654
 3564SOL     OW22327   2.805   3.676   4.965  0.5718  0.5384  0.3760
 3564SOL    HW122328   2.720   3.718   4.977  1.1666  1.1908  2.2426
 3564SOL    HW222329   2.840   3.667   5.054  1.3497 -1.1645 -0.0911
 3565SOL     OW22330   4.583   2.762   6.260  0.2962 -0.4075 -1.0038
 3565SOL    HW122331   4.613   2.704   6.330 -0.1865  0.2957 -0.2145
 3565SOL    HW222332   4.605   2.713   6.182  4.1168 -0.0365 -0.1538
 3566SOL     OW22333   4.101   1.348   8.978 -0.0523  1.0654  0.3733
 3566SOL    HW122334   4.168   1.383   9.038  0.5950 -0.9721  0.8148
 3566SOL    HW222335   4.056   1.432   8.964 -1.1116  0.5529  0.7287
 3567SOL     OW22336   4.018   3.592   9.182  0.1747  0.1659  0.7012
 3567SOL    HW122337   4.041   3.571   9.272 -0.5608  1.1112  1.1089
 3567SOL    HW222338   3.948   3.656   9.193 -3.1607 -3.3066 -0.2267
 3568SOL     OW22339   4.453   3.793   5.816  0.2176  0.3797 -0.0952
 3568SOL    HW122340   4.375   3.743   5.793  1.3962 -1.8772  0.7915
 3568SOL    HW222341   4.455   3.863   5.751  0.7958  1.8282  1.4773
 3569SOL     OW22342   1.512   3.419   0.402 -1.0467 -0.4381  0.0836
 3569SOL    HW122343   1.530   3.351   0.467 -1.4145 -1.4871 -0.9194
 3569SOL    HW222344   1.419   3.397   0.393 -1.1717 -0.5545  1.6009
 3570SOL     OW22345   0.473   4.371   8.212 -0.3503  0.3044 -0.0470
 3570SOL    HW122346   0.424   4.310   8.268 -0.5804 -2.1756 -2.9209
 3570SOL    HW222347   0.424   4.351   8.132 -1.0952 -0.6948  0.6432
 3571SOL     OW22348   3.922   0.218  14.571 -0.2655  0.5203  0.4516
 3571SOL    HW122349   4.016   0.230  14.577 -0.3266  1.5084 -0.6109
 3571SOL    HW222350   3.887   0.303  14.599  0.6341  0.9089  0.3801
 3572SOL     OW22351   2.569   3.133  11.284  0.0197  0.1497  0.7800
 3572SOL    HW122352   2.478   3.117  11.310 -0.2522 -1.8955 -1.4093
 3572SOL    HW222353   2.562   3.201  11.218  1.9731 -1.9274 -1.5668
 3573SOL     OW22354   2.956   4.521   6.730 -0.1309 -0.1964 -0.3972
 3573SOL    HW122355   3.003   4.565   6.660  0.2999  0.5909  0.3926
 3573SOL    HW222356   2.949   4.438   6.683  1.0696 -1.3443  1.4522
 3574SOL     OW22357   1.554   2.629  10.328 -0.4917 -0.0720 -0.5315
 3574SOL    HW122358   1.575   2.718  10.355  0.4222 -0.3056 -0.4471
 3574SOL    HW222359   1.584   2.575  10.401  1.6199  0.3910 -1.0312
 3575SOL     OW22360   0.700   4.416   2.904  0.0128  0.2926  0.0562
 3575SOL    HW122361   0.743   4.365   2.836 -2.0406  0.7551 -1.5628
 3575SOL    HW222362   0.698   4.352   2.975  1.8970  1.7655  1.4666
 3576SOL     OW22363   1.111   0.764  17.335  0.3619  0.0826 -0.8489
 3576SOL    HW122364   1.104   0.676  17.299 -0.5238 -0.2027  0.0159
 3576SOL    HW222365   1.023   0.796  17.315 -1.2410 -1.9531  2.8948
 3577SOL     OW22366   4.636   4.334   8.659 -0.0325 -0.0341  0.2132
 3577SOL    HW122367   4.590   4.290   8.588  1.3853  0.6524 -1.1154
 3577SOL    HW222368   4.579   4.411   8.659 -1.3088 -0.9763  1.3112
 3578SOL     OW22369   3.951   1.790   3.248 -0.2186  0.1089  0.4956
 3578SOL    HW122370   3.910   1.711   3.284 -0.6020  0.0563 -0.0600
 3578SOL    HW222371   3.978   1.759   3.161 -0.3185 -0.0011  0.5042
 3579SOL     OW22372   3.330   1.114   3.462 -0.1038 -0.0029 -0.2195
 3579SOL    HW122373   3.319   1.032   3.413  0.4963  0.6169 -1.3823
 3579SOL    HW222374   3.267   1.120   3.533 -0.9356  0.1781 -0.9767
 3580SOL     OW22375   4.386   2.083   9.075  0.5549  0.5478  0.6740
 3580SOL    HW122376   4.447   2.010   9.083 -0.1054  0.1190  1.9068
 3580SOL    HW222377   4.414   2.122   8.993 -0.8455 -0.8299 -0.4503
 3581SOL     OW22378   1.776   4.738  11.843 -0.6150 -0.5475 -0.4436
 3581SOL    HW122379   1.778   4.652  11.802  2.0026 -1.3946  1.4889
 3581SOL    HW222380   1.707   0.037  11.788 -0.0929 -0.1573 -0.8178
 3582SOL     OW22381   2.856   4.455   2.570  0.3126  0.2412  0.0176
 3582SOL    HW122382   2.788   4.404   2.526  1.6478 -0.1193 -1.6491
 3582SOL    HW222383   2.838   4.546   2.546 -0.9721  0.2809  1.1601
 3583SOL     OW22384   3.491   1.109  17.604 -0.2894 -0.1969  0.5639
 3583SOL    HW122385   3.563   1.130  17.664  0.3831 -2.1508  0.4413
 3583SOL    HW222386   3.514   1.177  17.541  0.7747 -0.8169  0.2883
 3584SOL     OW22387   2.304   1.318   8.489 -0.8679  0.2231  0.0293
 3584SOL    HW122388   2.297   1.309   8.584 -0.0783 -0.4961  0.0236
 3584SOL    HW222389   2.365   1.250   8.461 -1.0498 -0.0436  0.2872
 3585SOL     OW22390   2.122   2.873   8.165 -0.3972 -0.1606  0.0639
 3585SOL    HW122391   2.170   2.895   8.086  1.4851 -0.4492  1.1322
 3585SOL    HW222392   2.057   2.811   8.133  0.3132  0.2840 -2.2340
 3586SOL     OW22393   1.558   0.679   3.643  0.0410  0.2799 -0.0717
 3586SOL    HW122394   1.647   0.701   3.671 -0.5312  1.3454  0.9003
 3586SOL    HW222395   1.519   0.746   3.699  0.8254  1.4462 -0.9073
 3587SOL     OW22396   2.191   0.640   6.446  0.3371 -0.4247 -0.1734
 3587SOL    HW122397   2.156   0.594   6.523  2.6425 -1.3787  0.3141
 3587SOL    HW222398   2.116   0.650   6.387  0.9970 -1.7281 -1.2428
 3588SOL     OW22399   4.008   0.995   3.889  0.1034  0.1040 -0.0606
 3588SOL    HW122400   4.063   0.917   3.893 -2.2175 -1.3235  3.8345
 3588SOL    HW222401   4.062   1.067   3.921 -0.2317  1.4691 -2.5230
 3589SOL     OW22402   1.094   0.374   7.277 -0.0082  0.1474  0.5688
 3589SOL    HW122403   1.068   0.399   7.365 -2.0810 -0.1727  0.0458
 3589SOL    HW222404   1.089   0.460   7.234 -2.4298 -1.1920 -1.8325
 3590SOL     OW22405   4.539   0.499  11.392 -0.3173  0.4292  0.3968
 3590SOL    HW122406   4.596   0.525  11.464  1.3757  0.5950 -1.0074
 3590SOL    HW222407   4.555   0.405  11.386 -0.8359  0.6876 -4.8558
 3591SOL     OW22408   0.313   4.214   4.775 -0.3985  0.0706 -0.6691
 3591SOL    HW122409   0.362   4.264   4.709  1.6672 -1.2797 -0.1524
 3591SOL    HW222410   0.361   4.252   4.848  2.1267  0.6629 -2.6184
 3592SOL     OW22411   4.714   3.052  10.557 -0.1148  0.2394 -0.0294
 3592SOL    HW122412   4.706   2.963  10.591 -3.5933 -0.0327 -1.6225
 3592SOL    HW222413   4.640   3.096  10.598  0.7658  2.0354 -0.3811
 3593SOL     OW22414   3.463   4.053  15.252  0.0315 -0.2193  0.8412
 3593SOL    HW122415   3.504   4.034  15.168 -1.3519  0.2348  0.0525
 3593SOL    HW222416   3.371   4.064  15.225 -0.0434 -0.6964  0.9183
 3594SOL     OW22417   0.395   0.674   2.991 -0.2838  0.6606 -0.0329
 3594SOL    HW122418   0.365   0.591   2.955  0.6198  0.2821  0.0767
 3594SOL    HW222419   0.328   0.692   3.057 -0.6961 -3.0309  0.5509
 3595SOL     OW22420   3.115   0.163   3.621 -0.2066 -1.0653 -0.1539
 3595SOL    HW122421   3.207   0.151   3.595 -0.0524  0.1752 -0.1813
 3595SOL    HW222422   3.075   0.198   3.542  0.6354 -1.0145 -0.5583
 3596SOL     OW22423   0.937   4.629  10.205  0.4975 -0.3278 -0.2705
 3596SOL    HW122424   0.897   4.644  10.120  1.9180 -0.5246 -0.9776
 3596SOL    HW222425   0.894   4.700  10.253 -0.4189 -0.3286 -1.0956
 3597SOL     OW22426   3.025   0.173   5.443  0.0630 -0.1001  0.4459
 3597SOL    HW122427   3.076   0.253   5.438  0.0618 -0.1231  0.0775
 3597SOL    HW222428   3.097   0.110   5.437  0.9793  0.9909  0.0950
 3598SOL     OW22429   4.337   4.460   7.630 -0.0146 -0.0781 -0.4032
 3598SOL    HW122430   4.261   4.408   7.606 -0.8351  0.3434  1.3502
 3598SOL    HW222431   4.350   4.508   7.548 -0.2895 -1.2529 -1.1287
 3599SOL     OW22432   0.392   4.392  10.044  0.5570  0.3046  0.4867
 3599SOL    HW122433   0.383   4.319  10.105 -2.3824 -0.7496 -1.2300
 3599SOL    HW222434   0.303   4.425  10.031  1.3200  1.6591 -1.2522
 3600SOL     OW22435   2.177   3.885  14.773  0.9847  0.3296 -0.0554
 3600SOL    HW122436   2.146   3.975  14.772 -1.3024 -0.4432 -0.5973
 3600SOL    HW222437   2.096   3.834  14.762 -0.8730  3.2166  0.1475
 3601SOL     OW22438   1.591   4.671   7.690 -0.3091 -0.2738  0.0475
 3601SOL    HW122439   1.586   0.011   7.741  1.8196  0.0549 -0.2380
 3601SOL    HW222440   1.531   4.694   7.619 -0.6056  0.1822  0.4546
 3602SOL     OW22441   1.036   3.891   2.869  0.0063  0.3423 -0.5294
 3602SOL    HW122442   1.091   3.953   2.822 -0.2190  1.0469  0.1410
 3602SOL    HW222443   0.976   3.855   2.803  0.0626  0.4088 -0.6168
 3603SOL     OW22444   0.566   0.354   5.525 -0.0460 -0.0011 -0.8546
 3603SOL    HW122445   0.598   0.272   5.488 -0.9401 -0.2039 -1.1948
 3603SOL    HW222446   0.539   0.324   5.612  1.6319  1.1557  0.0496
 3604SOL     OW22447   1.041   3.021   5.483  0.1031 -0.3895  0.2701
 3604SOL    HW122448   1.035   3.002   5.389  1.5052 -1.5650  0.4192
 3604SOL    HW222449   1.134   3.023   5.505 -0.0514  2.1841  0.6082
 3605SOL     OW22450   4.609   3.123  11.377  0.6514  0.2535 -0.0377
 3605SOL    HW122451   4.529   3.139  11.426 -0.0126  0.1153 -1.0666
 3605SOL    HW222452   4.572   3.112  11.289 -0.6718 -2.4424  0.8491
 3606SOL     OW22453   2.529   0.597   7.991 -0.0903 -0.3493 -0.3080
 3606SOL    HW122454   2.480   0.679   7.991 -1.3022 -1.0807  1.6963
 3606SOL    HW222455   2.518   0.564   8.080 -1.3714 -0.7712 -0.6081
 3607SOL     OW22456   4.047   4.000   1.889 -0.0623 -0.1774  0.1273
 3607SOL    HW122457   4.083   4.037   1.809 -0.4557 -0.9907 -0.4300
 3607SOL    HW222458   4.127   4.002   1.941 -0.3891  0.9399  0.5938
 3608SOL     OW22459   3.894   2.915   8.187  0.2777 -0.4102 -0.6433
 3608SOL    HW122460   3.803   2.917   8.216  0.2136  0.3585 -0.9126
 3608SOL    HW222461   3.940   2.908   8.271 -1.2216 -0.1964  0.2116
 3609SOL     OW22462   2.228   4.137   3.633  0.0851 -0.4755 -0.0674
 3609SOL    HW122463   2.144   4.104   3.663 -0.1209  0.7662  0.7289
 3609SOL    HW222464   2.223   4.229   3.662 -1.3169 -0.4228 -0.4892
 3610SOL     OW22465   0.375   3.733  10.930 -0.0116 -0.2346 -0.3028
 3610SOL    HW122466   0.327   3.652  10.915  1.8052 -1.3941  0.1073
 3610SOL    HW222467   0.324   3.784  10.992 -0.7176  0.9415 -1.8585
 3611SOL     OW22468   2.376   1.652  10.137 -0.1789  0.9096  0.1040
 3611SOL    HW122469   2.284   1.665  10.114  0.4404  2.3052 -1.6053
 3611SOL    HW222470   2.410   1.740  10.124 -0.2190  1.2387  2.2498
 3612SOL     OW22471   3.247   3.788   8.533 -0.1683 -0.7566  0.0702
 3612SOL    HW122472   3.301   3.729   8.480 -0.2175 -1.0451  0.3380
 3612SOL    HW222473   3.209   3.717   8.585 -0.0409  0.3431  1.6698
 3613SOL     OW22474   2.504   0.044   8.869  0.9320  0.4756  0.0314
 3613SOL    HW122475   2.555   0.125   8.879  0.1752  0.7435  1.7620
 3613SOL    HW222476   2.557   4.730   8.928  1.1143  0.9626  0.3117
 3614SOL     OW22477   1.845   1.714   2.050 -0.3627 -0.3524  0.0245
 3614SOL    HW122478   1.824   1.650   1.982  0.4725 -0.9203  0.2986
 3614SOL    HW222479   1.833   1.653   2.123 -1.5485 -0.3745 -0.1971
 3615SOL     OW22480   0.544   3.110   1.879 -0.2211  0.3179  0.2955
 3615SOL    HW122481   0.529   3.019   1.906  1.7302 -0.2229 -0.4403
 3615SOL    HW222482   0.637   3.116   1.856 -0.4252 -2.2427 -1.1624
 3616SOL     OW22483   0.326   0.453   2.858  0.2393  0.5174 -0.1070
 3616SOL    HW122484   0.380   0.502   2.795 -1.5794  0.6819 -1.5352
 3616SOL    HW222485   0.329   0.365   2.820  3.2949 -0.3565  2.1773
 3617SOL     OW22486   3.671   2.632  15.870 -0.5893  0.1826  0.2314
 3617SOL    HW122487   3.688   2.686  15.792 -0.6518 -1.6960 -1.0972
 3617SOL    HW222488   3.711   2.545  15.858 -0.2822  0.3440  0.0664
 3618SOL     OW22489   2.088   1.449   4.104  0.7720 -0.1366  0.7653
 3618SOL    HW122490   2.122   1.370   4.060 -0.1517  0.7605 -1.5940
 3618SOL    HW222491   2.133   1.514   4.050 -0.0411  1.3336  1.8710
 3619SOL     OW22492   3.882   0.718  11.600  1.3063  0.3506  0.1405
 3619SOL    HW122493   3.899   0.646  11.539 -1.1691 -1.5765  1.6979
 3619SOL    HW222494   3.944   0.780  11.562 -2.0254  0.9348 -4.2669
 3620SOL     OW22495   0.810   0.059   8.760 -0.2732  0.0423 -0.7982
 3620SOL    HW122496   0.805   0.091   8.670  3.2859 -0.7718 -1.2985
 3620SOL    HW222497   0.805   4.705   8.742  2.0405 -0.4974  1.3510
 3621SOL     OW22498   0.853   3.899  12.203  0.0254 -0.0860 -0.3827
 3621SOL    HW122499   0.884   3.811  12.226 -0.6198 -0.0454  0.6326
 3621SOL    HW222500   0.840   3.897  12.108 -0.4589 -0.3393 -0.3152
 3622SOL     OW22501   0.868   2.375   3.171  0.1652  0.7077  0.4764
 3622SOL    HW122502   0.903   2.302   3.120  2.2090  1.1302  1.3071
 3622SOL    HW222503   0.894   2.351   3.259 -0.0322 -0.2740  0.2754
 3623SOL     OW22504   1.962   1.941  15.087 -1.1247  0.3381  0.0922
 3623SOL    HW122505   1.925   1.931  15.000  0.1520  0.1725 -0.4381
 3623SOL    HW222506   2.038   1.998  15.071 -1.8257  1.7302  1.7436
 3624SOL     OW22507   3.025   0.181   6.105 -0.3255 -0.0547  0.3945
 3624SOL    HW122508   3.054   0.099   6.145  1.9448  0.8112  0.5251
 3624SOL    HW222509   2.935   0.180   6.138 -1.0395 -1.2560 -1.5971
 3625SOL     OW22510   3.206   0.482   0.333  0.3110 -0.4367 -0.4982
 3625SOL    HW122511   3.258   0.559   0.355 -1.3116  0.2580  0.9499
 3625SOL    HW222512   3.125   0.504   0.380  0.3307 -1.1952 -0.1053
 3626SOL     OW22513   2.761   4.193   4.970 -0.2534  0.4398  0.7364
 3626SOL    HW122514   2.712   4.159   5.045  0.5955 -2.0545  0.1368
 3626SOL    HW222515   2.693   4.195   4.902  0.9523 -0.5987 -0.5129
 3627SOL     OW22516   1.868   2.204   3.367 -0.3004 -0.0237 -0.3560
 3627SOL    HW122517   1.880   2.180   3.275  4.5418  2.6908 -0.4574
 3627SOL    HW222518   1.866   2.299   3.355 -0.5958 -0.0043 -0.1420
 3628SOL     OW22519   1.733   0.568   6.517  0.0598  0.1428  0.2408
 3628SOL    HW122520   1.685   0.611   6.588  0.1697 -1.2899  1.1768
 3628SOL    HW222521   1.731   0.633   6.447  2.2028 -0.7734 -0.6613
 3629SOL     OW22522   1.860   0.275   4.185 -0.3223 -0.4374  0.2086
 3629SOL    HW122523   1.936   0.244   4.235 -1.7984 -3.0412  0.8024
 3629SOL    HW222524   1.901   0.351   4.144 -0.5687 -1.2733 -1.5854
 3630SOL     OW22525   2.257   3.293   9.577 -0.6051 -0.7256  0.5942
 3630SOL    HW122526   2.245   3.327   9.488 -0.3112 -1.8275  0.1344
 3630SOL    HW222527   2.219   3.367   9.624  2.4698  0.2383  1.5239
 3631SOL     OW22528   0.121   4.504  10.015  0.6220 -0.2353 -0.7213
 3631SOL    HW122529   0.032   4.470  10.025  0.9084 -0.7530  0.0704
 3631SOL    HW222530   0.135   4.545  10.101  0.0838 -3.1205  0.7524
 3632SOL     OW22531   0.290   2.509  15.641  0.6079 -0.6181  0.2834
 3632SOL    HW122532   0.242   2.560  15.706  2.0806  1.3159 -0.1059
 3632SOL    HW222533   0.370   2.562  15.644  0.7597 -0.8358  0.0867
 3633SOL     OW22534   1.754   0.393  16.588 -0.5675 -0.0535  0.1905
 3633SOL    HW122535   1.736   0.313  16.539 -1.1485  0.7593 -0.9169
 3633SOL    HW222536   1.842   0.410  16.556  0.6464  1.0564  4.0013
 3634SOL     OW22537   0.210   0.128   2.812  0.0082  0.3414 -0.5270
 3634SOL    HW122538   0.218   0.097   2.722 -1.0467 -1.4498 -0.0028
 3634SOL    HW222539   0.295   0.111   2.853 -1.1105 -3.2046  0.3888
 3635SOL     OW22540   3.957   1.478  12.147  0.0459 -0.0982  0.4145
 3635SOL    HW122541   3.998   1.512  12.226  0.4848  5.8671 -2.3427
 3635SOL    HW222542   3.866   1.460  12.170  0.0136 -1.1780 -0.5485
 3636SOL     OW22543   3.971   1.152   3.439 -0.0311 -0.0351 -0.3638
 3636SOL    HW122544   4.011   1.098   3.507  0.6895  0.4259 -0.4210
 3636SOL    HW222545   4.000   1.239   3.468 -0.1469 -0.7665  1.9109
 3637SOL     OW22546   4.369   4.569   5.862 -0.2273 -0.1097  0.0154
 3637SOL    HW122547   4.337   4.602   5.945 -1.7768 -1.3630 -0.0784
 3637SOL    HW222548   4.452   4.531   5.891 -1.0596 -0.2998  2.1427
 3638SOL     OW22549   4.729   0.459   3.384 -0.2069 -0.3780 -0.2068
 3638SOL    HW122550   4.725   0.526   3.452  1.6199 -1.4736  0.9708
 3638SOL    HW222551   0.082   0.459   3.366 -0.1991  1.6849 -0.1777
 3639SOL     OW22552   3.697   3.570   6.374 -0.4107 -0.8441  0.2696
 3639SOL    HW122553   3.605   3.562   6.397 -0.4117 -2.4876 -0.2898
 3639SOL    HW222554   3.716   3.477   6.360  0.7178 -0.5009 -0.4924
 3640SOL     OW22555   2.472   3.797   3.121 -0.5724  0.3591 -0.3949
 3640SOL    HW122556   2.415   3.813   3.046 -0.2126 -1.1885 -0.9870
 3640SOL    HW222557   2.549   3.852   3.104 -0.2769  0.0056 -0.1973
 3641SOL     OW22558   0.420   1.051   4.974  0.1971  0.2529 -0.0973
 3641SOL    HW122559   0.411   1.123   5.036  0.5833 -1.1307  1.5967
 3641SOL    HW222560   0.425   0.973   5.030  3.7846  1.3367  1.0915
 3642SOL     OW22561   3.188   4.713  10.654 -0.2805 -0.0667  0.2820
 3642SOL    HW122562   3.121   4.688  10.590  0.4935 -0.5275 -0.3573
 3642SOL    HW222563   3.267   4.680  10.609  1.7090 -0.0094  3.7301
 3643SOL     OW22564   3.832   3.001  11.268  0.1056  0.5143  0.5624
 3643SOL    HW122565   3.754   2.984  11.215 -0.7757 -0.1124  2.0597
 3643SOL    HW222566   3.789   2.987  11.352 -1.8724 -0.7508 -0.6314
 3644SOL     OW22567   0.135   1.390  17.315  0.3151  0.1907  0.3051
 3644SOL    HW122568   0.108   1.475  17.280 -1.1262  0.0644  1.1066
 3644SOL    HW222569   0.215   1.366  17.267  0.1914  1.0113 -0.3097
 3645SOL     OW22570   1.233   2.524   2.942  0.5096  0.3497 -0.2852
 3645SOL    HW122571   1.197   2.597   2.991 -1.8673 -0.2102 -1.2088
 3645SOL    HW222572   1.293   2.480   3.003  0.0130 -0.2611 -0.2468
 3646SOL     OW22573   2.197   4.690   2.892  0.3284  0.4353 -0.7410
 3646SOL    HW122574   2.228   0.025   2.943  0.3911  0.1884 -0.4117
 3646SOL    HW222575   2.258   4.680   2.819  1.4831  1.1277  0.1203
 3647SOL     OW22576   1.844   1.498   3.838 -0.3613  0.1423 -0.1863
 3647SOL    HW122577   1.861   1.537   3.752  1.1757  1.6305  0.8033
 3647SOL    HW222578   1.867   1.407   3.820  0.6521  0.3856 -0.1228
 3648SOL     OW22579   0.902   3.565   9.546 -0.0214  0.5981 -0.0007
 3648SOL    HW122580   0.935   3.650   9.516 -1.3481  1.4521  0.9470
 3648SOL    HW222581   0.828   3.553   9.488 -1.0180  2.2390  0.9303
 3649SOL     OW22582   4.180   2.940   7.711  0.1399  0.1737  0.2396
 3649SOL    HW122583   4.088   2.923   7.691 -0.0846 -1.2152  2.5470
 3649SOL    HW222584   4.199   3.015   7.654 -2.5631 -0.0881 -1.0400
 3650SOL     OW22585   4.740   1.981  13.175 -0.2572  0.0457  0.1289
 3650SOL    HW122586   4.670   1.920  13.152 -0.5412 -0.3156  1.9549
 3650SOL    HW222587   4.707   2.058  13.128 -1.2090 -1.0092 -0.9461
 3651SOL     OW22588   1.408   2.433  15.950  0.1107 -0.1191 -0.0624
 3651SOL    HW122589   1.366   2.496  15.891  1.3205 -0.7659 -1.6367
 3651SOL    HW222590   1.401   2.360  15.888 -1.8417  0.7952 -0.9400
 3652SOL     OW22591   4.199   0.147   2.084 -0.0226 -0.7781  0.0447
 3652SOL    HW122592   4.139   0.085   2.125  0.5259 -0.8335  0.7733
 3652SOL    HW222593   4.154   0.176   2.005 -1.2036 -2.1001  0.2405
 3653SOL     OW22594   2.940   1.858  11.841  0.3039  0.2838 -0.6155
 3653SOL    HW122595   2.935   1.948  11.871  0.3487 -0.1987  0.8219
 3653SOL    HW222596   2.884   1.809  11.902 -0.6035 -0.0245 -1.7011
 3654SOL     OW22597   0.107   1.490   3.427  0.5723 -0.1824  0.9586
 3654SOL    HW122598   0.107   1.584   3.441  0.7518 -0.1943  1.0387
 3654SOL    HW222599   0.194   1.455   3.445  1.0014  0.2136 -0.4268
 3655SOL     OW22600   0.492   3.979   2.781  0.0362 -0.0016  0.0381
 3655SOL    HW122601   0.473   3.973   2.874  1.3587 -0.2067  0.3065
 3655SOL    HW222602   0.585   4.002   2.792  0.1604  0.3861 -1.8367
 3656SOL     OW22603   3.055   0.454   4.353 -0.7063  0.2061 -0.0651
 3656SOL    HW122604   3.134   0.506   4.344 -0.7949  0.0660 -1.7061
 3656SOL    HW222605   3.077   0.361   4.347 -1.0481  0.1046  0.2000
 3657SOL     OW22606   1.210   1.584  12.451  0.5654 -0.3679 -0.1260
 3657SOL    HW122607   1.168   1.669  12.465 -0.2224 -0.9568  1.0719
 3657SOL    HW222608   1.162   1.539  12.520 -0.6280 -0.4579 -1.0236
 3658SOL     OW22609   2.594   3.062   7.418  0.0559 -0.3989  0.5138
 3658SOL    HW122610   2.660   3.058   7.349 -0.1842  0.2617  0.2430
 3658SOL    HW222611   2.554   2.978   7.399 -0.3686 -0.0262 -0.2695
 3659SOL     OW22612   3.117   3.238   1.535  0.0563 -0.1052  0.2157
 3659SOL    HW122613   3.097   3.160   1.586  2.0369 -1.5592 -1.2713
 3659SOL    HW222614   3.088   3.206   1.449  0.2782  0.0124  0.0985
 3660SOL     OW22615   0.333   2.399   7.873 -0.0364 -0.0261 -0.0688
 3660SOL    HW122616   0.271   2.406   7.946 -0.0681  1.5559 -0.2291
 3660SOL    HW222617   0.365   2.312   7.894 -1.5596 -0.2634  1.1901
 3661SOL     OW22618   1.230   3.323  15.917 -0.1299 -0.1206 -0.2472
 3661SOL    HW122619   1.285   3.328  15.839  0.1364 -2.0433 -0.1740
 3661SOL    HW222620   1.288   3.366  15.980 -1.6191 -0.7186  1.5491
 3662SOL     OW22621   4.677   1.657  14.965  0.1130 -0.3044 -0.2552
 3662SOL    HW122622   4.687   1.734  14.909 -2.4486  0.4295  0.2779
 3662SOL    HW222623   4.591   1.621  14.944  0.5007 -0.7930 -0.9705
 3663SOL     OW22624   0.966   4.065   5.420  0.6233 -0.0504 -0.2897
 3663SOL    HW122625   0.936   3.974   5.423  1.6088 -0.3987 -1.0602
 3663SOL    HW222626   0.930   4.095   5.504 -0.4797 -1.0484 -0.4097
 3664SOL     OW22627   2.390   4.541   7.092 -0.6986  0.1569  0.1154
 3664SOL    HW122628   2.417   4.530   7.183 -0.5804  1.8628  0.2900
 3664SOL    HW222629   2.399   4.456   7.049  0.1350  0.4158 -0.2395
 3665SOL     OW22630   2.353   2.510   9.602 -0.6233  0.0622 -0.9004
 3665SOL    HW122631   2.292   2.533   9.672 -1.3642 -2.8365 -0.5693
 3665SOL    HW222632   2.438   2.512   9.645 -1.0504 -0.9138 -0.0040
 3666SOL     OW22633   4.390   0.960   5.457 -0.0444 -0.0752  0.1087
 3666SOL    HW122634   4.465   1.019   5.467 -1.3488  2.2400 -3.8001
 3666SOL    HW222635   4.327   1.026   5.428 -0.9462 -1.0734 -0.1696
 3667SOL     OW22636   0.935   3.461  13.130  0.1959  0.1102 -0.3759
 3667SOL    HW122637   0.937   3.496  13.041 -3.5592 -3.4093 -1.8296
 3667SOL    HW222638   0.878   3.526  13.170  0.3792 -1.6953  2.8578
 3668SOL     OW22639   2.335   0.795   0.277 -0.5212 -0.0747 -0.1131
 3668SOL    HW122640   2.357   0.878   0.236  1.7170  0.0583  1.3436
 3668SOL    HW222641   2.260   0.765   0.226 -1.0474  1.0659  0.0074
 3669SOL     OW22642   0.725   0.718  10.233  0.3006  0.0206 -0.7749
 3669SOL    HW122643   0.805   0.770  10.233  0.2909  0.0262  0.2052
 3669SOL    HW222644   0.746   0.651  10.168  0.0110 -1.1353  0.3255
 3670SOL     OW22645   3.105   4.062   2.339  0.2349 -0.1122  0.1683
 3670SOL    HW122646   3.089   4.138   2.283  1.6536  0.0159 -0.0505
 3670SOL    HW222647   3.187   4.098   2.374  0.6229 -0.7310 -0.1111
 3671SOL     OW22648   4.176   0.370   2.463  0.3843 -0.4313 -0.4289
 3671SOL    HW122649   4.160   0.287   2.507  0.1517  0.0029  0.3135
 3671SOL    HW222650   4.092   0.416   2.455 -0.1181 -1.4265 -0.9131
 3672SOL     OW22651   0.354   0.279   4.664  0.2131  0.0168  0.4021
 3672SOL    HW122652   0.381   0.274   4.756  0.2690  0.4444  0.4056
 3672SOL    HW222653   0.271   0.231   4.657  0.4672 -0.1774 -1.2186
 3673SOL     OW22654   3.098   2.290  13.390 -0.4315  0.1076  0.6467
 3673SOL    HW122655   3.039   2.227  13.432 -0.9493 -1.1241 -1.9735
 3673SOL    HW222656   3.037   2.322  13.324  0.6487 -0.0667 -0.4193
 3674SOL     OW22657   1.068   0.071   7.761 -0.0269  0.7149  0.0729
 3674SOL    HW122658   1.055   0.082   7.856  0.2035 -0.4250  0.2338
 3674SOL    HW222659   1.109   4.725   7.764  0.5795  1.0329  1.0879
 3675SOL     OW22660   3.512   2.150  15.416 -0.0447  0.3761  0.4174
 3675SOL    HW122661   3.558   2.233  15.429  1.3026 -0.5292  1.4928
 3675SOL    HW222662   3.464   2.138  15.498  1.6477  1.2019  1.5393
 3676SOL     OW22663   0.735   0.635   9.836 -0.1300 -0.5286 -0.4626
 3676SOL    HW122664   0.742   0.543   9.811  0.2390 -0.1539 -1.7272
 3676SOL    HW222665   0.828   0.656   9.845 -0.6012  0.3830  2.2414
 3677SOL     OW22666   2.938   2.795  11.514  0.0567  0.0898  0.2747
 3677SOL    HW122667   2.920   2.701  11.519  0.3433  0.0339  0.1984
 3677SOL    HW222668   2.851   2.827  11.541  0.7403  0.9715  1.4216
 3678SOL     OW22669   1.738   3.535  11.570 -0.0767 -0.1440 -0.0334
 3678SOL    HW122670   1.756   3.616  11.522 -1.1173 -1.0189 -1.8726
 3678SOL    HW222671   1.765   3.565  11.657 -1.9311  0.5810  0.2895
 3679SOL     OW22672   1.542   0.246   8.536  0.0584 -0.7778 -0.3507
 3679SOL    HW122673   1.487   0.211   8.607 -0.5210 -0.1935 -0.5068
 3679SOL    HW222674   1.535   0.342   8.530  0.0843 -0.6784  1.1845
 3680SOL     OW22675   2.207   3.574   6.820  0.1796 -0.2353  0.2051
 3680SOL    HW122676   2.173   3.567   6.731  1.2339  1.1213 -0.2897
 3680SOL    HW222677   2.236   3.665   6.821  0.1374 -0.2295  1.1997
 3681SOL     OW22678   4.283   0.615   2.931  0.0853  0.0791  0.2374
 3681SOL    HW122679   4.265   0.632   2.838 -1.1358  1.4973  0.7263
 3681SOL    HW222680   4.221   0.543   2.945  1.6178 -0.9212  1.8406
 3682SOL     OW22681   2.088   4.142  13.927 -1.0616 -0.2211  0.3882
 3682SOL    HW122682   2.011   4.183  13.968 -1.2556  0.0753 -0.2778
 3682SOL    HW222683   2.158   4.202  13.954 -2.0004  0.6652  0.8668
 3683SOL     OW22684   0.481   1.549   7.068  0.1033  0.0961 -0.3435
 3683SOL    HW122685   0.518   1.615   7.127 -1.7818  0.0497  0.8964
 3683SOL    HW222686   0.390   1.543   7.098 -0.1351  0.6107 -0.9627
 3684SOL     OW22687   1.318   0.947   1.777 -0.2633 -0.1009  0.5700
 3684SOL    HW122688   1.273   0.864   1.765  1.3300 -0.7516 -0.9411
 3684SOL    HW222689   1.336   0.952   1.871  0.4308  0.1776  0.4240
 3685SOL     OW22690   3.458   1.922   8.241  0.1193 -0.1592 -0.1190
 3685SOL    HW122691   3.402   1.845   8.250 -2.2623  1.5195 -0.7058
 3685SOL    HW222692   3.545   1.886   8.223  0.7363  0.2997  1.9750
 3686SOL     OW22693   0.286   4.630   8.967 -0.2054  0.7566 -0.1375
 3686SOL    HW122694   0.200   4.668   8.988 -0.3305  0.2526  0.2385
 3686SOL    HW222695   0.257   4.541   8.949  2.8393 -0.0169 -1.1216
 3687SOL     OW22696   0.209   2.028  11.387 -0.0465 -0.1418  0.6523
 3687SOL    HW122697   0.262   1.951  11.408  0.0230 -0.2381  0.1121
 3687SOL    HW222698   0.139   2.014  11.451  0.3690 -0.3007  1.0791
 3688SOL     OW22699   4.523   3.623   4.508 -0.5175  1.1554 -1.2210
 3688SOL    HW122700   4.597   3.650   4.562 -0.4277  0.8839 -1.2071
 3688SOL    HW222701   4.528   3.692   4.442  1.0162 -0.7010 -3.0307
 3689SOL     OW22702   0.597   1.900   8.483 -0.4392 -0.1219  0.3667
 3689SOL    HW122703   0.586   1.937   8.570  2.5241  0.1946  0.6080
 3689SOL    HW222704   0.585   1.806   8.495 -0.0251 -0.4740 -1.8817
 3690SOL     OW22705   1.905   2.034  10.116 -0.5838 -0.5251 -0.1949
 3690SOL    HW122706   1.842   2.095  10.077  2.3221  2.8311  0.3570
 3690SOL    HW222707   1.894   2.066  10.206  2.5754  0.7904 -0.2807
 3691SOL     OW22708   1.056   1.997   8.545  0.0517 -0.0325 -0.3643
 3691SOL    HW122709   1.092   1.939   8.612  2.6283  0.7061 -1.1424
 3691SOL    HW222710   1.046   1.932   8.475  1.6865  0.4971 -1.0902
 3692SOL     OW22711   4.499   2.517   5.699 -0.3598 -0.5211 -0.0640
 3692SOL    HW122712   4.585   2.534   5.738 -0.5294  1.9822 -0.7546
 3692SOL    HW222713   4.514   2.447   5.636  2.5742  0.4660 -0.4707
 3693SOL     OW22714   2.749   2.805   7.278  0.4020  0.2078 -0.0322
 3693SOL    HW122715   2.715   2.828   7.192  2.5048 -0.0224 -0.9297
 3693SOL    HW222716   2.829   2.856   7.272  0.8290 -0.5903 -1.2719
 3694SOL     OW22717   0.781   2.503  12.430  0.2673 -0.0253 -0.7706
 3694SOL    HW122718   0.773   2.596  12.451  1.7724  0.5340 -2.7150
 3694SOL    HW222719   0.691   2.475  12.413  0.1885 -0.8211  1.0108
 3695SOL     OW22720   3.516   0.534  15.244 -0.2697  0.4605  0.1792
 3695SOL    HW122721   3.429   0.493  15.248  0.5696 -1.5084 -2.3799
 3695SOL    HW222722   3.554   0.478  15.177 -2.7836  0.4132 -1.2221
 3696SOL     OW22723   4.048   3.922   3.147  0.1185 -0.3222  0.3580
 3696SOL    HW122724   3.987   3.858   3.108  0.8931  0.4570 -2.1458
 3696SOL    HW222725   3.993   3.956   3.218 -0.9094 -0.3804 -0.3994
 3697SOL     OW22726   4.325   3.055   6.092 -0.0598 -0.7390 -0.2399
 3697SOL    HW122727   4.323   3.151   6.091 -1.6360 -0.7562  1.1010
 3697SOL    HW222728   4.325   3.040   5.997 -3.2188  0.7190 -0.4817
 3698SOL     OW22729   1.077   3.625   6.349 -0.0171 -0.3552 -0.0425
 3698SOL    HW122730   1.034   3.562   6.407  2.1054 -0.9988  0.8299
 3698SOL    HW222731   1.119   3.677   6.418  0.6043 -0.8723 -0.0323
 3699SOL     OW22732   1.023   1.839   5.900  0.4798  0.0152  0.3861
 3699SOL    HW122733   1.073   1.920   5.911  0.4784 -0.0689  1.0157
 3699SOL    HW222734   1.049   1.807   5.813 -0.6946 -0.7526  0.3106
 3700SOL     OW22735   1.250   4.655   1.835 -0.3347  0.4767 -0.1513
 3700SOL    HW122736   1.284   4.732   1.788 -0.9802  0.7775 -0.1300
 3700SOL    HW222737   1.323   4.596   1.816 -0.1889 -0.1798  2.4894
 3701SOL     OW22738   0.733   3.218   8.973  0.1818 -0.0456  0.1518
 3701SOL    HW122739   0.759   3.196   8.884 -0.7514 -0.9833  0.1103
 3701SOL    HW222740   0.643   3.189   8.984  0.8153 -1.9143  0.3785
 3702SOL     OW22741   1.788   1.118   3.063  0.6325  0.3108  0.3128
 3702SOL    HW122742   1.733   1.192   3.089  0.6406  0.5634 -0.4018
 3702SOL    HW222743   1.727   1.048   3.043  0.9389  0.1963 -0.2088
 3703SOL     OW22744   1.102   1.731  12.953 -0.3875  0.4796  0.2306
 3703SOL    HW122745   1.045   1.676  12.900  0.0067  0.3002  0.0003
 3703SOL    HW222746   1.137   1.793  12.889 -0.4013  1.2739  0.9907
 3704SOL     OW22747   3.546   2.014   9.148  0.2591  0.3248  1.0722
 3704SOL    HW122748   3.478   1.947   9.157 -1.0911  1.7898  1.7217
 3704SOL    HW222749   3.545   2.062   9.231 -0.0101 -0.2178  1.3842
 3705SOL     OW22750   3.355   1.683   8.189 -0.2241 -0.1590 -0.1928
 3705SOL    HW122751   3.368   1.684   8.094  1.3760 -0.9541  0.0186
 3705SOL    HW222752   3.260   1.696   8.191 -0.3469 -1.0504  0.0612
 3706SOL     OW22753   2.889   3.801   8.267  0.2470 -0.3364  0.1451
 3706SOL    HW122754   2.799   3.775   8.290  0.1263  0.0990  0.1631
 3706SOL    HW222755   2.874   3.896   8.270  1.0487 -0.1781 -1.1598
 3707SOL     OW22756   2.690   2.844  11.569  0.5085  0.0929  0.2755
 3707SOL    HW122757   2.606   2.797  11.564  0.5358 -0.1773  2.1150
 3707SOL    HW222758   2.668   2.923  11.618  0.0983 -0.5673  1.1605
 3708SOL     OW22759   3.588   1.333  17.432  0.5893  0.0155 -0.1162
 3708SOL    HW122760   3.680   1.346  17.406  0.7635  0.9185  0.9440
 3708SOL    HW222761   3.580   1.410  17.489 -1.2350 -1.8043  2.0949
 3709SOL     OW22762   2.121   2.983   5.417 -0.0644  0.3232  1.2130
 3709SOL    HW122763   2.117   2.902   5.367 -1.9507  0.1045  1.7117
 3709SOL    HW222764   2.029   3.008   5.428 -0.0584  0.9663 -0.1328
 3710SOL     OW22765   4.198   2.142  16.429 -0.2820 -0.7490  0.3834
 3710SOL    HW122766   4.169   2.060  16.389 -0.3569 -0.6241  0.1787
 3710SOL    HW222767   4.117   2.158  16.477 -0.9677 -2.8409 -0.0962
 3711SOL     OW22768   0.649   1.394   7.524 -0.4794 -0.7715 -0.7261
 3711SOL    HW122769   0.562   1.368   7.494 -1.2015  0.7742  0.0181
 3711SOL    HW222770   0.695   1.310   7.519  2.9318  0.9760  0.3924
 3712SOL     OW22771   2.983   0.252   3.388 -0.1686  0.1800  0.2561
 3712SOL    HW122772   3.016   0.320   3.330  0.0555 -0.3882 -0.2764
 3712SOL    HW222773   2.920   0.203   3.335  0.4114 -0.2431 -0.0404
 3713SOL     OW22774   1.191   1.306   2.021 -0.2396  0.3202  0.3671
 3713SOL    HW122775   1.278   1.346   2.028 -1.2043  2.6189 -0.9146
 3713SOL    HW222776   1.180   1.252   2.099 -0.6252  0.1763  0.2142
 3714SOL     OW22777   3.577   0.922   4.616 -0.7923 -0.2657 -0.2457
 3714SOL    HW122778   3.532   0.949   4.696  2.6643 -4.7205  3.2112
 3714SOL    HW222779   3.621   1.002   4.586  1.9051 -2.0955 -1.1494
 3715SOL     OW22780   0.369   4.067   6.886  0.3090 -0.4485 -0.2296
 3715SOL    HW122781   0.375   4.107   6.972 -0.1460  1.0459 -0.8947
 3715SOL    HW222782   0.297   4.004   6.893 -0.2940  0.4951  2.2880
 3716SOL     OW22783   3.797   3.195   2.898  0.0056 -0.4565 -0.0298
 3716SOL    HW122784   3.856   3.179   2.971  2.5518  0.9088 -1.7981
 3716SOL    HW222785   3.714   3.192   2.946  0.4097 -1.6463  0.5956
 3717SOL     OW22786   2.616   2.866   7.026 -0.4138  0.1459 -0.1656
 3717SOL    HW122787   2.576   2.950   7.051 -0.5708 -0.2834  1.0251
 3717SOL    HW222788   2.618   2.885   6.932 -0.8434 -0.8051 -0.3590
 3718SOL     OW22789   0.452   1.395   3.909  0.5176 -1.1067 -0.0538
 3718SOL    HW122790   0.427   1.303   3.916  2.6748 -1.5370  2.1777
 3718SOL    HW222791   0.486   1.411   3.997 -0.3827  1.7608 -0.2280
 3719SOL     OW22792   2.850   3.933  12.295 -0.1055  0.0113  0.3747
 3719SOL    HW122793   2.781   3.933  12.229  1.2771  0.4714 -1.0884
 3719SOL    HW222794   2.919   3.945  12.229 -0.1540  1.6110  0.6180
 3720SOL     OW22795   2.054   0.958   9.270  0.9377 -0.1719 -0.3226
 3720SOL    HW122796   2.114   0.931   9.339 -1.1007  1.3909  2.0787
 3720SOL    HW222797   2.073   1.052   9.267 -0.0403  0.1336  2.9793
 3721SOL     OW22798   3.344   3.225   7.244 -0.0558  0.4955 -0.6328
 3721SOL    HW122799   3.371   3.303   7.291  2.4321 -0.5923 -0.2907
 3721SOL    HW222800   3.257   3.252   7.213 -0.2843 -2.3261 -2.5153
 3722SOL     OW22801   1.744   1.599   4.160  0.4757 -0.4372 -0.3096
 3722SOL    HW122802   1.659   1.623   4.196  1.0423 -2.7182  2.5986
 3722SOL    HW222803   1.726   1.514   4.120 -0.7021  0.3591 -1.4481
 3723SOL     OW22804   3.849   0.691   8.201  0.2278 -0.7266  0.7297
 3723SOL    HW122805   3.912   0.757   8.228 -0.2779 -0.0893  0.3516
 3723SOL    HW222806   3.889   0.606   8.219  1.7648 -0.0014  0.7450
 3724SOL     OW22807   1.887   0.260   8.235 -0.4425  0.0709  0.1387
 3724SOL    HW122808   1.889   0.328   8.167 -1.1783 -1.5351 -1.4887
 3724SOL    HW222809   1.896   0.317   8.311 -0.6493 -0.5555  0.6340
 3725SOL     OW22810   1.333   3.974  15.917  0.1127 -0.0548 -0.5063
 3725SOL    HW122811   1.397   3.963  15.846  1.1379 -1.6025  0.6412
 3725SOL    HW222812   1.269   3.903  15.911  0.2141 -0.2682  1.0556
 3726SOL     OW22813   1.753   2.335  15.210 -0.6276  0.1608  0.0702
 3726SOL    HW122814   1.721   2.254  15.250 -2.4359  1.5357  1.4126
 3726SOL    HW222815   1.836   2.348  15.255  0.8167 -2.4182 -1.8604
 3727SOL     OW22816   4.412   1.128  10.472 -0.5126  1.0140  0.0553
 3727SOL    HW122817   4.362   1.051  10.446 -0.2640  0.4164  1.3259
 3727SOL    HW222818   4.450   1.108  10.558  0.1272 -0.6835 -0.6307
 3728SOL     OW22819   3.273   0.231   9.480 -0.0458 -0.0117  0.0726
 3728SOL    HW122820   3.314   0.273   9.555  0.4757  0.1855 -0.3236
 3728SOL    HW222821   3.248   0.143   9.508  1.3730 -0.5787 -0.4757
 3729SOL     OW22822   0.872   2.752   5.399 -0.6708 -0.2369 -0.3691
 3729SOL    HW122823   0.854   2.670   5.353 -0.4620 -0.1950 -0.5259
 3729SOL    HW222824   0.869   2.828   5.341 -2.7031 -2.6168 -3.3655
 3730SOL     OW22825   3.844   3.541   4.336 -0.2809  0.2185  0.7255
 3730SOL    HW122826   3.914   3.492   4.292 -0.3012  2.0633 -1.3749
 3730SOL    HW222827   3.904   3.560   4.408 -0.4174  0.6742  0.7162
 3731SOL     OW22828   0.669   0.300  16.631  0.4550  0.5809 -0.6623
 3731SOL    HW122829   0.655   0.292  16.536 -1.5414 -0.8050 -0.2379
 3731SOL    HW222830   0.583   0.303  16.674  0.5241 -0.3594 -0.4603
 3732SOL     OW22831   3.374   2.219  10.060 -0.2586  0.0769  0.0704
 3732SOL    HW122832   3.415   2.169   9.989 -0.9702 -1.9076  1.0359
 3732SOL    HW222833   3.386   2.309  10.029  0.0912  0.1313  0.3682
 3733SOL     OW22834   2.403   3.964   1.646 -0.0356 -0.0860 -0.0076
 3733SOL    HW122835   2.314   3.994   1.630 -1.1950 -2.5735  1.6450
 3733SOL    HW222836   2.454   4.044   1.642 -1.7475  1.0863  1.7550
 3734SOL     OW22837   4.090   3.897   6.694 -0.0348 -0.3432  0.0909
 3734SOL    HW122838   4.053   3.986   6.693 -1.9327 -1.0806  3.1099
 3734SOL    HW222839   4.154   3.890   6.624 -0.3124 -1.6503 -0.0279
 3735SOL     OW22840   3.132   1.570  15.378 -0.4800 -0.3631  0.7039
 3735SOL    HW122841   3.169   1.482  15.375  0.8297  0.2320 -0.5612
 3735SOL    HW222842   3.199   1.618  15.428  2.0313  0.1302 -3.0761
 3736SOL     OW22843   1.094   4.304   2.595 -0.2171 -0.2832  0.3266
 3736SOL    HW122844   1.043   4.317   2.515  0.5746 -0.4516 -0.2098
 3736SOL    HW222845   1.166   4.366   2.582  0.1606 -0.9435 -0.7968
 3737SOL     OW22846   1.048   3.124   7.167 -0.2156  0.4210  0.1358
 3737SOL    HW122847   0.989   3.184   7.213  0.9877  0.5502  1.5063
 3737SOL    HW222848   1.045   3.052   7.230 -0.8600 -1.2992 -1.8478
 3738SOL     OW22849   3.556   3.546  13.824  0.2049  0.3689 -0.3845
 3738SOL    HW122850   3.521   3.519  13.739 -0.0054 -0.2784 -0.0935
 3738SOL    HW222851   3.484   3.500  13.869 -1.4272  2.0904 -1.2660
 3739SOL     OW22852   3.962   1.117   5.234  0.2149  0.1111  0.8582
 3739SOL    HW122853   4.023   1.135   5.163  0.2057 -1.4975  0.4463
 3739SOL    HW222854   3.949   1.207   5.266 -0.3811  1.5046 -3.3297
 3740SOL     OW22855   1.133   1.029   7.508  0.0744 -0.3886  0.3144
 3740SOL    HW122856   1.164   1.063   7.592  0.7382 -0.3060  0.0357
 3740SOL    HW222857   1.128   0.936   7.528 -1.1814 -0.5640 -0.7939
 3741SOL     OW22858   0.662   3.407   7.948  0.7980  0.5457  0.0558
 3741SOL    HW122859   0.591   3.464   7.919  1.4667  0.5015 -1.6486
 3741SOL    HW222860   0.728   3.475   7.950  1.1624  0.1889  0.3399
 3742SOL     OW22861   2.898   1.675  13.007 -0.0799 -0.3233  0.5861
 3742SOL    HW122862   2.981   1.660  13.053 -1.1634  0.0974  2.6460
 3742SOL    HW222863   2.865   1.757  13.042 -0.3989 -0.4302  0.5319
 3743SOL     OW22864   1.114   1.478   5.441  0.3807 -0.2641  0.0271
 3743SOL    HW122865   1.182   1.417   5.472  2.8132  1.5414 -1.7507
 3743SOL    HW222866   1.027   1.449   5.468 -0.0026  0.9355  0.0393
 3744SOL     OW22867   3.407   3.809  14.307  0.2115  0.1790 -0.4303
 3744SOL    HW122868   3.361   3.819  14.223 -1.6223 -0.5133  0.4867
 3744SOL    HW222869   3.497   3.823  14.277 -0.1953 -1.8946 -2.6149
 3745SOL     OW22870   2.055   3.337   7.534 -0.1913 -0.0854  0.1725
 3745SOL    HW122871   2.134   3.387   7.511  0.0674 -1.1524 -1.3331
 3745SOL    HW222872   2.064   3.323   7.628  1.6509 -0.5539 -0.0743
 3746SOL     OW22873   4.637   0.943   9.487  0.4511  0.2321 -0.0240
 3746SOL    HW122874   4.626   0.854   9.454 -0.9375  0.1460  0.7287
 3746SOL    HW222875   4.645   0.998   9.409 -2.4332 -0.9430 -1.1362
 3747SOL     OW22876   1.679   4.194   6.991 -0.2092 -0.0283 -0.3591
 3747SOL    HW122877   1.737   4.124   7.022 -0.8577  0.2116  1.3948
 3747SOL    HW222878   1.708   4.191   6.899 -0.1421 -1.9091 -0.2846
 3748SOL     OW22879   4.483   4.364  14.662  0.7918 -0.1054  0.0296
 3748SOL    HW122880   4.413   4.308  14.628  1.3153  1.4211 -3.5417
 3748SOL    HW222881   4.435   4.427  14.715  0.2212 -0.1164 -0.4724
 3749SOL     OW22882   2.503   4.539   5.861 -0.4580  0.5279 -0.1995
 3749SOL    HW122883   2.551   4.462   5.832  0.1242  0.6458  0.4580
 3749SOL    HW222884   2.545   4.572   5.940 -2.1979 -3.2248  2.2826
 3750SOL     OW22885   1.296   0.977   3.177 -0.4323 -0.1786  0.8146
 3750SOL    HW122886   1.252   0.902   3.137 -0.9082  0.4616  0.1390
 3750SOL    HW222887   1.224   1.014   3.229 -0.6727  1.0827 -0.4328
 3751SOL     OW22888   3.368   2.870   3.780  0.2098  0.3885 -0.1774
 3751SOL    HW122889   3.372   2.936   3.849  0.4340  2.3099 -2.0084
 3751SOL    HW222890   3.331   2.797   3.829 -0.3879  0.8707  0.0961
 3752SOL     OW22891   0.062   4.102   2.818  0.1523  0.1323  0.8215
 3752SOL    HW122892   0.101   4.121   2.904  1.5736 -0.7892  0.3758
 3752SOL    HW222893   0.003   4.034   2.850 -3.0334  1.2400 -2.6762
 3753SOL     OW22894   2.372   2.765   0.842  0.1137 -0.0906 -0.5697
 3753SOL    HW122895   2.396   2.672   0.837 -1.0314 -0.4621  0.8464
 3753SOL    HW222896   2.278   2.751   0.858  0.2772 -0.1469  0.3471
 3754SOL     OW22897   1.904   1.535  11.870  0.9250  0.2622 -0.7612
 3754SOL    HW122898   1.966   1.607  11.860  0.9696  0.2017 -0.9049
 3754SOL    HW222899   1.957   1.463  11.904  0.3065  1.3244  2.5521
 3755SOL     OW22900   0.999   2.674   2.414  0.2623 -0.2272 -0.2338
 3755SOL    HW122901   0.939   2.617   2.366 -0.2101  1.2043 -1.3333
 3755SOL    HW222902   0.953   2.755   2.392 -1.3552 -1.1482 -0.2371
 3756SOL     OW22903   3.856   3.848   8.051 -0.3433 -0.0227 -0.0220
 3756SOL    HW122904   3.806   3.771   8.077 -0.0225  0.3819  1.7559
 3756SOL    HW222905   3.821   3.870   7.964 -0.5031  0.3997  0.1510
 3757SOL     OW22906   2.046   1.158   5.659  0.2207  0.4161 -0.3720
 3757SOL    HW122907   2.062   1.193   5.746  1.3615 -2.8477  0.7019
 3757SOL    HW222908   1.961   1.121   5.681 -0.4633  0.7449 -2.4582
 3758SOL     OW22909   0.847   2.078  13.825 -0.2213  0.0389 -0.1757
 3758SOL    HW122910   0.752   2.088  13.814 -0.0852  0.7391 -0.7140
 3758SOL    HW222911   0.865   2.105  13.915  0.2258  0.4280 -0.3848
 3759SOL     OW22912   4.554   0.729   6.514  0.4752 -0.0631  0.0604
 3759SOL    HW122913   4.602   0.709   6.594  1.3798 -0.1469 -0.5092
 3759SOL    HW222914   4.564   0.653   6.458  1.4999  1.0763 -1.3041
 3760SOL     OW22915   3.024   2.818   4.272 -0.0217 -0.5361 -0.1686
 3760SOL    HW122916   3.084   2.861   4.211  0.2077  1.0405  1.1918
 3760SOL    HW222917   2.986   2.749   4.217 -0.3381  1.7295 -2.8206
 3761SOL     OW22918   1.291   3.478   6.843  0.0266  0.3015  0.2008
 3761SOL    HW122919   1.350   3.422   6.893 -0.9194  0.7323  1.7675
 3761SOL    HW222920   1.211   3.452   6.887 -0.3732 -0.8292 -1.1754
 3762SOL     OW22921   4.446   2.103  12.120 -0.2058  0.4427  0.0758
 3762SOL    HW122922   4.434   2.010  12.135  1.7255  0.2760  0.6422
 3762SOL    HW222923   4.540   2.103  12.100  0.6344 -1.4197  4.1614
 3763SOL     OW22924   3.182   0.469   9.865 -0.1103  0.2673  0.0514
 3763SOL    HW122925   3.215   0.452   9.953  2.3980  0.7438 -0.7952
 3763SOL    HW222926   3.118   0.535   9.890 -0.4863 -0.3268  0.6629
 3764SOL     OW22927   1.978   2.543   6.661 -0.2806 -0.3230 -0.5709
 3764SOL    HW122928   1.940   2.605   6.723 -0.3629  0.1988 -1.1493
 3764SOL    HW222929   1.988   2.468   6.719  2.7704 -1.0006 -1.9743
 3765SOL     OW22930   2.979   3.129  12.182 -0.1157 -0.4989  0.5328
 3765SOL    HW122931   3.039   3.074  12.131 -1.9775 -1.6767 -0.3952
 3765SOL    HW222932   2.960   3.201  12.122 -1.4073 -0.8539  0.5074
 3766SOL     OW22933   2.105   4.281   6.758 -0.5746 -0.0015 -0.4272
 3766SOL    HW122934   2.187   4.330   6.756  1.8755 -4.0708  0.0917
 3766SOL    HW222935   2.088   4.271   6.851  3.4455  0.9354  0.4243
 3767SOL     OW22936   0.007   0.369   4.611  0.0160 -0.1887  0.6612
 3767SOL    HW122937   0.069   0.432   4.573 -0.7300 -0.1255 -0.4515
 3767SOL    HW222938   4.699   0.353   4.530  0.3530  0.3767  0.3484
 3768SOL     OW22939   3.534   3.560   1.697 -0.1167 -0.0364  0.4841
 3768SOL    HW122940   3.470   3.614   1.651  0.0273 -0.6216 -0.4154
 3768SOL    HW222941   3.489   3.475   1.689 -0.8621  0.4181 -0.1621
 3769SOL     OW22942   4.087   3.750   5.238 -0.3532 -0.2714  0.1686
 3769SOL    HW122943   4.111   3.835   5.200  1.0292 -0.4753  0.5688
 3769SOL    HW222944   4.094   3.763   5.333 -0.6052 -1.1010  0.3013
 3770SOL     OW22945   2.235   3.758   5.301 -0.4641 -0.1910  0.2178
 3770SOL    HW122946   2.267   3.848   5.310  0.2663 -0.3940 -0.2687
 3770SOL    HW222947   2.275   3.726   5.381 -2.9793 -1.4108  0.9737
 3771SOL     OW22948   3.705   2.854   6.512 -0.5722  0.0059  0.0368
 3771SOL    HW122949   3.724   2.946   6.495  0.2071 -0.0335  0.6960
 3771SOL    HW222950   3.762   2.830   6.585 -0.5077 -1.3781 -0.4637
 3772SOL     OW22951   2.432   3.459   3.648 -0.5800  0.1059  0.0079
 3772SOL    HW122952   2.389   3.495   3.726 -0.7456  0.0176 -0.0412
 3772SOL    HW222953   2.382   3.380   3.626  0.9928 -0.7554 -0.4944
 3773SOL     OW22954   3.566   2.249   6.070  0.4738 -0.2318 -0.6641
 3773SOL    HW122955   3.533   2.338   6.084 -1.7832 -1.4108  1.5210
 3773SOL    HW222956   3.627   2.256   5.997  0.3078 -0.8030 -0.8638
 3774SOL     OW22957   1.503   3.758   7.994 -0.1082 -0.0605 -0.8405
 3774SOL    HW122958   1.463   3.810   8.064  1.1107  1.6834 -1.4462
 3774SOL    HW222959   1.479   3.669   8.019  0.4054  0.2201  0.6277
 3775SOL     OW22960   1.219   2.415   7.047  0.2035 -0.2885 -0.1744
 3775SOL    HW122961   1.220   2.468   6.967 -0.2739  0.1291  0.0980
 3775SOL    HW222962   1.308   2.381   7.059 -0.1538 -1.2340 -0.2788
 3776SOL     OW22963   0.110   3.075  10.160 -0.9576 -0.0953 -0.3701
 3776SOL    HW122964   0.194   3.104  10.197 -0.5372 -0.5166 -0.9755
 3776SOL    HW222965   0.147   3.027  10.085 -0.0014  2.5748 -1.6289
 3777SOL     OW22966   0.440   0.671  15.983  0.5595 -0.0169 -0.0999
 3777SOL    HW122967   0.485   0.597  15.942 -0.1385  0.3315 -1.4993
 3777SOL    HW222968   0.503   0.678  16.055  0.3990 -0.0891  0.0486
 3778SOL     OW22969   3.979   4.424   8.604 -0.0512  0.0526  0.2981
 3778SOL    HW122970   4.024   4.347   8.637  0.7460  0.7606  0.8787
 3778SOL    HW222971   3.906   4.390   8.552  0.4327 -0.3141 -0.1263
 3779SOL     OW22972   1.634   0.278  15.750  0.1791  0.3800  0.0386
 3779SOL    HW122973   1.566   0.264  15.815  0.3236  1.1081  0.3474
 3779SOL    HW222974   1.625   0.372  15.740  2.4634  0.2619 -3.2759
 3780SOL     OW22975   0.402   2.752  16.536  0.0685 -0.3263  0.2390
 3780SOL    HW122976   0.497   2.766  16.538  0.0168  0.1156 -0.3881
 3780SOL    HW222977   0.384   2.751  16.630  2.6896 -0.8395  0.7485
 3781SOL     OW22978   3.062   0.090  15.315 -0.1367  0.2549  0.0788
 3781SOL    HW122979   3.131   0.024  15.305  1.7301  2.4234 -1.1376
 3781SOL    HW222980   3.058   0.101  15.410 -0.5067 -2.8623  0.4262
 3782SOL     OW22981   2.297   2.957   1.413 -0.6640 -0.1928  0.0771
 3782SOL    HW122982   2.314   2.942   1.320  2.5358  2.3414  0.2535
 3782SOL    HW222983   2.266   3.046   1.399 -0.7587  0.0266  1.6403
 3783SOL     OW22984   1.407   1.983   5.679 -0.5367 -0.8096 -0.4158
 3783SOL    HW122985   1.361   2.063   5.654 -0.3557 -1.0119 -1.4098
 3783SOL    HW222986   1.370   1.922   5.615  0.3493 -0.0417 -1.6818
 3784SOL     OW22987   3.574   3.273  12.901  0.2386  0.1023 -0.2383
 3784SOL    HW122988   3.589   3.245  12.810  0.5305 -0.7504  0.0735
 3784SOL    HW222989   3.533   3.359  12.895  1.6588  0.7500 -0.4270
 3785SOL     OW22990   0.391   3.394   5.181  0.2767  0.0164  0.1369
 3785SOL    HW122991   0.299   3.370   5.167  0.4429 -1.1103  0.9896
 3785SOL    HW222992   0.374   3.485   5.205 -0.3406  0.0922 -0.5583
 3786SOL     OW22993   1.062   4.445  10.991  0.7555  0.3658  0.5676
 3786SOL    HW122994   1.038   4.407  10.907  1.7810 -1.5781  1.1542
 3786SOL    HW222995   1.012   4.384  11.045  0.3787  1.4000  1.4059
 3787SOL     OW22996   4.356   2.881   2.291 -0.3675  0.0835  0.5223
 3787SOL    HW122997   4.351   2.926   2.375 -2.9623  2.7961 -1.0716
 3787SOL    HW222998   4.273   2.834   2.288  0.2135 -1.0347  2.1011
 3788SOL     OW22999   0.518   0.548  14.840 -0.2361  0.3785 -0.4225
 3788SOL    HW123000   0.558   0.463  14.857 -0.3162  0.2755 -0.7474
 3788SOL    HW223001   0.429   0.528  14.810  0.5208 -0.5506 -2.0451
 3789SOL     OW23002   0.850   1.380  11.500  0.0849  0.3161  0.1603
 3789SOL    HW123003   0.831   1.304  11.556 -2.3758  1.1275  0.4096
 3789SOL    HW223004   0.866   1.344  11.413 -0.7648  0.2512  0.0350
 3790SOL     OW23005   1.478   2.931   9.634 -0.8627  0.1391  0.0433
 3790SOL    HW123006   1.494   2.880   9.713 -3.5805  0.0455  0.5457
 3790SOL    HW223007   1.521   3.016   9.644  0.8240 -0.5710 -1.2267
 3791SOL     OW23008   2.696   1.721   5.243 -0.0496  0.4201 -0.1950
 3791SOL    HW123009   2.672   1.679   5.326 -1.6014 -0.2635 -0.9990
 3791SOL    HW223010   2.753   1.786   5.284  0.1961 -0.6389  1.1528
 3792SOL     OW23011   1.039   0.771   7.613  0.1485  0.4577 -0.0384
 3792SOL    HW123012   1.072   0.777   7.702  0.3043  0.0651 -0.0691
 3792SOL    HW223013   0.963   0.829   7.611 -1.3038 -1.4585 -1.2066
 3793SOL     OW23014   3.316   3.464   5.979  0.0364  0.2764 -0.6222
 3793SOL    HW123015   3.372   3.421   6.044  0.2245  1.9468  0.3331
 3793SOL    HW223016   3.232   3.441   6.018 -0.4696  2.1232 -0.6135
 3794SOL     OW23017   4.564   3.305  10.055  0.1780 -0.4310 -0.2418
 3794SOL    HW123018   4.629   3.268  10.115 -0.6069 -3.3795 -1.2054
 3794SOL    HW223019   4.550   3.232   9.995  2.5164 -1.4284  0.4502
 3795SOL     OW23020   3.156   3.089  16.274 -0.4014  0.0241  0.0839
 3795SOL    HW123021   3.235   3.080  16.327 -1.4431 -0.4051  1.5387
 3795SOL    HW223022   3.097   3.120  16.342 -0.9563 -0.1806 -0.3045
 3796SOL     OW23023   3.705   0.094   3.356 -0.2874 -0.5727  0.3227
 3796SOL    HW123024   3.789   0.050   3.370 -1.2353 -2.1174  1.1905
 3796SOL    HW223025   3.646   0.035   3.403  0.8599 -0.7997  1.4705
 3797SOL     OW23026   2.993   0.925   1.698 -0.2019  0.0760  0.1594
 3797SOL    HW123027   3.010   0.886   1.613 -1.8514  0.4285 -0.3286
 3797SOL    HW223028   3.002   1.015   1.668 -0.5458 -0.0491 -0.3101
 3798SOL     OW23029   1.247   1.573   2.463  0.3711 -0.0168 -0.2510
 3798SOL    HW123030   1.278   1.595   2.375  1.0212 -0.0493 -0.0279
 3798SOL    HW223031   1.157   1.604   2.452  0.1415 -1.6550 -3.0529
 3799SOL     OW23032   1.194   1.178   5.078  0.0514  0.4974  0.0268
 3799SOL    HW123033   1.176   1.188   5.171 -2.6028 -1.4285 -0.2959
 3799SOL    HW223034   1.125   1.117   5.054  0.2030  0.1835  0.3940
 3800SOL     OW23035   2.562   0.158   8.473 -0.3386  0.1753 -0.6584
 3800SOL    HW123036   2.493   0.168   8.538 -1.4154 -0.0456 -1.7723
 3800SOL    HW223037   2.534   0.074   8.436  1.3504 -0.3209 -0.8339
 3801SOL     OW23038   3.292   3.428   2.751  0.4622 -0.3059 -0.2293
 3801SOL    HW123039   3.315   3.413   2.660 -1.8437 -1.8109 -0.5790
 3801SOL    HW223040   3.366   3.476   2.788  1.5070 -1.1448 -1.2421
 3802SOL     OW23041   1.614   3.935   1.533 -0.0164  0.4578 -0.0611
 3802SOL    HW123042   1.598   4.000   1.465 -1.0131  0.6451  0.3556
 3802SOL    HW223043   1.560   3.971   1.604  0.7891 -0.0718  0.8212
 3803SOL     OW23044   4.547   2.692   5.087 -0.6690  0.0050  0.1463
 3803SOL    HW123045   4.477   2.720   5.028 -0.8294 -2.0747 -0.6490
 3803SOL    HW223046   4.614   2.757   5.064 -0.0233 -0.4585  0.7335
 3804SOL     OW23047   1.281   4.699   6.684 -0.0887  0.1744  0.4261
 3804SOL    HW123048   1.230   0.040   6.692  0.6662  0.7816 -1.0671
 3804SOL    HW223049   1.226   4.632   6.644 -0.6889  1.2224 -0.4990
 3805SOL     OW23050   2.337   4.710  17.509 -0.1668  0.2934  0.0535
 3805SOL    HW123051   2.381   0.035  17.564  0.7044 -1.5079  1.4864
 3805SOL    HW223052   2.378   4.734  17.426  1.8271 -2.1485  0.3124
 3806SOL     OW23053   4.654   3.504   8.274  0.1964 -0.6784 -0.5572
 3806SOL    HW123054   4.721   3.464   8.330  0.8140  0.6599 -0.3385
 3806SOL    HW223055   4.590   3.526   8.342  1.9177  1.1157  0.4759
 3807SOL     OW23056   1.855   0.626   3.403 -0.1330 -0.3431  0.1300
 3807SOL    HW123057   1.874   0.592   3.490 -0.7862 -0.3866  0.2571
 3807SOL    HW223058   1.810   0.705   3.432  1.4356  0.6851 -0.2237
 3808SOL     OW23059   2.629   1.681   5.729  0.3778  0.0920 -0.0650
 3808SOL    HW123060   2.717   1.644   5.726 -0.3104 -1.5980  0.5786
 3808SOL    HW223061   2.584   1.637   5.801  0.5272  0.0706  0.0145
 3809SOL     OW23062   1.943   4.162   7.975 -0.8368  0.0513 -0.5265
 3809SOL    HW123063   1.985   4.093   7.923 -0.6739  0.1690 -0.5499
 3809SOL    HW223064   1.894   4.116   8.043 -0.5212 -2.1512 -1.7790
 3810SOL     OW23065   1.089   0.806  12.301 -0.5449  0.3596 -0.3218
 3810SOL    HW123066   1.128   0.780  12.218  0.3888 -0.9863  0.5394
 3810SOL    HW223067   1.146   0.880  12.322  0.7350 -0.5679 -0.5038
 3811SOL     OW23068   3.601   3.533  11.227 -0.3502 -0.1247 -0.8748
 3811SOL    HW123069   3.682   3.483  11.218 -1.1440 -1.3799 -1.1338
 3811SOL    HW223070   3.585   3.505  11.317  0.1541 -2.5114 -1.5140
 3812SOL     OW23071   1.836   0.438   9.060 -0.5358  0.2913 -0.3438
 3812SOL    HW123072   1.825   0.516   9.114  2.9151 -0.1086  0.9160
 3812SOL    HW223073   1.873   0.476   8.980  1.0372 -1.5085 -0.4868
 3813SOL     OW23074   3.008   0.236   1.624 -0.0765 -0.1271 -0.0715
 3813SOL    HW123075   2.923   0.259   1.586 -0.1899 -2.1028 -0.9991
 3813SOL    HW223076   3.059   0.243   1.543 -3.8115 -2.4185 -2.5865
 3814SOL     OW23077   2.690   0.722   5.705  0.2879 -0.4253  0.1841
 3814SOL    HW123078   2.616   0.698   5.760 -0.5865 -0.7729 -1.1397
 3814SOL    HW223079   2.749   0.752   5.774  1.9196  2.0548 -2.2673
 3815SOL     OW23080   1.175   4.356   7.231 -0.9236  0.4641  0.0387
 3815SOL    HW123081   1.259   4.401   7.244 -0.2153 -0.0149 -3.0316
 3815SOL    HW223082   1.148   4.378   7.142 -1.0695 -1.7764 -0.4533
 3816SOL     OW23083   1.388   0.633   8.108  0.4827  0.0064  0.4620
 3816SOL    HW123084   1.466   0.688   8.109 -0.9158  1.9617  0.8642
 3816SOL    HW223085   1.425   0.560   8.158 -0.8812 -1.3284 -0.4638
 3817SOL     OW23086   1.155   3.745   1.331 -0.1700  0.1080 -0.3370
 3817SOL    HW123087   1.207   3.753   1.411  0.5056 -1.7459 -0.6052
 3817SOL    HW223088   1.217   3.702   1.272 -1.9137 -1.5176 -0.9704
 3818SOL     OW23089   4.288   1.412   6.706 -0.3335  0.1210 -0.3583
 3818SOL    HW123090   4.292   1.503   6.676  0.9147 -0.7770 -2.8620
 3818SOL    HW223091   4.351   1.368   6.650  2.1758  2.7705  0.3376
 3819SOL     OW23092   1.193   0.528   7.959  0.1267  0.0347  0.2130
 3819SOL    HW123093   1.265   0.550   8.018  0.0788  3.8204 -1.1284
 3819SOL    HW223094   1.134   0.596   7.991  2.1280  1.0752  1.7089
 3820SOL     OW23095   0.601   1.051  14.498  0.3233 -0.1796 -0.0442
 3820SOL    HW123096   0.520   1.096  14.474  1.8924  2.1288 -1.0981
 3820SOL    HW223097   0.603   0.984  14.430  0.7110 -0.7707  0.5423
 3821SOL     OW23098   0.470   0.614   2.694  0.1492  0.2009  0.2819
 3821SOL    HW123099   0.558   0.649   2.683  1.0723 -1.9423  0.7972
 3821SOL    HW223100   0.432   0.694   2.729 -0.3990 -1.6822  4.0995
 3822SOL     OW23101   0.451   0.839   0.329 -0.0654 -0.3802 -0.0629
 3822SOL    HW123102   0.358   0.818   0.322 -0.0609  0.4825 -2.7817
 3822SOL    HW223103   0.448   0.930   0.297 -1.8479 -0.0742  0.9636
 3823SOL     OW23104   3.169   2.559  12.614  0.2191  0.1438  0.3217
 3823SOL    HW123105   3.080   2.560  12.650 -0.2192  2.2291 -0.8525
 3823SOL    HW223106   3.199   2.480  12.658 -0.1435 -0.1137  0.1082
 3824SOL     OW23107   2.450   0.748   9.406  0.0349  0.3084  0.3696
 3824SOL    HW123108   2.414   0.659   9.399  0.0294  0.5250 -2.2795
 3824SOL    HW223109   2.461   0.761   9.501  1.0775 -1.1423  0.4543
 3825SOL     OW23110   0.585   1.268   3.601 -0.2637  0.6732 -0.1151
 3825SOL    HW123111   0.612   1.268   3.693 -0.8259  2.2223  0.0485
 3825SOL    HW223112   0.632   1.194   3.562 -1.2817 -1.0638  1.9458
 3826SOL     OW23113   2.304   2.200   5.555  0.1488 -0.3748  0.0115
 3826SOL    HW123114   2.388   2.244   5.566  0.9625 -1.6010 -1.3648
 3826SOL    HW223115   2.332   2.128   5.499 -2.0773 -0.7198 -0.6728
 3827SOL     OW23116   2.781   1.458   4.793  0.3627 -0.2784 -0.4639
 3827SOL    HW123117   2.795   1.540   4.747 -0.5611  1.0195  1.5544
 3827SOL    HW223118   2.775   1.487   4.884  2.4733  0.4830 -0.5536
 3828SOL     OW23119   4.465   3.972   8.548  0.4808 -0.9381 -0.2433
 3828SOL    HW123120   4.499   3.993   8.461  1.1039  0.0950  0.2480
 3828SOL    HW223121   4.547   3.980   8.596  1.4957 -1.4793 -1.8615
 3829SOL     OW23122   0.501   4.337   9.149 -0.1252 -0.1155  0.9768
 3829SOL    HW123123   0.554   4.351   9.228  1.4622  0.3082 -0.1591
 3829SOL    HW223124   0.415   4.374   9.168 -0.3118  0.8096 -1.7452
 3830SOL     OW23125   1.570   0.091  11.690 -0.4284  0.1811 -0.0879
 3830SOL    HW123126   1.576   0.186  11.697 -1.3472  0.2614 -0.3925
 3830SOL    HW223127   1.494   0.081  11.633 -0.4986  2.0288 -0.3081
 3831SOL     OW23128   1.024   3.962   5.060 -0.3734  0.4093  0.4740
 3831SOL    HW123129   1.028   3.974   5.155 -0.3562  1.5165  0.3345
 3831SOL    HW223130   1.085   4.032   5.037  0.3751 -0.4845 -0.2562
 3832SOL     OW23131   4.384   4.344   4.352 -0.2155 -0.2535  0.4323
 3832SOL    HW123132   4.405   4.294   4.432 -2.2205  1.3533  1.9613
 3832SOL    HW223133   4.421   4.293   4.280  0.3193  2.3127 -1.1013
 3833SOL     OW23134   1.274   2.171   5.124  0.3874  0.0059  0.1450
 3833SOL    HW123135   1.315   2.085   5.129  2.0328  0.7347 -0.9421
 3833SOL    HW223136   1.347   2.219   5.085 -0.3174  0.7493 -0.2600
 3834SOL     OW23137   0.310   0.516   3.646  0.5073  0.3282 -0.4162
 3834SOL    HW123138   0.259   0.441   3.617  0.7975 -0.0183 -0.0340
 3834SOL    HW223139   0.273   0.538   3.732  1.1433 -0.6156  0.1060
 3835SOL     OW23140   0.001   4.243   5.219  0.5242  0.0096 -0.3491
 3835SOL    HW123141   4.652   4.245   5.185 -0.3283 -1.3583  1.7985
 3835SOL    HW223142   0.001   4.156   5.260  0.7088  0.5469  0.7628
 3836SOL     OW23143   2.818   3.189  15.171  0.3493 -0.1811  0.0078
 3836SOL    HW123144   2.897   3.140  15.192  0.8571  0.5475 -0.2095
 3836SOL    HW223145   2.835   3.208  15.079 -0.2460  0.3089 -0.0019
 3837SOL     OW23146   1.886   4.662   7.958 -0.3377 -0.3839  0.0713
 3837SOL    HW123147   1.841   4.714   7.892  0.3658 -1.4388 -1.2340
 3837SOL    HW223148   1.976   4.694   7.962 -0.3552 -0.6299  2.9595
 3838SOL     OW23149   4.132   2.188   0.301 -0.1056  0.2796  0.0525
 3838SOL    HW123150   4.142   2.165   0.209  2.5410 -1.2683  0.7467
 3838SOL    HW223151   4.088   2.110   0.335 -1.3413  1.1994  0.5644
 3839SOL     OW23152   4.536   1.168   7.236 -0.4545  0.1517  0.3803
 3839SOL    HW123153   4.452   1.143   7.196 -0.1808  0.3942 -0.3486
 3839SOL    HW223154   4.581   1.194   7.155  0.1148  0.1989  0.7144
 3840SOL     OW23155   2.030   1.827   6.585  0.2044  0.2418 -0.3718
 3840SOL    HW123156   2.118   1.806   6.616  0.8870  1.7022 -1.3105
 3840SOL    HW223157   2.011   1.906   6.635  2.6198  1.2716 -1.0822
 3841SOL     OW23158   3.870   3.781  11.643  0.0512 -0.1139 -0.0435
 3841SOL    HW123159   3.886   3.838  11.718 -0.4332 -1.1634  0.8681
 3841SOL    HW223160   3.913   3.830  11.573  0.4442 -0.7226 -0.2317
 3842SOL     OW23161   1.373   3.994   4.674 -0.6555  0.3415  0.0928
 3842SOL    HW123162   1.363   4.057   4.603 -0.4875  2.5785  2.0817
 3842SOL    HW223163   1.384   4.045   4.754 -1.1451  1.2275 -0.4056
 3843SOL     OW23164   1.767   1.059   9.094  0.9740 -0.6783  0.2131
 3843SOL    HW123165   1.671   1.052   9.099  1.0270 -0.8207  0.8906
 3843SOL    HW223166   1.786   1.142   9.137 -1.6663  0.5351 -0.9172
 3844SOL     OW23167   0.914   3.726   1.213 -0.2975 -0.4340  0.2418
 3844SOL    HW123168   0.997   3.723   1.261  1.0146 -0.6300 -2.0516
 3844SOL    HW223169   0.853   3.698   1.281 -0.1627 -0.0109  0.5336
 3845SOL     OW23170   4.578   0.596   0.184 -0.0897  0.2518  0.1703
 3845SOL    HW123171   4.645   0.583   0.116 -0.2937 -1.4389  0.3053
 3845SOL    HW223172   4.510   0.541   0.146  2.0649 -0.9630 -1.9345
 3846SOL     OW23173   0.199   3.844   5.951  0.0066  0.1896 -0.3809
 3846SOL    HW123174   0.108   3.868   5.937 -0.2325 -0.0955  0.7022
 3846SOL    HW223175   0.245   3.896   5.885 -0.6705  1.8057  0.4041
 3847SOL     OW23176   3.250   3.149   8.209 -0.3011 -0.7055  0.0685
 3847SOL    HW123177   3.239   3.066   8.163 -0.4269  0.6939 -2.4731
 3847SOL    HW223178   3.174   3.193   8.171  0.9581  0.8510 -0.6796
 3848SOL     OW23179   4.326   2.833   6.284  0.0894  0.3709  0.5554
 3848SOL    HW123180   4.334   2.909   6.226  1.9707 -0.8554 -0.7860
 3848SOL    HW223181   4.417   2.806   6.278 -0.4398 -1.2369 -0.0982
 3849SOL     OW23182   0.821   3.699  11.460 -0.2643 -0.3448  0.3281
 3849SOL    HW123183   0.777   3.780  11.484  1.0918  0.0878  1.3640
 3849SOL    HW223184   0.807   3.645  11.539 -0.5203 -0.9788 -0.1504
 3850SOL     OW23185   3.585   2.921   8.112 -0.0466 -0.0332 -0.2561
 3850SOL    HW123186   3.526   2.955   8.045  1.5586  1.1269 -1.1087
 3850SOL    HW223187   3.576   2.827   8.102  0.6303 -0.1749  0.4575
 3851SOL     OW23188   3.620   4.545   5.822  0.7865 -0.2273 -0.3348
 3851SOL    HW123189   3.635   4.552   5.728 -0.9609  1.0313 -0.5116
 3851SOL    HW223190   3.610   4.638   5.844  0.9570 -0.0171 -1.1172
 3852SOL     OW23191   2.813   3.913   6.134 -0.1068 -0.6719 -0.1395
 3852SOL    HW123192   2.731   3.864   6.145 -1.3619  0.9035 -2.6993
 3852SOL    HW223193   2.870   3.839   6.154  0.4422 -0.0416  0.6369
 3853SOL     OW23194   4.694   4.496  17.646 -0.4054 -0.6838  0.8118
 3853SOL    HW123195   0.016   4.478  17.576 -0.6811  0.5115  0.2634
 3853SOL    HW223196   0.001   4.551  17.709 -0.9085 -0.7474  1.2443
 3854SOL     OW23197   3.452   0.417   6.100 -0.4180 -0.0767 -0.6386
 3854SOL    HW123198   3.523   0.424   6.164  2.6986  0.1191 -4.0464
 3854SOL    HW223199   3.461   0.508   6.070 -2.5587 -0.2904 -1.9426
 3855SOL     OW23200   3.123   2.721   0.796  0.1855  0.0046  0.1063
 3855SOL    HW123201   3.216   2.744   0.790  0.3692 -0.6359  0.5795
 3855SOL    HW223202   3.120   2.644   0.739 -0.6703 -1.2047  1.7713
 3856SOL     OW23203   2.425   3.100  17.360  0.7004  0.6114 -0.0561
 3856SOL    HW123204   2.507   3.149  17.351  1.0216  0.0220 -0.3129
 3856SOL    HW223205   2.406   3.114  17.453  0.4483  0.4527 -0.0845
 3857SOL     OW23206   1.871   3.715   9.413  0.3693  0.0138  0.1823
 3857SOL    HW123207   1.907   3.736   9.500 -0.4151  1.5126  0.1332
 3857SOL    HW223208   1.853   3.799   9.371 -0.7246  0.4426  1.4981
 3858SOL     OW23209   0.114   1.626   1.388 -0.4110 -0.0380  0.2016
 3858SOL    HW123210   0.133   1.542   1.347  1.3887  1.3705 -1.8407
 3858SOL    HW223211   0.022   1.629   1.361 -0.4504  0.6860  0.4197
 3859SOL     OW23212   3.162   1.686  14.242  0.0586  0.3667 -0.5402
 3859SOL    HW123213   3.180   1.656  14.331 -0.1164 -1.2342 -1.0352
 3859SOL    HW223214   3.242   1.732  14.219  0.6916  0.4385  1.8333
 3860SOL     OW23215   1.575   0.586   0.825  0.3217  0.1334 -0.1931
 3860SOL    HW123216   1.533   0.662   0.866  3.0621  0.9062  1.1888
 3860SOL    HW223217   1.614   0.536   0.896 -1.8216  0.8683  1.4821
 3861SOL     OW23218   3.242   0.492   8.500  0.2270  0.0269  0.0931
 3861SOL    HW123219   3.270   0.430   8.433  0.9243  1.6706 -1.1402
 3861SOL    HW223220   3.297   0.468   8.575 -0.0316  1.0360  0.5965
 3862SOL     OW23221   3.455   3.299   2.226 -0.9182 -0.2831 -0.0114
 3862SOL    HW123222   3.508   3.240   2.173 -0.8255  0.7311 -1.0519
 3862SOL    HW223223   3.372   3.252   2.220 -0.4692 -1.3071  1.7419
 3863SOL     OW23224   1.678   2.364  16.091  0.3857  0.3008 -0.1938
 3863SOL    HW123225   1.683   2.453  16.126  1.4455  0.2528 -0.2098
 3863SOL    HW223226   1.611   2.378  16.024 -0.8690  0.8298  1.1889
 3864SOL     OW23227   3.120   2.581   8.995 -0.0137 -0.0139  0.5431
 3864SOL    HW123228   3.164   2.620   8.919 -0.5138  2.7381  1.6711
 3864SOL    HW223229   3.074   2.508   8.953  0.0969  1.2446 -1.7834
 3865SOL     OW23230   0.864   1.056   4.882  0.0844 -0.1557  0.4996
 3865SOL    HW123231   0.891   1.030   4.970 -2.5867 -0.9627  1.1000
 3865SOL    HW223232   0.910   0.994   4.827  0.3915 -0.7023  1.3647
 3866SOL     OW23233   1.967   3.982  10.185 -0.1898 -0.0982  0.1288
 3866SOL    HW123234   1.874   3.989  10.207 -0.5948 -1.0837 -1.2311
 3866SOL    HW223235   1.954   3.933  10.103 -0.4440  1.2563 -0.6367
 3867SOL     OW23236   1.811   1.043   6.373  0.5348 -0.0192  0.1056
 3867SOL    HW123237   1.841   1.028   6.283 -0.4427 -2.5010  0.1773
 3867SOL    HW223238   1.890   1.016   6.421 -0.0765  0.2798  1.2921
 3868SOL     OW23239   0.198   1.842   6.149  0.0229  0.1369 -0.2650
 3868SOL    HW123240   0.268   1.778   6.139  0.5498  0.6667  0.0416
 3868SOL    HW223241   0.244   1.918   6.113  1.7119 -0.4316  0.7050
 3869SOL     OW23242   4.458   2.649   0.503  0.5016  0.1044 -0.1326
 3869SOL    HW123243   4.418   2.607   0.427 -1.5505  2.6171 -0.4558
 3869SOL    HW223244   4.512   2.578   0.537  2.6045 -0.2434 -4.0922
 3870SOL     OW23245   1.901   4.052   5.055  0.1295  1.0831 -0.3345
 3870SOL    HW123246   1.891   4.122   5.119  0.9127 -0.3917  1.3998
 3870SOL    HW223247   1.834   3.990   5.084  0.5306  0.1002 -1.4628
 3871SOL     OW23248   3.785   3.896   4.898 -0.5033 -0.0835 -0.2811
 3871SOL    HW123249   3.713   3.840   4.869  1.3285 -2.7688  0.2827
 3871SOL    HW223250   3.738   3.969   4.937 -0.2167 -1.0337  1.8560
 3872SOL     OW23251   0.346   1.607   3.124 -0.3149  0.2237  0.4623
 3872SOL    HW123252   0.416   1.624   3.188  0.9684 -0.9224 -0.6248
 3872SOL    HW223253   0.371   1.518   3.098  0.3965  1.2228 -2.2102
 3873SOL     OW23254   4.112   2.865   4.964 -0.0883 -0.2386 -0.3651
 3873SOL    HW123255   4.056   2.902   4.895 -0.1839 -0.8022 -0.5875
 3873SOL    HW223256   4.140   2.943   5.013 -2.4746 -0.7883  1.9161
 3874SOL     OW23257   2.772   3.782   7.275 -0.1175  0.0652 -0.3601
 3874SOL    HW123258   2.846   3.721   7.277 -0.6111 -0.6410 -3.0650
 3874SOL    HW223259   2.706   3.734   7.325 -0.3764  0.5226 -0.2656
 3875SOL     OW23260   1.689   4.593  12.063  0.3722  0.2039 -0.5328
 3875SOL    HW123261   1.739   4.675  12.060  0.6405  0.1790  3.0925
 3875SOL    HW223262   1.639   4.585  11.982  0.9066 -0.7542 -0.7769
 3876SOL     OW23263   4.676   2.003  12.318  0.4534  0.1079 -0.3529
 3876SOL    HW123264   4.665   2.033  12.409  0.8594  0.9230 -0.5716
 3876SOL    HW223265   4.697   1.910  12.330 -0.4420 -0.0236  0.1710
 3877SOL     OW23266   3.896   3.657   8.355 -0.2665 -0.1227  0.0502
 3877SOL    HW123267   3.918   3.614   8.437 -1.9738 -1.4602 -0.2038
 3877SOL    HW223268   3.942   3.606   8.288 -1.3281 -0.9204 -0.0764
 3878SOL     OW23269   4.460   3.314  10.393  0.5820 -0.2725 -0.0167
 3878SOL    HW123270   4.513   3.245  10.353  0.1113  0.1410 -1.3516
 3878SOL    HW223271   4.379   3.293  10.347  1.9959 -1.8321 -1.8101
 3879SOL     OW23272   4.472   0.847   0.221  0.2979 -0.8462 -0.3554
 3879SOL    HW123273   4.557   0.885   0.241 -0.4244  1.6846 -2.1305
 3879SOL    HW223274   4.496   0.754   0.214 -0.1106 -0.8965 -1.0885
 3880SOL     OW23275   2.596   0.458  10.416  0.4098  0.6097 -0.2627
 3880SOL    HW123276   2.601   0.367  10.386 -0.4073  0.4536  0.0745
 3880SOL    HW223277   2.604   0.445  10.510 -1.9003  2.7777  0.2477
 3881SOL     OW23278   2.046   2.518  13.470  0.3021  0.4205  0.1100
 3881SOL    HW123279   2.142   2.523  13.471  0.2795  0.6284  0.9535
 3881SOL    HW223280   2.032   2.603  13.511 -0.5977  0.3060  0.0412
 3882SOL     OW23281   2.255   1.946  13.646 -0.3579 -0.8514 -0.3967
 3882SOL    HW123282   2.269   2.036  13.619  1.8201 -0.5700  1.6649
 3882SOL    HW223283   2.201   1.959  13.723 -0.3617  3.8629 -1.2369
 3883SOL     OW23284   2.168   4.421  17.463  0.1583 -0.0109 -0.1566
 3883SOL    HW123285   2.152   4.334  17.427 -0.3697  0.0389 -0.0448
 3883SOL    HW223286   2.204   4.399  17.548 -0.5843  0.0955  0.1886
 3884SOL     OW23287   4.459   2.413  10.924 -0.5718  0.3129 -0.5234
 3884SOL    HW123288   4.363   2.413  10.928 -0.4755 -4.2771  1.7573
 3884SOL    HW223289   4.493   2.413  11.014  0.0452 -0.4268 -0.7643
 3885SOL     OW23290   3.022   1.661   4.963  0.3069  0.5901  0.4104
 3885SOL    HW123291   2.931   1.640   4.987  0.7753  0.1647  1.7809
 3885SOL    HW223292   3.058   1.572   4.957 -0.2134  0.2559  1.9954
 3886SOL     OW23293   1.066   0.872   4.685  0.2707 -0.2314  0.5412
 3886SOL    HW123294   1.099   0.872   4.595 -2.1674 -0.7146 -0.3668
 3886SOL    HW223295   0.992   0.811   4.692  0.5080 -0.4740  0.9673
 3887SOL     OW23296   0.177   4.214  17.182 -0.0305 -0.3691  0.5339
 3887SOL    HW123297   0.109   4.159  17.145  0.2446  0.0110 -0.5237
 3887SOL    HW223298   0.242   4.154  17.218 -0.5490 -0.8582  0.6595
 3888SOL     OW23299   3.433   2.984   8.821  0.0389  0.4647  0.2646
 3888SOL    HW123300   3.477   3.002   8.738 -3.3799  3.0963 -0.9654
 3888SOL    HW223301   3.467   3.062   8.864  0.6567  1.4529 -2.0687
 3889SOL     OW23302   0.833   4.396   7.135 -0.1875 -0.0556 -0.0160
 3889SOL    HW123303   0.824   4.329   7.203 -1.0345 -1.2025 -1.2513
 3889SOL    HW223304   0.926   4.415   7.125 -0.7922  3.1127  0.4355
 3890SOL     OW23305   0.662   4.230   0.114  0.2107 -0.4893 -0.0762
 3890SOL    HW123306   0.659   4.164   0.184  0.5682  1.1889  1.5209
 3890SOL    HW223307   0.624   4.178   0.043  0.2070  1.8612 -1.7973
 3891SOL     OW23308   4.150   4.098   3.680  0.0017  0.0775 -0.5834
 3891SOL    HW123309   4.172   4.142   3.598  2.1372  1.8602  0.9579
 3891SOL    HW223310   4.085   4.032   3.656 -0.2363 -0.0746  0.5070
 3892SOL     OW23311   1.211   3.395   5.655  0.1768  0.1733  0.3518
 3892SOL    HW123312   1.256   3.473   5.686  1.7177 -0.5294 -0.1103
 3892SOL    HW223313   1.207   3.340   5.733 -0.5978 -0.6264 -0.2507
 3893SOL     OW23314   1.688   0.519  15.601 -0.0827  0.0823 -0.4318
 3893SOL    HW123315   1.726   0.581  15.664  0.9933 -0.8427 -0.1683
 3893SOL    HW223316   1.764   0.489  15.552 -0.3254  1.8855 -1.9040
 3894SOL     OW23317   2.768   1.215   9.707  0.1120  0.1239 -0.0758
 3894SOL    HW123318   2.730   1.127   9.703 -0.9246  0.5839 -0.3394
 3894SOL    HW223319   2.737   1.253   9.789 -0.3228  1.3340 -0.8010
 3895SOL     OW23320   4.006   2.006   0.491 -0.9245 -0.1153  0.3929
 3895SOL    HW123321   4.054   1.940   0.539  0.0546 -0.9739 -1.7644
 3895SOL    HW223322   3.916   1.973   0.484 -1.6476  1.8453  0.3726
 3896SOL     OW23323   2.014   1.940   4.998  0.2555 -0.2608 -0.2250
 3896SOL    HW123324   2.082   1.901   4.943  1.3129 -1.2618  1.7916
 3896SOL    HW223325   1.932   1.915   4.955 -0.3303 -2.2461  2.0485
 3897SOL     OW23326   0.895   0.764   2.896  0.6666  0.0401 -0.3161
 3897SOL    HW123327   0.955   0.705   2.942  0.3199  0.6862  0.9600
 3897SOL    HW223328   0.810   0.743   2.933  2.1546 -1.2718  2.3120
 3898SOL     OW23329   1.101   1.535  17.335  0.6072 -0.0731 -0.1700
 3898SOL    HW123330   1.111   1.585  17.416 -3.2117 -2.1452  1.6000
 3898SOL    HW223331   1.005   1.529  17.331  0.5445 -0.0531  1.3106
 3899SOL     OW23332   1.512   4.037  12.478 -0.5629  0.4866 -0.1458
 3899SOL    HW123333   1.441   4.102  12.478 -1.3499 -0.3731  1.0781
 3899SOL    HW223334   1.515   4.008  12.569 -0.3229 -0.8269 -0.5747
 3900SOL     OW23335   4.146   1.026  14.695  0.2282  0.8735 -0.0079
 3900SOL    HW123336   4.196   0.969  14.754 -0.4450  0.5748  0.2774
 3900SOL    HW223337   4.054   0.999  14.701  0.9196 -1.2203  1.3048
 3901SOL     OW23338   3.669   3.166   5.026 -0.3322 -0.4185 -0.0678
 3901SOL    HW123339   3.704   3.228   4.962 -1.4314 -0.5738 -0.8007
 3901SOL    HW223340   3.736   3.165   5.094 -1.0700  1.2315  0.6822
 3902SOL     OW23341   3.866   2.674  10.410 -0.3011 -0.2110  0.4009
 3902SOL    HW123342   3.823   2.660  10.326  1.5236  0.3363 -0.6271
 3902SOL    HW223343   3.908   2.589  10.415  1.1568  0.5209  0.6588
 3903SOL     OW23344   2.670   3.434   5.522  0.3119 -0.1291  0.2192
 3903SOL    HW123345   2.666   3.389   5.437  3.3033  1.0065 -0.4996
 3903SOL    HW223346   2.673   3.529   5.507 -0.4143  0.3131  2.9106
 3904SOL     OW23347   3.367   3.858   6.960 -0.0355  0.2565  0.4056
 3904SOL    HW123348   3.417   3.938   6.944  0.3618 -0.0966 -0.1284
 3904SOL    HW223349   3.444   3.803   6.973  1.1735  1.7482 -0.4202
 3905SOL     OW23350   1.727   2.566   8.922  0.2122 -0.3845  0.1148
 3905SOL    HW123351   1.691   2.650   8.894  3.3455  1.2550  0.9168
 3905SOL    HW223352   1.819   2.593   8.926  0.1665 -0.0703 -0.9130
 3906SOL     OW23353   3.858   3.601  11.909 -0.4936  0.7738 -0.4106
 3906SOL    HW123354   3.889   3.691  11.904  1.0832  0.1835 -1.2605
 3906SOL    HW223355   3.829   3.597  11.818  0.8591 -1.8777 -0.7386
 3907SOL     OW23356   1.492   2.995  10.199 -0.5968  0.2190 -0.2230
 3907SOL    HW123357   1.517   2.947  10.278 -0.1997 -0.4073 -0.7266
 3907SOL    HW223358   1.545   3.074  10.214  0.0548 -0.4452  0.9311
 3908SOL     OW23359   4.728   0.917   3.426  0.1607 -0.3798 -0.4574
 3908SOL    HW123360   0.080   0.905   3.401  0.7242 -0.0208  1.4360
 3908SOL    HW223361   4.686   0.957   3.350 -1.7147  1.5561  1.6315
 3909SOL     OW23362   1.821   2.262   2.545 -0.2239 -0.1333  0.2760
 3909SOL    HW123363   1.864   2.311   2.615  0.5805 -0.6519  0.1368
 3909SOL    HW223364   1.891   2.235   2.487 -2.0963 -3.1087 -0.6039
 3910SOL     OW23365   4.367   1.636   5.846 -0.4754  0.4186  0.8772
 3910SOL    HW123366   4.385   1.575   5.918  0.5476  0.5200  0.7170
 3910SOL    HW223367   4.363   1.720   5.891  0.3164  0.1716  1.4219
 3911SOL     OW23368   1.540   0.498   2.143  0.4623  0.1131  0.5948
 3911SOL    HW123369   1.449   0.529   2.141  0.0133 -1.2559 -0.4181
 3911SOL    HW223370   1.569   0.549   2.218 -0.4982  2.9712 -0.9825
 3912SOL     OW23371   4.184   3.328   8.947 -0.0191 -0.3919 -0.3023
 3912SOL    HW123372   4.256   3.294   8.894 -1.4471 -2.5709 -0.8174
 3912SOL    HW223373   4.239   3.373   9.011 -2.0083  2.0785 -0.3131
 3913SOL     OW23374   3.945   3.368   6.514 -0.3134  0.5462 -0.1143
 3913SOL    HW123375   3.915   3.281   6.486 -1.6808  0.6515  1.0417
 3913SOL    HW223376   3.855   3.389   6.540 -0.0684 -2.2619  2.9777
 3914SOL     OW23377   0.541   1.937  13.454 -0.6490  0.0142  0.3658
 3914SOL    HW123378   0.493   1.947  13.372 -0.4565 -0.9477  0.1355
 3914SOL    HW223379   0.492   2.001  13.506  1.3058  0.1000  2.1029
 3915SOL     OW23380   4.357   2.778   8.805 -0.3500  0.7367 -0.5091
 3915SOL    HW123381   4.321   2.721   8.872 -1.4398 -0.2088 -1.8849
 3915SOL    HW223382   4.399   2.729   8.734 -0.0163 -1.3255  1.1110
 3916SOL     OW23383   0.730   3.944  11.533  0.1302 -0.3723  0.4624
 3916SOL    HW123384   0.704   4.025  11.490  2.5129 -1.0856 -2.2844
 3916SOL    HW223385   0.642   3.921  11.562 -0.6690  1.3752 -0.6096
 3917SOL     OW23386   3.596   0.155   3.962  0.2483  0.0013 -0.2317
 3917SOL    HW123387   3.626   0.096   4.030 -0.2934  0.4245  0.3809
 3917SOL    HW223388   3.607   0.105   3.881  0.2171 -1.1030  0.4513
 3918SOL     OW23389   3.375   0.235   3.632  0.1238 -0.1548 -0.4279
 3918SOL    HW123390   3.391   0.325   3.604 -0.6004 -0.0491 -0.4760
 3918SOL    HW223391   3.400   0.236   3.725 -0.8280  1.5134 -0.1983
 3919SOL     OW23392   3.389   2.513   6.387 -0.4145 -0.4668 -0.0996
 3919SOL    HW123393   3.294   2.516   6.398 -0.4368 -2.5912  0.2295
 3919SOL    HW223394   3.422   2.567   6.459 -1.5454 -1.0223  0.8341
 3920SOL     OW23395   0.915   2.410   0.844  0.1384 -0.5739  0.0105
 3920SOL    HW123396   1.001   2.412   0.886 -0.1517 -1.0835  0.6275
 3920SOL    HW223397   0.942   2.388   0.755 -0.8613  1.0653 -0.7036
 3921SOL     OW23398   1.826   1.434   5.212  0.0791 -0.1394  0.6418
 3921SOL    HW123399   1.865   1.487   5.282  0.9840 -1.5358  1.2077
 3921SOL    HW223400   1.791   1.362   5.265  0.2804 -0.1207  0.8029
 3922SOL     OW23401   0.919   4.311  10.794  0.0544  0.2558 -0.2674
 3922SOL    HW123402   0.914   4.231  10.740  1.9603  1.4586 -2.2476
 3922SOL    HW223403   0.836   4.355  10.775 -0.9457 -1.5172  0.0074
 3923SOL     OW23404   0.170   0.866  10.312 -0.1989  0.4587  0.0250
 3923SOL    HW123405   0.238   0.819  10.359 -1.7933 -1.3322  0.5602
 3923SOL    HW223406   0.216   0.874  10.229  0.2249  0.9858  0.3092
 3924SOL     OW23407   1.307   1.650  10.058 -0.0781 -0.1777  0.2317
 3924SOL    HW123408   1.288   1.722  10.118 -0.1192 -0.2321  0.2852
 3924SOL    HW223409   1.371   1.697  10.005  0.2326 -1.9145 -0.9060
 3925SOL     OW23410   4.668   3.257  14.054  0.1636  0.0036  0.2072
 3925SOL    HW123411   0.009   3.284  14.012 -0.4596  0.0460 -0.9572
 3925SOL    HW223412   4.692   3.171  14.087  1.2759  0.7591  1.3837
 3926SOL     OW23413   0.653   4.453   5.418 -0.0604  0.6155  0.0721
 3926SOL    HW123414   0.717   4.487   5.481  1.9523 -1.0801 -1.0708
 3926SOL    HW223415   0.713   4.432   5.346  0.5305  2.7806 -0.0877
 3927SOL     OW23416   3.093   4.683   6.181 -0.0109  0.3808 -0.0288
 3927SOL    HW123417   3.056   4.599   6.153 -0.5274  0.6281 -0.0904
 3927SOL    HW223418   3.146   4.643   6.249 -0.5381 -1.2727 -0.5924
 3928SOL     OW23419   3.872   1.730  12.013  0.4468 -0.1851  0.3097
 3928SOL    HW123420   3.886   1.639  12.038  0.8088  0.0487  0.9322
 3928SOL    HW223421   3.848   1.709  11.922 -2.8764  1.4362  0.7943
 3929SOL     OW23422   4.247   1.949   2.824  0.4848 -0.2752  0.3145
 3929SOL    HW123423   4.260   2.036   2.786  1.3745 -1.1117 -1.3043
 3929SOL    HW223424   4.181   1.967   2.891 -0.2582 -1.5220 -0.0731
 3930SOL     OW23425   3.215   4.228   5.293  0.4318  0.0094  0.0583
 3930SOL    HW123426   3.231   4.322   5.284 -2.7161  0.5618  0.2999
 3930SOL    HW223427   3.273   4.213   5.368 -0.5823 -1.2250  0.5883
 3931SOL     OW23428   0.805   0.031   2.043  0.0940  0.1765 -0.3015
 3931SOL    HW123429   0.731   4.713   2.022  0.7195 -0.6235 -0.2678
 3931SOL    HW223430   0.836   4.732   2.124 -1.6935 -1.2471 -0.2936
 3932SOL     OW23431   1.832   4.382   9.185 -0.0821 -0.1302  0.0841
 3932SOL    HW123432   1.806   4.415   9.099 -0.9721 -3.5371 -0.9562
 3932SOL    HW223433   1.799   4.293   9.172 -0.6338  0.2260 -0.8986
 3933SOL     OW23434   4.075   0.749  11.334 -0.3680 -0.0290 -0.1594
 3933SOL    HW123435   4.044   0.707  11.254 -0.9738  0.1081 -0.0018
 3933SOL    HW223436   4.161   0.709  11.341 -0.1202  0.4339 -0.5959
 3934SOL     OW23437   4.578   3.931  15.834 -0.6838 -0.7719 -0.5251
 3934SOL    HW123438   4.588   3.984  15.913  2.1852  0.5723 -1.7952
 3934SOL    HW223439   4.558   3.845  15.871 -1.7795 -1.1810 -2.0319
 3935SOL     OW23440   4.714   1.670   9.898  0.3583 -0.5660 -0.2521
 3935SOL    HW123441   0.020   1.602   9.849  4.8454  1.5026  1.1744
 3935SOL    HW223442   4.623   1.644   9.879  0.6563 -2.4148  0.8629
 3936SOL     OW23443   1.822   3.014   5.363 -0.1836  0.0112  0.1876
 3936SOL    HW123444   1.807   2.920   5.376  1.4433 -0.1916  0.7189
 3936SOL    HW223445   1.803   3.024   5.270  1.2835  3.1372  0.2253
 3937SOL     OW23446   4.181   1.458  16.527 -0.1310  0.3759  0.2563
 3937SOL    HW123447   4.262   1.406  16.523  0.2937  1.1523 -1.3138
 3937SOL    HW223448   4.142   1.451  16.440 -1.0941  0.2624  0.7029
 3938SOL     OW23449   4.453   1.080   4.126 -0.4473  0.1696 -0.3405
 3938SOL    HW123450   4.382   1.094   4.063  0.9156  3.0649 -1.2636
 3938SOL    HW223451   4.502   1.162   4.121  0.5573 -0.3707  0.9573
 3939SOL     OW23452   4.436   4.550   9.918  0.5232 -0.0545  0.2697
 3939SOL    HW123453   4.503   4.481   9.922 -0.8759 -1.5321 -1.6282
 3939SOL    HW223454   4.363   4.515   9.868 -0.6876  0.2333  1.8514
 3940SOL     OW23455   4.141   0.115   3.479 -0.3241  0.2441  0.2680
 3940SOL    HW123456   4.159   0.183   3.414  2.4019 -0.2080  0.5348
 3940SOL    HW223457   4.210   0.051   3.458  0.7254  1.3600  0.3501
 3941SOL     OW23458   3.963   3.334   6.220 -0.0677  0.0023  0.9962
 3941SOL    HW123459   4.002   3.247   6.224  0.0070 -0.1281 -2.4950
 3941SOL    HW223460   3.872   3.319   6.246 -0.1621 -3.2228 -1.2190
 3942SOL     OW23461   1.162   4.382   7.607  0.0631  0.1894 -0.8093
 3942SOL    HW123462   1.185   4.380   7.514  1.1308 -0.5190 -0.5425
 3942SOL    HW223463   1.102   4.308   7.596  1.5683 -1.1142 -0.3393
 3943SOL     OW23464   0.832   4.069   1.374 -1.0945  0.2595 -0.1411
 3943SOL    HW123465   0.815   4.159   1.347  0.3357  0.7436  0.6014
 3943SOL    HW223466   0.905   4.044   1.318 -1.3757  0.8591 -0.7889
 3944SOL     OW23467   2.786   0.514   1.681  0.1529  0.8514  0.7068
 3944SOL    HW123468   2.698   0.477   1.682 -0.0102  1.2309  0.4656
 3944SOL    HW223469   2.805   0.528   1.589 -2.2200 -2.4717 -0.2776
 3945SOL     OW23470   3.774   4.152   7.446  0.3467 -0.2002  0.1146
 3945SOL    HW123471   3.692   4.188   7.413 -1.0324 -3.0002  0.5632
 3945SOL    HW223472   3.754   4.146   7.539  2.5580  0.4832  0.6459
 3946SOL     OW23473   4.112   3.598   8.909  0.0336 -0.6095 -0.1912
 3946SOL    HW123474   4.116   3.576   9.002 -0.0319 -0.4593 -0.1532
 3946SOL    HW223475   4.138   3.517   8.865  0.6407 -0.5800  0.1117
 3947SOL     OW23476   2.562   3.800  13.551  0.2397  0.0455 -0.0692
 3947SOL    HW123477   2.543   3.829  13.462 -1.1266 -1.0403 -0.1387
 3947SOL    HW223478   2.640   3.747  13.538  1.8817  2.0591  1.6072
 3948SOL     OW23479   0.313   4.290   5.048 -0.3962  0.3583 -0.0495
 3948SOL    HW123480   0.360   4.281   5.131  1.5904 -0.9293 -1.3058
 3948SOL    HW223481   0.278   4.374   5.078 -2.1685 -1.4825  2.9299
 3949SOL     OW23482   2.134   1.169   6.380  0.5112 -0.3570  0.6185
 3949SOL    HW123483   2.105   1.243   6.433  0.2524  0.8136 -1.1738
 3949SOL    HW223484   2.188   1.206   6.310  0.3649 -0.3231  0.5225
 3950SOL     OW23485   3.969   2.363   5.129 -0.0140  0.2107  0.6180
 3950SOL    HW123486   4.053   2.397   5.098  0.6255 -0.6558  1.3855
 3950SOL    HW223487   3.906   2.435   5.123  1.0634  1.3043  2.1206
 3951SOL     OW23488   2.478   3.172   3.744  0.1625  0.0570 -0.1724
 3951SOL    HW123489   2.429   3.211   3.817  0.2279  1.6287 -0.9655
 3951SOL    HW223490   2.412   3.146   3.681 -0.0133 -2.4323  1.0453
 3952SOL     OW23491   0.821   3.670   4.460  0.2614  0.4397 -0.4767
 3952SOL    HW123492   0.731   3.648   4.437  0.2799 -1.0036  0.8332
 3952SOL    HW223493   0.834   3.608   4.533 -0.6515  0.6182 -0.1697
 3953SOL     OW23494   3.005   0.626   8.449 -0.5344  0.1933 -0.3462
 3953SOL    HW123495   2.983   0.606   8.358  2.6318 -0.5815 -0.9510
 3953SOL    HW223496   3.090   0.583   8.461 -0.5740 -0.5475 -2.7256
 3954SOL     OW23497   2.809   0.916  14.740 -0.4246 -0.7300  0.1310
 3954SOL    HW123498   2.903   0.930  14.733 -0.9530  2.2983 -0.9704
 3954SOL    HW223499   2.814   0.821  14.745  0.8662 -0.7465 -1.5038
 3955SOL     OW23500   3.804   2.625  10.141  0.4282 -0.0846  0.3659
 3955SOL    HW123501   3.754   2.543  10.135 -1.1490  1.0664 -2.1283
 3955SOL    HW223502   3.879   2.611  10.083 -0.2199 -2.1180 -0.0024
 3956SOL     OW23503   4.114   2.923  16.272  0.1868 -0.0076 -0.2030
 3956SOL    HW123504   4.046   2.896  16.334 -0.9796  1.1748 -0.9714
 3956SOL    HW223505   4.105   2.849  16.211  2.6091 -1.4040  1.1505
 3957SOL     OW23506   3.364   0.053   4.622  0.1694 -0.1087 -0.8156
 3957SOL    HW123507   3.319   0.137   4.616 -1.6193 -0.8885  1.5761
 3957SOL    HW223508   3.303   4.734   4.667 -0.0253  1.6334  1.1967
 3958SOL     OW23509   3.563   0.199   1.388 -0.0553 -0.3133  0.4678
 3958SOL    HW123510   3.615   0.204   1.468  0.9683  0.0735 -0.2287
 3958SOL    HW223511   3.623   0.152   1.330  2.3776  0.6606  2.2176
 3959SOL     OW23512   2.211   1.156   7.812  0.4037  0.2692 -0.9007
 3959SOL    HW123513   2.221   1.076   7.760 -1.2554  0.3019 -1.2722
 3959SOL    HW223514   2.149   1.136   7.882  1.0149  1.4864 -0.0169
 3960SOL     OW23515   1.058   3.136  15.837 -0.1882 -0.5449  0.1232
 3960SOL    HW123516   1.126   3.193  15.871  1.3052 -1.5484 -1.1695
 3960SOL    HW223517   1.062   3.053  15.886  2.2615 -0.1758  0.5759
 3961SOL     OW23518   4.223   3.462   6.840  0.2010 -0.0506 -0.0541
 3961SOL    HW123519   4.260   3.545   6.871  0.1433 -0.4315  1.0359
 3961SOL    HW223520   4.229   3.472   6.745  1.2561 -2.8890 -0.2775
 3962SOL     OW23521   0.249   2.880   1.712 -0.1819 -0.3442 -0.3779
 3962SOL    HW123522   0.257   2.975   1.704 -2.4266 -0.1879 -0.7687
 3962SOL    HW223523   0.337   2.851   1.733 -0.0226 -0.4131 -1.1407
 3963SOL     OW23524   0.026   3.479   6.202 -0.0225  0.2040 -0.1361
 3963SOL    HW123525   0.090   3.467   6.272 -0.0250 -0.6387 -0.2797
 3963SOL    HW223526   0.033   3.575   6.199 -0.6095  0.2572  0.1310
 3964SOL     OW23527   4.193   4.246   5.582 -0.2673 -1.1736 -0.1619
 3964SOL    HW123528   4.177   4.239   5.488  1.8758 -1.1361 -0.5357
 3964SOL    HW223529   4.288   4.258   5.585 -0.8300  2.4365  2.9029
 3965SOL     OW23530   4.055   4.343   5.792  0.1222  0.0191  0.1307
 3965SOL    HW123531   4.123   4.405   5.820  0.3696  0.5959 -1.7269
 3965SOL    HW223532   4.092   4.300   5.715 -1.4030 -0.4121 -0.3555
 3966SOL     OW23533   2.712   3.105   2.984 -0.0718 -0.0532  0.7592
 3966SOL    HW123534   2.670   3.082   3.067 -2.3199 -1.1312 -0.6797
 3966SOL    HW223535   2.678   3.039   2.924 -0.0561  0.4743  0.1597
 3967SOL     OW23536   3.704   0.034   4.165 -0.4607  0.0786 -0.0990
 3967SOL    HW123537   3.794   0.004   4.178 -0.5033  0.0477  0.1331
 3967SOL    HW223538   3.670   0.054   4.253  0.2891  2.9086 -0.4442
 3968SOL     OW23539   4.392   1.895   3.253 -0.5105 -0.0119 -0.5862
 3968SOL    HW123540   4.478   1.865   3.282 -1.1832 -0.8145  0.6044
 3968SOL    HW223541   4.380   1.965   3.316  0.1016 -1.4129  1.0877
 3969SOL     OW23542   2.457   0.507   6.415 -0.0861 -0.0311  0.2312
 3969SOL    HW123543   2.487   0.519   6.505  1.5318  0.3498 -0.3659
 3969SOL    HW223544   2.366   0.537   6.422 -0.3537 -0.5160 -1.3348
 3970SOL     OW23545   0.769   0.047   4.139 -0.8552  0.0778  0.2326
 3970SOL    HW123546   0.743   4.695   4.142 -0.7962  0.0417 -0.4001
 3970SOL    HW223547   0.838   0.047   4.073 -1.9470 -2.0872 -0.9019
 3971SOL     OW23548   0.599   4.541   7.969 -0.5497  0.7221  0.3971
 3971SOL    HW123549   0.550   4.601   7.913  0.6120  1.2887 -0.0320
 3971SOL    HW223550   0.646   4.608   8.018 -1.2863  0.5252  1.3498
 3972SOL     OW23551   0.303   3.920   8.887  0.5988  0.4400  0.4322
 3972SOL    HW123552   0.341   4.002   8.919  0.9091  0.3028  0.4131
 3972SOL    HW223553   0.386   3.872   8.891  0.5202  0.5033  3.2086
 3973SOL     OW23554   2.287   1.493   3.449  0.3806  0.2405  0.5499
 3973SOL    HW123555   2.344   1.531   3.382 -2.1703  0.6306 -1.4184
 3973SOL    HW223556   2.232   1.571   3.459  1.2377  1.0819 -1.1820
 3974SOL     OW23557   3.323   4.187  14.130  0.3185  0.6016  0.0126
 3974SOL    HW123558   3.236   4.158  14.101  0.5445 -0.6830  0.6111
 3974SOL    HW223559   3.355   4.219  14.046 -0.0413 -0.7576 -0.6458
 3975SOL     OW23560   0.827   0.310   9.951 -0.6131  0.3418 -0.0621
 3975SOL    HW123561   0.873   0.227   9.965 -0.4032  0.2297 -1.4008
 3975SOL    HW223562   0.806   0.295   9.859  0.8520  0.5068 -0.4342
 3976SOL     OW23563   4.593   3.960  13.236  0.0715 -0.2030  0.5991
 3976SOL    HW123564   4.550   3.875  13.243 -0.1611  0.1784  3.6240
 3976SOL    HW223565   4.569   3.974  13.144 -0.3047  2.4370  1.0997
 3977SOL     OW23566   3.262   0.060   5.366  0.3441  0.5375 -0.1804
 3977SOL    HW123567   3.308   0.103   5.438  0.1840 -0.2745  0.4167
 3977SOL    HW223568   3.291   0.093   5.281  0.3924  0.0721 -0.3455
 3978SOL     OW23569   1.430   1.348   8.072 -0.2779 -0.2547  0.3005
 3978SOL    HW123570   1.476   1.407   8.012  0.0003 -0.4413  0.3310
 3978SOL    HW223571   1.448   1.403   8.148  1.5513  0.2520 -0.4982
 3979SOL     OW23572   1.679   2.207   3.550 -0.3123 -0.3050  0.0856
 3979SOL    HW123573   1.690   2.281   3.611 -0.2511 -0.0041 -0.2908
 3979SOL    HW223574   1.759   2.215   3.498 -0.4156  1.6034  0.1864
 3980SOL     OW23575   0.600   1.488   2.924 -0.8619 -0.1922  0.3588
 3980SOL    HW123576   0.506   1.474   2.932 -1.2445  0.9408 -2.1988
 3980SOL    HW223577   0.612   1.541   2.845  0.0692  1.8503  1.8606
 3981SOL     OW23578   3.863   1.197  15.265 -0.0752  0.3288 -0.2488
 3981SOL    HW123579   3.867   1.177  15.172  0.2440  2.8103 -0.7781
 3981SOL    HW223580   3.853   1.109  15.301  1.1466  0.2200 -0.1908
 3982SOL     OW23581   2.411   1.761   1.580  0.3855  0.1347 -0.0075
 3982SOL    HW123582   2.426   1.733   1.490  2.2989 -0.6091  0.5263
 3982SOL    HW223583   2.436   1.853   1.575  0.2408  0.1003 -1.1984
 3983SOL     OW23584   0.115   1.397   4.015 -0.3607 -0.6591 -0.0435
 3983SOL    HW123585   0.152   1.411   3.928 -0.7505  1.8811  0.1820
 3983SOL    HW223586   0.164   1.448   4.080  0.8505  1.4053 -2.5705
 3984SOL     OW23587   3.278   1.194   2.712  0.0319  0.3797  0.6186
 3984SOL    HW123588   3.330   1.124   2.751  1.1342  0.6854 -0.2882
 3984SOL    HW223589   3.215   1.212   2.782  0.2350  1.2711  0.5787
 3985SOL     OW23590   3.781   1.955   3.397  0.2594  0.7336  0.9682
 3985SOL    HW123591   3.851   1.949   3.331  0.9552  0.8396  1.7049
 3985SOL    HW223592   3.717   1.892   3.363 -0.4603  2.3086 -0.5707
 3986SOL     OW23593   0.442   1.927   7.434 -0.1641 -0.0292  0.3050
 3986SOL    HW123594   0.416   1.932   7.526 -1.3197 -1.3148  0.0462
 3986SOL    HW223595   0.365   1.960   7.388  1.5550  1.8661 -1.2410
 3987SOL     OW23596   1.268   1.306   2.470 -0.5401  0.2114 -0.7032
 3987SOL    HW123597   1.263   1.393   2.431 -2.4547 -0.7242 -2.5985
 3987SOL    HW223598   1.202   1.315   2.539  2.1260  0.6482  1.7664
 3988SOL     OW23599   2.213   1.583   1.747 -0.1067  0.0068  0.0504
 3988SOL    HW123600   2.202   1.664   1.796 -1.8310 -0.2931  0.1790
 3988SOL    HW223601   2.277   1.618   1.686 -1.2685 -0.7985 -1.6119
 3989SOL     OW23602   1.956   4.647   2.731  0.7715  0.2869 -0.2809
 3989SOL    HW123603   1.891   4.613   2.793 -0.5742  2.5839 -0.4292
 3989SOL    HW223604   2.038   4.651   2.781 -0.0232  0.2034  1.0156
 3990SOL     OW23605   0.062   0.612   2.656 -0.0184 -0.2597 -0.7348
 3990SOL    HW123606   4.712   0.585   2.638 -0.0392  1.1374 -2.6837
 3990SOL    HW223607   0.080   0.690   2.604  1.3111 -0.4300 -0.5368
 3991SOL     OW23608   0.976   0.024   4.321 -0.2045 -0.4140 -0.0089
 3991SOL    HW123609   0.895   0.036   4.272  0.0241 -0.9730 -0.5252
 3991SOL    HW223610   0.980   0.101   4.378 -2.3419  0.0173 -0.4324
 3992SOL     OW23611   2.096   3.534   6.052 -0.5780  0.0273 -0.2923
 3992SOL    HW123612   2.169   3.474   6.036  0.0598  1.5022 -2.9683
 3992SOL    HW223613   2.086   3.575   5.966  0.2272  2.6663  0.8418
 3993SOL     OW23614   2.162   0.956   1.789 -0.0616 -0.4875 -0.2892
 3993SOL    HW123615   2.195   0.913   1.711  0.5054 -1.6887  0.6148
 3993SOL    HW223616   2.125   1.034   1.748  1.3424  0.5899  0.5043
 3994SOL     OW23617   1.557   0.477   2.707 -0.0913  0.6547  0.1445
 3994SOL    HW123618   1.586   0.503   2.795 -1.3605 -0.9759  1.0467
 3994SOL    HW223619   1.632   0.428   2.673 -0.3477  0.2610  0.1417
 3995SOL     OW23620   1.401   0.690   4.596 -0.6497  0.8669  0.2552
 3995SOL    HW123621   1.424   0.774   4.638 -1.8238  0.4022  1.8047
 3995SOL    HW223622   1.427   0.698   4.505 -1.4525  1.5372  0.0834
 3996SOL     OW23623   3.157   1.076   4.115  0.3620 -0.1227 -0.5245
 3996SOL    HW123624   3.213   0.999   4.129  1.5222  0.5783 -1.3505
 3996SOL    HW223625   3.099   1.068   4.191 -0.8350 -2.6583 -1.6863
 3997SOL     OW23626   3.786   2.571   1.747 -0.0503  0.0087 -0.1410
 3997SOL    HW123627   3.735   2.491   1.762  0.5221 -0.4622 -0.6897
 3997SOL    HW223628   3.741   2.636   1.801  0.3858  0.7819 -0.7040
 3998SOL     OW23629   0.093   1.566   1.657  0.2036  0.3333 -0.0649
 3998SOL    HW123630   0.021   1.624   1.680  0.9502  1.0661  0.4493
 3998SOL    HW223631   0.103   1.591   1.565 -2.7961 -1.0320 -0.7660
 3999SOL     OW23632   3.416   0.380   6.393  0.1081 -0.2108  0.0650
 3999SOL    HW123633   3.509   0.369   6.415  0.0592 -1.5763 -0.4333
 3999SOL    HW223634   3.407   0.470   6.427 -1.1616  0.2010 -1.3635
 4000SOL     OW23635   0.858   0.792   9.588 -0.2745 -0.3552  0.4924
 4000SOL    HW123636   0.928   0.731   9.609 -1.2102 -1.4653  0.3986
 4000SOL    HW223637   0.780   0.742   9.612 -1.4587  0.4576 -1.6384
 4001SOL     OW23638   4.324   4.665  11.472 -0.9097 -0.4944 -0.4202
 4001SOL    HW123639   4.333   0.016  11.500  0.1964 -0.8997  0.5414
 4001SOL    HW223640   4.339   4.668  11.378 -3.0441  0.5404 -0.7304
 4002SOL     OW23641   3.317   1.493   6.794 -0.2987  0.2067  0.1781
 4002SOL    HW123642   3.305   1.489   6.700 -0.1735 -1.7316  0.2536
 4002SOL    HW223643   3.262   1.416   6.806  0.6806 -0.3491  1.1262
 4003SOL     OW23644   3.693   1.020   5.198  0.0588  0.2194 -0.5289
 4003SOL    HW123645   3.786   1.035   5.211  0.1292  1.0074 -1.9606
 4003SOL    HW223646   3.702   0.987   5.108 -0.1421 -2.1720  0.3139
 4004SOL     OW23647   1.132   4.449  17.041  0.6699  0.1500  1.0208
 4004SOL    HW123648   1.153   4.361  17.071  2.2687  0.4264  0.6804
 4004SOL    HW223649   1.172   4.450  16.954 -0.2837  2.0855  0.6045
 4005SOL     OW23650   3.347   1.660  14.968 -0.1806  0.2287  0.4826
 4005SOL    HW123651   3.422   1.602  14.984  0.0036  0.3826  0.1701
 4005SOL    HW223652   3.398   1.741  14.960  2.0183 -1.0237  1.5376
 4006SOL     OW23653   1.461   1.606  12.814  0.2811 -0.8536  0.1194
 4006SOL    HW123654   1.462   1.561  12.730 -0.7292  0.3737 -0.5413
 4006SOL    HW223655   1.442   1.697  12.791  1.2339 -0.6592  0.1169
 4007SOL     OW23656   1.007   1.821  16.087 -0.9956  0.2198  0.0299
 4007SOL    HW123657   1.095   1.804  16.122 -0.8346  0.9025 -0.0282
 4007SOL    HW223658   1.023   1.891  16.024  0.4847 -0.0197  0.1242
 4008SOL     OW23659   2.481   2.217   4.530  0.2265 -0.0592  0.5139
 4008SOL    HW123660   2.438   2.147   4.483  0.5388 -2.0572  3.2071
 4008SOL    HW223661   2.523   2.165   4.598  0.0125 -0.4168  0.3691
 4009SOL     OW23662   3.958   2.285  16.218 -0.6957 -0.2022  0.6141
 4009SOL    HW123663   3.966   2.217  16.285 -0.0340  0.8475  1.6081
 4009SOL    HW223664   3.880   2.325  16.258 -1.8544  0.0232 -1.8710
 4010SOL     OW23665   2.295   2.163   3.963 -0.3875  0.1348  0.3620
 4010SOL    HW123666   2.246   2.157   3.881 -0.5292  0.4961  0.4185
 4010SOL    HW223667   2.369   2.105   3.945  1.0196  1.6886  1.1229
 4011SOL     OW23668   3.839   0.993  10.821 -0.1722 -0.1561  0.6006
 4011SOL    HW123669   3.815   1.008  10.729 -0.6861  0.2226  0.7941
 4011SOL    HW223670   3.791   1.058  10.873  0.4443  1.8654 -1.3743
 4012SOL     OW23671   0.523   0.639  12.142 -0.3740  0.0707  0.3331
 4012SOL    HW123672   0.447   0.685  12.178 -0.9651  0.1410 -1.0026
 4012SOL    HW223673   0.559   0.712  12.092  0.6760  0.2514  1.3788
 4013SOL     OW23674   1.805   0.514  13.907 -0.2036  0.0575 -0.4750
 4013SOL    HW123675   1.785   0.439  13.963 -0.7176  1.3532  1.0955
 4013SOL    HW223676   1.772   0.491  13.820  0.4120 -1.8661 -0.2025
 4014SOL     OW23677   0.067   3.414  16.796  0.2657  0.0578  0.2605
 4014SOL    HW123678   0.100   3.400  16.707 -0.0957  2.0185 -0.1837
 4014SOL    HW223679   4.723   3.456  16.777  0.2943  0.3597  0.7830
 4015SOL     OW23680   4.158   2.248   1.829 -0.4341 -0.1155 -0.0881
 4015SOL    HW123681   4.210   2.314   1.875  1.1027 -1.6162  0.3065
 4015SOL    HW223682   4.196   2.271   1.744 -0.1410  3.2433  0.9410
 4016SOL     OW23683   2.925   4.248   3.644 -0.5505 -0.3063 -0.2258
 4016SOL    HW123684   2.956   4.201   3.721  0.3610  0.5937 -0.0333
 4016SOL    HW223685   2.837   4.213   3.631 -0.9988  0.2864  1.2151
 4017SOL     OW23686   2.386   3.285   1.255  0.1089 -0.3002  0.2120
 4017SOL    HW123687   2.328   3.360   1.269 -0.8618 -0.8184 -1.0005
 4017SOL    HW223688   2.382   3.251   1.345 -1.4082 -0.1665  0.2056
 4018SOL     OW23689   4.435   3.852  12.198  0.1047  0.2923 -0.3841
 4018SOL    HW123690   4.421   3.870  12.105 -1.2200  3.1044  0.3713
 4018SOL    HW223691   4.512   3.796  12.191  1.1255  1.5369  0.7531
 4019SOL     OW23692   4.364   2.403  15.508  0.0610 -0.3891  0.0221
 4019SOL    HW123693   4.450   2.436  15.533 -1.2473  1.2643  2.3653
 4019SOL    HW223694   4.379   2.319  15.552 -0.2123 -1.2139 -1.4681
 4020SOL     OW23695   3.886   0.708  12.692 -0.2639  0.3835  0.2586
 4020SOL    HW123696   3.878   0.803  12.695 -0.6614  0.4012 -1.2887
 4020SOL    HW223697   3.798   0.676  12.713 -0.7731  0.1868 -2.1381
 4021SOL     OW23698   4.313   4.035  16.019  0.0168  0.4513  0.4483
 4021SOL    HW123699   4.386   4.089  15.990 -0.0960  0.3035 -0.1001
 4021SOL    HW223700   4.239   4.083  15.984  1.5199  1.8024 -0.8622
 4022SOL     OW23701   3.382   2.822   9.559 -0.2539 -0.0329 -0.3747
 4022SOL    HW123702   3.321   2.857   9.624 -1.0505 -0.3796 -0.9438
 4022SOL    HW223703   3.461   2.822   9.614  0.3906 -1.7939 -1.2979
 4023SOL     OW23704   1.314   1.365   3.847 -0.0369  0.2596 -0.2979
 4023SOL    HW123705   1.408   1.381   3.840 -0.3711  1.1863 -2.4720
 4023SOL    HW223706   1.283   1.422   3.777  0.2513  0.8646  0.0688
 4024SOL     OW23707   1.516   0.300  13.629 -0.0216 -0.3725  0.0152
 4024SOL    HW123708   1.587   0.359  13.654 -0.3027  0.1827 -0.5064
 4024SOL    HW223709   1.454   0.373  13.618  0.2788 -0.3518 -1.4161
 4025SOL     OW23710   2.861   0.523   3.054 -0.1056  0.2039  0.7211
 4025SOL    HW123711   2.864   0.618   3.056  0.4299  0.1512  2.6438
 4025SOL    HW223712   2.853   0.507   2.960  0.3933  2.4856  0.2934
 4026SOL     OW23713   0.999   2.843   3.162 -0.3088 -0.1615  0.0506
 4026SOL    HW123714   1.065   2.773   3.160 -0.3708 -0.2185 -0.0137
 4026SOL    HW223715   0.919   2.793   3.177  1.3572 -2.5109  1.2023
 4027SOL     OW23716   3.299   2.871   4.860 -0.1626  0.0454  0.3506
 4027SOL    HW123717   3.384   2.874   4.905 -1.0717  0.2279  2.0781
 4027SOL    HW223718   3.317   2.845   4.770 -1.4818  2.2781 -0.5560
 4028SOL     OW23719   4.126   0.167  10.433  0.1735  0.3165  0.0100
 4028SOL    HW123720   4.211   0.195  10.467  1.9402 -1.9893 -2.5060
 4028SOL    HW223721   4.103   0.235  10.370  2.6457  1.3099  0.1654
 4029SOL     OW23722   0.563   3.821   8.838 -0.6410  0.1097  0.1027
 4029SOL    HW123723   0.574   3.726   8.832 -2.8892 -0.1494  0.3582
 4029SOL    HW223724   0.627   3.847   8.904 -1.6484  1.2793  0.6089
 4030SOL     OW23725   3.293   2.843   9.956 -0.0627  0.2698 -0.2094
 4030SOL    HW123726   3.255   2.851   9.868 -1.7768  1.9321  0.6805
 4030SOL    HW223727   3.289   2.934   9.986 -0.8805 -0.2885  1.3930
 4031SOL     OW23728   2.507   4.618   4.302  0.1670  0.5670 -0.1910
 4031SOL    HW123729   2.571   4.568   4.252  1.4058 -2.5438  4.4977
 4031SOL    HW223730   2.492   4.575   4.386  1.2525  2.0260  0.7592
 4032SOL     OW23731   1.525   1.462   6.422  0.6475 -0.2008  0.5625
 4032SOL    HW123732   1.614   1.497   6.419  0.3717  0.4654  0.3441
 4032SOL    HW223733   1.501   1.461   6.329 -1.1614  0.6147  1.0265
 4033SOL     OW23734   1.453   2.919   7.133  0.8473 -0.4145 -0.2060
 4033SOL    HW123735   1.378   2.975   7.110  0.3492 -2.2798 -3.0899
 4033SOL    HW223736   1.516   2.989   7.114 -0.3430  0.9595  0.8106
 4034SOL     OW23737   0.555   3.100   5.836  0.2009 -0.2726  0.1006
 4034SOL    HW123738   0.530   3.121   5.926  1.3958  0.2894  0.3029
 4034SOL    HW223739   0.636   3.151   5.833  1.6109 -2.5893 -1.1885
 4035SOL     OW23740   4.525   1.628  10.123 -0.6929  0.0328  0.1528
 4035SOL    HW123741   4.529   1.574  10.044 -2.6307 -0.3761  0.3574
 4035SOL    HW223742   4.445   1.604  10.169 -1.4178 -0.4370 -1.3700
 4036SOL     OW23743   3.810   2.122  15.178 -0.9978 -0.5898  0.5412
 4036SOL    HW123744   3.806   2.213  15.148 -0.1848 -0.9107 -0.5324
 4036SOL    HW223745   3.870   2.128  15.253 -0.6640 -1.2879  0.3271
 4037SOL     OW23746   2.299   2.197   0.857 -0.6614  0.6783 -0.3131
 4037SOL    HW123747   2.270   2.125   0.913 -0.3990 -0.5897 -1.8058
 4037SOL    HW223748   2.356   2.248   0.914  0.3232 -1.0060  0.1869
 4038SOL     OW23749   2.272   1.234   5.059  0.1591 -0.8015 -0.3285
 4038SOL    HW123750   2.358   1.202   5.084  0.4393 -1.7360 -2.4355
 4038SOL    HW223751   2.213   1.186   5.117 -0.7676  2.0993  1.1170
 4039SOL     OW23752   0.578   1.906   9.975  0.5645  0.7898  0.0663
 4039SOL    HW123753   0.668   1.874   9.985  0.7016  1.3252  0.5362
 4039SOL    HW223754   0.588   1.994   9.940  0.7127  1.9747  3.0318
 4040SOL     OW23755   0.825   1.602   3.143 -0.1161 -0.7442 -0.3448
 4040SOL    HW123756   0.893   1.553   3.191 -0.4843  0.6203  1.5418
 4040SOL    HW223757   0.808   1.547   3.066  2.8455 -0.4740 -1.2185
 4041SOL     OW23758   3.603   0.431   4.694 -0.0416 -0.0519  0.5645
 4041SOL    HW123759   3.556   0.390   4.620  1.3972  0.1378 -0.4480
 4041SOL    HW223760   3.608   0.523   4.670  1.2291 -0.5851 -1.1956
 4042SOL     OW23761   2.783   0.749   5.393  0.5080  0.5224 -0.1568
 4042SOL    HW123762   2.755   0.713   5.309  1.9970  0.1942 -0.5137
 4042SOL    HW223763   2.830   0.672   5.423  0.4559  0.0873 -1.2078
 4043SOL     OW23764   2.348   0.547   4.936  0.0088 -0.1201  0.1749
 4043SOL    HW123765   2.340   0.619   4.873  0.4803 -0.7440 -0.6013
 4043SOL    HW223766   2.442   0.534   4.935 -0.1079 -0.8635 -2.2280
 4044SOL     OW23767   1.241   3.608   9.323 -0.1709 -0.6057  0.5755
 4044SOL    HW123768   1.251   3.646   9.236  2.5566 -0.6628  0.8662
 4044SOL    HW223769   1.151   3.575   9.324 -0.0922 -0.8151  0.6752
 4045SOL     OW23770   0.237   3.168   3.780  0.2442 -0.7036 -0.1315
 4045SOL    HW123771   0.303   3.160   3.711 -0.5341 -2.5584 -0.6563
 4045SOL    HW223772   0.282   3.139   3.859  1.5968  0.5652 -0.4303
 4046SOL     OW23773   3.911   0.010   8.948 -0.8514  0.3912  0.3820
 4046SOL    HW123774   3.951   0.069   9.011 -0.7120 -1.4235  2.0034
 4046SOL    HW223775   3.861   0.070   8.893  0.3424  2.0313  1.1119
 4047SOL     OW23776   3.624   4.643   7.194 -0.2911  0.2393 -0.2026
 4047SOL    HW123777   3.675   4.709   7.241  0.5111 -0.2513 -0.3825
 4047SOL    HW223778   3.534   4.662   7.220 -0.2755 -1.9462  1.4968
 4048SOL     OW23779   1.606   3.165   9.537  0.1839  0.3286 -0.2855
 4048SOL    HW123780   1.636   3.179   9.447  1.6434  0.9557  0.2909
 4048SOL    HW223781   1.527   3.218   9.535  0.1475  0.3467  1.6774
 4049SOL     OW23782   2.755   1.720  17.366  0.7408 -0.1423  0.3430
 4049SOL    HW123783   2.787   1.788  17.425  0.8500  0.1423 -0.0445
 4049SOL    HW223784   2.771   1.752  17.278 -0.4234 -1.8625 -0.4878
 4050SOL     OW23785   3.695   1.077   9.588  0.2124 -0.0408 -0.1568
 4050SOL    HW123786   3.636   1.001   9.588  1.3491 -0.9240  0.1923
 4050SOL    HW223787   3.658   1.128   9.516 -0.3625  0.5022  0.5265
 4051SOL     OW23788   0.388   2.710   2.876 -0.4550 -0.2037  0.1835
 4051SOL    HW123789   0.383   2.657   2.796 -0.7220 -1.2544  0.8943
 4051SOL    HW223790   0.296   2.714   2.901 -0.6521 -0.3549 -0.5017
 4052SOL     OW23791   1.892   1.994   3.600 -0.0774 -0.1476  0.9572
 4052SOL    HW123792   1.851   2.030   3.521  3.4213  1.5257 -0.1129
 4052SOL    HW223793   1.969   1.948   3.568  0.2986  0.7183  0.6178
 4053SOL     OW23794   3.933   0.010   6.616 -0.1160 -0.0616 -0.2788
 4053SOL    HW123795   4.013   0.008   6.668 -0.4402  1.7855  0.2814
 4053SOL    HW223796   3.925   4.657   6.597 -0.4464 -0.1709  0.4002
 4054SOL     OW23797   1.120   1.219   9.385  0.3186  0.4342  0.1950
 4054SOL    HW123798   1.074   1.139   9.359  0.0239  0.2931  1.1543
 4054SOL    HW223799   1.197   1.189   9.435  2.7254  0.0169 -3.7687
 4055SOL     OW23800   2.299   1.724   8.957  0.3893  0.0300  0.4666
 4055SOL    HW123801   2.329   1.743   8.869  1.0319 -0.9165  0.4904
 4055SOL    HW223802   2.208   1.753   8.948  0.7946  1.6777  1.6171
 4056SOL     OW23803   4.318   4.212   2.832 -0.5327  0.4810 -0.3005
 4056SOL    HW123804   4.336   4.118   2.831 -1.0491  0.3437  2.6134
 4056SOL    HW223805   4.368   4.241   2.755 -0.8442  2.1731  0.1270
 4057SOL     OW23806   0.349   3.583   3.505 -0.0566 -0.1942  0.0128
 4057SOL    HW123807   0.395   3.592   3.589  0.9328 -0.9808 -0.4543
 4057SOL    HW223808   0.321   3.491   3.503 -0.7506 -0.0658  2.7590
 4058SOL     OW23809   4.419   3.856   8.097  0.0418 -0.3909  0.2291
 4058SOL    HW123810   4.465   3.853   8.014 -0.9325 -0.7885 -0.2956
 4058SOL    HW223811   4.337   3.905   8.090  0.1138 -0.3585 -0.3967
 4059SOL     OW23812   4.299   4.341   1.323  0.4436 -0.5742 -0.1827
 4059SOL    HW123813   4.339   4.396   1.255  0.1105  0.7274  0.6802
 4059SOL    HW223814   4.289   4.409   1.390 -0.0853  0.5255 -1.3875
 4060SOL     OW23815   1.865   4.579   6.872 -0.2249  0.4400 -0.0191
 4060SOL    HW123816   1.817   4.541   6.945  1.3010 -0.9729  0.2541
 4060SOL    HW223817   1.943   4.524   6.866 -0.4570  0.1699 -0.5420
 4061SOL     OW23818   4.102   0.983  15.469  0.0953 -0.3519 -0.0500
 4061SOL    HW123819   4.007   0.976  15.469  0.0345  0.5989  1.5411
 4061SOL    HW223820   4.113   1.021  15.556 -0.2714 -1.3005  0.4032
 4062SOL     OW23821   4.265   3.658   2.441  0.1888 -0.0095  0.5091
 4062SOL    HW123822   4.326   3.723   2.409  0.3563 -0.1905  0.4592
 4062SOL    HW223823   4.304   3.627   2.523 -0.0818  1.6858  1.2735
 4063SOL     OW23824   2.576   4.585  14.929  0.3743  0.0668  0.3823
 4063SOL    HW123825   2.615   4.578  15.017  0.1159 -1.1646  0.3948
 4063SOL    HW223826   2.663   4.565  14.894 -0.0840  0.3829 -0.9117
 4064SOL     OW23827   1.212   3.695  15.959  0.7449 -0.4300 -0.0834
 4064SOL    HW123828   1.268   3.619  15.976 -0.1315 -1.2474 -0.8423
 4064SOL    HW223829   1.228   3.718  15.867  2.2366 -0.6931  0.1117
 4065SOL     OW23830   3.333   4.547   6.724 -0.6512 -0.1530  0.0580
 4065SOL    HW123831   3.408   4.514   6.773 -0.8675  0.9260  1.1090
 4065SOL    HW223832   3.334   4.633   6.766 -0.0103 -0.5917  0.9354
 4066SOL     OW23833   1.015   3.054   7.777  0.1215  0.1009  0.3525
 4066SOL    HW123834   1.095   3.097   7.809  1.1913 -1.3547 -0.3232
 4066SOL    HW223835   1.035   2.960   7.780  2.6733  0.6626  1.4316
 4067SOL     OW23836   3.667   3.534   2.479 -0.2125 -0.1750 -0.3897
 4067SOL    HW123837   3.743   3.587   2.453 -1.4550  1.1743 -1.2666
 4067SOL    HW223838   3.590   3.564   2.430  1.1098  1.1667 -1.6521
 4068SOL     OW23839   2.824   1.882   8.053 -0.4124  0.2573 -0.2366
 4068SOL    HW123840   2.895   1.884   8.117 -1.9310  0.1088  1.4566
 4068SOL    HW223841   2.876   1.835   7.987  0.6227  2.5312 -1.0443
 4069SOL     OW23842   4.674   0.157  10.100  0.0174 -0.1120 -0.2166
 4069SOL    HW123843   4.640   0.137  10.013 -1.7395 -1.9586  0.8914
 4069SOL    HW223844   0.025   0.179  10.085 -0.5459  2.8677  0.6839
 4070SOL     OW23845   4.556   3.266   4.782  0.4062 -0.0016  0.0301
 4070SOL    HW123846   4.529   3.300   4.867 -3.3350 -2.6002 -0.0638
 4070SOL    HW223847   4.493   3.314   4.728 -2.0137 -1.2041  1.7424
 4071SOL     OW23848   1.816   3.167   3.522 -0.2365 -0.5216  0.1490
 4071SOL    HW123849   1.888   3.169   3.585 -1.1008  1.5111  1.0821
 4071SOL    HW223850   1.839   3.222   3.447  0.1312  1.9187  2.0480
 4072SOL     OW23851   3.890   0.484   8.767 -0.0232  0.5873 -0.4290
 4072SOL    HW123852   3.824   0.475   8.698  0.0266 -0.9449 -0.2759
 4072SOL    HW223853   3.858   0.554   8.823  1.6633  1.7898 -0.9640
 4073SOL     OW23854   0.906   1.756   8.033  0.1684  0.2963  0.0510
 4073SOL    HW123855   0.821   1.725   8.002 -1.1161  0.4106  3.4626
 4073SOL    HW223856   0.894   1.851   8.021 -2.2971  0.1838  1.4539
 4074SOL     OW23857   3.325   2.506  13.857  0.0122  0.2624  0.2687
 4074SOL    HW123858   3.305   2.512  13.763 -0.3056  1.2547  0.3918
 4074SOL    HW223859   3.419   2.518  13.851  0.0871 -0.1031  0.7632
 4075SOL     OW23860   2.478   0.661   5.231  0.1342  0.2727  0.6065
 4075SOL    HW123861   2.413   0.713   5.277 -0.6226 -1.6294  1.7091
 4075SOL    HW223862   2.498   0.724   5.162  2.3114 -1.4428 -0.3343
 4076SOL     OW23863   1.935   3.850   1.773  0.2370  0.0952 -0.5054
 4076SOL    HW123864   1.990   3.816   1.844  0.2009  0.0598 -0.4948
 4076SOL    HW223865   1.979   3.933   1.757 -1.8181  1.5338  1.4764
 4077SOL     OW23866   2.512   2.021   1.553  0.0661 -0.0291  0.3068
 4077SOL    HW123867   2.494   2.106   1.594 -0.3362  0.4832 -0.9380
 4077SOL    HW223868   2.565   2.042   1.476 -0.2516 -1.6501 -0.3499
 4078SOL     OW23869   2.183   3.837  11.550  0.6510 -0.5901  0.2652
 4078SOL    HW123870   2.112   3.827  11.486  1.3033  1.6511 -0.8300
 4078SOL    HW223871   2.151   3.913  11.598 -0.6754 -0.9487 -0.0380
 4079SOL     OW23872   2.220   0.899   9.475 -0.3877  0.5451 -0.1696
 4079SOL    HW123873   2.219   0.969   9.541 -1.6043 -1.9858  2.5081
 4079SOL    HW223874   2.314   0.886   9.461 -0.3923 -1.5427  1.7031
 4080SOL     OW23875   0.426   3.962   8.030  0.1045  0.2696 -0.4491
 4080SOL    HW123876   0.490   3.908   7.984  1.3461  1.8171 -0.5779
 4080SOL    HW223877   0.394   4.029   7.968 -2.0940  0.8826  1.3485
 4081SOL     OW23878   1.323   3.503   1.568 -0.1232  0.7602 -0.0083
 4081SOL    HW123879   1.344   3.414   1.538  1.5351  1.2943 -0.4789
 4081SOL    HW223880   1.239   3.497   1.612 -0.3051  0.0231 -0.4451
 4082SOL     OW23881   2.529   3.368  11.154  0.5438 -0.0672 -0.1011
 4082SOL    HW123882   2.593   3.432  11.125  2.0227 -0.7946  1.5573
 4082SOL    HW223883   2.467   3.396  11.086  0.4878  0.0341 -0.0086
 4083SOL     OW23884   0.448   3.910   3.510  0.3091 -0.1661 -0.2267
 4083SOL    HW123885   0.504   3.839   3.480  1.4109  0.7185 -0.2598
 4083SOL    HW223886   0.386   3.935   3.442  0.9840 -1.2534 -1.2501
 4084SOL     OW23887   1.852   2.218   2.177 -0.0786 -0.2173  0.9161
 4084SOL    HW123888   1.852   2.123   2.190  0.4913 -0.4705 -0.9416
 4084SOL    HW223889   1.932   2.255   2.215  1.2418 -2.1585  0.0205
 4085SOL     OW23890   2.650   4.149   3.582 -0.2917 -0.5270  0.1327
 4085SOL    HW123891   2.644   4.077   3.519  0.4187 -0.7680  0.3449
 4085SOL    HW223892   2.577   4.124   3.639 -1.2633  1.2081 -0.3561
 4086SOL     OW23893   2.426   1.469   8.937  0.0442 -0.0434 -0.0054
 4086SOL    HW123894   2.370   1.545   8.954  0.8489  0.4085  0.5908
 4086SOL    HW223895   2.516   1.498   8.925  0.6767 -1.6836  0.7097
 4087SOL     OW23896   4.737   2.808   1.668 -0.1190  0.1804 -0.4561
 4087SOL    HW123897   0.092   2.819   1.661 -0.3583  2.5173 -0.2983
 4087SOL    HW223898   4.719   2.824   1.761  2.3676  0.5401 -0.0293
 4088SOL     OW23899   2.709   4.496   4.516  0.4494 -0.1991  0.1339
 4088SOL    HW123900   2.698   4.584   4.553  1.2399 -0.1445  0.2293
 4088SOL    HW223901   2.724   4.504   4.422  0.9438  0.7324  0.2991
 4089SOL     OW23902   4.146   1.025   5.696 -0.1090 -0.5295  0.0971
 4089SOL    HW123903   4.202   1.087   5.648  0.3250 -0.5774  0.5422
 4089SOL    HW223904   4.108   0.968   5.630 -0.2340 -0.7499  0.3621
 4090SOL     OW23905   4.239   1.531   0.088 -0.4794  0.3792 -0.0059
 4090SOL    HW123906   4.297   1.536   0.012  0.0640  0.5065  0.4130
 4090SOL    HW223907   4.290   1.474   0.146 -1.1536  1.3928  1.5677
 4091SOL     OW23908   1.702   1.566  13.060 -0.1701 -0.6980 -0.3381
 4091SOL    HW123909   1.616   1.592  13.027 -0.0485  3.1902  2.4507
 4091SOL    HW223910   1.695   1.617  13.140  1.2258  0.0695 -0.6979
 4092SOL     OW23911   0.436   2.568   4.361  0.1973 -0.0145  0.9514
 4092SOL    HW123912   0.371   2.619   4.312 -0.2457 -0.5973  0.9363
 4092SOL    HW223913   0.466   2.643   4.412 -0.5286  0.6528  0.4079
 4093SOL     OW23914   4.091   3.525   8.141 -0.1800  0.0852 -0.2000
 4093SOL    HW123915   4.032   3.450   8.151 -0.4860  0.2904 -0.4732
 4093SOL    HW223916   4.070   3.569   8.058  0.6849 -0.5278 -0.7417
 4094SOL     OW23917   4.605   0.731   8.239  0.2112 -0.2339  0.3078
 4094SOL    HW123918   4.594   0.822   8.266  0.4460 -0.8269  2.3599
 4094SOL    HW223919   4.554   0.683   8.304  3.1347 -0.5674  2.3241
 4095SOL     OW23920   0.286   1.906  17.162 -0.1560  0.0803 -0.2998
 4095SOL    HW123921   0.333   1.915  17.245 -0.8217  0.6156  0.0209
 4095SOL    HW223922   0.358   1.919  17.100  1.4187 -1.4000  1.2182
 4096SOL     OW23923   1.759   3.601  12.075  0.2652  0.6092  0.1041
 4096SOL    HW123924   1.707   3.663  12.126  1.1275  0.9181  0.6188
 4096SOL    HW223925   1.827   3.564  12.131 -1.1074  0.4157  1.6256
 4097SOL     OW23926   2.374   3.205   1.548  0.3476 -0.0392 -0.2982
 4097SOL    HW123927   2.326   3.168   1.622 -1.5631  0.0359 -1.5152
 4097SOL    HW223928   2.378   3.297   1.576  1.0792  0.2237 -1.2515
 4098SOL     OW23929   3.577   2.032   7.335 -0.5399  0.1925  0.5221
 4098SOL    HW123930   3.484   2.020   7.356 -0.3430 -0.7271  0.8660
 4098SOL    HW223931   3.588   2.118   7.295 -0.7839  0.0459  0.1396
 4099SOL     OW23932   0.359   3.794   3.803  0.4009  0.6968 -0.4060
 4099SOL    HW123933   0.413   3.802   3.725  1.2536 -0.2755  0.0878
 4099SOL    HW223934   0.390   3.705   3.821 -0.1933  0.2478 -1.6093
 4100SOL     OW23935   3.065   2.931  14.392 -0.4140  0.1407  0.3947
 4100SOL    HW123936   3.004   2.911  14.321 -1.6445 -2.1764  2.1049
 4100SOL    HW223937   3.010   2.960  14.465 -0.1255 -0.4790  0.8547
 4101SOL     OW23938   3.684   4.635  12.287 -0.1452 -0.5771  0.9590
 4101SOL    HW123939   3.739   4.578  12.234 -1.2850 -1.3236  0.5797
 4101SOL    HW223940   3.596   4.596  12.286 -1.1376  1.6328  1.4724
 4102SOL     OW23941   0.940   3.108   3.045  0.1723 -0.1927 -0.3801
 4102SOL    HW123942   0.949   3.021   3.083  0.6287  0.5422  1.1983
 4102SOL    HW223943   0.987   3.161   3.109  0.2782 -0.9685  0.1864
 4103SOL     OW23944   2.939   1.581   8.529  0.1176 -0.8045  0.3205
 4103SOL    HW123945   2.979   1.494   8.526 -0.3518 -1.1035  3.1984
 4103SOL    HW223946   3.013   1.641   8.517 -0.6053 -0.2991 -1.6747
 4104SOL     OW23947   2.913   3.456  10.572  0.3646  0.0645 -0.0607
 4104SOL    HW123948   2.829   3.459  10.528  0.5224  0.3199 -0.3392
 4104SOL    HW223949   2.911   3.541  10.616  0.6438  0.5380 -0.9835
 4105SOL     OW23950   1.648   2.416   0.861 -0.2359 -0.2165  0.3050
 4105SOL    HW123951   1.642   2.428   0.956  2.0482  1.3300  0.2491
 4105SOL    HW223952   1.662   2.321   0.858  0.9643 -0.0336  0.4371
 4106SOL     OW23953   2.192   2.177   2.138  0.3328 -0.0287 -0.6120
 4106SOL    HW123954   2.287   2.188   2.146  0.8288 -1.1496 -5.1664
 4106SOL    HW223955   2.188   2.138   2.051 -0.6521  1.5651 -1.2673
 4107SOL     OW23956   2.381   2.142  15.873  0.4346  0.1302  0.0158
 4107SOL    HW123957   2.443   2.178  15.936  0.6469 -0.8203  0.3453
 4107SOL    HW223958   2.311   2.204  15.895 -0.2381 -0.8323  0.5726
 4108SOL     OW23959   2.768   1.042  15.871  0.4326  0.5207  0.0875
 4108SOL    HW123960   2.846   1.001  15.910  1.3516  2.4101  0.2127
 4108SOL    HW223961   2.699   0.983  15.903  1.3166  0.3215  1.6263
 4109SOL     OW23962   0.036   3.809   9.144 -0.0751  0.0387 -0.4516
 4109SOL    HW123963   0.124   3.845   9.147 -0.5698  0.8173  3.7897
 4109SOL    HW223964   4.728   3.889   9.162 -0.1120 -0.3604  1.1619
 4110SOL     OW23965   3.746   1.677  10.849 -0.1031 -1.0766 -0.6176
 4110SOL    HW123966   3.711   1.627  10.923 -1.4810 -0.2763 -0.7276
 4110SOL    HW223967   3.817   1.616  10.829  0.6500 -0.9164  1.5679
 4111SOL     OW23968   0.722   0.399   2.964 -0.5366 -0.1154  0.5482
 4111SOL    HW123969   0.655   0.398   3.033  0.7625  0.1476  1.8034
 4111SOL    HW223970   0.793   0.452   3.001  0.4666  0.3917 -2.1626
 4112SOL     OW23971   2.026   0.820   5.080  0.0054  0.2953  0.3475
 4112SOL    HW123972   1.982   0.833   5.164 -2.4227  1.3832 -1.0914
 4112SOL    HW223973   2.065   0.737   5.106 -0.0487  0.2515  0.2870
 4113SOL     OW23974   2.708   0.316  14.142 -0.0073 -0.0337 -0.0658
 4113SOL    HW123975   2.716   0.249  14.075 -1.0665 -1.1811  0.9564
 4113SOL    HW223976   2.693   0.396  14.091 -1.7363 -0.6804 -0.5670
 4114SOL     OW23977   0.087   2.727   7.274  0.1231 -0.7886 -0.2544
 4114SOL    HW123978   0.024   2.673   7.227  1.2819 -0.2138 -2.4436
 4114SOL    HW223979   0.165   2.681   7.242 -0.7252 -1.5584 -1.2189
 4115SOL     OW23980   3.025   3.314  13.662  0.1714  0.2051  0.1708
 4115SOL    HW123981   3.030   3.383  13.597 -0.3543 -1.0161 -1.1672
 4115SOL    HW223982   2.945   3.349  13.702 -0.3273  0.0007 -0.6504
 4116SOL     OW23983   1.844   2.864   8.267  1.0426 -0.2229  0.4433
 4116SOL    HW123984   1.936   2.887   8.259  1.5697 -2.4570  0.0683
 4116SOL    HW223985   1.811   2.846   8.179 -2.5028  1.3139  1.4438
 4117SOL     OW23986   4.709   2.390   3.534 -0.1330  0.4467 -0.2925
 4117SOL    HW123987   4.646   2.408   3.465 -2.0615 -0.9398  1.1015
 4117SOL    HW223988   4.708   2.294   3.540 -0.3941  0.5082  0.6813
 4118SOL     OW23989   1.943   1.727   7.399 -0.3400 -0.3207 -0.3202
 4118SOL    HW123990   1.993   1.647   7.384  3.4531  1.6735  1.4702
 4118SOL    HW223991   1.852   1.714   7.373 -0.1222  0.6667 -1.5689
 4119SOL     OW23992   2.662   0.195   1.578 -0.1478 -0.3720  0.3736
 4119SOL    HW123993   2.725   0.134   1.541 -0.0175  1.0497 -1.7281
 4119SOL    HW223994   2.680   0.259   1.510  0.6908 -0.4672  0.5152
 4120SOL     OW23995   3.298   4.557   1.322  0.0268  0.1085 -0.3613
 4120SOL    HW123996   3.305   4.625   1.388 -2.5069  0.0906 -0.0501
 4120SOL    HW223997   3.389   4.562   1.293  0.0168 -1.1627 -0.6187
 4121SOL     OW23998   2.146   3.742   2.570 -0.5591 -0.0982  0.2987
 4121SOL    HW123999   2.119   3.809   2.507 -0.1467 -0.8797 -0.7122
 4121SOL    HW224000   2.118   3.778   2.654 -1.1631  0.4033 -0.1112
 4122SOL     OW24001   4.312   4.376  15.211  0.2848 -0.4096 -0.2450
 4122SOL    HW124002   4.315   4.324  15.130  1.1047 -1.5156  0.5000
 4122SOL    HW224003   4.235   4.332  15.246  0.4507  0.1888  0.8662
 4123SOL     OW24004   4.244   0.496   2.045  0.3842  0.4794 -0.1036
 4123SOL    HW124005   4.298   0.512   1.967  0.7188  0.4443  0.1215
 4123SOL    HW224006   4.166   0.466   1.998 -0.0883  1.2511  0.1709
 4124SOL     OW24007   1.170   2.353   5.315 -0.0643  0.6080  0.0637
 4124SOL    HW124008   1.223   2.302   5.253  1.0513  1.4050  0.3488
 4124SOL    HW224009   1.230   2.422   5.344  2.0271 -1.8929  1.6934
 4125SOL     OW24010   1.501   3.080   8.528 -0.5257 -0.0210  0.0073
 4125SOL    HW124011   1.444   3.021   8.578  0.9043 -1.5227 -0.1684
 4125SOL    HW224012   1.571   3.020   8.504 -1.3421 -0.9299 -0.1208
 4126SOL     OW24013   0.608   3.204   2.581 -0.1388 -0.5902  0.4923
 4126SOL    HW124014   0.584   3.212   2.489 -2.2575 -0.5073  1.0313
 4126SOL    HW224015   0.694   3.163   2.574 -0.5427 -0.7403 -3.3190
 4127SOL     OW24016   1.873   2.495   7.314  0.0700  0.4210  0.3247
 4127SOL    HW124017   1.870   2.436   7.390  0.3902 -1.0354 -0.7888
 4127SOL    HW224018   1.793   2.478   7.265 -1.0716 -0.8710  2.6506
 4128SOL     OW24019   0.094   0.017   1.343  0.1259  0.6151  0.7212
 4128SOL    HW124020   0.063   4.727   1.428 -1.3367 -0.1290 -0.0813
 4128SOL    HW224021   0.025   4.735   1.281  0.8217 -1.0365  0.5461
 4129SOL     OW24022   4.732   3.695  15.288 -0.0185  0.5423  0.0695
 4129SOL    HW124023   0.036   3.645  15.357 -1.4924  0.3748  0.8893
 4129SOL    HW224024   4.698   3.763  15.347 -0.8945 -1.2189  1.5898
 4130SOL     OW24025   2.035   3.678   0.576 -0.2010  0.6933  0.1694
 4130SOL    HW124026   1.974   3.618   0.533  0.9624 -0.5202  0.2059
 4130SOL    HW224027   1.986   3.759   0.592  1.1870  1.7998 -1.1199
 4131SOL     OW24028   2.487   3.734   1.829 -0.2641 -0.1222  0.2674
 4131SOL    HW124029   2.476   3.822   1.792 -0.3107  0.1660  0.9682
 4131SOL    HW224030   2.577   3.714   1.803 -1.2515 -0.4349 -2.9132
 4132SOL     OW24031   2.746   0.235  10.690 -0.0466  0.4318 -0.1620
 4132SOL    HW124032   2.831   0.246  10.734  0.7418  0.0669 -1.5914
 4132SOL    HW224033   2.687   0.219  10.764 -0.8777  1.3361 -0.6356
 4133SOL     OW24034   3.730   2.949   5.709 -0.2371  0.2679 -0.3841
 4133SOL    HW124035   3.797   3.015   5.687 -2.0763  2.3832  0.3561
 4133SOL    HW224036   3.760   2.926   5.796 -2.2360  1.4029  0.6049
 4134SOL     OW24037   1.116   2.404  12.543 -0.5997  0.3727  0.2608
 4134SOL    HW124038   1.108   2.344  12.617  1.4487  1.7703  1.6443
 4134SOL    HW224039   1.119   2.494  12.576  0.3527  0.5477 -0.2878
 4135SOL     OW24040   0.691   4.372   2.175  0.2918  0.5185  0.4003
 4135SOL    HW124041   0.694   4.280   2.199  0.3857  0.5779  0.6142
 4135SOL    HW224042   0.776   4.385   2.133  0.3306 -0.6047  0.1474
 4136SOL     OW24043   4.492   1.990  16.092 -1.1082  0.1934 -0.7202
 4136SOL    HW124044   4.529   2.050  16.028  0.6908  1.0520  1.1148
 4136SOL    HW224045   4.403   1.988  16.057 -1.4484  0.7693  0.1091
 4137SOL     OW24046   3.125   2.199   6.297  0.3193  0.0335  0.0851
 4137SOL    HW124047   3.161   2.209   6.209 -1.0909  0.6097 -0.4166
 4137SOL    HW224048   3.032   2.213   6.283 -0.1456 -2.9473  0.2139
 4138SOL     OW24049   3.076   3.383   7.654 -0.2469 -0.1255 -0.1088
 4138SOL    HW124050   3.020   3.348   7.585  0.2708  1.3873 -1.2800
 4138SOL    HW224051   3.147   3.319   7.660 -0.4392 -0.4351 -1.1949
 4139SOL     OW24052   3.927   2.128   8.856  0.0890 -0.2132 -0.3063
 4139SOL    HW124053   3.949   2.088   8.771 -1.9234  2.9491 -2.3414
 4139SOL    HW224054   4.002   2.108   8.912 -2.0170 -1.3917  2.0280
 4140SOL     OW24055   3.290   0.208   4.082  0.0669  0.1010  0.1545
 4140SOL    HW124056   3.366   0.170   4.038 -0.7814  1.0133 -2.1257
 4140SOL    HW224057   3.221   0.206   4.014 -0.7286  2.4979  0.8772
 4141SOL     OW24058   1.513   1.309   9.440 -0.0648  0.3748  0.2791
 4141SOL    HW124059   1.476   1.389   9.477  0.9916  1.1212 -0.2645
 4141SOL    HW224060   1.608   1.317   9.454  0.0703  1.7797 -1.3248
 4142SOL     OW24061   2.783   0.222  10.405 -0.6503 -0.0555  0.1414
 4142SOL    HW124062   2.766   0.253  10.493  2.8565  3.0857 -0.2928
 4142SOL    HW224063   2.860   0.168  10.418 -1.5391 -1.5294 -0.6580
 4143SOL     OW24064   0.056   3.661   5.395 -0.5732  0.2773  0.0556
 4143SOL    HW124065   0.148   3.638   5.378 -0.4725  0.2351  0.6527
 4143SOL    HW224066   0.053   3.735   5.455 -2.6721 -0.6569  1.0577
 4144SOL     OW24067   0.113   1.758   8.106  0.8579 -0.0325  0.1378
 4144SOL    HW124068   0.114   1.695   8.178 -0.5592 -0.6471 -0.3889
 4144SOL    HW224069   0.074   1.700   8.041 -0.0641  2.3001 -1.3937
 4145SOL     OW24070   3.316   0.506   5.792 -0.4351 -0.0077 -0.0598
 4145SOL    HW124071   3.246   0.484   5.854  0.4766 -0.0126  0.9679
 4145SOL    HW224072   3.283   0.579   5.740 -0.3415  0.2911  0.2973
 4146SOL     OW24073   0.649   0.022   1.265 -0.3674 -0.7488 -0.4525
 4146SOL    HW124074   0.559   0.038   1.293  0.1071  2.0293 -0.5311
 4146SOL    HW224075   0.655   4.670   1.240 -1.6980 -1.7065  2.7927
 4147SOL     OW24076   0.237   0.158   6.046 -0.4410 -0.0496  0.6766
 4147SOL    HW124077   0.286   0.215   5.987  0.4702 -0.9103  0.5887
 4147SOL    HW224078   0.265   0.073   6.011  1.0168  0.3643  0.8277
 4148SOL     OW24079   2.094   4.707   6.381  0.0364 -0.0431 -0.0156
 4148SOL    HW124080   2.030   4.709   6.452  0.2639  3.2180  0.1174
 4148SOL    HW224081   2.066   4.641   6.318  0.7535 -2.7582  2.4887
 4149SOL     OW24082   4.706   1.109   1.646 -0.2776 -0.0182  0.1895
 4149SOL    HW124083   4.643   1.073   1.584 -1.1079 -0.2077  1.1541
 4149SOL    HW224084   0.006   1.026   1.671 -1.4724 -0.7547 -0.3180
 4150SOL     OW24085   3.558   2.898   7.500  0.7581 -0.0796  0.1246
 4150SOL    HW124086   3.542   2.990   7.520  1.2966 -0.5568  2.6490
 4150SOL    HW224087   3.561   2.896   7.404 -1.2055 -0.7976  0.0714
 4151SOL     OW24088   1.638   4.287   6.623 -0.1722 -0.1258  0.4153
 4151SOL    HW124089   1.703   4.217   6.618 -1.5000 -1.3387  0.6128
 4151SOL    HW224090   1.687   4.352   6.572  1.1396 -0.3341  1.4200
 4152SOL     OW24091   3.139   3.506  16.705 -0.6558 -0.0328 -0.5390
 4152SOL    HW124092   3.077   3.579  16.704 -1.5312 -0.8015 -1.5239
 4152SOL    HW224093   3.216   3.545  16.662  0.2835 -3.3977 -1.8921
 4153SOL     OW24094   2.330   0.641   7.186 -0.1338 -0.1370  0.7291
 4153SOL    HW124095   2.240   0.614   7.203 -0.2296 -0.8856 -0.9864
 4153SOL    HW224096   2.376   0.560   7.165  1.5300  0.5135  1.8457
 4154SOL     OW24097   0.523   4.274   7.854  0.5511 -0.0592  0.8009
 4154SOL    HW124098   0.564   4.355   7.886  2.1894 -1.0507  1.1962
 4154SOL    HW224099   0.597   4.221   7.883  1.0792 -1.0037 -2.1864
 4155SOL     OW24100   2.351   1.725   8.678 -0.4248 -0.3558 -0.0424
 4155SOL    HW124101   2.381   1.811   8.649 -0.2353 -0.4521 -0.1305
 4155SOL    HW224102   2.365   1.677   8.596 -1.0877 -0.1660 -0.2717
 4156SOL     OW24103   2.492   1.149  15.919 -0.5656 -0.0193  0.4554
 4156SOL    HW124104   2.524   1.063  15.893 -1.0297 -0.4427  1.2837
 4156SOL    HW224105   2.439   1.171  15.842  2.0871 -1.9858 -1.9520
 4157SOL     OW24106   2.608   2.835   3.907 -0.1137 -0.0441 -0.3046
 4157SOL    HW124107   2.555   2.913   3.890 -1.7702 -1.3385 -1.0381
 4157SOL    HW224108   2.611   2.840   4.003  0.6946 -1.2334 -0.2601
 4158SOL     OW24109   3.802   4.637   4.952  0.1040 -0.7951  0.0910
 4158SOL    HW124110   3.826   4.715   4.902 -2.8550 -0.3100 -0.6173
 4158SOL    HW224111   3.725   4.607   4.904 -0.0099 -1.5281  0.7318
 4159SOL     OW24112   0.617   1.424  15.226 -0.1867  0.3102  0.7243
 4159SOL    HW124113   0.690   1.451  15.282 -0.7191 -0.9663  2.0304
 4159SOL    HW224114   0.625   1.483  15.151  1.9048  0.5872  1.1641
 4160SOL     OW24115   0.060   0.453   2.882 -0.1138 -0.1017 -0.1953
 4160SOL    HW124116   0.155   0.451   2.883 -0.1787 -1.4783  1.2153
 4160SOL    HW224117   0.051   0.518   2.812  0.1986 -0.1234 -0.2528
 4161SOL     OW24118   4.718   1.685  15.228  0.1913 -0.5503  0.7866
 4161SOL    HW124119   4.704   1.661  15.136  1.6875  0.3683  0.3117
 4161SOL    HW224120   0.028   1.763  15.203 -0.4460  0.6214  3.1557
 4162SOL     OW24121   1.393   2.479  14.347 -0.3149 -0.4170  0.3161
 4162SOL    HW124122   1.401   2.481  14.443 -1.3161  0.1629  0.3874
 4162SOL    HW224123   1.446   2.405  14.316  0.6517  0.0343  0.8940
 4163SOL     OW24124   1.433   2.410   1.922 -0.2289  0.2076  0.2393
 4163SOL    HW124125   1.406   2.470   1.852 -1.9174 -0.1413  0.5855
 4163SOL    HW224126   1.508   2.468   1.938  1.9958 -2.6946  0.2799
 4164SOL     OW24127   1.395   2.632   2.756 -0.3607  0.4986  0.2887
 4164SOL    HW124128   1.302   2.655   2.748  0.0696  2.6413  1.4214
 4164SOL    HW224129   1.391   2.549   2.803  1.4355  1.6582  2.4879
 4165SOL     OW24130   1.391   3.365   2.063 -0.4607  0.4509  0.2169
 4165SOL    HW124131   1.464   3.370   2.123  0.8871  0.2777 -1.4137
 4165SOL    HW224132   1.434   3.387   1.980  2.0444 -1.5560  0.9954
 4166SOL     OW24133   2.870   1.898   7.648  0.1876 -0.4565 -0.3407
 4166SOL    HW124134   2.901   1.921   7.560 -2.8139 -0.8605 -1.5208
 4166SOL    HW224135   2.836   1.983   7.679 -0.6681  0.0531 -2.7095
 4167SOL     OW24136   1.752   1.274   6.980  0.0763  0.0443  0.2092
 4167SOL    HW124137   1.821   1.335   6.954  1.0935 -0.8499  0.8094
 4167SOL    HW224138   1.808   1.196   6.972  0.2020  0.2596 -0.9754
 4168SOL     OW24139   2.706   3.907   2.919 -0.0302  0.4184  0.4870
 4168SOL    HW124140   2.653   3.916   2.840  1.8204  0.5704 -0.7424
 4168SOL    HW224141   2.734   3.998   2.928 -0.8584  0.6762  0.4398
 4169SOL     OW24142   4.027   2.782   6.193 -0.3284  0.3341  0.4077
 4169SOL    HW124143   3.976   2.717   6.145  1.3056 -1.5755  1.2549
 4169SOL    HW224144   4.116   2.753   6.173  0.7386  2.9102  1.4961
 4170SOL     OW24145   1.333   2.994   6.460  0.3575  0.6431 -0.2117
 4170SOL    HW124146   1.302   2.904   6.457  0.0006  0.6903  1.7516
 4170SOL    HW224147   1.371   2.998   6.548  0.5941 -1.3303 -0.2268
 4171SOL     OW24148   3.640   4.251   9.075  0.0892  0.1417  0.0714
 4171SOL    HW124149   3.631   4.325   9.135 -0.9022  0.8533 -0.9446
 4171SOL    HW224150   3.585   4.190   9.124 -1.0333 -0.0348 -1.4096
 4172SOL     OW24151   1.233   0.257   4.720 -0.4799 -0.0569  0.8094
 4172SOL    HW124152   1.184   0.325   4.672 -1.6833 -0.8717  0.8781
 4172SOL    HW224153   1.267   0.190   4.661 -0.8188 -1.2315  1.9569
 4173SOL     OW24154   4.482   0.538   3.116  0.7733 -0.5987 -0.7320
 4173SOL    HW124155   4.421   0.574   3.052  0.6332 -1.6064 -1.1641
 4173SOL    HW224156   4.566   0.581   3.099  0.4421 -0.2408 -1.4388
 4174SOL     OW24157   2.348   0.878   6.432  0.3416 -0.0210 -0.0732
 4174SOL    HW124158   2.281   0.814   6.458  1.2638 -0.3129  1.5419
 4174SOL    HW224159   2.337   0.951   6.492 -0.0413 -0.5446  0.4923
 4175SOL     OW24160   2.668   0.259   4.567  0.1699 -0.5540  0.5235
 4175SOL    HW124161   2.658   0.167   4.543  0.1851 -0.9231  1.9667
 4175SOL    HW224162   2.760   0.265   4.593  0.5167  2.2592 -1.4065
 4176SOL     OW24163   4.199   0.819   6.701 -0.0081  0.0399 -0.3274
 4176SOL    HW124164   4.144   0.850   6.629 -1.1479 -2.1365 -0.4205
 4176SOL    HW224165   4.128   0.798   6.763  0.0275  0.3452 -0.1856
 4177SOL     OW24166   2.308   2.732   4.092 -0.1859 -0.2998  0.4196
 4177SOL    HW124167   2.368   2.661   4.113  1.9098  1.9127  2.0044
 4177SOL    HW224168   2.365   2.802   4.061  0.0792 -0.5821  0.2738
 4178SOL     OW24169   4.080   1.686  10.118  0.7203  0.3014  0.1640
 4178SOL    HW124170   4.156   1.630  10.131  0.5893 -0.4387 -2.2187
 4178SOL    HW224171   4.066   1.714  10.208 -2.3767  0.6205 -0.4005
 4179SOL     OW24172   4.209   0.264  13.734 -0.3423  0.1911 -0.2935
 4179SOL    HW124173   4.189   0.206  13.808  2.6614 -0.7850 -0.2435
 4179SOL    HW224174   4.138   0.328  13.733  0.6156  1.2300 -0.9286
 4180SOL     OW24175   1.417   2.877   5.990  0.4635 -0.1204 -0.5475
 4180SOL    HW124176   1.325   2.888   5.964  0.1919 -0.8577  0.0894
 4180SOL    HW224177   1.417   2.944   6.058 -0.9207 -0.2664 -0.4052
 4181SOL     OW24178   2.086   1.604   4.591  0.1437  0.0759 -0.1147
 4181SOL    HW124179   2.164   1.564   4.629 -2.0449 -3.4907  0.6350
 4181SOL    HW224180   2.065   1.547   4.517  2.6572 -0.5587 -0.3423
 4182SOL     OW24181   3.403   2.784   2.603  0.1437 -0.0467  0.1698
 4182SOL    HW124182   3.405   2.810   2.695 -1.2953  1.7886 -0.3306
 4182SOL    HW224183   3.370   2.867   2.570  0.8085  0.7217  1.4572
 4183SOL     OW24184   1.631   0.445  14.769 -0.0606  0.1795  0.0287
 4183SOL    HW124185   1.631   0.468  14.676  2.2279  0.4990  0.1012
 4183SOL    HW224186   1.591   0.519  14.813  1.4083  0.3278  1.1257
 4184SOL     OW24187   2.885   3.256   7.450 -0.3733 -0.3793  0.6174
 4184SOL    HW124188   2.844   3.235   7.534  0.9145 -2.5666  0.6810
 4184SOL    HW224189   2.822   3.326   7.429  0.0845 -0.3381 -0.5707
 4185SOL     OW24190   2.235   0.531  16.192 -0.2789 -0.2151 -0.5557
 4185SOL    HW124191   2.222   0.497  16.281 -0.9321  1.3981 -0.0361
 4185SOL    HW224192   2.247   0.454  16.136 -0.7662 -2.3329  2.2695
 4186SOL     OW24193   2.812   0.043   2.217 -0.1132 -0.2302  0.1804
 4186SOL    HW124194   2.732   0.055   2.166 -0.3230  0.1878  0.6126
 4186SOL    HW224195   2.776   0.002   2.296 -1.6988 -0.7809 -0.8256
 4187SOL     OW24196   1.540   3.400  10.739  0.0330  0.2607  0.4926
 4187SOL    HW124197   1.611   3.429  10.796  0.8336 -1.5559  0.4376
 4187SOL    HW224198   1.467   3.419  10.797  0.1557  0.6563  0.5122
 4188SOL     OW24199   2.226   3.545   7.467  0.3330 -0.3729 -0.1999
 4188SOL    HW124200   2.159   3.603   7.503  0.9974 -2.1813  3.8687
 4188SOL    HW224201   2.293   3.609   7.441 -1.2124  1.8216  1.2584
 4189SOL     OW24202   3.436   2.697   8.369  0.2046  0.2888  0.3661
 4189SOL    HW124203   3.465   2.696   8.278 -1.0851  0.3140 -0.0434
 4189SOL    HW224204   3.342   2.708   8.363  0.1037 -1.0724 -0.5307
 4190SOL     OW24205   0.544   1.452   4.510 -0.0253  0.1573  0.6200
 4190SOL    HW124206   0.593   1.371   4.524  0.4660 -0.2750 -3.7240
 4190SOL    HW224207   0.570   1.492   4.594 -0.4738  1.2740  0.2309
 4191SOL     OW24208   4.150   1.806   4.162 -0.7579 -0.0077 -0.6104
 4191SOL    HW124209   4.208   1.798   4.237 -0.1656  0.1546 -1.0480
 4191SOL    HW224210   4.153   1.902   4.154  0.0102  0.0846  0.9794
 4192SOL     OW24211   4.568   2.231   7.818 -0.7024 -0.1003 -0.1440
 4192SOL    HW124212   4.527   2.148   7.841  1.3617 -0.8459  0.8967
 4192SOL    HW224213   4.530   2.283   7.889 -0.5038 -0.7137  0.4194
 4193SOL     OW24214   1.738   3.295  10.951  0.6928  0.3674 -0.2646
 4193SOL    HW124215   1.828   3.304  10.983  1.3107 -0.6924 -1.7186
 4193SOL    HW224216   1.716   3.202  10.957 -2.1383  0.8778 -2.4810
 4194SOL     OW24217   3.738   3.435   9.371 -0.0156  0.5788 -0.4638
 4194SOL    HW124218   3.657   3.440   9.421 -0.6321 -0.2798 -1.3875
 4194SOL    HW224219   3.712   3.383   9.295  0.4042 -1.4788  0.8065
 4195SOL     OW24220   4.346   0.921   3.531 -0.0311  0.1399  0.3055
 4195SOL    HW124221   4.329   1.012   3.553  0.8463  0.2159  0.6914
 4195SOL    HW224222   4.321   0.916   3.439  0.1638 -0.7787  0.3019
 4196SOL     OW24223   3.398   2.831   6.310  0.5101 -0.4848 -0.2157
 4196SOL    HW124224   3.351   2.756   6.346 -1.9587  1.4096  0.5205
 4196SOL    HW224225   3.484   2.794   6.291  0.2420 -1.5233  0.6009
 4197SOL     OW24226   0.720   3.510  11.291  0.0078  0.0174 -0.0160
 4197SOL    HW124227   0.747   3.589  11.337  1.8383  0.0651 -1.1954
 4197SOL    HW224228   0.766   3.441  11.339 -1.4700  0.7152  2.4042
 4198SOL     OW24229   2.027   4.110   6.101  1.1313  0.5275 -0.2073
 4198SOL    HW124230   2.043   4.148   6.187  0.5644  2.2353 -0.8647
 4198SOL    HW224231   2.082   4.032   6.111 -1.0350 -1.1555 -1.3961
 4199SOL     OW24232   3.394   3.302   9.205 -0.1768  0.0916  0.0110
 4199SOL    HW124233   3.477   3.260   9.228 -0.5645 -0.1289  1.0161
 4199SOL    HW224234   3.404   3.315   9.110 -0.2359 -0.3171 -0.0499
 4200SOL     OW24235   1.238   3.184  14.066  0.2806  0.2267  0.7348
 4200SOL    HW124236   1.166   3.180  14.003  1.1560 -1.1015 -0.1801
 4200SOL    HW224237   1.277   3.097  14.056 -0.6040 -0.0603 -0.2088
 4201SOL     OW24238   2.609   2.051   3.683 -0.0382  0.9497 -0.2398
 4201SOL    HW124239   2.566   2.042   3.598 -5.1768  3.1026  2.1139
 4201SOL    HW224240   2.689   2.002   3.667 -1.8590 -2.4964  1.0747
 4202SOL     OW24241   4.013   3.251   4.092  0.0335 -0.2008 -0.0322
 4202SOL    HW124242   4.041   3.217   4.176 -0.1685  1.8283  0.8478
 4202SOL    HW224243   4.077   3.321   4.077  1.9203 -1.6387  1.4046
 4203SOL     OW24244   3.138   3.867   6.261  0.1416  0.0343 -0.3024
 4203SOL    HW124245   3.137   3.933   6.192  1.3448  1.6449  1.2102
 4203SOL    HW224246   3.057   3.817   6.251  0.4429 -0.2315 -1.3682
 4204SOL     OW24247   0.993   4.090  10.094 -0.0082  0.4698  0.1766
 4204SOL    HW124248   1.031   4.177  10.080 -0.9149  0.5588 -1.7336
 4204SOL    HW224249   0.911   4.114  10.049  0.9219 -0.7792 -2.1994
 4205SOL     OW24250   1.502   1.269   3.086 -0.1059 -0.1643 -0.0306
 4205SOL    HW124251   1.425   1.236   3.132 -0.1791  1.0806  0.7313
 4205SOL    HW224252   1.466   1.304   3.004  0.0223  1.2172  0.4940
 4206SOL     OW24253   2.526   4.200   1.694  0.1185 -0.2199  0.6082
 4206SOL    HW124254   2.613   4.212   1.731  0.7660  0.5115 -1.1289
 4206SOL    HW224255   2.481   4.282   1.713  0.0312 -0.7121  2.5066
 4207SOL     OW24256   2.447   0.881   0.506  0.0728  0.5714 -0.0451
 4207SOL    HW124257   2.397   0.854   0.429  1.4107 -0.2367 -0.6169
 4207SOL    HW224258   2.527   0.906   0.460  0.0323 -2.6682 -1.8341
 4208SOL     OW24259   2.862   1.711   5.489  0.9148  0.0096  0.5738
 4208SOL    HW124260   2.954   1.710   5.463  1.0144 -0.8179  0.9450
 4208SOL    HW224261   2.847   1.621   5.520 -2.2682  0.5080  0.5503
 4209SOL     OW24262   0.818   4.696   6.904  0.3167 -0.3931 -0.1105
 4209SOL    HW124263   0.768   4.717   6.983 -0.1907 -0.8612 -0.3104
 4209SOL    HW224264   0.906   4.722   6.932  0.5058 -0.9543 -0.1969
 4210SOL     OW24265   2.928   3.349   6.335 -0.2484  0.1885 -0.1955
 4210SOL    HW124266   2.833   3.340   6.330 -0.4418  0.4648  2.6022
 4210SOL    HW224267   2.966   3.261   6.330 -1.8781 -0.4781 -0.8292
 4211SOL     OW24268   4.108   4.536   4.623 -0.1703 -0.3081 -0.4286
 4211SOL    HW124269   4.027   4.574   4.588 -2.8331 -4.4630  1.1937
 4211SOL    HW224270   4.156   4.515   4.544  1.0986  0.4027  0.1578
 4212SOL     OW24271   3.397   1.820   9.606 -0.4273 -0.4775 -0.4056
 4212SOL    HW124272   3.329   1.858   9.550 -2.1134 -1.5651  0.9164
 4212SOL    HW224273   3.341   1.802   9.681  1.3711  2.6106  1.6749
 4213SOL     OW24274   3.517   4.349   0.972  0.0294 -0.1612 -0.0337
 4213SOL    HW124275   3.527   4.257   0.997 -1.6653 -0.0997  0.8277
 4213SOL    HW224276   3.431   4.359   0.931 -0.7825 -0.0184  1.7271
 4214SOL     OW24277   4.249   2.334   4.048 -0.0696  0.2235  0.1684
 4214SOL    HW124278   4.226   2.370   3.962  1.6387 -0.7714 -0.7085
 4214SOL    HW224279   4.188   2.262   4.060  2.7186 -2.0292  0.6636
 4215SOL     OW24280   1.878   4.125   2.744  0.4134 -0.3338 -0.0429
 4215SOL    HW124281   1.957   4.104   2.694 -0.7500 -2.4248 -0.9886
 4215SOL    HW224282   1.918   4.173   2.817 -0.9777  1.4214 -0.4553
 4216SOL     OW24283   4.093   3.541   9.654  0.1202 -0.1761 -0.0190
 4216SOL    HW124284   4.107   3.485   9.731 -0.9042 -1.7736 -0.9901
 4216SOL    HW224285   4.082   3.625   9.699 -0.0647 -0.1324 -0.1454
 4217SOL     OW24286   4.384   0.754  13.905 -0.1796 -0.2460 -0.1336
 4217SOL    HW124287   4.393   0.740  13.811 -0.9122 -0.5801 -0.1576
 4217SOL    HW224288   4.329   0.678  13.924 -0.1475 -0.2419 -0.0230
 4218SOL     OW24289   2.918   1.814  16.039  0.0956  0.1069 -0.0210
 4218SOL    HW124290   2.846   1.762  16.003  0.1726  0.6390 -0.9312
 4218SOL    HW224291   2.885   1.846  16.123  1.9875  0.6631  0.5190
 4219SOL     OW24292   3.179   3.010   7.494 -0.4399 -0.1921 -0.4259
 4219SOL    HW124293   3.228   2.978   7.418 -0.4691 -0.2127 -0.4358
 4219SOL    HW224294   3.223   3.094   7.508  1.5890 -1.4003  0.5775
 4220SOL     OW24295   2.408   1.813  15.079 -0.1776  0.1836 -0.2315
 4220SOL    HW124296   2.453   1.815  15.163 -1.2456  0.8077  0.3301
 4220SOL    HW224297   2.320   1.777  15.092 -0.5621  0.8938 -0.8758
 4221SOL     OW24298   0.329   0.372  17.442  0.1918  0.4144  0.4365
 4221SOL    HW124299   0.243   0.404  17.414 -0.3755 -0.2821  1.4012
 4221SOL    HW224300   0.389   0.391  17.369  0.0231  0.3028  0.2686
 4222SOL     OW24301   1.721   2.964   3.367  0.6038  0.2832 -0.0256
 4222SOL    HW124302   1.680   2.935   3.448  1.7441  1.5579  1.0074
 4222SOL    HW224303   1.780   3.026   3.410  2.1939 -1.7415  0.7209
 4223SOL     OW24304   1.859   4.159  15.291  0.4119 -0.1961 -0.3412
 4223SOL    HW124305   1.905   4.138  15.372 -0.1320  0.9420  0.2594
 4223SOL    HW224306   1.882   4.085  15.235 -1.8056 -0.3012 -1.1010
 4224SOL     OW24307   2.023   0.477  13.638 -0.3212 -0.0801 -0.1294
 4224SOL    HW124308   2.068   0.429  13.707 -0.1162  0.0214 -0.1944
 4224SOL    HW224309   2.088   0.524  13.586 -0.5739  0.2867 -0.1123
 4225SOL     OW24310   4.268   0.498  10.316 -0.0914 -0.3535  0.1229
 4225SOL    HW124311   4.335   0.486  10.384 -0.2056 -1.2093  0.0831
 4225SOL    HW224312   4.191   0.505  10.372 -1.1215  1.8374 -1.5506
 4226SOL     OW24313   4.057   1.741   6.055  0.4543  0.0193  0.4080
 4226SOL    HW124314   4.049   1.836   6.048 -2.5277 -0.1437  1.3137
 4226SOL    HW224315   4.079   1.724   6.147  2.8754 -1.8472 -0.5172
 4227SOL     OW24316   3.230   1.207  16.755  0.5787  0.0161 -0.0321
 4227SOL    HW124317   3.248   1.195  16.661 -2.2628 -2.6983 -0.2266
 4227SOL    HW224318   3.192   1.296  16.753  0.3916 -0.0685 -0.2815
 4228SOL     OW24319   2.377   2.473   3.925 -0.1735 -0.1023  0.7571
 4228SOL    HW124320   2.313   2.401   3.933  0.8088 -0.6270  4.0872
 4228SOL    HW224321   2.462   2.431   3.936  1.4064  2.6440 -1.1096
 4229SOL     OW24322   2.133   1.873   2.825  0.6684 -0.0985 -0.3481
 4229SOL    HW124323   2.051   1.863   2.873 -0.7405  1.4651 -2.4182
 4229SOL    HW224324   2.147   1.784   2.792 -0.1537  0.1488 -1.3762
 4230SOL     OW24325   2.185   1.457  14.135  0.4019  0.1377  0.5917
 4230SOL    HW124326   2.271   1.458  14.094 -0.9747  0.1973 -2.2642
 4230SOL    HW224327   2.184   1.546  14.169  0.0697  0.1462  0.5589
 4231SOL     OW24328   4.647   2.164   6.438 -0.3592 -0.2458 -0.0903
 4231SOL    HW124329   4.650   2.227   6.510  0.2180  0.6105 -0.8761
 4231SOL    HW224330   4.726   2.112   6.447  1.7831  2.7808 -1.3346
 4232SOL     OW24331   1.935   1.605   1.124 -0.4828 -0.4210  0.4353
 4232SOL    HW124332   1.950   1.546   1.197  1.0300  0.6304  0.9861
 4232SOL    HW224333   1.853   1.636   1.161 -1.2611  0.9958 -2.4146
 4233SOL     OW24334   1.782   2.241   6.198  0.4066 -0.4670 -0.3898
 4233SOL    HW124335   1.876   2.223   6.205  0.1211 -1.9510 -0.3603
 4233SOL    HW224336   1.784   2.289   6.115  1.5898  0.1071 -0.0286
 4234SOL     OW24337   1.779   1.557   2.284 -0.7414 -0.2590 -0.6104
 4234SOL    HW124338   1.686   1.541   2.266 -0.7876  0.9365 -1.3767
 4234SOL    HW224339   1.806   1.466   2.270 -0.5484 -0.1869 -0.7022
 4235SOL     OW24340   0.666   2.520   8.224 -0.5252  0.0429 -0.0840
 4235SOL    HW124341   0.755   2.524   8.260 -0.9523 -0.1279  0.9993
 4235SOL    HW224342   0.617   2.537   8.304 -1.4390  2.0187 -1.0398
 4236SOL     OW24343   3.225   3.049   6.494  0.4640  0.2964 -0.7748
 4236SOL    HW124344   3.199   2.957   6.497  0.4149  0.3411  0.1294
 4236SOL    HW224345   3.312   3.050   6.533  0.3733 -0.5264 -0.5483
 4237SOL     OW24346   0.948   2.269   2.490 -0.4248  0.0699 -0.0503
 4237SOL    HW124347   0.861   2.273   2.452 -0.0106  0.2636 -0.9830
 4237SOL    HW224348   0.924   2.216   2.566 -0.5787  0.5967  0.2713
 4238SOL     OW24349   2.999   3.729   1.084  0.1392 -0.3519  0.4551
 4238SOL    HW124350   2.967   3.694   1.001 -0.7185  0.6624  0.3498
 4238SOL    HW224351   2.961   3.659   1.137 -1.2634 -0.1864 -0.3311
 4239SOL     OW24352   1.085   1.171   6.536  0.0026  0.1706  0.1376
 4239SOL    HW124353   1.145   1.245   6.549  0.1691 -0.1823  1.3657
 4239SOL    HW224354   1.035   1.207   6.463  2.0160  1.0302 -0.8060
 4240SOL     OW24355   1.315   0.991  12.317 -0.3496 -0.2202 -0.1298
 4240SOL    HW124356   1.362   0.953  12.243  0.5628  0.3556  0.1515
 4240SOL    HW224357   1.360   0.929  12.376  1.2706  2.1145  1.0850
 4241SOL     OW24358   1.469   3.939   8.411  0.4055  0.0850  0.3756
 4241SOL    HW124359   1.413   3.974   8.480  0.2428  0.9030 -0.1579
 4241SOL    HW224360   1.537   4.006   8.405  1.1781 -0.8311 -1.0932
 4242SOL     OW24361   1.600   1.489   7.881  0.3310  0.5475  0.0101
 4242SOL    HW124362   1.614   1.446   7.797  0.2818 -0.7076  0.6443
 4242SOL    HW224363   1.692   1.491   7.905  0.1627  1.3785  0.5924
 4243SOL     OW24364   0.061   4.476  17.371  0.1836 -0.2645  0.5108
 4243SOL    HW124365   0.049   4.388  17.335  0.2771 -1.2658  2.9276
 4243SOL    HW224366   0.031   4.537  17.304 -2.1934 -1.8377  0.1711
 4244SOL     OW24367   3.032   3.219  16.994  0.1157  0.0414  0.6128
 4244SOL    HW124368   3.060   3.198  16.905  0.1154 -1.4664  0.9604
 4244SOL    HW224369   3.064   3.308  17.007  0.8025 -0.1489  0.2020
 4245SOL     OW24370   2.944   3.116   4.204 -0.5396 -0.0759  0.2189
 4245SOL    HW124371   2.895   3.164   4.270 -0.4749  0.4848 -0.1419
 4245SOL    HW224372   3.024   3.168   4.198  0.3698 -1.4964 -0.0522
 4246SOL     OW24373   1.062   1.349   4.737  0.4155  0.2261  0.2524
 4246SOL    HW124374   1.078   1.387   4.650  1.4582 -0.4975  0.1314
 4246SOL    HW224375   1.104   1.263   4.730 -0.0158  0.1242 -1.1232
 4247SOL     OW24376   3.292   0.375   9.248 -0.2307 -0.1387 -0.3441
 4247SOL    HW124377   3.280   0.302   9.309 -2.3102 -0.4508 -1.1037
 4247SOL    HW224378   3.350   0.428   9.302  0.3606 -1.3446  0.2094
 4248SOL     OW24379   1.761   4.195   6.022  0.2348 -0.3289 -0.6295
 4248SOL    HW124380   1.745   4.112   5.979  0.4891 -0.9279  0.4179
 4248SOL    HW224381   1.846   4.183   6.064 -1.6661 -2.4964  2.6896
 4249SOL     OW24382   4.542   2.776  16.712 -0.3906  0.7902  0.1251
 4249SOL    HW124383   4.484   2.760  16.787  3.3773 -1.4683  2.5375
 4249SOL    HW224384   4.485   2.749  16.640 -1.0146  0.5646  0.6951
 4250SOL     OW24385   4.715   0.374   7.415 -0.5010 -0.1952 -0.3576
 4250SOL    HW124386   0.035   0.408   7.349 -1.0590 -2.3059 -1.9849
 4250SOL    HW224387   4.704   0.450   7.472 -0.0539 -0.5232  0.1619
 4251SOL     OW24388   3.913   3.191   7.549  0.1561  0.1700 -0.2965
 4251SOL    HW124389   3.939   3.256   7.485  0.6910 -0.4635 -0.7211
 4251SOL    HW224390   3.959   3.217   7.629  0.3660  0.8836 -0.6524
 4252SOL     OW24391   1.786   0.038  12.940  0.0555 -0.6290 -0.1999
 4252SOL    HW124392   1.738   0.072  13.015  1.6439 -2.3760  1.6137
 4252SOL    HW224393   1.721   0.066  12.875 -1.6980  2.0481  2.7252
 4253SOL     OW24394   0.402   3.764   2.631 -0.1333  0.1248 -0.3107
 4253SOL    HW124395   0.415   3.836   2.692  1.8500  0.8054 -1.5509
 4253SOL    HW224396   0.378   3.813   2.553  0.2824  0.6203 -0.1224
 4254SOL     OW24397   4.264   1.368   4.258 -0.3944 -0.5164  0.0424
 4254SOL    HW124398   4.245   1.365   4.352 -1.0010  0.1425 -0.0607
 4254SOL    HW224399   4.359   1.377   4.252 -0.5450 -0.8029 -2.7497
 4255SOL     OW24400   1.085   1.999  12.793  0.2012  0.6047  0.1709
 4255SOL    HW124401   1.017   2.034  12.736  0.7569 -0.5400 -1.1993
 4255SOL    HW224402   1.159   1.986  12.733  0.0418  1.0242 -0.1169
 4256SOL     OW24403   0.375   1.878   8.934 -0.1067  0.1302 -0.6959
 4256SOL    HW124404   0.343   1.812   8.873 -1.6904 -0.2285  0.5157
 4256SOL    HW224405   0.297   1.932   8.947 -0.3778 -1.0170  2.5450
 4257SOL     OW24406   2.459   0.204   7.956  0.9977  0.2542  0.2224
 4257SOL    HW124407   2.543   0.231   7.919  0.3984  0.1460 -1.2182
 4257SOL    HW224408   2.448   0.117   7.916  0.4504 -0.2711  1.5374
 4258SOL     OW24409   4.043   0.702   1.139 -0.3754 -0.1081 -0.1698
 4258SOL    HW124410   4.018   0.786   1.100  0.4129  0.3628  0.3465
 4258SOL    HW224411   4.042   0.734   1.230 -0.6468 -2.3446  0.6023
 4259SOL     OW24412   4.288   3.290   3.987  0.3465  0.0047  0.2864
 4259SOL    HW124413   4.301   3.266   3.895  0.7787 -0.6039  0.5044
 4259SOL    HW224414   4.371   3.253   4.019  0.4024 -0.7575 -0.7284
 4260SOL     OW24415   1.877   0.112   5.270 -0.0277 -0.0666  0.2738
 4260SOL    HW124416   1.791   0.143   5.300  1.2326  0.2166  3.5955
 4260SOL    HW224417   1.934   0.143   5.341 -0.7077  0.2183  0.7043
 4261SOL     OW24418   3.983   4.585  12.194  0.0683 -0.3918  0.6018
 4261SOL    HW124419   3.954   4.630  12.274  2.2988  1.7203  0.2091
 4261SOL    HW224420   4.037   4.645  12.144  1.0785 -1.6218  0.2147
 4262SOL     OW24421   1.095   2.684   0.948  0.4798  1.1490  0.1917
 4262SOL    HW124422   1.155   2.682   1.022  0.0499 -0.8304  0.4856
 4262SOL    HW224423   1.105   2.774   0.917  0.0224  0.2995 -2.4481
 4263SOL     OW24424   2.909   2.213   7.968  0.4815  0.3549  0.0538
 4263SOL    HW124425   2.829   2.177   7.929 -0.0206 -1.9006  3.1670
 4263SOL    HW224426   2.899   2.187   8.060 -1.6026  1.0070  0.0131
 4264SOL     OW24427   2.559   4.345   1.427  0.0529 -0.1258  0.0734
 4264SOL    HW124428   2.484   4.323   1.483  0.1068  2.7151  1.2690
 4264SOL    HW224429   2.561   4.263   1.377  2.4356 -0.0992  0.1527
 4265SOL     OW24430   1.777   0.946   1.986 -0.0591  0.1908 -0.4165
 4265SOL    HW124431   1.836   0.968   2.058 -2.0177  1.4308  0.8172
 4265SOL    HW224432   1.840   0.902   1.929 -0.0225  0.7630 -0.8209
 4266SOL     OW24433   2.750   0.714   7.875  0.4664 -0.4525 -0.0809
 4266SOL    HW124434   2.677   0.677   7.923 -0.3214 -0.2513 -1.1368
 4266SOL    HW224435   2.818   0.654   7.906  1.0709  0.1044 -0.3127
 4267SOL     OW24436   2.134   0.254   3.978 -0.0821 -0.1542 -0.4347
 4267SOL    HW124437   2.095   0.339   3.999 -0.5884 -0.7185  0.9232
 4267SOL    HW224438   2.228   0.272   3.983 -0.2531  0.7019 -0.2458
 4268SOL     OW24439   2.234   1.031   1.124 -0.1180  0.4628 -0.0427
 4268SOL    HW124440   2.193   1.116   1.140 -3.0343 -0.7597 -0.9759
 4268SOL    HW224441   2.275   1.042   1.038  2.8915 -2.4713  1.0207
 4269SOL     OW24442   0.736   1.198   5.883  0.4456  0.2293  0.9289
 4269SOL    HW124443   0.831   1.190   5.869  0.2895  0.7386 -0.4366
 4269SOL    HW224444   0.718   1.106   5.903  0.6614  0.1368  0.7105
 4270SOL     OW24445   1.790   4.300  16.701  0.4355 -0.0988 -0.0764
 4270SOL    HW124446   1.862   4.331  16.647  0.7056  2.2421  1.6631
 4270SOL    HW224447   1.828   4.307  16.789 -0.5861 -1.5599  0.4889
 4271SOL     OW24448   3.716   3.189   5.397 -0.3677  0.7881  0.2946
 4271SOL    HW124449   3.756   3.122   5.342  0.0300  2.6412 -1.6837
 4271SOL    HW224450   3.623   3.193   5.376 -0.5303 -3.9961  0.1763
 4272SOL     OW24451   4.352   2.095   5.068 -0.2558 -0.2478  0.0323
 4272SOL    HW124452   4.340   2.169   5.127  0.6191  1.4412 -1.9229
 4272SOL    HW224453   4.267   2.052   5.081 -0.9671  1.3381  0.6165
 4273SOL     OW24454   1.483   1.120   6.671  0.6171  0.4703  0.1520
 4273SOL    HW124455   1.518   1.171   6.598 -0.5817  3.0163  1.3872
 4273SOL    HW224456   1.477   1.189   6.737  3.9027 -0.1265  1.0835
 4274SOL     OW24457   0.853   0.628   9.049 -0.3643 -0.6814 -0.2843
 4274SOL    HW124458   0.890   0.641   8.961  1.8955 -0.9563  0.6424
 4274SOL    HW224459   0.887   0.709   9.088 -3.9000  0.4043  0.5626
 4275SOL     OW24460   2.778   0.031  16.575  0.2130 -0.1109 -0.1544
 4275SOL    HW124461   2.870   0.054  16.581  0.0295  0.9695 -1.3836
 4275SOL    HW224462   2.755   0.017  16.667 -0.2103  2.0186  0.0584
 4276SOL     OW24463   1.090   2.796   6.611 -0.5618 -0.2043  0.2708
 4276SOL    HW124464   1.181   2.771   6.626  0.1567  1.8688 -0.6151
 4276SOL    HW224465   1.044   2.719   6.645  0.0722 -1.6607 -2.1574
 4277SOL     OW24466   2.882   1.745  15.398  0.1223 -0.9043 -0.2548
 4277SOL    HW124467   2.837   1.665  15.424 -1.1953 -0.0635  0.0288
 4277SOL    HW224468   2.964   1.702  15.375  0.0199 -1.9574  1.3337
 4278SOL     OW24469   0.823   2.635   3.437  0.7692  0.4236  0.8177
 4278SOL    HW124470   0.836   2.654   3.344 -2.8847  3.2833  0.8746
 4278SOL    HW224471   0.735   2.597   3.436  1.4349 -1.1269  0.2850
 4279SOL     OW24472   3.105   1.368   7.411  0.2050  0.0159 -0.1294
 4279SOL    HW124473   3.090   1.433   7.343 -0.9253  1.7716  1.7987
 4279SOL    HW224474   3.088   1.280   7.377 -0.7518  0.5823 -1.1151
 4280SOL     OW24475   0.486   2.531   1.636  0.1007 -0.4343  0.4913
 4280SOL    HW124476   0.518   2.580   1.561  1.9591 -1.1978  0.7773
 4280SOL    HW224477   0.558   2.535   1.699 -0.1068 -0.4460  0.7308
 4281SOL     OW24478   0.718   0.108   8.494  0.1487 -0.4082 -0.0492
 4281SOL    HW124479   0.627   0.080   8.504  0.0909  0.2141  1.2414
 4281SOL    HW224480   0.751   0.058   8.420  0.8835  0.6579 -0.4431
 4282SOL     OW24481   4.340   1.350   7.471 -0.1855 -0.8543 -0.4254
 4282SOL    HW124482   4.264   1.310   7.430  0.6214 -1.7617 -1.0206
 4282SOL    HW224483   4.352   1.419   7.406 -1.3729 -0.0029  0.2531
 4283SOL     OW24484   1.250   1.827   7.584 -0.2134  0.1036  0.1361
 4283SOL    HW124485   1.173   1.772   7.573  0.1505 -0.3260 -0.3166
 4283SOL    HW224486   1.246   1.854   7.675 -1.5598 -0.4704  0.2343
 4284SOL     OW24487   0.895   4.376   1.949  0.2904 -0.2057  0.2209
 4284SOL    HW124488   0.926   4.464   1.927  0.3673 -0.5489 -1.0642
 4284SOL    HW224489   0.846   4.345   1.872 -0.0333 -0.5103  0.5477
 4285SOL     OW24490   1.712   0.041   8.593 -0.0231 -0.0313  0.5256
 4285SOL    HW124491   1.669   0.121   8.564 -0.0593 -0.6416 -1.0823
 4285SOL    HW224492   1.791   0.030   8.539  0.7737 -0.6279  1.7920
 4286SOL     OW24493   0.219   2.759   9.453 -0.1460 -0.1397  0.1509
 4286SOL    HW124494   0.144   2.763   9.511 -0.1599 -1.4776  0.2293
 4286SOL    HW224495   0.228   2.844   9.410 -0.4086 -0.5513 -0.7386
 4287SOL     OW24496   3.522   2.452   8.499 -0.1818  0.1067 -0.6541
 4287SOL    HW124497   3.497   2.458   8.591  1.7283 -2.7861  0.0750
 4287SOL    HW224498   3.506   2.541   8.467 -1.0628  0.0796 -0.2827
 4288SOL     OW24499   0.582   1.228   9.126  0.2151  0.5054 -0.6111
 4288SOL    HW124500   0.660   1.276   9.156  0.9888  0.0779 -1.9167
 4288SOL    HW224501   0.559   1.285   9.053 -0.7796 -0.1422 -0.7945
 4289SOL     OW24502   0.208   0.741   0.284  0.0629  0.1945 -0.4706
 4289SOL    HW124503   0.117   0.710   0.281 -0.4888  1.7341  0.3746
 4289SOL    HW224504   0.217   0.767   0.193  2.5926 -0.4306 -0.4065
 4290SOL     OW24505   3.926   2.143  10.494 -0.2553 -0.6249 -0.1519
 4290SOL    HW124506   3.847   2.089  10.506  0.1720 -0.8116  1.7659
 4290SOL    HW224507   3.983   2.103  10.559 -0.6339 -2.1431 -0.7420
 4291SOL     OW24508   3.569   0.878   7.161  0.1461 -0.1084 -0.5781
 4291SOL    HW124509   3.516   0.958   7.160 -0.3213 -0.4256 -1.3608
 4291SOL    HW224510   3.633   0.893   7.092 -0.7736  0.6701 -1.2736
 4292SOL     OW24511   3.189   3.263   5.709  0.4217  0.0365 -0.0888
 4292SOL    HW124512   3.167   3.203   5.781 -1.5208  0.0306 -0.6818
 4292SOL    HW224513   3.172   3.343   5.759  1.2659  0.1528  0.0156
 4293SOL     OW24514   1.137   3.375   1.260 -0.4922  0.0091  0.2566
 4293SOL    HW124515   1.203   3.348   1.323  0.9345 -0.8823 -1.6063
 4293SOL    HW224516   1.072   3.399   1.326 -0.8083 -0.6966  0.2048
 4294SOL     OW24517   0.623   3.679   7.429 -0.0636 -0.0680 -0.0530
 4294SOL    HW124518   0.533   3.691   7.461 -0.3132 -1.0967 -0.3807
 4294SOL    HW224519   0.637   3.764   7.387  0.0012 -0.5979 -1.1222
 4295SOL     OW24520   2.253   1.764   2.098  0.9559 -0.2581  0.2017
 4295SOL    HW124521   2.271   1.792   2.008 -2.8640  1.4327 -0.0312
 4295SOL    HW224522   2.194   1.690   2.084  2.3953 -0.7440 -3.3604
 4296SOL     OW24523   0.979   1.084   3.026  0.2637 -0.2414  0.0722
 4296SOL    HW124524   1.066   1.119   3.043 -1.0118  1.6198  2.7944
 4296SOL    HW224525   0.940   1.160   2.984  0.2304 -0.5051 -0.3727
 4297SOL     OW24526   2.333   0.210   0.371 -0.1323  0.0955 -0.2311
 4297SOL    HW124527   2.393   0.265   0.320  0.4147  0.0726  0.3832
 4297SOL    HW224528   2.252   0.258   0.386  1.0099  2.6586 -2.3189
 4298SOL     OW24529   4.338   3.366   9.460 -0.4838 -1.0771 -0.1844
 4298SOL    HW124530   4.271   3.310   9.500 -1.5226 -1.1918 -2.0644
 4298SOL    HW224531   4.292   3.438   9.416 -0.0915 -0.8150 -0.1616
 4299SOL     OW24532   4.678   4.650  10.238  0.3754 -0.4133  0.6342
 4299SOL    HW124533   4.648   4.734  10.203  1.8431  0.9481  2.6785
 4299SOL    HW224534   4.598   4.628  10.287 -1.2245  0.4184 -1.5750
 4300SOL     OW24535   3.172   4.692   9.420  0.6434 -0.2739  0.1302
 4300SOL    HW124536   3.105   0.017   9.399 -0.2909  0.7379  6.0521
 4300SOL    HW224537   3.237   4.708   9.352  0.2718 -1.2621 -0.4459
 4301SOL     OW24538   4.680   0.037   9.290 -0.2930 -0.0806 -0.1639
 4301SOL    HW124539   4.585   0.037   9.281 -0.1036 -1.6303 -2.2305
 4301SOL    HW224540   4.690   0.025   9.384 -5.0577  1.1045  0.4983
 4302SOL     OW24541   2.534   4.257   2.579 -0.1671 -0.6432  0.1794
 4302SOL    HW124542   2.591   4.204   2.523 -1.6630 -0.3201 -1.6424
 4302SOL    HW224543   2.516   4.332   2.523 -0.6589 -0.4614  0.5845
 4303SOL     OW24544   2.609   4.394   3.461 -0.0027 -0.3022 -0.2262
 4303SOL    HW124545   2.522   4.434   3.470  1.4968  2.7940  0.4806
 4303SOL    HW224546   2.595   4.307   3.499 -1.4886 -0.1305 -0.3894
 4304SOL     OW24547   2.980   2.827   7.820 -0.1085 -0.0333  0.0449
 4304SOL    HW124548   2.903   2.874   7.788 -0.3257 -0.1396  0.4089
 4304SOL    HW224549   2.941   2.739   7.822  2.0950 -0.9851  1.1285
 4305SOL     OW24550   1.264   3.215   4.390 -0.2711 -0.2319 -0.7327
 4305SOL    HW124551   1.211   3.210   4.311 -3.3732 -0.9292  1.3911
 4305SOL    HW224552   1.254   3.309   4.406  1.3380 -0.4545  1.6368
 4306SOL     OW24553   2.491   4.699  14.710 -0.3501  0.1129  0.0050
 4306SOL    HW124554   2.426   0.017  14.750  1.2317  1.7109  0.2606
 4306SOL    HW224555   2.519   4.646  14.785 -0.8206 -1.4756 -0.9392
 4307SOL     OW24556   2.563   1.861  11.769  0.0268  0.1698 -0.3978
 4307SOL    HW124557   2.628   1.882  11.835  1.6110  0.1846 -1.9590
 4307SOL    HW224558   2.601   1.905  11.693  0.5312  0.5210  0.0671
 4308SOL     OW24559   0.272   4.102  15.726  0.1256 -0.5848  0.0723
 4308SOL    HW124560   0.343   4.128  15.785  0.0356 -1.7095  0.6787
 4308SOL    HW224561   0.264   4.177  15.667  0.2200 -1.9155 -1.6294
 4309SOL     OW24562   1.377   1.164   8.501  0.1745  0.0087 -0.1488
 4309SOL    HW124563   1.450   1.104   8.486  1.9316  2.3825 -1.1371
 4309SOL    HW224564   1.431   1.242   8.508 -1.9793  1.7520 -3.1070
 4310SOL     OW24565   3.810   4.243   5.809 -0.1878 -0.1943  0.2864
 4310SOL    HW124566   3.901   4.272   5.814 -1.2806  3.5118 -1.6774
 4310SOL    HW224567   3.767   4.303   5.747  2.4857  0.3323 -1.0663
 4311SOL     OW24568   1.425   2.520   3.679  0.2380  0.1526 -0.2519
 4311SOL    HW124569   1.431   2.590   3.615  0.3620  0.6931  0.3592
 4311SOL    HW224570   1.333   2.527   3.704 -0.0136  0.9093 -1.4057
 4312SOL     OW24571   2.979   4.428   6.204 -0.4255  0.1083 -0.3098
 4312SOL    HW124572   2.918   4.355   6.197 -0.5031  0.2710 -1.2696
 4312SOL    HW224573   3.055   4.373   6.225 -0.1066  0.8590  0.5048
 4313SOL     OW24574   0.848   1.428   4.505 -0.6747 -0.1605  0.3838
 4313SOL    HW124575   0.848   1.358   4.439 -2.4702 -1.1531  1.4164
 4313SOL    HW224576   0.884   1.381   4.580 -0.8554 -1.4347 -0.3102
 4314SOL     OW24577   4.197   4.720  14.714  0.1411 -0.4285  0.1654
 4314SOL    HW124578   4.188   4.691  14.623 -1.6612  1.5331 -0.2813
 4314SOL    HW224579   4.208   0.073  14.695  0.6662 -1.2817 -3.7443
 4315SOL     OW24580   0.622   0.598   7.050  0.0737  0.3071  0.0399
 4315SOL    HW124581   0.715   0.610   7.070  0.2470  0.2453 -0.7268
 4315SOL    HW224582   0.627   0.601   6.954 -1.3006 -2.7394 -0.1325
 4316SOL     OW24583   4.088   0.371   0.070  0.7853  0.0619 -0.0984
 4316SOL    HW124584   4.062   0.379  17.736 -0.6389  1.2455  0.3926
 4316SOL    HW224585   4.058   0.452   0.110  1.3576  0.6597 -0.8634
 4317SOL     OW24586   3.237   4.529   0.668 -0.1855  0.1875 -0.2457
 4317SOL    HW124587   3.170   4.597   0.666  0.4450  0.8057 -0.4744
 4317SOL    HW224588   3.204   4.459   0.612 -1.2286  1.0386 -0.6850
 4318SOL     OW24589   2.506   1.297   3.046 -0.3530 -0.1754  0.2236
 4318SOL    HW124590   2.476   1.207   3.046 -1.9030  0.3362  1.9929
 4318SOL    HW224591   2.488   1.308   2.953 -0.4196 -3.0746 -0.1041
 4319SOL     OW24592   3.805   0.436   6.086  0.2720  0.2955 -0.1499
 4319SOL    HW124593   3.795   0.412   5.994 -0.2095  0.6993 -0.2031
 4319SOL    HW224594   3.854   0.358   6.112 -0.9686 -0.2950  0.3982
 4320SOL     OW24595   1.796   4.519   3.658  0.4258  0.5126 -0.1611
 4320SOL    HW124596   1.820   4.563   3.740  2.3169 -3.2474  1.3120
 4320SOL    HW224597   1.831   4.431   3.672 -2.8782 -1.1976 -2.7155
 4321SOL     OW24598   2.312   3.135   8.250 -0.5670  0.1721 -0.0317
 4321SOL    HW124599   2.354   3.221   8.255  0.3290 -0.1988 -1.1422
 4321SOL    HW224600   2.382   3.089   8.203  0.1742  0.1835  1.0409
 4322SOL     OW24601   2.085   3.774   2.029  0.8832  0.5740 -0.3645
 4322SOL    HW124602   2.058   3.730   2.109  1.3954  1.4965  0.3139
 4322SOL    HW224603   2.133   3.846   2.071  1.0396 -0.1320  0.6646
 4323SOL     OW24604   0.495   2.109   6.440  0.0458 -0.6609  0.0852
 4323SOL    HW124605   0.544   2.106   6.522  1.1337  1.6396 -0.5105
 4323SOL    HW224606   0.546   2.178   6.398 -2.7310  0.7651 -0.9629
 4324SOL     OW24607   1.985   3.704  11.372 -0.5573 -0.1798  0.7305
 4324SOL    HW124608   1.959   3.656  11.294  0.3050  2.4978 -1.2044
 4324SOL    HW224609   1.916   3.767  11.392  0.3672  0.5843  1.5493
 4325SOL     OW24610   3.618   3.841   2.249 -0.6417  0.5162  0.3940
 4325SOL    HW124611   3.649   3.766   2.197  0.6072  0.9804  0.4634
 4325SOL    HW224612   3.559   3.789   2.304 -1.0635  2.1867  1.4945
 4326SOL     OW24613   1.412   2.931  14.033 -0.1792  0.7402  0.8190
 4326SOL    HW124614   1.478   2.863  14.015 -0.7826  0.5118 -0.4989
 4326SOL    HW224615   1.330   2.882  14.026  0.5080 -0.2430 -0.3843
 4327SOL     OW24616   3.456   1.087   5.785  0.2702 -0.9967 -0.4730
 4327SOL    HW124617   3.478   1.110   5.694  1.2468  0.9712  0.2399
 4327SOL    HW224618   3.448   1.172   5.830  1.5048 -0.0673 -1.9817
 4328SOL     OW24619   2.582   0.612   6.986 -0.4520 -0.5119  0.2729
 4328SOL    HW124620   2.544   0.526   6.970  0.9605 -1.2332  0.7844
 4328SOL    HW224621   2.537   0.670   6.924  1.1373 -1.0660 -1.3831
 4329SOL     OW24622   3.701   1.205  16.224 -0.1115  0.1651 -0.2378
 4329SOL    HW124623   3.648   1.228  16.300  0.6971  0.8531  0.1055
 4329SOL    HW224624   3.634   1.202  16.155 -1.9662 -1.3623  1.6205
 4330SOL     OW24625   4.658   0.596   0.424  0.2873 -0.2258 -0.0905
 4330SOL    HW124626   4.612   0.602   0.340 -2.0124  2.7449  1.3530
 4330SOL    HW224627   4.657   0.501   0.433 -1.2960 -0.3505 -1.5834
 4331SOL     OW24628   2.146   2.183   4.506  0.5466  0.2460  0.2695
 4331SOL    HW124629   2.083   2.213   4.441  2.0136 -0.0529 -1.2811
 4331SOL    HW224630   2.204   2.259   4.506  1.6628 -0.6141  1.3294
 4332SOL     OW24631   3.182   3.589  16.413  0.3629  0.1880 -0.5401
 4332SOL    HW124632   3.262   3.608  16.461  0.5157 -0.4344 -0.5458
 4332SOL    HW224633   3.192   3.494  16.408  0.5386  0.1829 -0.1111
 4333SOL     OW24634   2.754   2.229  12.145  0.3716 -0.1739 -0.4584
 4333SOL    HW124635   2.779   2.207  12.056 -1.7328 -0.9461 -0.8715
 4333SOL    HW224636   2.746   2.324  12.142  0.7738 -0.1752 -1.3908
 4334SOL     OW24637   2.274   2.663   5.791 -0.3505 -0.2940  0.2114
 4334SOL    HW124638   2.212   2.684   5.860  0.7022  0.6751  0.8661
 4334SOL    HW224639   2.231   2.584   5.759 -0.7956 -0.2567  0.7225
 4335SOL     OW24640   4.071   0.766  13.158 -0.0809 -0.5583 -0.9554
 4335SOL    HW124641   4.003   0.833  13.168  0.0179 -0.6702  0.5301
 4335SOL    HW224642   4.035   0.702  13.096 -1.8933  0.6526 -1.1438
 4336SOL     OW24643   2.506   4.332   6.939 -0.2523  0.2037  0.2188
 4336SOL    HW124644   2.515   4.242   6.908  1.3194  0.0085  1.2450
 4336SOL    HW224645   2.592   4.348   6.977 -0.2950 -1.2427  0.9114
 4337SOL     OW24646   3.880   3.808   7.112 -0.4119 -0.2461 -0.1568
 4337SOL    HW124647   3.902   3.817   7.204 -0.2849 -2.3644  0.0264
 4337SOL    HW224648   3.892   3.900   7.089 -0.9817  0.4784  2.4371
 4338SOL     OW24649   3.799   3.753   3.778  0.3150 -0.0178 -0.3702
 4338SOL    HW124650   3.780   3.810   3.853 -0.7049 -1.3029  0.3295
 4338SOL    HW224651   3.868   3.694   3.806  0.0363 -0.5641 -0.8313
 4339SOL     OW24652   0.457   2.891   8.542  0.4783  0.4813  0.7115
 4339SOL    HW124653   0.379   2.889   8.597  0.3850 -0.4783  0.5495
 4339SOL    HW224654   0.427   2.881   8.452  0.9918 -2.2884  0.8232
 4340SOL     OW24655   2.905   1.944   3.747 -0.3881 -0.1341  0.1568
 4340SOL    HW124656   2.877   1.879   3.812 -0.5913  0.4125  0.6164
 4340SOL    HW224657   3.001   1.945   3.743 -0.4261 -0.0736 -0.6254
 4341SOL     OW24658   0.568   2.591   4.682  0.4372  0.5980 -0.2576
 4341SOL    HW124659   0.485   2.629   4.713  0.9219  0.1082  1.6742
 4341SOL    HW224660   0.613   2.658   4.630 -0.0263 -0.2526 -1.7527
 4342SOL     OW24661   1.027   1.808  13.229 -0.5620  0.2258 -0.2685
 4342SOL    HW124662   0.934   1.788  13.234 -0.6764  1.2103  1.6441
 4342SOL    HW224663   1.035   1.806  13.134 -0.5672 -1.7152 -0.2277
 4343SOL     OW24664   1.143   3.236   4.152  0.3749  0.7603  0.7015
 4343SOL    HW124665   1.119   3.300   4.085 -1.0306  2.5474  2.9229
 4343SOL    HW224666   1.142   3.165   4.088  1.4474  2.6003 -1.3562
 4344SOL     OW24667   0.351   1.949  10.654  0.2228  0.2318 -0.6799
 4344SOL    HW124668   0.425   1.896  10.624  0.0783  1.1160 -2.5663
 4344SOL    HW224669   0.387   1.970  10.740 -1.5198  1.0227 -0.1393
 4345SOL     OW24670   0.769   4.341   1.316  0.2006 -0.2250  0.3924
 4345SOL    HW124671   0.727   4.413   1.269  0.3900 -1.6110 -1.9448
 4345SOL    HW224672   0.814   4.384   1.389 -0.2612 -2.1326  1.7909
 4346SOL     OW24673   0.155   2.493   4.929 -0.0537  0.2218 -0.6642
 4346SOL    HW124674   0.133   2.474   4.838  2.4939  0.7646 -1.3747
 4346SOL    HW224675   0.217   2.566   4.926 -2.3721  2.2885  1.2530
 4347SOL     OW24676   3.070   4.589   8.408 -0.4544  1.1122 -0.1978
 4347SOL    HW124677   3.066   4.508   8.459  0.0828  0.3067 -1.4485
 4347SOL    HW224678   3.013   4.655   8.448 -0.3813  0.8700  0.3004
 4348SOL     OW24679   2.844   2.421  11.554  0.7882  0.1657 -0.5557
 4348SOL    HW124680   2.833   2.327  11.572  0.9167  0.1410 -0.6096
 4348SOL    HW224681   2.776   2.419  11.487 -1.4464  2.2498  1.6096
 4349SOL     OW24682   1.620   0.574   8.607 -0.1382  0.5653  0.3144
 4349SOL    HW124683   1.646   0.542   8.693 -2.0808 -0.4881  0.5090
 4349SOL    HW224684   1.534   0.533   8.599  0.2986 -0.4516  0.8354
 4350SOL     OW24685   2.515   0.727   3.770  0.0382  0.0714 -0.7146
 4350SOL    HW124686   2.569   0.651   3.792 -0.6708 -0.1541  0.2031
 4350SOL    HW224687   2.581   0.788   3.734 -0.8441  0.7725 -1.1407
 4351SOL     OW24688   4.126   1.254   5.068  0.0515  0.3017  0.0301
 4351SOL    HW124689   4.076   1.291   4.995  2.5959 -0.3086 -2.0052
 4351SOL    HW224690   4.209   1.235   5.024 -0.8214 -2.0170 -0.5639
 4352SOL     OW24691   3.638   3.165  12.611 -0.1882 -0.1928  0.0307
 4352SOL    HW124692   3.618   3.083  12.656  3.1631  0.1453  2.1547
 4352SOL    HW224693   3.555   3.186  12.569 -0.8588  0.0479  1.4736
 4353SOL     OW24694   0.914   1.293   8.305 -0.5694  0.1558 -0.2083
 4353SOL    HW124695   0.978   1.341   8.253 -0.6252 -1.1903 -1.5559
 4353SOL    HW224696   0.838   1.282   8.246 -0.8056  2.9507 -0.4166
 4354SOL     OW24697   1.832   0.989   1.612  0.4941  0.4562  0.0557
 4354SOL    HW124698   1.742   0.993   1.581  0.7041 -1.0486 -0.7402
 4354SOL    HW224699   1.838   0.908   1.662 -0.3701 -0.3126 -1.1039
 4355SOL     OW24700   2.698   4.731   9.465  0.7879  0.2274 -0.5039
 4355SOL    HW124701   2.762   0.002   9.534  2.8200 -1.2987 -2.1583
 4355SOL    HW224702   2.661   0.079   9.460  2.4909  1.0243  1.2905
 4356SOL     OW24703   3.746   4.203  10.236  0.4538  0.6947  0.0760
 4356SOL    HW124704   3.788   4.287  10.254 -4.3322  3.0148  0.4043
 4356SOL    HW224705   3.768   4.155  10.316 -2.0217  1.3332  1.1555
 4357SOL     OW24706   0.982   2.951   9.646  0.3377 -0.5238  0.3035
 4357SOL    HW124707   0.911   2.907   9.599  0.8953  1.1760 -2.0921
 4357SOL    HW224708   1.035   2.874   9.669 -0.1632 -0.4892  1.5806
 4358SOL     OW24709   1.731   0.063   2.574 -0.3704 -0.0705  0.4349
 4358SOL    HW124710   1.663   0.008   2.536  0.1001  1.1884 -2.2123
 4358SOL    HW224711   1.799   0.010   2.616 -1.4008 -1.2354  0.6342
 4359SOL     OW24712   4.711   1.981  14.891 -0.2508 -0.2351 -0.6781
 4359SOL    HW124713   0.003   1.967  14.980 -0.7716  1.3645 -0.2294
 4359SOL    HW224714   0.042   1.929  14.855  0.4749 -0.2026  0.7035
 4360SOL     OW24715   2.611   0.416   8.422  0.1263  0.0957 -0.4724
 4360SOL    HW124716   2.574   0.331   8.450  0.6923  0.5644  1.7431
 4360SOL    HW224717   2.656   0.439   8.503  0.4380 -1.3159 -0.2329
 4361SOL     OW24718   1.242   2.801   4.416  0.0984  0.0553  0.2703
 4361SOL    HW124719   1.265   2.814   4.324 -0.4807  1.1960  0.2790
 4361SOL    HW224720   1.309   2.739   4.443 -0.3241  0.7338  2.8780
 4362SOL     OW24721   2.684   4.588   1.796 -0.1014 -0.4435 -0.1553
 4362SOL    HW124722   2.707   4.548   1.712  1.0883  0.1946 -0.1359
 4362SOL    HW224723   2.758   4.648   1.791  0.0421 -0.6292 -0.2559
 4363SOL     OW24724   1.272   2.050  13.228 -0.0582 -0.1600  0.1898
 4363SOL    HW124725   1.244   2.072  13.139  4.4116  2.4100 -0.5625
 4363SOL    HW224726   1.325   1.970  13.224 -0.8214 -0.6696  0.3063
 4364SOL     OW24727   1.160   3.456  11.460  0.0836 -0.0215 -0.4854
 4364SOL    HW124728   1.235   3.462  11.519  0.1550 -0.4339 -0.5312
 4364SOL    HW224729   1.180   3.517  11.389 -0.8648  0.5723 -0.2347
 4365SOL     OW24730   3.536   3.190   6.964 -0.4985 -0.4709  0.3007
 4365SOL    HW124731   3.595   3.182   7.040 -0.0881 -1.5078 -0.1281
 4365SOL    HW224732   3.586   3.162   6.888  0.3111 -1.4216  1.1722
 4366SOL     OW24733   4.666   1.180   5.445 -0.2322  0.5982 -0.4456
 4366SOL    HW124734   4.707   1.241   5.384  2.7980  0.2882  1.3078
 4366SOL    HW224735   4.725   1.188   5.520  0.0355  1.9952 -0.8222
 4367SOL     OW24736   1.194   2.523   8.822  0.4648 -0.1505  0.1817
 4367SOL    HW124737   1.118   2.490   8.870  1.3128 -1.6835  0.4514
 4367SOL    HW224738   1.268   2.501   8.878 -1.3214 -0.0742  2.5361
 4368SOL     OW24739   1.458   3.615   5.503  0.0113 -0.1402  0.2964
 4368SOL    HW124740   1.424   3.682   5.562  0.9040 -0.4961  1.2260
 4368SOL    HW224741   1.514   3.568   5.565 -1.7479  0.4572  2.3415
 4369SOL     OW24742   1.316   0.169   9.258  0.2951 -0.6094  0.0464
 4369SOL    HW124743   1.228   0.155   9.222  0.0276 -2.3376  1.3814
 4369SOL    HW224744   1.297   0.164   9.351 -2.9880 -2.8266 -0.7275
 4370SOL     OW24745   4.614   3.858   2.213  0.2041 -0.3198  0.6655
 4370SOL    HW124746   4.614   3.897   2.300  2.6934  0.3612  0.3579
 4370SOL    HW224747   4.579   3.935   2.168 -1.6619  0.4047  3.3431
 4371SOL     OW24748   4.492   1.170   9.163 -0.2869  0.6734  0.1727
 4371SOL    HW124749   4.584   1.183   9.187  0.0289  1.3354 -1.3801
 4371SOL    HW224750   4.435   1.222   9.220 -1.6072  1.3737 -1.8100
 4372SOL     OW24751   1.881   1.238   2.328  0.1422 -0.3311  0.2091
 4372SOL    HW124752   1.904   1.213   2.238  0.0385  3.5809 -0.8956
 4372SOL    HW224753   1.959   1.229   2.383 -0.9507  0.3527  1.8681
 4373SOL     OW24754   4.736   2.412  16.872  0.2534  0.6014  0.2782
 4373SOL    HW124755   4.697   2.497  16.893 -0.2034  0.8503 -1.5820
 4373SOL    HW224756   4.702   2.405  16.783  3.2113 -1.4893 -0.6959
 4374SOL     OW24757   2.991   4.303   5.018  0.1845  0.0354  0.0424
 4374SOL    HW124758   2.904   4.263   5.011  0.3575 -0.7770  2.5655
 4374SOL    HW224759   3.043   4.229   4.985 -0.8853 -0.7660  0.1350
 4375SOL     OW24760   1.696   0.147   7.818 -0.0881 -0.7858  0.2220
 4375SOL    HW124761   1.758   0.219   7.825  0.1154 -0.8225 -1.3272
 4375SOL    HW224762   1.633   0.175   7.885  0.4187 -0.4549  0.5601
 4376SOL     OW24763   4.384   3.420   4.651 -0.0673 -0.1229 -0.0354
 4376SOL    HW124764   4.297   3.448   4.678  0.8090  2.0037  0.6033
 4376SOL    HW224765   4.414   3.487   4.589 -0.5341 -1.4871 -1.7458
 4377SOL     OW24766   0.652   2.791   8.089 -0.4851  0.1432 -0.2141
 4377SOL    HW124767   0.660   2.697   8.109  3.2048  0.6533  0.7236
 4377SOL    HW224768   0.581   2.765   8.031  1.2125 -0.6898 -1.9522
 4378SOL     OW24769   1.523   2.316   2.339  0.6511  0.0154  0.2213
 4378SOL    HW124770   1.472   2.290   2.417 -1.1642  2.5447 -0.1227
 4378SOL    HW224771   1.575   2.237   2.325 -0.8412 -1.0110  0.3729
 4379SOL     OW24772   3.559   2.357  12.010  0.3390 -0.7745  0.6981
 4379SOL    HW124773   3.483   2.373  12.066  0.6789  1.8886  0.4000
 4379SOL    HW224774   3.514   2.308  11.941 -0.9379 -0.2334  1.1562
 4380SOL     OW24775   0.274   1.666   5.915 -0.1736 -0.0911  0.3582
 4380SOL    HW124776   0.323   1.590   5.884 -0.7197 -1.0124  1.7877
 4380SOL    HW224777   0.322   1.739   5.874 -0.3149 -0.4876 -0.5058
 4381SOL     OW24778   0.512   2.739   6.050 -0.5488 -0.3397 -1.0074
 4381SOL    HW124779   0.592   2.756   6.100 -1.2008 -1.0162  0.2347
 4381SOL    HW224780   0.551   2.755   5.963  0.5166 -2.4717 -0.9072
 4382SOL     OW24781   3.871   2.718   7.340 -0.1334  0.2436  0.2133
 4382SOL    HW124782   3.884   2.783   7.271  0.5848 -0.8350 -0.6712
 4382SOL    HW224783   3.797   2.675   7.297 -0.3629 -0.0883  0.9345
 4383SOL     OW24784   1.549   3.722   0.232 -0.4211 -0.0886 -0.0281
 4383SOL    HW124785   1.517   3.791   0.173  1.8530  0.9037 -0.1141
 4383SOL    HW224786   1.640   3.754   0.234 -0.6675  0.7989 -2.9411
 4384SOL     OW24787   1.258   3.524   2.842  0.1225 -0.2346  0.4446
 4384SOL    HW124788   1.341   3.492   2.806  0.8384  0.4282  1.4963
 4384SOL    HW224789   1.200   3.535   2.766 -0.3800  0.6309  0.9588
 4385SOL     OW24790   3.348   2.570   2.063 -0.5345  0.1311 -0.1441
 4385SOL    HW124791   3.412   2.499   2.061  0.9008  1.4475  0.1356
 4385SOL    HW224792   3.386   2.650   2.098  1.5918 -0.8606 -0.2289
 4386SOL     OW24793   4.728   4.116   1.819  0.0574  0.0671 -0.9094
 4386SOL    HW124794   4.682   4.148   1.896 -1.1849 -2.2086 -0.7126
 4386SOL    HW224795   0.077   4.126   1.850 -1.6007  4.8560  2.3025
 4387SOL     OW24796   0.677   0.723   2.386 -0.5433  0.0967 -0.1450
 4387SOL    HW124797   0.732   0.680   2.452  0.1622 -2.1866 -2.1952
 4387SOL    HW224798   0.729   0.698   2.309  0.1149  1.1686 -0.0486
 4388SOL     OW24799   0.256   4.425   9.164  0.4814  0.3966  0.0322
 4388SOL    HW124800   0.175   4.444   9.118  0.4276 -2.3198 -0.9252
 4388SOL    HW224801   0.221   4.408   9.252 -0.8273 -3.5941 -1.2966
 4389SOL     OW24802   2.868   3.902  13.975 -0.1359  0.3466 -0.4266
 4389SOL    HW124803   2.807   3.920  13.904  0.7314 -0.3985 -1.3519
 4389SOL    HW224804   2.815   3.856  14.040  1.3903  0.7367  1.1067
 4390SOL     OW24805   1.695   2.290   5.913 -0.2885  0.2352 -0.2269
 4390SOL    HW124806   1.676   2.201   5.883 -1.4132  1.3241 -2.7001
 4390SOL    HW224807   1.628   2.327   5.855 -0.4991 -0.8167 -0.6612
 4391SOL     OW24808   3.789   0.661  15.052 -0.2314  0.2282  0.2573
 4391SOL    HW124809   3.794   0.610  15.133  1.4350 -0.5966 -0.3696
 4391SOL    HW224810   3.834   0.743  15.071  0.9277 -0.3440 -0.0597
 4392SOL     OW24811   0.375   0.005   3.248 -0.4651 -0.7616 -0.3202
 4392SOL    HW124812   0.470   0.001   3.249 -0.5271 -1.9722  1.3386
 4392SOL    HW224813   0.348   0.045   3.166  0.2884  1.0419  0.3129
 4393SOL     OW24814   3.587   2.684   3.674 -0.4220  0.1742  0.0219
 4393SOL    HW124815   3.508   2.723   3.710 -0.3695  0.2272  0.0805
 4393SOL    HW224816   3.657   2.738   3.710  0.1687 -1.4912  1.4242
 4394SOL     OW24817   2.814   3.803  12.836  0.3823 -0.6132 -0.0614
 4394SOL    HW124818   2.832   3.883  12.788  1.8787 -0.7014  0.3361
 4394SOL    HW224819   2.732   3.824  12.882 -0.8309 -0.1449 -2.4695
 4395SOL     OW24820   4.143   0.647  17.417  0.3123  0.2748  0.4762
 4395SOL    HW124821   4.203   0.589  17.370 -0.3079  0.1962 -0.2261
 4395SOL    HW224822   4.072   0.667  17.355  0.5715  0.0408  0.1037
 4396SOL     OW24823   2.414   4.638   8.489 -0.4214 -0.0108 -1.1512
 4396SOL    HW124824   2.322   4.637   8.516 -0.2682 -1.0956 -0.6453
 4396SOL    HW224825   2.418   4.562   8.430 -0.8157  0.3481 -1.6318
 4397SOL     OW24826   1.856   1.952   2.172 -0.0039  0.5763 -0.4041
 4397SOL    HW124827   1.772   1.932   2.212  1.3793 -2.0901  1.2087
 4397SOL    HW224828   1.854   1.894   2.096  2.2577 -2.3318  1.7478
 4398SOL     OW24829   2.720   3.973  14.769  0.4646  0.0753  0.4892
 4398SOL    HW124830   2.777   4.033  14.721  0.5389 -0.8322 -0.5615
 4398SOL    HW224831   2.646   3.978  14.709  0.1035 -0.6823  0.8599
 4399SOL     OW24832   4.266   4.203   1.729  0.5117 -0.0346  0.7278
 4399SOL    HW124833   4.235   4.288   1.760 -1.9360 -0.4810 -0.5398
 4399SOL    HW224834   4.260   4.224   1.636 -0.8833  0.2725  0.8926
 4400SOL     OW24835   2.232   2.843  13.499  0.0875  0.2271  0.2984
 4400SOL    HW124836   2.290   2.806  13.565  0.1482  1.9758  1.2459
 4400SOL    HW224837   2.235   2.938  13.509 -1.1897  0.0115  2.7782
 4401SOL     OW24838   2.023   1.242   3.055  0.1475  0.5705  0.3050
 4401SOL    HW124839   2.031   1.264   3.148 -0.6060  1.4829  0.1505
 4401SOL    HW224840   1.952   1.178   3.060  0.0480  0.4547 -2.5042
 4402SOL     OW24841   4.437   2.514   6.509  0.3734 -0.4175 -0.0060
 4402SOL    HW124842   4.448   2.608   6.522  0.2410 -0.7216  2.1856
 4402SOL    HW224843   4.511   2.494   6.452  1.8911  0.2777  1.7231
 4403SOL     OW24844   2.447   2.341   7.933  0.1616 -0.5404 -0.8421
 4403SOL    HW124845   2.427   2.391   8.013 -2.4332 -0.3008 -1.6280
 4403SOL    HW224846   2.371   2.283   7.935 -1.5286  1.6997 -0.5843
 4404SOL     OW24847   0.836   4.005   3.957 -0.1504 -0.7811  0.2594
 4404SOL    HW124848   0.875   4.004   3.870  1.6867  1.7980  1.0565
 4404SOL    HW224849   0.898   4.064   4.001 -0.2877  1.6550 -2.8361
 4405SOL     OW24850   3.954   4.044   8.219 -0.4096  0.1570 -0.4121
 4405SOL    HW124851   3.906   3.983   8.163  2.0119 -1.2826 -0.9491
 4405SOL    HW224852   3.956   3.993   8.300 -1.1456 -0.5118 -0.8136
 4406SOL     OW24853   2.983   2.907  16.842  0.0221  0.3104 -0.4786
 4406SOL    HW124854   2.923   2.865  16.780  0.8211 -1.5827  0.0458
 4406SOL    HW224855   2.927   2.970  16.888  1.5614 -0.0460  1.9055
 4407SOL     OW24856   2.854   0.633   3.761  0.0094  0.1638 -0.1723
 4407SOL    HW124857   2.871   0.631   3.855 -0.6077  0.9551 -0.0436
 4407SOL    HW224858   2.773   0.583   3.753 -1.1161  1.5207  2.7505
 4408SOL     OW24859   1.820   4.176  10.609  0.0559  0.8461 -0.7547
 4408SOL    HW124860   1.847   4.116  10.678  2.6562  3.0330  0.1303
 4408SOL    HW224861   1.733   4.136  10.604 -0.1888  1.1333  1.3595
 4409SOL     OW24862   3.541   1.506   6.515 -0.0680 -0.1609 -0.1282
 4409SOL    HW124863   3.448   1.510   6.537 -0.3525  0.7206 -1.4940
 4409SOL    HW224864   3.557   1.412   6.507  0.8893  0.2857 -3.9106
 4410SOL     OW24865   0.945   2.542   5.864  0.5656  0.2205 -0.0054
 4410SOL    HW124866   0.922   2.576   5.950 -1.2214  0.9870 -0.7924
 4410SOL    HW224867   0.858   2.509   5.842  0.9552 -0.4174 -0.6027
 4411SOL     OW24868   0.515   2.649   5.726 -0.4166  0.4645  0.1708
 4411SOL    HW124869   0.471   2.731   5.748 -1.4918  0.4332 -1.8261
 4411SOL    HW224870   0.472   2.636   5.641  1.0130 -0.9389 -0.3432
 4412SOL     OW24871   0.218   2.135   4.992  0.2434  0.0727 -0.4923
 4412SOL    HW124872   0.206   2.135   4.897 -0.6074  0.5346 -0.3779
 4412SOL    HW224873   0.306   2.174   4.994 -0.3807  1.4213  0.2442
 4413SOL     OW24874   3.259   3.179   6.865 -0.0731  0.1022  0.4111
 4413SOL    HW124875   3.286   3.126   6.790  2.1302  1.5226  0.1932
 4413SOL    HW224876   3.345   3.176   6.907  0.3014 -3.3990 -0.6213
 4414SOL     OW24877   3.281   2.359   3.257  0.4050  0.6113 -0.3354
 4414SOL    HW124878   3.373   2.384   3.259  0.0927  1.5902  1.3537
 4414SOL    HW224879   3.278   2.339   3.350 -0.3623  1.2120 -0.2341
 4415SOL     OW24880   0.587   0.625   7.350  0.2946  0.4305 -0.2858
 4415SOL    HW124881   0.563   0.660   7.264  0.3816 -1.4645 -1.0958
 4415SOL    HW224882   0.533   0.547   7.360  1.8430 -0.7191 -0.7907
 4416SOL     OW24883   2.765   3.765   8.925 -0.2790 -0.3470 -0.1029
 4416SOL    HW124884   2.824   3.830   8.961 -0.6681  0.3540 -0.7366
 4416SOL    HW224885   2.701   3.757   8.997 -1.2523 -0.1953 -0.9470
 4417SOL     OW24886   1.216   4.070  14.642 -0.2434 -0.4542  0.0109
 4417SOL    HW124887   1.273   4.144  14.664  1.7191 -1.3551 -2.0485
 4417SOL    HW224888   1.221   4.071  14.546  1.5477  1.2486  0.1367
 4418SOL     OW24889   4.376   2.798   4.918 -0.0338 -0.5462  0.1160
 4418SOL    HW124890   4.283   2.813   4.899  0.2580  1.7343  0.4756
 4418SOL    HW224891   4.400   2.884   4.952 -0.1954  0.1310 -1.4898
 4419SOL     OW24892   2.245   2.957   8.433  0.0731  0.3177  0.4220
 4419SOL    HW124893   2.202   2.930   8.352  0.5590  0.1643  0.2180
 4419SOL    HW224894   2.315   3.012   8.399  0.7637  0.2424  1.7214
 4420SOL     OW24895   0.567   1.855   5.209  0.5637 -0.0755 -0.2211
 4420SOL    HW124896   0.602   1.842   5.121 -1.1558 -0.2701 -0.8804
 4420SOL    HW224897   0.584   1.947   5.229 -0.3549  0.0361  0.0910
 4421SOL     OW24898   2.948   2.829   6.972 -0.1702  0.2110 -0.4535
 4421SOL    HW124899   2.904   2.873   6.899  0.1267  0.9638 -0.1800
 4421SOL    HW224900   2.907   2.882   7.041 -2.8145 -1.5000 -0.6927
 4422SOL     OW24901   1.748   1.867   4.196  0.1609 -0.4631 -0.4056
 4422SOL    HW124902   1.814   1.842   4.261 -2.0004  0.7237  2.2189
 4422SOL    HW224903   1.700   1.785   4.184 -0.5706 -0.0992 -0.0013
 4423SOL     OW24904   2.698   0.958  10.204  0.1464 -0.3559 -0.5066
 4423SOL    HW124905   2.693   0.952  10.300  0.4535 -1.2013 -0.5469
 4423SOL    HW224906   2.693   0.865  10.183  0.1577 -0.9873  2.2651
 4424SOL     OW24907   1.371   4.192   4.476  0.0313  0.6348  0.0755
 4424SOL    HW124908   1.377   4.195   4.381  1.4111 -1.4258  0.0945
 4424SOL    HW224909   1.331   4.278   4.487 -1.0874  0.1048  0.2182
 4425SOL     OW24910   1.762   3.465   3.770 -0.0519 -0.4317 -0.4188
 4425SOL    HW124911   1.806   3.548   3.750 -0.7541  0.7163  2.8061
 4425SOL    HW224912   1.738   3.437   3.682 -0.5211 -2.0966  0.2503
 4426SOL     OW24913   0.367   0.996   5.996  0.5514 -0.3368  0.1143
 4426SOL    HW124914   0.389   1.077   5.951  0.3916 -0.4302 -0.1280
 4426SOL    HW224915   0.454   0.960   5.980  0.7085 -0.0229  0.2540
 4427SOL     OW24916   0.913   1.277   1.027  0.3081 -0.7332  0.5252
 4427SOL    HW124917   0.824   1.272   0.993  1.5854 -3.6638 -2.4098
 4427SOL    HW224918   0.940   1.363   0.993 -2.8432  0.1344  0.1768
 4428SOL     OW24919   0.945   3.463   1.418  0.2901 -0.0804 -0.4872
 4428SOL    HW124920   0.876   3.417   1.466  0.9085  0.3223  0.7775
 4428SOL    HW224921   0.893   3.543   1.415 -2.1684 -1.6265  0.4009
 4429SOL     OW24922   1.013   4.319   3.737  0.6381 -0.1560  0.6812
 4429SOL    HW124923   1.022   4.227   3.710 -1.7881  0.1653 -1.2107
 4429SOL    HW224924   1.101   4.351   3.714  0.0287  1.2757  0.3176
 4430SOL     OW24925   0.404   3.562  12.821  0.2465 -0.3808  0.7325
 4430SOL    HW124926   0.439   3.496  12.762  0.3493  0.6398 -0.3549
 4430SOL    HW224927   0.449   3.537  12.901  1.2363 -0.6590  0.0895
 4431SOL     OW24928   3.105   0.221   1.335 -0.7076  0.2013  0.3906
 4431SOL    HW124929   3.084   0.129   1.321  2.1192 -0.5098  0.6967
 4431SOL    HW224930   3.041   0.270   1.283 -0.1990  1.0129  0.5205
 4432SOL     OW24931   1.982   4.425   7.888  0.0898 -0.5667 -0.7212
 4432SOL    HW124932   1.964   4.358   7.954  0.8526 -0.4816 -0.4266
 4432SOL    HW224933   1.915   4.491   7.903 -1.5049 -2.0765 -1.2119
 4433SOL     OW24934   3.523   2.232  12.904  0.2971  0.6532  0.9887
 4433SOL    HW124935   3.532   2.278  12.987  2.3283  0.0078  1.1208
 4433SOL    HW224936   3.599   2.266  12.858  1.0604 -2.0621  0.2689
 4434SOL     OW24937   4.543   2.949   3.319 -0.5180 -0.0482  0.0346
 4434SOL    HW124938   4.538   2.954   3.415 -0.6972 -0.7585  0.0669
 4434SOL    HW224939   4.532   3.039   3.287  1.9197 -0.0593 -0.8103
 4435SOL     OW24940   4.265   2.163   9.357 -0.3747 -0.2567  0.3649
 4435SOL    HW124941   4.277   2.145   9.264 -1.0230 -0.1756  0.2730
 4435SOL    HW224942   4.355   2.166   9.391  0.7624  2.6508 -2.9098
 4436SOL     OW24943   3.430   1.569   8.941  0.3757 -0.1419 -0.3409
 4436SOL    HW124944   3.424   1.482   8.979  2.0068 -0.1941 -0.2346
 4436SOL    HW224945   3.466   1.550   8.854 -1.0602  0.5997 -1.1210
 4437SOL     OW24946   3.936   2.809  14.064  0.1040  0.2579 -0.7270
 4437SOL    HW124947   3.902   2.837  13.979  2.3985  2.7392 -0.8249
 4437SOL    HW224948   3.864   2.820  14.127  0.6509  1.9612 -0.3758
 4438SOL     OW24949   0.737   4.570  10.752  0.5309 -0.0245  0.9118
 4438SOL    HW124950   0.797   4.625  10.801 -0.8189  1.2227  1.1504
 4438SOL    HW224951   0.782   4.573  10.667 -0.4877 -0.8526  0.3470
 4439SOL     OW24952   4.229   3.733   4.426  0.3599  0.6208  0.1280
 4439SOL    HW124953   4.178   3.732   4.508  1.6605 -0.5296  0.9154
 4439SOL    HW224954   4.281   3.654   4.439 -0.6328 -0.1054 -0.2730
 4440SOL     OW24955   2.652   1.576   8.869 -0.6655  0.3385  0.0551
 4440SOL    HW124956   2.719   1.508   8.864  0.4030  1.5421 -2.2957
 4440SOL    HW224957   2.627   1.591   8.778 -1.3928 -0.0058  0.2016
 4441SOL     OW24958   0.826   2.160   3.687  0.2704  0.4897  0.0923
 4441SOL    HW124959   0.845   2.236   3.742 -2.0887  0.2217  1.3024
 4441SOL    HW224960   0.763   2.192   3.622 -1.4674 -0.0417  1.5147
 4442SOL     OW24961   4.454   1.757   0.059 -0.0410 -0.1423  0.5507
 4442SOL    HW124962   4.430   1.694  17.750 -0.3418  0.8236 -0.2528
 4442SOL    HW224963   4.489   1.837   0.019  1.5942 -1.0675  0.1562
 4443SOL     OW24964   2.695   3.059  16.965  0.5664  0.0161  0.1260
 4443SOL    HW124965   2.606   3.080  16.996  0.6947  0.1873  0.3847
 4443SOL    HW224966   2.689   3.085  16.873  0.3971 -2.5356 -0.5640
 4444SOL     OW24967   1.592   2.059   8.778 -0.4072 -0.4943  0.0035
 4444SOL    HW124968   1.668   2.117   8.771 -0.0733 -1.0184 -0.6388
 4444SOL    HW224969   1.595   2.022   8.690  0.6158 -0.0952 -0.1312
 4445SOL     OW24970   4.156   2.063   0.049 -0.1462  0.5166 -0.1040
 4445SOL    HW124971   4.147   2.042  17.715 -2.7760  1.3359 -0.0326
 4445SOL    HW224972   4.204   1.988   0.084  1.6415  1.3425 -0.7867
 4446SOL     OW24973   4.441   1.473   2.970  0.3732 -0.1022  0.0946
 4446SOL    HW124974   4.479   1.560   2.964 -0.1575  0.2880  2.4184
 4446SOL    HW224975   4.349   1.500   2.972  0.6389  0.8111 -0.2375
 4447SOL     OW24976   4.302   2.212   7.556  0.2938 -0.0143  0.6159
 4447SOL    HW124977   4.258   2.249   7.633 -0.1544 -0.7815  0.7231
 4447SOL    HW224978   4.353   2.290   7.533  0.6440 -0.8601 -1.4689
 4448SOL     OW24979   3.458   1.896   5.723  0.0881 -0.0131  0.4154
 4448SOL    HW124980   3.534   1.950   5.745 -1.3535  1.6533  1.3081
 4448SOL    HW224981   3.399   1.950   5.776  0.5994 -2.3593  3.3909
 4449SOL     OW24982   1.040   2.257   4.556 -0.6616  0.4977 -0.3878
 4449SOL    HW124983   0.991   2.178   4.532 -0.2777 -0.1950  1.0849
 4449SOL    HW224984   0.968   2.317   4.578 -1.7421 -0.5456 -1.1344
 4450SOL     OW24985   3.689   0.683   4.330  0.5684 -0.4380  0.5305
 4450SOL    HW124986   3.740   0.673   4.410 -0.3709  2.1597  1.4732
 4450SOL    HW224987   3.724   0.609   4.281  1.2554  1.1258 -1.3327
 4451SOL     OW24988   1.028   0.456   5.838  0.2791  0.1361  0.1491
 4451SOL    HW124989   1.046   0.425   5.927  0.1016  1.3340  0.6002
 4451SOL    HW224990   0.937   0.487   5.843  0.5360  1.2575 -2.2371
 4452SOL     OW24991   1.521   3.438  13.225 -0.5089 -0.2059 -0.0956
 4452SOL    HW124992   1.543   3.457  13.317 -3.1457 -1.2488  0.7550
 4452SOL    HW224993   1.570   3.357  13.214  0.2475  0.1984  0.2976
 4453SOL     OW24994   0.846   1.619   1.813  0.3465  0.6485 -0.2902
 4453SOL    HW124995   0.896   1.546   1.851 -2.0903  0.3659  2.3136
 4453SOL    HW224996   0.799   1.575   1.742  1.3480  1.7105 -1.5945
 4454SOL     OW24997   3.117   4.397  16.866 -0.0581  0.6405  0.2968
 4454SOL    HW124998   3.028   4.381  16.898 -0.0891 -1.5592 -0.8911
 4454SOL    HW224999   3.106   4.487  16.837 -4.2095  0.0115 -0.0634
 4455SOL     OW25000   2.139   4.346  14.590  0.1063  0.0514  0.6691
 4455SOL    HW125001   2.147   4.337  14.495 -2.0138  1.1928  0.3918
 4455SOL    HW225002   2.230   4.372  14.608  0.1531  0.3557  0.0016
 4456SOL     OW25003   2.204   0.679  15.329 -0.1865 -0.6728 -0.1588
 4456SOL    HW125004   2.112   0.695  15.351  0.2238  0.0971  1.0495
 4456SOL    HW225005   2.227   0.603  15.381 -1.2288 -0.8303  0.0750
 4457SOL     OW25006   4.059   1.992   1.001 -0.0199 -0.3270  0.2035
 4457SOL    HW125007   3.968   1.962   1.002  0.1007 -0.6395  1.2627
 4457SOL    HW225008   4.084   2.006   0.910 -2.6941 -1.3172 -0.7033
 4458SOL     OW25009   1.172   4.077   6.029  0.0962 -0.4126  0.4413
 4458SOL    HW125010   1.164   4.068   6.124  1.6604 -0.7623  0.5378
 4458SOL    HW225011   1.240   4.011   6.015 -2.1816 -2.6027 -0.4172
 4459SOL     OW25012   2.155   0.201   2.281 -0.1654 -0.1585  0.4654
 4459SOL    HW125013   2.112   0.286   2.289 -2.3832 -1.1377 -1.1514
 4459SOL    HW225014   2.106   0.158   2.351 -1.0294  2.5691  1.5288
 4460SOL     OW25015   2.548   2.611   2.874  0.2212 -0.8907 -0.5715
 4460SOL    HW125016   2.635   2.650   2.875 -0.1130 -0.1851  0.5032
 4460SOL    HW225017   2.552   2.524   2.834 -2.0259 -0.3953 -1.8720
 4461SOL     OW25018   2.316   2.067   8.136 -0.0024  0.3872 -0.5383
 4461SOL    HW125019   2.284   1.992   8.086  2.0347  0.4999 -2.0283
 4461SOL    HW225020   2.255   2.136   8.110 -0.7333  0.4498  1.3305
 4462SOL     OW25021   3.558   1.765  12.375  0.0882  0.1554  0.2855
 4462SOL    HW125022   3.510   1.847  12.364  0.1019  0.4566  2.5075
 4462SOL    HW225023   3.569   1.739  12.283  3.2099  1.4467  0.2935
 4463SOL     OW25024   0.189   0.450   5.459 -0.5909 -0.2696  0.0512
 4463SOL    HW125025   0.166   0.361   5.434  0.6349 -1.7218  4.1122
 4463SOL    HW225026   0.099   0.474   5.478 -0.5243 -0.4404  0.5832
 4464SOL     OW25027   3.807   2.072   9.665 -0.7597 -0.0118 -0.4111
 4464SOL    HW125028   3.846   2.066   9.752  0.6069 -1.2741 -1.1266
 4464SOL    HW225029   3.883   2.069   9.608 -1.7485 -0.1287 -1.7347
 4465SOL     OW25030   4.162   1.296   4.513 -0.4255 -0.2400 -0.1710
 4465SOL    HW125031   4.254   1.312   4.535 -0.1702 -0.8671 -0.8028
 4465SOL    HW225032   4.169   1.203   4.533  1.3047  0.0301  0.5056
 4466SOL     OW25033   1.524   0.761   4.346 -0.1945 -0.0134 -0.3438
 4466SOL    HW125034   1.475   0.841   4.364  0.2733  0.7300 -2.2447
 4466SOL    HW225035   1.609   0.786   4.383  0.0573  0.2541 -1.0940
 4467SOL     OW25036   0.945   0.767   6.814 -0.3359 -0.2822 -0.3057
 4467SOL    HW125037   1.026   0.736   6.773 -1.4431 -1.3821 -1.6354
 4467SOL    HW225038   0.916   0.842   6.761  0.9056  0.7640  0.4865
 4468SOL     OW25039   4.210   1.222   6.864  0.1258 -0.0556  0.0508
 4468SOL    HW125040   4.253   1.294   6.818 -2.0719  0.4485 -1.2202
 4468SOL    HW225041   4.118   1.236   6.841 -0.1346  1.8451  2.1721
 4469SOL     OW25042   3.458   2.068   3.689  0.2518  0.2434  0.3184
 4469SOL    HW125043   3.520   2.039   3.756 -0.7982  0.8960  1.5697
 4469SOL    HW225044   3.378   2.018   3.705 -0.2764  0.3567 -1.9872
 4470SOL     OW25045   2.883   0.804   5.914 -0.3378 -0.1924 -0.5542
 4470SOL    HW125046   2.892   0.854   5.996 -0.8121 -2.3649  0.8189
 4470SOL    HW225047   2.931   0.726   5.941 -3.2955 -0.6911  3.2765
 4471SOL     OW25048   2.243   2.050  14.989  0.1962  0.1952 -0.1308
 4471SOL    HW125049   2.289   1.966  14.992  2.1409  1.3167  1.2057
 4471SOL    HW225050   2.299   2.105  15.043  1.1845 -0.1360 -0.8224
 4472SOL     OW25051   1.758   2.294   8.689 -0.4055 -0.5642  0.2363
 4472SOL    HW125052   1.848   2.318   8.711 -0.1874 -0.2075 -1.0494
 4472SOL    HW225053   1.721   2.319   8.774 -0.8402 -0.2928 -0.0260
 4473SOL     OW25054   4.349   1.618   3.328  0.2512  0.0922  0.0924
 4473SOL    HW125055   4.254   1.619   3.341  0.1930  0.1566 -0.3612
 4473SOL    HW225056   4.360   1.701   3.282  0.3300 -1.1444 -2.0881
 4474SOL     OW25057   3.945   0.920   0.286  0.2514 -0.3912  0.1851
 4474SOL    HW125058   3.965   0.984   0.217 -0.9200 -0.4815 -0.2246
 4474SOL    HW225059   4.029   0.874   0.282 -0.1568 -0.8464 -2.6269
 4475SOL     OW25060   1.801   3.568   0.489 -0.0072  0.2314 -0.2020
 4475SOL    HW125061   1.779   3.475   0.484 -1.9359  0.9349 -4.0574
 4475SOL    HW225062   1.756   3.610   0.416  0.6109  1.9046  0.3795
 4476SOL     OW25063   4.441   4.018  14.188  0.3923  0.3954  0.2833
 4476SOL    HW125064   4.366   3.961  14.207 -0.1201  0.7665 -0.6393
 4476SOL    HW225065   4.515   3.990  14.242 -0.2230 -0.4275  0.7033
 4477SOL     OW25066   2.621   0.151   9.835  0.6541  0.4316  0.4695
 4477SOL    HW125067   2.550   0.154   9.899 -0.4735 -0.1565 -0.7520
 4477SOL    HW225068   2.658   0.238   9.849  0.1849 -0.0740  4.6669
 4478SOL     OW25069   2.451   2.287   7.365  0.0532  0.4148  0.3773
 4478SOL    HW125070   2.396   2.217   7.331  0.4764  0.7703 -1.0372
 4478SOL    HW225071   2.396   2.365   7.355 -0.1194  0.1716 -0.5706
 4479SOL     OW25072   3.306   3.536   2.089  0.5172  0.2932 -0.0819
 4479SOL    HW125073   3.249   3.552   2.164 -0.8312 -1.0263 -0.8166
 4479SOL    HW225074   3.347   3.455   2.119  0.6018 -0.2933 -1.7502
 4480SOL     OW25075   1.200   3.934   2.232  0.4184  0.1246  0.1770
 4480SOL    HW125076   1.150   3.967   2.307 -0.6450 -1.6985  0.2677
 4480SOL    HW225077   1.128   3.900   2.178  0.4917 -2.4642  1.7317
 4481SOL     OW25078   3.641   2.145   5.522 -0.2525 -0.1382  0.3691
 4481SOL    HW125079   3.678   2.098   5.596 -1.0206  0.0617  0.8806
 4481SOL    HW225080   3.712   2.189   5.475 -2.4700  3.2990  0.2959
 4482SOL     OW25081   3.597   0.911   5.411  0.2631  0.4822  0.5283
 4482SOL    HW125082   3.681   0.885   5.449  1.6070  2.0061 -1.3519
 4482SOL    HW225083   3.622   0.968   5.338 -0.4191  0.0352 -0.0550
 4483SOL     OW25084   3.146   3.697  13.265  0.0566  0.2140  0.1177
 4483SOL    HW125085   3.178   3.783  13.293 -0.3506  0.6550 -0.7862
 4483SOL    HW225086   3.137   3.712  13.171  0.9663 -0.8448 -0.1325
 4484SOL     OW25087   2.059   3.244  10.220  0.5256 -0.2077  0.5351
 4484SOL    HW125088   2.071   3.228  10.127 -1.9011  3.3099 -0.3538
 4484SOL    HW225089   2.134   3.301  10.235  2.2257 -2.6913  1.6199
 4485SOL     OW25090   1.415   3.837   2.091 -0.5586 -0.5123  0.3992
 4485SOL    HW125091   1.375   3.903   2.034  4.4114  1.4996 -0.7675
 4485SOL    HW225092   1.361   3.854   2.168  0.4128  0.2609  0.9201
 4486SOL     OW25093   3.948   0.519  13.063  0.2649  0.4726  0.1846
 4486SOL    HW125094   3.941   0.448  13.127  0.5970 -0.3144 -0.6372
 4486SOL    HW225095   3.928   0.480  12.978  1.9705  1.1411 -0.5129
 4487SOL     OW25096   0.956   2.330   8.878 -0.6068  0.1923  0.5310
 4487SOL    HW125097   0.905   2.264   8.831  1.5378  0.2005 -1.7815
 4487SOL    HW225098   1.023   2.275   8.917  0.9642  1.1954 -0.7250
 4488SOL     OW25099   0.452   4.125   2.553  0.1181 -0.2621 -0.0284
 4488SOL    HW125100   0.468   4.082   2.637 -1.8455  0.6108  0.7769
 4488SOL    HW225101   0.400   4.062   2.504  0.4678 -1.9255  1.7686
 4489SOL     OW25102   4.227   4.513   1.537  0.2148 -0.0526 -0.2102
 4489SOL    HW125103   4.170   4.589   1.552 -0.0273 -0.5151  1.2628
 4489SOL    HW225104   4.229   4.481   1.627  0.9631 -1.0855 -0.6051
 4490SOL     OW25105   1.302   4.564   3.131  0.5789 -0.3079  0.0226
 4490SOL    HW125106   1.364   4.493   3.111 -1.6995 -3.6497  4.6672
 4490SOL    HW225107   1.239   4.543   3.063 -0.1999  0.9485  0.3652
 4491SOL     OW25108   2.566   1.275   5.143 -0.4548  0.7204 -0.5614
 4491SOL    HW125109   2.529   1.211   5.203  4.1071  0.7761  2.2667
 4491SOL    HW225110   2.660   1.262   5.153 -0.5980  1.3508  1.5495
 4492SOL     OW25111   3.697   4.202   3.133 -0.4077  0.0996  0.1444
 4492SOL    HW125112   3.785   4.208   3.094 -0.5040 -1.7533 -0.3793
 4492SOL    HW225113   3.691   4.106   3.137  0.5163  0.0270 -0.0793
 4493SOL     OW25114   4.278   1.689   3.926 -0.5313  0.2862  0.4015
 4493SOL    HW125115   4.339   1.723   3.861 -0.4296  0.8661  0.8008
 4493SOL    HW225116   4.236   1.770   3.954 -1.3826 -0.7853  2.2055
 4494SOL     OW25117   0.989   3.009   2.404  0.2988  0.0262  0.2106
 4494SOL    HW125118   1.001   3.078   2.470  0.2157  1.5023 -1.3300
 4494SOL    HW225119   0.910   2.963   2.432  1.4155 -0.8610  1.9113
 4495SOL     OW25120   0.672   0.746   0.456 -0.0608  0.5446 -0.2641
 4495SOL    HW125121   0.623   0.701   0.524  1.8125 -0.5496  0.3645
 4495SOL    HW225122   0.604   0.770   0.393  2.4390  1.2020 -2.7126
 4496SOL     OW25123   0.494   4.401   8.858 -0.2731 -0.4198  0.0976
 4496SOL    HW125124   0.489   4.327   8.798 -0.4476 -2.3442  2.4773
 4496SOL    HW225125   0.504   4.359   8.943  1.6808  3.1171  1.6289
 4497SOL     OW25126   3.707   3.687   6.098 -0.1534 -0.3580 -0.1494
 4497SOL    HW125127   3.620   3.703   6.134 -1.1180  0.3605 -2.8280
 4497SOL    HW225128   3.746   3.632   6.167 -0.3675  1.0501  1.0986
 4498SOL     OW25129   3.902   0.920  14.759  0.5038  0.1367 -0.4829
 4498SOL    HW125130   3.842   0.972  14.705 -0.9857  0.8151  1.8234
 4498SOL    HW225131   3.832   0.897  14.819 -0.0303  0.6191 -0.9224
 4499SOL     OW25132   0.949   0.708  13.648  0.0988 -0.2254 -0.1910
 4499SOL    HW125133   0.899   0.730  13.727  1.4398 -1.1549  0.9227
 4499SOL    HW225134   1.037   0.728  13.678 -1.1565  1.1731  2.6293
 4500SOL     OW25135   2.645   4.698  16.054 -0.0667 -0.5594  0.0039
 4500SOL    HW125136   2.625   4.607  16.032 -0.2698 -1.2675  3.0808
 4500SOL    HW225137   2.679   4.682  16.142  0.1554 -0.9380 -0.1478
 4501SOL     OW25138   3.001   0.132  12.744 -0.1103 -0.3638 -0.4302
 4501SOL    HW125139   2.923   0.155  12.796 -1.2264 -0.4088 -2.0943
 4501SOL    HW225140   2.976   0.044  12.715 -1.0415 -0.5898  1.0160
 4502SOL     OW25141   3.801   4.343  13.531 -0.1972 -0.5236  0.3620
 4502SOL    HW125142   3.806   4.438  13.538  0.1191 -0.5490  0.4866
 4502SOL    HW225143   3.885   4.311  13.566 -1.5842 -4.0107  0.4987
 4503SOL     OW25144   0.487   4.646   8.275  0.5784  0.0942  0.0592
 4503SOL    HW125145   0.500   4.553   8.256 -0.8280 -0.3585  1.3356
 4503SOL    HW225146   0.516   4.687   8.194  0.5974 -2.3694 -1.1902
 4504SOL     OW25147   0.731   2.698   6.632  0.3969  0.2491  0.5024
 4504SOL    HW125148   0.817   2.655   6.629  1.5174  2.6206 -1.4889
 4504SOL    HW225149   0.676   2.623   6.609 -0.6144  0.7298  1.3892
 4505SOL     OW25150   4.304   2.696   1.823 -0.2825 -0.2599  0.1351
 4505SOL    HW125151   4.361   2.760   1.866  0.6216 -1.1654  0.2877
 4505SOL    HW225152   4.273   2.641   1.895  2.3331 -0.1287  1.3834
 4506SOL     OW25153   2.341   3.072  11.423 -0.1834  0.3501  0.3585
 4506SOL    HW125154   2.331   3.088  11.517  0.6644 -0.4050  0.5726
 4506SOL    HW225155   2.250   3.075  11.394 -0.1380  1.6051  0.3545
 4507SOL     OW25156   0.545   3.243   6.078  0.2717  0.4905  0.1769
 4507SOL    HW125157   0.480   3.306   6.049  0.2596  0.3203 -0.1566
 4507SOL    HW225158   0.517   3.240   6.170 -4.4847  1.3444 -1.2482
 4508SOL     OW25159   1.765   1.610   6.402 -0.1574  0.5586 -0.9608
 4508SOL    HW125160   1.763   1.683   6.340 -1.2829  1.0072 -0.3824
 4508SOL    HW225161   1.852   1.577   6.377 -0.8053  0.5844 -3.3065
 4509SOL     OW25162   4.145   0.089   1.414 -1.1121 -0.5207  0.0643
 4509SOL    HW125163   4.077   0.148   1.380  1.6753  0.9401 -2.9889
 4509SOL    HW225164   4.099   0.059   1.493 -0.0521  0.3063  0.9907
 4510SOL     OW25165   1.982   2.102  13.513  0.3943 -0.0379  0.1092
 4510SOL    HW125166   2.043   2.030  13.499  1.2488  1.0925 -2.0386
 4510SOL    HW225167   1.895   2.065  13.523 -0.8660  2.7998 -0.2338
 4511SOL     OW25168   2.358   4.009  13.141  0.3225  0.3820  0.4343
 4511SOL    HW125169   2.267   4.007  13.111 -0.1235  1.4180  1.7167
 4511SOL    HW225170   2.399   4.060  13.071 -2.1857  1.1263 -0.4994
 4512SOL     OW25171   0.387   1.306   2.669 -0.1593  0.1164  0.3919
 4512SOL    HW125172   0.355   1.339   2.752  1.0632 -0.4373  1.0800
 4512SOL    HW225173   0.317   1.324   2.606  0.9652  1.8769 -0.3655
 4513SOL     OW25174   1.402   2.353   3.076  0.3723  0.2344  0.4088
 4513SOL    HW125175   1.391   2.328   3.167 -0.0927  0.5238  0.4319
 4513SOL    HW225176   1.449   2.276   3.044 -1.6316 -0.7998 -0.0548
 4514SOL     OW25177   0.925   2.314   8.123  0.0768 -0.9737 -0.2588
 4514SOL    HW125178   0.928   2.395   8.174  1.9042 -1.9436  1.1695
 4514SOL    HW225179   0.850   2.339   8.068  1.2418 -1.0509 -1.8737
 4515SOL     OW25180   1.864   0.451   1.931  0.1078  0.1485  0.0837
 4515SOL    HW125181   1.771   0.432   1.937  0.0046 -0.0445 -1.9358
 4515SOL    HW225182   1.906   0.391   1.993  1.8979  1.9909  0.6259
 4516SOL     OW25183   2.638   2.177   6.690 -0.2259  0.4991 -0.0776
 4516SOL    HW125184   2.591   2.130   6.759  2.1379 -2.0583 -0.2483
 4516SOL    HW225185   2.574   2.242   6.660  0.6420  1.5518  0.3401
 4517SOL     OW25186   3.864   1.358  17.430  0.0279  0.1071  0.0449
 4517SOL    HW125187   3.863   1.347  17.525 -3.6082  1.6673  0.1572
 4517SOL    HW225188   3.937   1.420  17.416 -0.9205  0.7386 -2.2424
 4518SOL     OW25189   0.670   3.501   9.761  0.1291  0.1988  0.7743
 4518SOL    HW125190   0.687   3.485   9.668  2.8489 -2.3005  1.6713
 4518SOL    HW225191   0.601   3.567   9.756 -0.7878 -0.6410  2.2128
 4519SOL     OW25192   0.717   4.020   4.896 -0.1625  0.7800 -0.1590
 4519SOL    HW125193   0.765   3.938   4.904 -0.8972  0.3767  0.0825
 4519SOL    HW225194   0.661   3.990   4.825  0.0875 -2.3827  0.9701
 4520SOL     OW25195   1.760   0.741  14.696 -0.2594 -0.2046  0.2536
 4520SOL    HW125196   1.718   0.673  14.748 -0.3075 -0.7741 -0.5325
 4520SOL    HW225197   1.685   0.778  14.650  0.4785 -0.1175 -0.8784
 4521SOL     OW25198   0.221   0.394  15.372  0.6840  0.2605  0.1867
 4521SOL    HW125199   0.196   0.303  15.385 -0.5888  0.8576  2.0210
 4521SOL    HW225200   0.253   0.413  15.461  1.2819 -1.7195  0.3872
 4522SOL     OW25201   4.553   0.635   4.115 -0.2635 -0.1570 -0.4616
 4522SOL    HW125202   4.589   0.716   4.079 -0.6739  0.0179 -0.4722
 4522SOL    HW225203   4.463   0.656   4.093 -0.2250  0.3944 -0.1111
 4523SOL     OW25204   2.190   3.273  17.135 -0.4429 -0.8928  0.1664
 4523SOL    HW125205   2.116   3.253  17.192 -1.1085 -2.2988 -1.1918
 4523SOL    HW225206   2.185   3.209  17.064  0.7676  1.5119 -2.0586
 4524SOL     OW25207   2.025   1.223   2.092  0.1638 -0.1569  0.1616
 4524SOL    HW125208   2.037   1.265   2.007  1.9209 -1.2217 -0.1125
 4524SOL    HW225209   2.009   1.131   2.072  2.0553 -0.1481 -1.3575
 4525SOL     OW25210   0.951   1.349   9.548 -0.2545 -0.2296  0.2210
 4525SOL    HW125211   0.909   1.265   9.527  1.8809 -1.1809 -0.3417
 4525SOL    HW225212   1.039   1.334   9.513 -0.2153  1.1697 -0.2821
 4526SOL     OW25213   0.784   0.010   7.684  0.1957 -0.3819 -0.0218
 4526SOL    HW125214   0.730   0.085   7.711  2.4497  2.2360 -2.7931
 4526SOL    HW225215   0.875   0.038   7.696 -0.2049  1.8406 -2.3757
 4527SOL     OW25216   1.556   2.695   5.018  0.0038  0.0772 -0.3500
 4527SOL    HW125217   1.508   2.635   4.960 -1.1307  0.5739  0.0716
 4527SOL    HW225218   1.546   2.775   4.967  0.5263  0.1024 -0.4060
 4528SOL     OW25219   1.351   0.302   3.674  0.0385 -0.0481  0.1583
 4528SOL    HW125220   1.307   0.380   3.709  1.2296  1.4489 -1.7034
 4528SOL    HW225221   1.351   0.249   3.753  0.7869  0.3190  0.4012
 4529SOL     OW25222   1.043   3.250   6.059 -0.1142  0.0155  0.3962
 4529SOL    HW125223   1.081   3.198   5.988  2.1791  1.0582  0.8824
 4529SOL    HW225224   1.079   3.200   6.132  0.6150  2.1597  1.4863
 4530SOL     OW25225   0.054   4.537   9.721 -0.0796  0.2946  0.3832
 4530SOL    HW125226   0.066   4.524   9.815 -0.8801  0.2950  0.4823
 4530SOL    HW225227   0.075   4.450   9.688 -2.2210  1.0785 -3.0711
 4531SOL     OW25228   4.632   4.273  13.007 -0.3485  0.0878  0.2912
 4531SOL    HW125229   4.585   4.190  12.993 -2.5960  1.3031  0.7156
 4531SOL    HW225230   4.553   4.323  13.026 -0.8256  0.0478 -1.6238
 4532SOL     OW25231   3.436   0.825   5.163  0.2079  0.1728  0.5864
 4532SOL    HW125232   3.498   0.830   5.236 -1.0170  0.1665  1.6331
 4532SOL    HW225233   3.367   0.770   5.202  0.7859 -1.1395 -0.2418
 4533SOL     OW25234   4.300   1.236  15.497  0.3001  0.2222 -0.0907
 4533SOL    HW125235   4.214   1.252  15.534  0.0804  0.6450 -0.7829
 4533SOL    HW225236   4.279   1.218  15.405  3.2159 -2.6641 -0.1810
 4534SOL     OW25237   1.602   1.452   9.168  0.1244 -0.4313 -0.3282
 4534SOL    HW125238   1.690   1.415   9.161 -0.5296 -1.9333 -0.5432
 4534SOL    HW225239   1.621   1.535   9.213 -0.2908  0.6356 -2.1136
 4535SOL     OW25240   0.220   1.274   7.650 -0.4110  0.4547  0.3925
 4535SOL    HW125241   0.227   1.292   7.556 -0.5213 -0.9078  0.1208
 4535SOL    HW225242   0.293   1.211   7.657 -0.6975 -0.3389 -3.7944
 4536SOL     OW25243   0.088   0.219   3.046 -0.6201  0.1655 -0.1543
 4536SOL    HW125244   0.122   0.197   2.959  1.2196 -2.5925  1.2595
 4536SOL    HW225245   0.084   0.314   3.035 -0.2328  0.2622  0.5421
 4537SOL     OW25246   0.179   1.199   3.402  0.1705  0.3012  0.0809
 4537SOL    HW125247   0.240   1.242   3.463  1.0847 -0.5587 -0.2243
 4537SOL    HW225248   0.094   1.206   3.445  0.2422 -1.8084  0.5471
 4538SOL     OW25249   4.088   0.775   3.100  0.1060  0.0676 -0.2597
 4538SOL    HW125250   4.171   0.766   3.053  0.0114  0.9426 -0.5973
 4538SOL    HW225251   4.070   0.865   3.073  1.1389 -0.1333 -1.6213
 4539SOL     OW25252   2.037   1.561   6.394 -0.0029  0.2702 -0.5805
 4539SOL    HW125253   2.121   1.520   6.374  0.3520  0.3400  0.7403
 4539SOL    HW225254   2.053   1.573   6.488  0.0770  0.7984 -0.6616
 4540SOL     OW25255   0.922   4.361  15.195  0.0172  0.7468 -0.1707
 4540SOL    HW125256   0.990   4.311  15.239  0.1446  3.9331  3.2794
 4540SOL    HW225257   0.904   4.303  15.121 -1.5541 -1.7662  2.1887
 4541SOL     OW25258   4.441   3.192   7.845 -0.1193  0.2261  0.5190
 4541SOL    HW125259   4.474   3.193   7.935 -0.9291  0.6929  0.8156
 4541SOL    HW225260   4.495   3.260   7.808  0.2706  0.7722  2.0766
 4542SOL     OW25261   0.684   4.472   3.412  0.2076  0.3001 -0.0589
 4542SOL    HW125262   0.617   4.464   3.480 -0.3743  1.9879 -0.4456
 4542SOL    HW225263   0.681   4.560   3.376  0.8200  0.3125 -0.0764
 4543SOL     OW25264   0.239   4.720  10.232  0.3518 -0.1328  0.4157
 4543SOL    HW125265   0.233   0.047  10.164 -0.7036 -1.8497 -1.2157
 4543SOL    HW225266   0.164   4.733  10.290  0.1946  1.2725 -0.1146
 4544SOL     OW25267   0.360   0.757  10.461  0.5156 -0.1236  0.2607
 4544SOL    HW125268   0.435   0.738  10.405 -0.8203 -3.9611 -0.2265
 4544SOL    HW225269   0.349   0.682  10.519 -0.5763 -0.3202 -0.1921
 4545SOL     OW25270   1.836   0.728   3.688  0.0365  0.1065  0.0446
 4545SOL    HW125271   1.885   0.811   3.695 -1.5898  1.1729 -1.2644
 4545SOL    HW225272   1.877   0.691   3.766 -0.9398  0.8259  0.9081
 4546SOL     OW25273   0.084   3.383  11.513  0.4739 -0.0044 -0.1895
 4546SOL    HW125274   0.059   3.291  11.527 -1.2188  0.4186 -0.4500
 4546SOL    HW225275   0.003   3.425  11.485  0.9244  0.6691 -0.4935
 4547SOL     OW25276   3.747   3.556   9.063  0.4474  0.0884  0.0904
 4547SOL    HW125277   3.720   3.464   9.072 -1.7060  0.5827 -1.3856
 4547SOL    HW225278   3.838   3.545   9.091  0.5196 -1.5409 -0.7616
 4548SOL     OW25279   2.023   3.840   6.511 -0.1203  0.3425  0.2313
 4548SOL    HW125280   1.944   3.871   6.554  1.1320  2.7765  0.7428
 4548SOL    HW225281   2.093   3.873   6.567  1.1242  0.6125 -1.4966
 4549SOL     OW25282   3.663   4.000  12.381  0.6770  0.0709  0.5119
 4549SOL    HW125283   3.703   3.964  12.302 -1.4197  1.7560 -1.3148
 4549SOL    HW225284   3.742   4.011  12.435  0.8654 -1.9866  0.6293
 4550SOL     OW25285   3.971   2.384   5.768 -0.5082  0.2023 -0.1395
 4550SOL    HW125286   3.944   2.464   5.723 -1.2020 -0.0734 -0.2214
 4550SOL    HW225287   4.055   2.410   5.806 -0.2295 -1.8404  0.6395
 4551SOL     OW25288   2.435   1.818   5.561  0.1255  0.3252 -0.2437
 4551SOL    HW125289   2.510   1.779   5.607 -0.3225  0.2413  0.4105
 4551SOL    HW225290   2.376   1.743   5.560  1.0456 -0.4334  1.3213
 4552SOL     OW25291   4.440   2.359  14.750  0.1440  0.0487  0.7555
 4552SOL    HW125292   4.460   2.405  14.669  0.8434  0.1923  1.0096
 4552SOL    HW225293   4.464   2.268  14.730 -0.4927 -0.0500  0.4067
 4553SOL     OW25294   4.352   1.251   5.755 -0.1527 -0.0449 -0.2292
 4553SOL    HW125295   4.266   1.260   5.797  0.6430  1.4497  1.0665
 4553SOL    HW225296   4.339   1.320   5.689 -1.9920 -1.0835 -0.9501
 4554SOL     OW25297   0.703   0.929  13.800 -0.2973 -0.3188 -0.7389
 4554SOL    HW125298   0.663   0.849  13.767 -1.7122 -1.3549  3.4314
 4554SOL    HW225299   0.777   0.897  13.852 -0.4745 -0.1933 -0.4111
 4555SOL     OW25300   0.841   2.022   4.876  0.5658  0.4857  0.5589
 4555SOL    HW125301   0.915   2.055   4.927  2.4194 -2.3192 -0.3619
 4555SOL    HW225302   0.889   1.946   4.843  0.3976  0.3193  0.6981
 4556SOL     OW25303   4.134   1.383   5.887 -0.4729  0.0484  0.5590
 4556SOL    HW125304   4.077   1.398   5.963 -0.8754  0.5236  0.1592
 4556SOL    HW225305   4.191   1.453   5.919 -1.1086  0.2305  1.2814
 4557SOL     OW25306   4.474   4.192  11.333 -1.8102 -0.3876  0.3942
 4557SOL    HW125307   4.538   4.227  11.394 -0.2306  1.0876 -2.0786
 4557SOL    HW225308   4.457   4.103  11.363  0.4608 -0.2690  1.9843
 4558SOL     OW25309   1.605   2.082   2.424  0.4378 -0.4543  0.2727
 4558SOL    HW125310   1.666   2.104   2.495  1.7913 -0.5783 -0.8462
 4558SOL    HW225311   1.617   1.990   2.398 -0.4040 -0.1554 -1.1688
 4559SOL     OW25312   2.213   4.029   8.125  0.5844 -0.8198 -0.4529
 4559SOL    HW125313   2.301   3.991   8.128  1.2860  0.8925  0.9124
 4559SOL    HW225314   2.210   4.036   8.221 -1.1123  1.3655 -0.6628
 4560SOL     OW25315   3.628   3.267  10.498  0.4263  0.6427  0.5624
 4560SOL    HW125316   3.671   3.221  10.570  3.3574  1.8373 -0.3964
 4560SOL    HW225317   3.581   3.333  10.549  0.2040 -0.2865  1.5607
 4561SOL     OW25318   4.217   2.069   7.349 -0.5122 -0.4923 -0.3120
 4561SOL    HW125319   4.273   2.129   7.299  0.6696 -1.9990 -0.8096
 4561SOL    HW225320   4.242   2.095   7.438  1.6173  1.6741 -1.5666
 4562SOL     OW25321   0.740   0.901   7.707  0.8077 -0.5749  0.4086
 4562SOL    HW125322   0.730   0.816   7.664  1.7381 -0.8749  0.7995
 4562SOL    HW225323   0.709   0.882   7.795  0.7704  1.5225  0.8457
 4563SOL     OW25324   1.961   2.383   4.787 -1.1808  0.2454  0.1015
 4563SOL    HW125325   1.982   2.451   4.723  0.6804 -1.7351 -1.4172
 4563SOL    HW225326   2.012   2.413   4.863  0.0855  0.8176 -0.9791
 4564SOL     OW25327   2.357   2.309  16.874  0.1272 -0.6502 -0.1922
 4564SOL    HW125328   2.394   2.337  16.957 -0.0581 -0.5530 -0.1414
 4564SOL    HW225329   2.423   2.310  16.804 -0.2208 -0.7543 -0.5258
 4565SOL     OW25330   4.328   3.166   2.446 -0.5944 -0.0057 -0.4273
 4565SOL    HW125331   4.341   3.164   2.351 -1.0887 -1.0233 -0.4870
 4565SOL    HW225332   4.243   3.210   2.440 -0.4790  0.1389 -0.9970
 4566SOL     OW25333   3.757   3.416   7.764  0.1687  0.6435  0.2185
 4566SOL    HW125334   3.739   3.352   7.695  2.1910 -2.4053  2.5090
 4566SOL    HW225335   3.840   3.375   7.788 -0.3178 -1.3979 -1.5709
 4567SOL     OW25336   1.105   4.388   5.559 -0.3376  0.3649  0.0522
 4567SOL    HW125337   1.051   4.359   5.633 -0.0377  0.9426  0.5002
 4567SOL    HW225338   1.163   4.443   5.611 -0.3098  0.5634 -0.1901
 4568SOL     OW25339   4.380   2.062  17.443 -0.2771 -0.5305  0.0806
 4568SOL    HW125340   4.431   2.130  17.488 -2.4743  0.8344  0.4891
 4568SOL    HW225341   4.293   2.097  17.426 -0.2276  0.6017  2.1889
 4569SOL     OW25342   4.429   4.661   8.385  0.0942  0.0482  0.3550
 4569SOL    HW125343   4.339   4.656   8.352  0.5691  0.3909 -0.9768
 4569SOL    HW225344   4.470   4.586   8.343 -1.1645 -1.3297  1.5864
 4570SOL     OW25345   0.777   2.723   4.539 -0.6671 -0.4871  0.4552
 4570SOL    HW125346   0.873   2.725   4.545 -0.6614 -0.3659  0.3148
 4570SOL    HW225347   0.755   2.812   4.512 -1.2423 -0.7501  0.0563
 4571SOL     OW25348   3.838   2.763   2.709  0.2529  0.4622 -0.3141
 4571SOL    HW125349   3.765   2.729   2.658 -1.4862  1.2054  1.6394
 4571SOL    HW225350   3.893   2.685   2.709  0.3603  0.5285  0.7852
 4572SOL     OW25351   1.054   2.014   3.699 -0.4231  0.0851  0.5117
 4572SOL    HW125352   1.058   2.036   3.606  1.8443  0.0457  0.5986
 4572SOL    HW225353   0.960   1.999   3.712 -0.2533 -0.3415  1.2359
 4573SOL     OW25354   2.638   0.125   0.951  0.0872 -0.2640  0.3027
 4573SOL    HW125355   2.595   0.040   0.961 -2.0539  1.4332  5.7095
 4573SOL    HW225356   2.569   0.187   0.973 -0.3982  0.2117 -2.5617
 4574SOL     OW25357   3.751   3.667   1.516  0.6869  0.2996  0.0349
 4574SOL    HW125358   3.716   3.610   1.584  1.8406 -0.9671 -0.4271
 4574SOL    HW225359   3.678   3.696   1.461  0.2215 -0.9908 -0.0193
 4575SOL     OW25360   4.633   2.787   3.000  0.5638  0.1976  0.1431
 4575SOL    HW125361   4.557   2.817   3.049  0.1656 -0.3281 -0.1480
 4575SOL    HW225362   4.645   2.867   2.949 -2.0360  1.6766  1.8420
 4576SOL     OW25363   0.013   2.650   9.117  0.0868  0.5284 -0.3160
 4576SOL    HW125364   4.691   2.678   9.184 -1.1966 -2.2540 -0.3510
 4576SOL    HW225365   0.017   2.727   9.061 -1.3600  1.8650  1.4285
 4577SOL     OW25366   0.280   3.197   4.642  0.2961 -0.4878  0.3327
 4577SOL    HW125367   0.313   3.206   4.731  0.0132 -0.4576  0.4311
 4577SOL    HW225368   0.199   3.241   4.665  1.3021  1.4661  0.0901
 4578SOL     OW25369   2.573   4.290   1.020  0.6400  0.3331 -0.3323
 4578SOL    HW125370   2.530   4.210   0.991  0.6389  0.5207 -0.8574
 4578SOL    HW225371   2.651   4.243   1.049 -0.9407 -1.5880  0.7954
 4579SOL     OW25372   1.609   3.658   8.741  0.8372  0.2272  0.1490
 4579SOL    HW125373   1.532   3.681   8.794 -0.4344  1.3221 -2.2070
 4579SOL    HW225374   1.637   3.576   8.783 -1.2860 -0.6724 -0.1440
 4580SOL     OW25375   4.118   0.558   4.381  0.6669 -0.7529 -1.0436
 4580SOL    HW125376   4.171   0.504   4.322  2.0216 -1.0211  0.4211
 4580SOL    HW225377   4.185   0.600   4.434 -2.6886  0.3809  2.3100
 4581SOL     OW25378   0.701   0.325   2.273 -0.4113 -0.1751 -0.3094
 4581SOL    HW125379   0.642   0.316   2.347 -1.2026  0.9315 -0.8000
 4581SOL    HW225380   0.785   0.302   2.313 -0.8178 -0.5428  0.3384
 4582SOL     OW25381   0.434   3.054   8.049 -0.4481 -0.2435 -0.1487
 4582SOL    HW125382   0.433   3.134   8.102 -2.1643 -1.0074  0.9687
 4582SOL    HW225383   0.525   3.059   8.020 -0.3870 -0.7105 -0.0343
 4583SOL     OW25384   2.572   4.620  10.741  0.6934 -0.0760 -0.8117
 4583SOL    HW125385   2.651   4.652  10.786 -1.4373  0.2314  2.7195
 4583SOL    HW225386   2.527   4.700  10.714  0.6879 -0.2117 -1.2086
 4584SOL     OW25387   1.271   2.757   8.111 -0.1101  0.1073  0.9133
 4584SOL    HW125388   1.217   2.804   8.048 -2.5056 -3.2117  0.4797
 4584SOL    HW225389   1.242   2.808   8.187  0.0674  0.3795  0.7980
 4585SOL     OW25390   2.146   2.373   3.397  0.8610 -0.4427 -0.2613
 4585SOL    HW125391   2.187   2.458   3.381 -0.8137  0.5039  0.5491
 4585SOL    HW225392   2.135   2.375   3.492  1.0701 -0.9689 -0.2221
 4586SOL     OW25393   4.709   0.222  15.538 -0.5123 -0.0929  0.1096
 4586SOL    HW125394   0.052   0.174  15.532 -0.0824  0.3910  2.1032
 4586SOL    HW225395   4.705   0.225  15.634  0.4690 -0.4516  0.1659
 4587SOL     OW25396   2.571   4.053   0.742  0.2265  0.0663 -0.1348
 4587SOL    HW125397   2.577   4.136   0.696 -0.0721  0.4631  0.5340
 4587SOL    HW225398   2.545   3.992   0.673  1.2973 -1.4259  0.7922
 4588SOL     OW25399   0.518   3.555  17.231  0.0064  0.5701  0.1128
 4588SOL    HW125400   0.610   3.574  17.248  1.0587 -1.4302 -3.2607
 4588SOL    HW225401   0.521   3.513  17.145 -2.0327 -1.5102  1.0406
 4589SOL     OW25402   0.768   2.056   7.206 -0.0754 -0.3344  0.7964
 4589SOL    HW125403   0.712   2.126   7.239 -3.8958 -2.4503 -1.2742
 4589SOL    HW225404   0.745   2.057   7.113  0.6342  3.2257  0.6455
 4590SOL     OW25405   1.388   0.799  17.365  0.1023  0.0864  0.2510
 4590SOL    HW125406   1.422   0.714  17.392  4.5433  2.0838  1.0461
 4590SOL    HW225407   1.294   0.785  17.366 -0.2900  3.0250  4.6502
 4591SOL     OW25408   1.268   0.579   2.776  0.3109  0.3158  0.4857
 4591SOL    HW125409   1.266   0.658   2.830  0.9659 -1.1254  2.6598
 4591SOL    HW225410   1.357   0.548   2.792 -0.2049 -2.0029 -1.1081
 4592SOL     OW25411   0.755   3.144  12.117 -0.0845  0.2454 -0.5517
 4592SOL    HW125412   0.723   3.225  12.158 -0.3686 -0.4216  0.5554
 4592SOL    HW225413   0.762   3.169  12.025 -1.1645 -1.2409 -1.0427
 4593SOL     OW25414   0.926   2.966   5.821  0.3893 -0.2788  0.0930
 4593SOL    HW125415   0.914   2.891   5.763  0.8671 -1.4677  1.5517
 4593SOL    HW225416   0.841   3.011   5.824 -0.3660 -1.7160  0.3124
 4594SOL     OW25417   3.728   2.584   9.074  0.2783  0.0654  0.1201
 4594SOL    HW125418   3.741   2.497   9.035 -0.8568 -0.1571  0.2281
 4594SOL    HW225419   3.674   2.549   9.145  0.7898 -0.2167  0.3635
 4595SOL     OW25420   3.834   4.465   7.459 -0.0623  0.1233  0.1382
 4595SOL    HW125421   3.826   4.370   7.464 -2.4773  0.3847  1.4064
 4595SOL    HW225422   3.758   4.494   7.510  0.7396  0.1257  1.3449
 4596SOL     OW25423   2.385   3.768  14.911 -0.3858  0.0403  0.6905
 4596SOL    HW125424   2.315   3.823  14.876 -0.2272 -0.8859 -1.0675
 4596SOL    HW225425   2.363   3.679  14.883  0.1053  0.6108 -1.5035
 4597SOL     OW25426   3.277   0.749   8.165 -0.3433 -0.2827 -0.2856
 4597SOL    HW125427   3.278   0.844   8.155 -1.9037 -0.2204  0.2364
 4597SOL    HW225428   3.319   0.743   8.251  2.3627 -1.1715 -1.6465
 4598SOL     OW25429   3.349   0.754   8.428  0.5221  0.7648 -0.2242
 4598SOL    HW125430   3.319   0.670   8.463 -1.8143  1.7470  0.1448
 4598SOL    HW225431   3.330   0.815   8.499 -2.3272 -1.0987  0.6166
 4599SOL     OW25432   1.100   4.671   8.266 -0.5716  0.0689  0.0530
 4599SOL    HW125433   1.180   4.656   8.316 -1.6793  0.3358  1.8806
 4599SOL    HW225434   1.139   4.652   8.180  1.6914  0.8151  0.9154
 4600SOL     OW25435   1.014   4.143   8.021  0.0046  0.3405  0.3539
 4600SOL    HW125436   1.057   4.096   8.093 -0.5629  0.6287  0.8787
 4600SOL    HW225437   1.035   4.083   7.950  1.6409 -1.0367  1.9814
 4601SOL     OW25438   3.278   3.222   7.683 -0.2375  0.8585  0.1139
 4601SOL    HW125439   3.373   3.230   7.672  0.1000 -1.2049  1.4590
 4601SOL    HW225440   3.270   3.239   7.777 -0.7053  0.9085  0.0637
 4602SOL     OW25441   3.850   0.638   2.617 -0.3266 -0.5181  0.1505
 4602SOL    HW125442   3.854   0.643   2.713 -2.9548  0.5625  0.1952
 4602SOL    HW225443   3.810   0.724   2.604  0.0788 -0.6654 -2.0151
 4603SOL     OW25444   4.201   4.578   7.273 -0.0200  0.4526 -0.0434
 4603SOL    HW125445   4.109   4.587   7.248 -0.6549 -1.0825  1.7989
 4603SOL    HW225446   4.198   4.653   7.333  4.5782  1.2493 -0.8024
 4604SOL     OW25447   0.259   0.285   8.871 -0.3084  0.1682  0.5019
 4604SOL    HW125448   0.278   0.364   8.820 -0.0873  1.6562  2.8713
 4604SOL    HW225449   0.340   0.236   8.884  0.5874  1.4981 -0.1301
 4605SOL     OW25450   2.928   1.661  10.456 -0.3051 -0.1931  0.1827
 4605SOL    HW125451   2.838   1.679  10.484 -0.0357 -1.5992  1.9030
 4605SOL    HW225452   2.935   1.703  10.370  0.3829 -1.3051 -0.2984
 4606SOL     OW25453   4.364   0.318   5.597 -0.1910  0.5051  0.3615
 4606SOL    HW125454   4.410   0.307   5.513  0.4142  0.1808  0.7411
 4606SOL    HW225455   4.367   0.228   5.630 -3.0609 -0.3091 -1.5377
 4607SOL     OW25456   1.395   2.039   4.784  0.0416 -0.0585 -0.0134
 4607SOL    HW125457   1.327   2.106   4.790  0.6501  0.3843  2.0368
 4607SOL    HW225458   1.352   1.979   4.724 -1.5011  0.3781  0.6574
 4608SOL     OW25459   0.155   1.440  15.284  0.1340 -0.3772 -0.1579
 4608SOL    HW125460   0.107   1.523  15.283 -0.3136 -0.6250  1.1253
 4608SOL    HW225461   0.156   1.417  15.191  0.1134 -1.2382  0.0536
 4609SOL     OW25462   2.826   1.305  10.186 -0.0058 -0.2894 -0.5668
 4609SOL    HW125463   2.738   1.292  10.220  0.6389 -1.3172  0.6915
 4609SOL    HW225464   2.871   1.297  10.270  0.8280  1.8775 -0.8062
 4610SOL     OW25465   4.721   1.433   6.357  0.7779  0.2249  0.0717
 4610SOL    HW125466   4.714   1.341   6.333 -1.4670 -0.1158  2.0473
 4610SOL    HW225467   0.041   1.463   6.289 -0.8614 -0.5857 -1.7402
 4611SOL     OW25468   4.297   3.207   1.419 -0.1575 -1.1683 -0.4800
 4611SOL    HW125469   4.356   3.266   1.372 -0.3075 -1.2605 -0.7861
 4611SOL    HW225470   4.351   3.128   1.423  1.1110 -0.2184  1.1042
 4612SOL     OW25471   2.506   4.298  15.299  0.5602  0.3143  0.1530
 4612SOL    HW125472   2.499   4.204  15.281  1.6400  0.0072  1.4248
 4612SOL    HW225473   2.556   4.335  15.227  1.3802  3.1443  2.2056
 4613SOL     OW25474   4.559   2.190  13.108  0.0708  0.1370 -0.3405
 4613SOL    HW125475   4.548   2.275  13.150 -0.5557  0.7980 -1.8414
 4613SOL    HW225476   4.481   2.185  13.053 -0.0173  1.1181 -0.3127
 4614SOL     OW25477   1.829   3.839   5.975  0.2955 -0.8390 -0.1074
 4614SOL    HW125478   1.750   3.788   5.994  0.5173 -0.7433  1.0872
 4614SOL    HW225479   1.886   3.807   6.046 -0.8576 -0.5708  0.9405
 4615SOL     OW25480   3.208   0.745   7.298 -0.3021  0.0169  0.3035
 4615SOL    HW125481   3.301   0.770   7.299 -0.2618 -0.0873 -0.6881
 4615SOL    HW225482   3.190   0.800   7.374  0.3292 -0.3268  0.7061
 4616SOL     OW25483   1.447   2.149  11.811  0.3514 -0.2781  0.3831
 4616SOL    HW125484   1.405   2.230  11.837  1.0307 -0.3082  1.5886
 4616SOL    HW225485   1.413   2.084  11.873 -0.1739 -1.3001 -0.9732
 4617SOL     OW25486   1.717   0.952   5.287 -0.4344 -0.7801  0.2568
 4617SOL    HW125487   1.802   0.912   5.304 -0.0373  0.0424  0.2239
 4617SOL    HW225488   1.670   0.884   5.239 -2.8023  1.2167 -0.2499
 4618SOL     OW25489   3.078   1.383  14.182 -0.8612 -0.2208  0.3605
 4618SOL    HW125490   3.070   1.376  14.087  0.1279  2.9906  0.0504
 4618SOL    HW225491   3.061   1.475  14.202  3.3689  0.7499 -0.6147
 4619SOL     OW25492   0.944   1.349   7.613 -0.0798 -0.3686  0.3560
 4619SOL    HW125493   0.875   1.391   7.561 -0.5540  0.2015  1.4396
 4619SOL    HW225494   0.905   1.266   7.641 -0.2158 -0.4206  0.0095
 4620SOL     OW25495   1.832   1.449   1.970 -0.1795  0.5351  0.2650
 4620SOL    HW125496   1.810   1.355   1.977  2.2546 -0.2602 -3.1172
 4620SOL    HW225497   1.804   1.476   1.883  4.1876 -3.7252 -2.4954
 4621SOL     OW25498   4.199   0.982   8.366  0.3918 -0.5628  0.8624
 4621SOL    HW125499   4.246   0.898   8.363 -0.1235 -0.7170 -2.9857
 4621SOL    HW225500   4.117   0.963   8.412  0.1033  0.3909  0.7265
 4622SOL     OW25501   1.310   3.335   9.762  0.6709  0.1343 -0.1304
 4622SOL    HW125502   1.372   3.279   9.810  0.5227  1.3133  1.4450
 4622SOL    HW225503   1.345   3.317   9.675  2.0268  0.2279  0.3827
 4623SOL     OW25504   0.137   1.075   4.503 -0.5665 -0.2229 -0.0651
 4623SOL    HW125505   0.191   1.148   4.532  1.2325 -1.3023 -0.6891
 4623SOL    HW225506   0.200   1.013   4.466  2.6401  2.1906  1.3243
 4624SOL     OW25507   2.782   2.610  12.543  0.0338 -0.3289  0.1214
 4624SOL    HW125508   2.772   2.575  12.631  0.0240 -3.2588 -1.0177
 4624SOL    HW225509   2.693   2.606  12.508  0.7255  0.2391 -1.6906
 4625SOL     OW25510   3.688   1.698   5.977  0.1753  0.0500  0.5496
 4625SOL    HW125511   3.711   1.766   6.040 -1.3725 -0.0456  1.2158
 4625SOL    HW225512   3.767   1.670   5.930 -0.1778  0.1048 -0.0758
 4626SOL     OW25513   3.495   3.589   2.857 -0.3098 -0.1979 -0.6364
 4626SOL    HW125514   3.504   3.675   2.818  2.4079  1.2810  3.2478
 4626SOL    HW225515   3.585   3.560   2.871  0.5043  2.1555 -1.0676
 4627SOL     OW25516   4.136   1.935   2.421 -0.2553 -0.4166  0.2365
 4627SOL    HW125517   4.102   2.021   2.395 -1.2055 -0.5165  1.1339
 4627SOL    HW225518   4.080   1.913   2.495 -1.2907  0.8903 -0.1503
 4628SOL     OW25519   3.669   2.863  11.119 -0.8484  0.1455  0.5958
 4628SOL    HW125520   3.645   2.771  11.112  2.1667 -0.5958 -0.2033
 4628SOL    HW225521   3.588   2.909  11.097 -1.1261 -1.2719 -1.3457
 4629SOL     OW25522   2.720   1.848   8.934 -0.0499 -0.5992 -0.2541
 4629SOL    HW125523   2.754   1.816   9.018  0.1038 -0.2202 -0.1726
 4629SOL    HW225524   2.693   1.766   8.892  0.7647 -0.2096 -1.5093
 4630SOL     OW25525   0.082   0.727   3.777 -0.2386 -0.5797 -0.0037
 4630SOL    HW125526   0.125   0.807   3.806 -2.2361 -0.8103  3.7121
 4630SOL    HW225527   0.107   0.662   3.843  3.3625  0.6698 -0.1683
 4631SOL     OW25528   0.412   3.921  17.570  0.1188 -0.5763  0.1722
 4631SOL    HW125529   0.375   3.991  17.517  0.1243 -0.1819  0.6940
 4631SOL    HW225530   0.491   3.965  17.601 -0.0332 -1.1811  1.4333
 4632SOL     OW25531   0.085   4.231  16.915 -0.7601 -0.5332  0.1368
 4632SOL    HW125532   4.733   4.249  16.933 -1.1957 -1.7760 -0.8509
 4632SOL    HW225533   0.132   4.259  16.993  1.6270 -1.5386 -0.9339
 4633SOL     OW25534   1.286   2.600   5.386 -0.1229 -0.1828  0.5012
 4633SOL    HW125535   1.215   2.633   5.441  1.1783 -0.2640  2.2335
 4633SOL    HW225536   1.356   2.609   5.451  1.0308 -1.4655 -0.5574
 4634SOL     OW25537   3.608   0.553   6.887  0.4523  0.2849 -0.1927
 4634SOL    HW125538   3.580   0.564   6.796 -1.1699 -1.9188  0.0409
 4634SOL    HW225539   3.671   0.624   6.902 -0.3720  0.8612  0.5408
 4635SOL     OW25540   3.359   2.558  16.401 -0.3560  0.7150  0.4438
 4635SOL    HW125541   3.342   2.651  16.385  2.3667  1.0117 -0.7336
 4635SOL    HW225542   3.297   2.515  16.342  2.0426 -2.5018  0.2659
 4636SOL     OW25543   3.535   0.591  14.811 -0.4381  0.4326  0.0844
 4636SOL    HW125544   3.624   0.626  14.813  0.5937 -2.1744  0.7535
 4636SOL    HW225545   3.492   0.662  14.764  1.5074  1.0588 -0.7466
 4637SOL     OW25546   3.187   3.397   3.247  0.7145  0.3349  0.4144
 4637SOL    HW125547   3.133   3.367   3.175  1.3924 -0.3535  0.1883
 4637SOL    HW225548   3.249   3.453   3.200  0.2316 -0.8384 -1.6046
 4638SOL     OW25549   4.687   2.790  16.119  0.0821 -0.8899  0.4489
 4638SOL    HW125550   4.714   2.881  16.133  0.6615 -0.4552 -3.4618
 4638SOL    HW225551   4.600   2.790  16.159  0.9105  3.2202  2.2442
 4639SOL     OW25552   3.694   3.293   9.109  0.2896  0.7722 -0.1863
 4639SOL    HW125553   3.665   3.203   9.120  1.0925  0.5332  0.0272
 4639SOL    HW225554   3.789   3.282   9.118  0.4863  1.9723 -0.6879
 4640SOL     OW25555   1.168   3.201   8.521  0.0944 -0.5321 -0.3862
 4640SOL    HW125556   1.229   3.228   8.590  0.1113 -1.0203 -0.2101
 4640SOL    HW225557   1.123   3.124   8.555 -0.7684 -0.8430 -2.2376
 4641SOL     OW25558   1.759   1.468   0.645 -0.8729  0.4787  0.4202
 4641SOL    HW125559   1.758   1.520   0.565 -0.2448 -2.5210 -1.5216
 4641SOL    HW225560   1.677   1.420   0.638 -0.5660 -0.0779  0.6268
 4642SOL     OW25561   4.462   1.112  13.743 -0.3612  0.3241 -0.2976
 4642SOL    HW125562   4.536   1.138  13.798  0.0319 -1.7083  0.1158
 4642SOL    HW225563   4.494   1.028  13.712 -1.5652 -0.3469  0.2464
 4643SOL     OW25564   1.863   2.464  10.731 -0.3022 -0.3444  0.6632
 4643SOL    HW125565   1.812   2.398  10.777 -4.1353  1.4894 -0.9780
 4643SOL    HW225566   1.917   2.493  10.805 -0.4229  0.1714  0.5451
 4644SOL     OW25567   2.290   1.132  14.257  0.3223 -0.1110 -0.5014
 4644SOL    HW125568   2.328   1.045  14.260  1.5804  0.4967  1.5054
 4644SOL    HW225569   2.365   1.179  14.220  0.4325  1.1992  1.3392
 4645SOL     OW25570   2.302   0.451   1.963  0.2095 -0.0643  0.2163
 4645SOL    HW125571   2.303   0.509   1.887  1.1191  1.1978  1.2020
 4645SOL    HW225572   2.219   0.404   1.954  1.2614 -1.2530 -3.4084
 4646SOL     OW25573   4.675   3.214   7.594  0.2622 -0.7182 -0.0279
 4646SOL    HW125574   0.023   3.240   7.619 -0.0766 -2.8193  3.2743
 4646SOL    HW225575   4.622   3.287   7.627  0.7971 -0.4935  0.3224
 4647SOL     OW25576   3.080   2.957  16.013  0.1830 -0.5944 -0.6871
 4647SOL    HW125577   3.148   2.960  16.080 -0.3155 -0.4396 -0.1802
 4647SOL    HW225578   3.004   2.994  16.058  1.7518  0.7776  0.8272
 4648SOL     OW25579   0.804   1.371   7.919  0.0400 -0.1212  0.6475
 4648SOL    HW125580   0.807   1.445   7.980 -0.0033  2.5332 -2.5620
 4648SOL    HW225581   0.740   1.403   7.855 -0.8998 -2.5850  0.3728
 4649SOL     OW25582   3.309   3.971   7.918  0.2159 -0.3385 -0.0060
 4649SOL    HW125583   3.295   4.034   7.989 -0.2134 -0.9174  0.4249
 4649SOL    HW225584   3.344   3.893   7.962 -0.8773 -1.2976 -0.8261
 4650SOL     OW25585   2.806   0.051   3.774 -0.6988  0.1433  0.2240
 4650SOL    HW125586   2.753   0.083   3.847  0.1885 -1.3289  1.5229
 4650SOL    HW225587   2.817   4.698   3.792  0.4466  0.0618 -0.9001
 4651SOL     OW25588   1.364   1.129   1.582  0.2752 -0.2393 -0.3437
 4651SOL    HW125589   1.274   1.159   1.572 -0.4974 -1.5937  2.6467
 4651SOL    HW225590   1.346   1.050   1.632 -2.9939  1.3795  1.0645
 4652SOL     OW25591   1.180   2.359   8.550  0.2299  0.4179 -0.2016
 4652SOL    HW125592   1.179   2.455   8.544 -1.3243  0.3709 -0.5298
 4652SOL    HW225593   1.174   2.349   8.645  1.0733  3.1828  0.1493
 4653SOL     OW25594   1.973   3.227   3.756  0.3039  0.3306 -0.0766
 4653SOL    HW125595   1.896   3.187   3.797  0.5128  4.0666  3.9628
 4653SOL    HW225596   1.953   3.321   3.758  1.9277  0.6591  0.9350
 4654SOL     OW25597   0.974   2.282   6.740  0.1579  0.0997 -0.1991
 4654SOL    HW125598   0.952   2.190   6.756  0.4207  0.1802  0.6255
 4654SOL    HW225599   0.904   2.316   6.796  0.5610  2.7894 -1.3357
 4655SOL     OW25600   3.050   1.877   7.039  0.5489  0.3550  0.1208
 4655SOL    HW125601   3.106   1.800   7.037  0.9846  0.6847 -0.1707
 4655SOL    HW225602   3.117   1.946   7.039  1.3600 -0.4389 -2.5262
 4656SOL     OW25603   4.260   2.428  17.691  0.5229  0.1013  0.2937
 4656SOL    HW125604   4.298   2.357  17.640  1.6390  0.2529  0.9106
 4656SOL    HW225605   4.170   2.435  17.661 -0.6428 -2.3598  3.1480
 4657SOL     OW25606   2.207   3.724   3.873 -0.3377 -0.0784  0.7720
 4657SOL    HW125607   2.167   3.654   3.924  1.3989 -1.2621  0.5551
 4657SOL    HW225608   2.290   3.744   3.916 -1.2104  2.1887  1.3805
 4658SOL     OW25609   3.297   2.895  13.440  0.3363  0.1047 -0.3993
 4658SOL    HW125610   3.266   2.821  13.388 -0.4726 -0.0800  0.3449
 4658SOL    HW225611   3.389   2.903  13.417  0.3906  0.0441 -0.2005
 4659SOL     OW25612   2.773   1.469   5.629  0.1858  0.0002  0.2604
 4659SOL    HW125613   2.739   1.420   5.704  0.6165 -0.2258  0.3116
 4659SOL    HW225614   2.803   1.390   5.584 -1.0551 -0.3441  0.0523
 4660SOL     OW25615   0.142   2.193   5.799  0.2427  0.1839 -0.3544
 4660SOL    HW125616   0.084   2.116   5.794  1.5514 -0.8566  0.4863
 4660SOL    HW225617   0.092   2.244   5.735 -0.3266  0.3990  0.2583
 4661SOL     OW25618   3.678   1.378   3.586  0.1247 -0.0903  0.2179
 4661SOL    HW125619   3.773   1.375   3.593  0.0883 -1.1662  0.3146
 4661SOL    HW225620   3.656   1.470   3.576 -0.7390 -0.3433 -0.2463
 4662SOL     OW25621   4.424   1.399   0.207 -0.3500  0.0987  0.0928
 4662SOL    HW125622   4.517   1.404   0.185 -0.3160  0.5580  0.3387
 4662SOL    HW225623   4.393   1.316   0.169  2.1248 -0.5650 -0.4503
 4663SOL     OW25624   1.856   1.001  16.802  0.2584 -0.1670  0.8216
 4663SOL    HW125625   1.875   0.908  16.789 -3.3005 -0.4561 -2.4178
 4663SOL    HW225626   1.789   0.999  16.870 -1.2565 -0.1033 -0.6537
 4664SOL     OW25627   4.635   3.492   8.873  0.2500  0.0736 -0.1164
 4664SOL    HW125628   4.731   3.495   8.872  0.2655 -0.2087  0.4830
 4664SOL    HW225629   4.616   3.535   8.956 -0.0790  1.2276 -0.7982
 4665SOL     OW25630   0.123   2.604  15.375 -0.0512  0.8644 -0.9965
 4665SOL    HW125631   0.051   2.628  15.434  0.1077  0.1265 -0.5032
 4665SOL    HW225632   0.177   2.553  15.435 -3.7214 -2.5698 -0.5776
 4666SOL     OW25633   0.817   0.292   4.471  0.0538 -0.6611 -0.0672
 4666SOL    HW125634   0.813   0.246   4.555 -0.2754 -0.5775 -0.0373
 4666SOL    HW225635   0.732   0.269   4.434 -0.2673  2.2010 -1.0872
 4667SOL     OW25636   0.626   4.477  15.122  0.3083 -0.0978 -0.2853
 4667SOL    HW125637   0.573   4.489  15.043  1.5001 -0.7784 -1.1821
 4667SOL    HW225638   0.623   4.565  15.159  2.3165  0.0117 -0.3514
 4668SOL     OW25639   2.198   0.407   1.268  0.1607 -0.1282 -0.4174
 4668SOL    HW125640   2.132   0.470   1.239  1.1140  1.4245  0.7719
 4668SOL    HW225641   2.155   0.322   1.277 -1.7116  0.6545 -1.9566
 4669SOL     OW25642   1.348   3.712  15.350 -0.4203  0.2784 -0.0318
 4669SOL    HW125643   1.365   3.782  15.413  0.7890  0.3684 -0.4646
 4669SOL    HW225644   1.267   3.752  15.317  1.4028  2.7479 -1.5267
 4670SOL     OW25645   2.929   3.177   3.821 -0.0670 -0.1536 -0.1336
 4670SOL    HW125646   2.850   3.137   3.786 -0.7587  0.9159  0.2100
 4670SOL    HW225647   2.992   3.107   3.843  1.8372  1.8014  0.6392
 4671SOL     OW25648   1.585   2.573  11.450 -0.0606 -0.7647 -0.1556
 4671SOL    HW125649   1.537   2.654  11.432 -1.4946 -1.3402  1.0781
 4671SOL    HW225650   1.519   2.523  11.498  0.9118  0.4099  2.3983
 4672SOL     OW25651   1.091   2.605  10.838 -0.0578  0.3330  0.4330
 4672SOL    HW125652   1.185   2.603  10.818 -0.2680  0.2273 -0.5000
 4672SOL    HW225653   1.103   2.620  10.932 -0.6812  2.5152  0.1628
 4673SOL     OW25654   2.628   2.587   6.731  0.2632  0.3156 -0.2894
 4673SOL    HW125655   2.703   2.544   6.690 -1.3006 -0.7011 -2.0933
 4673SOL    HW225656   2.644   2.677   6.704  0.1716  0.3589 -0.2016
 4674SOL     OW25657   1.766   0.795   8.578  0.6549 -0.3456  0.2871
 4674SOL    HW125658   1.701   0.854   8.540  0.8592 -1.7772 -2.2964
 4674SOL    HW225659   1.721   0.711   8.575  2.0024 -1.0370 -0.5492
 4675SOL     OW25660   1.042   3.609   7.035  0.2020 -0.2126 -0.3097
 4675SOL    HW125661   1.105   3.664   6.990  0.8032 -0.4699  0.2212
 4675SOL    HW225662   1.080   3.586   7.120  0.0487 -1.7333 -0.6511
 4676SOL     OW25663   4.199   3.549   7.669 -0.1214 -0.0689  0.2181
 4676SOL    HW125664   4.179   3.462   7.702  0.0690 -0.2035 -0.0179
 4676SOL    HW225665   4.178   3.534   7.577  0.8346 -0.2254  0.0193
 4677SOL     OW25666   2.294   0.440   7.883  0.3152  0.4992 -0.5111
 4677SOL    HW125667   2.355   0.368   7.899 -0.6515 -0.1726  0.1930
 4677SOL    HW225668   2.353   0.510   7.856  1.0163 -0.5929 -1.8040
 4678SOL     OW25669   3.572   1.762   7.061 -0.4403 -0.2339 -0.1604
 4678SOL    HW125670   3.555   1.674   7.027 -1.0869  0.1749 -0.9013
 4678SOL    HW225671   3.645   1.747   7.120 -0.4181 -0.4998 -0.2552
 4679SOL     OW25672   2.126   3.145   3.489 -0.0975  0.2240  0.1994
 4679SOL    HW125673   2.190   3.109   3.427 -1.3307 -1.1855 -0.2280
 4679SOL    HW225674   2.131   3.086   3.564 -2.1029  0.7356  0.7316
 4680SOL     OW25675   4.382   1.567   8.584  0.3819 -0.0564 -0.4958
 4680SOL    HW125676   4.417   1.598   8.667 -0.9807  0.3120 -0.0611
 4680SOL    HW225677   4.305   1.522   8.618  0.7849  0.6302  1.2959
 4681SOL     OW25678   2.231   2.538   2.456  0.5567 -0.3592 -0.4886
 4681SOL    HW125679   2.273   2.616   2.421 -0.0373 -0.6530 -1.8678
 4681SOL    HW225680   2.305   2.514   2.512  1.6894  1.8462 -1.0579
 4682SOL     OW25681   3.662   1.880   7.868 -0.0352  0.2899 -0.1652
 4682SOL    HW125682   3.582   1.841   7.833 -1.3109 -0.3895  3.4659
 4682SOL    HW225683   3.688   1.933   7.792  0.6729 -0.7177 -0.6163
 4683SOL     OW25684   3.942   1.790   6.533 -0.0124 -0.1225 -0.3483
 4683SOL    HW125685   3.975   1.880   6.530 -1.4943  0.3865 -1.3538
 4683SOL    HW225686   3.847   1.807   6.530 -0.1081 -0.7801 -0.8967
 4684SOL     OW25687   3.462   2.492   5.547 -0.8453 -0.6565  0.1282
 4684SOL    HW125688   3.482   2.453   5.462 -3.7548  1.2115 -1.4324
 4684SOL    HW225689   3.547   2.530   5.570 -2.0593  2.2447 -0.1683
 4685SOL     OW25690   0.460   3.373   1.816  0.3027 -0.3796  0.2778
 4685SOL    HW125691   0.506   3.454   1.839  1.3710  0.2012 -3.9503
 4685SOL    HW225692   0.512   3.300   1.850  1.5335  0.0068 -0.7912
 4686SOL     OW25693   4.345   0.932   7.990 -0.0190 -0.3298  0.2893
 4686SOL    HW125694   4.363   0.993   7.918  0.7226  0.0461  0.8024
 4686SOL    HW225695   4.294   0.983   8.052  1.0437  0.7047  0.3091
 4687SOL     OW25696   1.541   1.301   2.498  0.4404  0.2713 -0.0140
 4687SOL    HW125697   1.569   1.295   2.407  1.2947 -2.0884  0.3993
 4687SOL    HW225698   1.447   1.281   2.487  0.3939  1.2527 -1.3984
 4688SOL     OW25699   1.624   0.500   3.269  0.0929  1.1689 -0.0217
 4688SOL    HW125700   1.709   0.539   3.288  0.3471 -0.3841  2.1048
 4688SOL    HW225701   1.605   0.456   3.353 -2.0401  3.3602  0.6480
 4689SOL     OW25702   2.088   2.855  11.981  0.0312  0.5477 -0.1312
 4689SOL    HW125703   2.048   2.942  11.974 -0.9039 -0.0393 -1.9995
 4689SOL    HW225704   2.179   2.880  11.992  0.9527 -2.0238 -2.1038
 4690SOL     OW25705   1.101   1.623   3.933  0.1877  0.0823  0.2488
 4690SOL    HW125706   1.164   1.696   3.925  0.3786 -0.1258 -0.1653
 4690SOL    HW225707   1.112   1.591   3.844  0.5766 -0.8860  0.6473
 4691SOL     OW25708   2.641   3.956   7.704  0.2359 -0.3318  0.0729
 4691SOL    HW125709   2.722   3.914   7.675 -0.3336 -1.5046  0.1546
 4691SOL    HW225710   2.686   4.030   7.746  2.1934 -1.0605 -0.7503
 4692SOL     OW25711   0.773   1.371   2.406 -0.6645  0.3674 -0.4978
 4692SOL    HW125712   0.799   1.288   2.366 -1.0819  0.2266 -0.4846
 4692SOL    HW225713   0.683   1.373   2.372 -0.1128 -2.7595 -2.1695
 4693SOL     OW25714   1.892   0.551   0.769 -0.0458 -0.1814 -0.4760
 4693SOL    HW125715   1.895   0.574   0.676 -0.6149  0.1203 -0.4187
 4693SOL    HW225716   1.797   0.558   0.775  0.1562  1.4576  0.8773
 4694SOL     OW25717   0.765   2.582  12.875 -0.1681 -0.4486  0.3291
 4694SOL    HW125718   0.826   2.652  12.853  0.2682  0.1251  3.3128
 4694SOL    HW225719   0.786   2.514  12.811  1.7476  0.0560  0.4421
 4695SOL     OW25720   3.720   4.736   1.264  0.2240  0.0246 -0.2350
 4695SOL    HW125721   3.642   4.685   1.241 -0.8332  0.0068  3.4293
 4695SOL    HW225722   3.768   4.735   1.181  0.0656  0.5592 -0.3331
 4696SOL     OW25723   4.178   3.771   3.506 -0.1777 -0.2751  0.0378
 4696SOL    HW125724   4.230   3.850   3.491 -1.1677  0.2262 -0.8458
 4696SOL    HW225725   4.251   3.711   3.516 -1.2990 -1.6239  0.0913
 4697SOL     OW25726   1.457   2.352  15.210  0.5777  0.1080 -0.0030
 4697SOL    HW125727   1.412   2.431  15.181  1.2243  0.6763  0.5479
 4697SOL    HW225728   1.546   2.367  15.178  0.4281  2.2634  0.6082
 4698SOL     OW25729   2.708   3.193  17.351  0.0776  0.3204  0.2706
 4698SOL    HW125730   2.776   3.171  17.287  0.1514  2.4616 -0.3916
 4698SOL    HW225731   2.754   3.179  17.433  0.0733  2.0490  0.5674
 4699SOL     OW25732   0.742   2.714   7.667  0.0662  0.2896  0.1101
 4699SOL    HW125733   0.700   2.729   7.583  1.6695  2.1972 -0.3558
 4699SOL    HW225734   0.717   2.784   7.728 -1.5296  1.0329 -1.3951
 4700SOL     OW25735   2.603   3.812   5.079 -0.1714  0.3368 -0.3497
 4700SOL    HW125736   2.521   3.857   5.057 -0.2259 -0.1810 -1.1783
 4700SOL    HW225737   2.645   3.882   5.129  2.0985  0.0741 -1.9153
 4701SOL     OW25738   1.873   1.218   3.820  0.2064 -0.1253 -0.2214
 4701SOL    HW125739   1.813   1.154   3.781  2.2112 -1.5873 -0.9139
 4701SOL    HW225740   1.898   1.169   3.898  0.5232  0.5248  0.0756
 4702SOL     OW25741   0.396   2.627   6.337 -0.0468  0.6345  0.1497
 4702SOL    HW125742   0.351   2.701   6.296  0.9530  1.8923  1.3088
 4702SOL    HW225743   0.326   2.562   6.336  2.1257 -1.7022  0.1680
 4703SOL     OW25744   0.261   3.447   1.138 -0.2045 -0.1669 -0.4576
 4703SOL    HW125745   0.272   3.472   1.230 -0.9100 -0.3811 -0.3166
 4703SOL    HW225746   0.344   3.470   1.096  0.3562 -1.4711 -0.0392
 4704SOL     OW25747   3.587   0.573   3.241 -0.3021  0.2559 -0.9226
 4704SOL    HW125748   3.529   0.594   3.314 -1.3328 -2.6725 -0.9181
 4704SOL    HW225749   3.637   0.517   3.299  0.0651 -0.8202 -2.2813
 4705SOL     OW25750   3.765   3.723   2.737  0.3722 -0.3356 -0.0311
 4705SOL    HW125751   3.753   3.629   2.728 -1.1250 -0.2047  0.6165
 4705SOL    HW225752   3.842   3.738   2.681 -0.3615  1.4077 -0.5934
 4706SOL     OW25753   4.585   3.374   2.998 -0.6225  0.3139  0.0047
 4706SOL    HW125754   4.663   3.399   2.949 -0.4050 -0.2042  0.0895
 4706SOL    HW225755   4.531   3.336   2.928  1.9938  1.1482 -2.5027
 4707SOL     OW25756   4.368   1.341   9.347 -0.2393 -0.2306  0.0207
 4707SOL    HW125757   4.423   1.341   9.425  1.5970 -0.6835 -1.2650
 4707SOL    HW225758   4.297   1.286   9.379 -0.9688  0.8243  0.1979
 4708SOL     OW25759   3.410   0.995   2.828 -0.2762 -0.0575 -0.3615
 4708SOL    HW125760   3.395   0.958   2.915 -0.1826 -0.5128 -0.5354
 4708SOL    HW225761   3.463   0.934   2.776 -1.1897 -0.7383 -0.4880
 4709SOL     OW25762   2.810   3.668  13.554 -0.0877 -0.0432 -0.3397
 4709SOL    HW125763   2.905   3.657  13.546  0.0841  1.0284  0.3375
 4709SOL    HW225764   2.774   3.579  13.550  0.9403 -0.4345 -1.0834
 4710SOL     OW25765   0.146   3.627   1.348 -0.0418 -0.4004 -0.2494
 4710SOL    HW125766   0.240   3.637   1.367 -0.4304  0.8072  1.0921
 4710SOL    HW225767   0.122   3.593   1.435  1.1355 -0.7512 -0.0571
 4711SOL     OW25768   2.975   0.963   2.175  0.8388  0.2701  0.0269
 4711SOL    HW125769   2.957   0.897   2.109 -1.4373 -0.2017  1.1198
 4711SOL    HW225770   2.990   1.038   2.118 -0.5792  0.5117 -0.0189
 4712SOL     OW25771   3.799   4.350   6.633 -0.4181 -0.3248 -0.3577
 4712SOL    HW125772   3.774   4.434   6.671 -0.1686 -0.8014  0.8511
 4712SOL    HW225773   3.727   4.343   6.570  0.2827  0.4176 -1.2290
 4713SOL     OW25774   0.217   0.503   3.894 -0.3015 -0.4165  0.4038
 4713SOL    HW125775   0.223   0.408   3.887 -3.4928 -0.5295 -0.9037
 4713SOL    HW225776   0.172   0.521   3.977 -2.3098 -0.1458 -0.7330
 4714SOL     OW25777   1.204   1.853   3.841 -0.1762  0.0451  0.0698
 4714SOL    HW125778   1.274   1.819   3.785  0.3342  0.4431  0.4696
 4714SOL    HW225779   1.159   1.911   3.780  1.1481 -0.3462 -1.2873
 4715SOL     OW25780   3.333   2.310   4.240 -0.5020 -0.2089  0.3119
 4715SOL    HW125781   3.367   2.230   4.201 -1.3221 -1.0049  1.2134
 4715SOL    HW225782   3.254   2.316   4.186 -1.0212  1.5533  1.2747
 4716SOL     OW25783   0.806   1.114   2.309 -0.0625 -0.4955  0.1420
 4716SOL    HW125784   0.718   1.077   2.306 -0.1362 -0.2762 -0.4667
 4716SOL    HW225785   0.842   1.076   2.389  0.6693 -1.6047 -0.7282
 4717SOL     OW25786   2.509   4.624  15.353 -0.1373 -0.1698  0.5052
 4717SOL    HW125787   2.571   4.680  15.307  0.6508 -0.2610  1.4425
 4717SOL    HW225788   2.475   4.691  15.412  1.7287 -0.8421  2.3403
 4718SOL     OW25789   2.120   2.439   7.207 -0.3605 -0.1688  0.1650
 4718SOL    HW125790   2.026   2.455   7.216 -0.3353 -0.5394  1.0658
 4718SOL    HW225791   2.146   2.484   7.127 -2.5853 -0.9926 -1.0144
 4719SOL     OW25792   0.010   1.981  17.221 -0.2302  0.5821 -0.0317
 4719SOL    HW125793   0.104   1.973  17.202 -0.3384  0.1401 -0.3872
 4719SOL    HW225794   4.736   2.076  17.220 -0.0112  0.6119 -1.2984
 4720SOL     OW25795   3.875   3.171  11.598  0.0661  0.5267 -0.1835
 4720SOL    HW125796   3.811   3.201  11.663 -1.3280 -2.0682 -0.3571
 4720SOL    HW225797   3.920   3.253  11.578  2.3249 -0.4652  0.8973
 4721SOL     OW25798   1.479   2.347   3.343  0.4471  0.1747  0.0803
 4721SOL    HW125799   1.528   2.423   3.376 -0.0739 -0.1033  1.5027
 4721SOL    HW225800   1.500   2.283   3.411 -1.0698  1.0899  1.4342
 4722SOL     OW25801   4.000   2.532  11.436  0.6317  0.1133 -0.0243
 4722SOL    HW125802   3.964   2.605  11.486  2.1140  1.9040 -1.5541
 4722SOL    HW225803   4.087   2.529  11.477  0.6302  1.4036  0.0768
 4723SOL     OW25804   4.025   4.539  10.708 -0.1700  0.3125  0.2923
 4723SOL    HW125805   4.087   4.466  10.696 -0.7601  0.4360 -3.5313
 4723SOL    HW225806   3.941   4.500  10.729  0.6419 -0.9387  1.2640
 4724SOL     OW25807   3.522   3.847   2.751 -0.3684 -0.1494 -0.3076
 4724SOL    HW125808   3.612   3.813   2.751 -0.9652 -1.6847 -0.1110
 4724SOL    HW225809   3.539   3.930   2.796  0.7072 -1.2136  1.2373
 4725SOL     OW25810   3.046   1.687   0.372 -0.0060  0.7248 -0.6659
 4725SOL    HW125811   3.073   1.636   0.296  0.7831 -0.5895  0.5062
 4725SOL    HW225812   3.104   1.646   0.436  0.3119 -0.6578 -1.8294
 4726SOL     OW25813   4.498   3.837  12.633 -0.1421 -0.3613  0.1689
 4726SOL    HW125814   4.567   3.891  12.671 -0.5786 -0.4760  1.1254
 4726SOL    HW225815   4.483   3.754  12.679  0.1815 -1.3177 -1.4425
 4727SOL     OW25816   2.699   2.345  13.016 -0.4396  0.4308 -0.7265
 4727SOL    HW125817   2.639   2.300  13.075 -0.7757  1.3856 -0.3425
 4727SOL    HW225818   2.666   2.311  12.933 -1.2784  0.3530 -0.3546
 4728SOL     OW25819   2.179   0.602   9.172  0.1863 -0.1737  0.0904
 4728SOL    HW125820   2.196   0.689   9.136 -0.6454 -0.6024 -1.3267
 4728SOL    HW225821   2.085   0.616   9.185  0.6608 -0.0034  3.3599
 4729SOL     OW25822   1.819   2.835  13.439 -0.0025 -0.2211 -0.2164
 4729SOL    HW125823   1.834   2.772  13.368 -1.4276 -0.7795 -0.0052
 4729SOL    HW225824   1.765   2.899  13.392  0.6128  0.8717  0.5717
 4730SOL     OW25825   0.189   3.387   1.834  0.7575  0.1000 -0.1393
 4730SOL    HW125826   0.283   3.400   1.819  0.8338  1.6528  1.7326
 4730SOL    HW225827   0.186   3.400   1.928 -0.1629  2.5663 -0.5146
 4731SOL     OW25828   0.590   0.181  12.005  0.1809  0.1277  0.0982
 4731SOL    HW125829   0.603   0.246  11.935 -0.0418 -1.3338 -1.2807
 4731SOL    HW225830   0.524   0.225  12.059  0.6382  1.0192 -0.0541
 4732SOL     OW25831   0.142   2.663   2.248  0.8936 -0.0050  0.1419
 4732SOL    HW125832   0.049   2.657   2.227  1.0437 -2.2162  0.1633
 4732SOL    HW225833   0.180   2.664   2.160 -0.1525 -1.6422 -0.3369
 4733SOL     OW25834   3.928   2.743   9.084 -0.3094 -0.3364  0.3016
 4733SOL    HW125835   3.862   2.684   9.048 -0.6373  0.7660 -0.9302
 4733SOL    HW225836   3.938   2.710   9.173  2.8350 -1.7943 -0.5886
 4734SOL     OW25837   2.537   2.000  11.386 -0.4352 -0.3022  0.4946
 4734SOL    HW125838   2.588   1.973  11.461  1.2008  0.3447 -0.3877
 4734SOL    HW225839   2.466   2.040  11.436  0.3734  2.2004 -0.3678
 4735SOL     OW25840   3.329   0.320   3.271 -0.4844  0.3028  0.0042
 4735SOL    HW125841   3.343   0.344   3.363  0.5714 -0.5269  0.0659
 4735SOL    HW225842   3.245   0.365   3.264 -1.1545 -1.1167 -0.9432
 4736SOL     OW25843   3.967   4.197   2.951  0.3162  0.2434 -0.2775
 4736SOL    HW125844   3.955   4.291   2.936 -1.4884  0.2151  0.9866
 4736SOL    HW225845   4.046   4.212   3.003  0.2302  1.5168 -0.5082
 4737SOL     OW25846   4.250   0.085   7.398  1.2377 -0.3242 -0.2305
 4737SOL    HW125847   4.236   0.130   7.315  0.5782 -0.0191  0.0508
 4737SOL    HW225848   4.327   0.131   7.432 -0.3323  1.9088  0.3132
 4738SOL     OW25849   0.820   1.467   5.514  0.0559  0.1035  0.4162
 4738SOL    HW125850   0.728   1.491   5.525 -0.1596  0.3491 -1.9365
 4738SOL    HW225851   0.846   1.524   5.442 -0.2043  2.9861  2.6131
 4739SOL     OW25852   2.250   2.299   7.587  0.2570  0.3159  0.0105
 4739SOL    HW125853   2.262   2.373   7.527 -1.3683  0.0000 -0.6962
 4739SOL    HW225854   2.158   2.276   7.574  0.1608  0.5085  0.3790
 4740SOL     OW25855   4.452   4.337   3.023  0.1519  0.2326  0.1251
 4740SOL    HW125856   4.406   4.287   2.956  1.7179  0.3955 -1.0806
 4740SOL    HW225857   4.509   4.382   2.961  1.3865  0.2130  1.2316
 4741SOL     OW25858   0.918   4.055   5.689  0.2244  0.2115  0.7812
 4741SOL    HW125859   0.919   3.960   5.706 -1.3335 -0.0811 -0.7568
 4741SOL    HW225860   0.825   4.065   5.672  0.2017  2.6757  2.3450
 4742SOL     OW25861   4.144   1.155  12.007 -0.1702 -0.5174  0.5451
 4742SOL    HW125862   4.204   1.131  12.078  1.1226 -0.9359 -0.6847
 4742SOL    HW225863   4.065   1.121  12.049  0.8383 -2.8464  0.5712
 4743SOL     OW25864   1.541   1.321  13.011  0.5768  0.4309  0.2007
 4743SOL    HW125865   1.540   1.335  12.916 -0.4509  0.2211  0.1801
 4743SOL    HW225866   1.493   1.402  13.029 -0.2285 -0.2660  1.1499
 4744SOL     OW25867   2.207   3.328   6.933  0.6926 -0.0801  0.6197
 4744SOL    HW125868   2.245   3.266   6.870  4.2746  2.9501 -0.2581
 4744SOL    HW225869   2.205   3.409   6.881  0.0053  0.7584  1.9717
 4745SOL     OW25870   3.524   4.012  10.141  0.4305  0.1728 -0.1533
 4745SOL    HW125871   3.602   3.958  10.127  0.0093 -0.2620 -0.8682
 4745SOL    HW225872   3.564   4.088  10.184 -0.3601 -0.0920  1.0446
 4746SOL     OW25873   3.301   2.390   4.514  0.0473 -0.6979 -0.3247
 4746SOL    HW125874   3.276   2.482   4.502  1.9338 -0.3121 -1.2761
 4746SOL    HW225875   3.276   2.354   4.429  1.7685 -0.5275 -0.9156
 4747SOL     OW25876   4.203   0.020  13.593  0.0954 -0.1356 -0.2058
 4747SOL    HW125877   4.280   0.004  13.648  1.4574 -1.2265 -2.4082
 4747SOL    HW225878   4.167   0.104  13.619  1.4248  0.3889 -0.0437
 4748SOL     OW25879   3.503   1.699  11.853  0.7585 -0.5955 -0.4979
 4748SOL    HW125880   3.512   1.759  11.778 -0.4514 -1.0657 -1.0277
 4748SOL    HW225881   3.417   1.662  11.834  0.6424 -1.5376  1.9611
 4749SOL     OW25882   1.121   0.726   3.434 -0.2844  0.3904  0.1568
 4749SOL    HW125883   1.146   0.803   3.485  1.3319 -1.6910  2.5345
 4749SOL    HW225884   1.076   0.668   3.497  0.8380 -0.5464  0.0958
 4750SOL     OW25885   1.678   2.964   2.543 -0.4999  0.3259  0.0805
 4750SOL    HW125886   1.625   2.884   2.545 -0.6988  0.4944  1.5030
 4750SOL    HW225887   1.633   2.989   2.624 -0.3386  1.5051 -0.1998
 4751SOL     OW25888   2.418   3.003   4.037  0.4313  0.2088  0.3238
 4751SOL    HW125889   2.341   3.059   4.041 -1.7380 -2.7784  0.2559
 4751SOL    HW225890   2.486   3.065   4.067  0.1851  0.4396  0.4044
 4752SOL     OW25891   2.563   3.065  11.716 -0.4060  0.3868 -0.2870
 4752SOL    HW125892   2.518   3.142  11.682 -0.1703 -0.1561 -1.8492
 4752SOL    HW225893   2.484   3.010  11.721 -0.5606  0.4269 -2.3608
 4753SOL     OW25894   2.295   2.334   2.665  0.3141  0.4605 -0.6213
 4753SOL    HW125895   2.212   2.352   2.710 -0.0947 -2.1215 -0.3372
 4753SOL    HW225896   2.265   2.283   2.590 -0.4793  1.5006 -1.0204
 4754SOL     OW25897   3.181   2.915   9.713 -0.0778  0.0382 -0.1481
 4754SOL    HW125898   3.141   2.882   9.633 -0.1254 -1.1444  0.3735
 4754SOL    HW225899   3.120   2.988   9.725 -0.6116 -0.6050  0.9338
 4755SOL     OW25900   1.464   1.271   8.923 -0.5095  0.3136  0.2955
 4755SOL    HW125901   1.401   1.281   8.851 -1.1372  0.1063  0.8159
 4755SOL    HW225902   1.491   1.187   8.886 -0.9602  0.3798 -0.2010
 4756SOL     OW25903   1.248   1.623   0.819  0.5576 -0.6084  0.5168
 4756SOL    HW125904   1.185   1.694   0.834 -0.4905 -1.7424  1.5290
 4756SOL    HW225905   1.320   1.645   0.877  0.5671  1.7019 -0.3920
 4757SOL     OW25906   3.073   0.679   3.391  0.0332  0.3968 -0.3763
 4757SOL    HW125907   2.978   0.680   3.400  0.2735  0.3902  2.2823
 4757SOL    HW225908   3.098   0.629   3.469  1.0725 -0.0246 -0.9768
 4758SOL     OW25909   1.829   3.659  11.799  0.0464 -0.4868 -0.0178
 4758SOL    HW125910   1.857   3.750  11.808  0.8199 -1.0238  3.0902
 4758SOL    HW225911   1.820   3.628  11.890 -1.3353  1.6396  0.5770
 4759SOL     OW25912   0.038   2.295   2.783  0.2955  0.2236 -0.0714
 4759SOL    HW125913   0.015   2.203   2.776 -1.8185  0.7693 -0.1540
 4759SOL    HW225914   4.691   2.333   2.789  0.3027  0.6958 -2.7013
 4760SOL     OW25915   0.020   1.209   5.114  0.0064 -0.3148 -0.5183
 4760SOL    HW125916   0.059   1.122   5.109  1.5221  0.3179  0.2791
 4760SOL    HW225917   0.093   1.271   5.111  0.3892 -0.6976  0.7547
 4761SOL     OW25918   3.970   1.535   0.351  0.3933  0.0524 -0.3945
 4761SOL    HW125919   3.989   1.581   0.269 -1.6839  0.4842 -0.6307
 4761SOL    HW225920   3.989   1.446   0.321 -0.1034  0.9216 -3.2684
 4762SOL     OW25921   4.656   1.493   3.682  0.1029  0.0408 -0.3152
 4762SOL    HW125922   4.617   1.551   3.617  2.7928  1.0321 -1.0678
 4762SOL    HW225923   4.646   1.548   3.760  3.0062  0.0261  0.0780
 4763SOL     OW25924   1.788   2.210  13.099 -0.2750 -0.0840 -0.2329
 4763SOL    HW125925   1.822   2.271  13.165 -0.7557  0.0973 -0.1535
 4763SOL    HW225926   1.855   2.229  13.033 -0.8593  0.4186 -0.6940
 4764SOL     OW25927   1.550   4.201   4.125 -0.0395  0.0122 -0.7205
 4764SOL    HW125928   1.601   4.131   4.083  1.5498  1.3064 -0.9433
 4764SOL    HW225929   1.615   4.263   4.157 -0.4610  0.4413 -0.6994
 4765SOL     OW25930   0.859   4.442   9.192  0.1444  0.0769  0.6391
 4765SOL    HW125931   0.765   4.429   9.182  0.0970  0.4186  0.6310
 4765SOL    HW225932   0.858   4.464   9.286 -0.2535  0.8655  0.4517
 4766SOL     OW25933   2.373   1.278   1.261  0.2021 -0.3567  0.0393
 4766SOL    HW125934   2.284   1.267   1.226  0.1023  2.5084 -0.6632
 4766SOL    HW225935   2.351   1.309   1.349  0.5707  2.1953 -0.7539
 4767SOL     OW25936   3.658   0.844  14.887  0.1312 -0.1816 -0.2775
 4767SOL    HW125937   3.564   0.836  14.870  0.4226 -1.4134 -1.2986
 4767SOL    HW225938   3.671   0.816  14.978 -1.6834 -0.5505 -0.1242
 4768SOL     OW25939   3.987   2.189   2.343 -0.4244 -0.2723  0.2147
 4768SOL    HW125940   4.055   2.256   2.330  1.6077 -2.1133  1.3984
 4768SOL    HW225941   3.914   2.250   2.338  1.4020  1.9729  0.9990
 4769SOL     OW25942   4.370   2.503   4.233 -0.4111 -0.1081  0.4760
 4769SOL    HW125943   4.340   2.441   4.166  2.8675 -0.4598 -0.6743
 4769SOL    HW225944   4.343   2.590   4.205 -2.0016 -0.3516  1.2357
 4770SOL     OW25945   4.515   0.180  16.559  0.1228 -0.3482  0.2396
 4770SOL    HW125946   4.435   0.134  16.531  0.5930 -0.9533 -0.1001
 4770SOL    HW225947   4.555   0.106  16.604 -0.2754  0.1646  1.4390
 4771SOL     OW25948   3.290   2.623  16.077  0.2853 -0.2588 -0.1510
 4771SOL    HW125949   3.270   2.547  16.131 -0.3106  0.8937  1.2666
 4771SOL    HW225950   3.244   2.605  15.995  1.0532 -1.6413 -0.2698
 4772SOL     OW25951   4.583   1.770   8.236  0.4189 -0.0870 -0.4950
 4772SOL    HW125952   4.620   1.761   8.148 -2.5531  0.7451 -1.8330
 4772SOL    HW225953   4.632   1.712   8.295  0.4426  1.1273  0.6733
 4773SOL     OW25954   3.858   2.951   7.201 -0.1343 -0.3010  0.5141
 4773SOL    HW125955   3.825   3.040   7.215  0.0089  0.0917 -1.6825
 4773SOL    HW225956   3.948   2.983   7.187 -0.6416  0.4981 -0.8887
 4774SOL     OW25957   0.335   4.302   2.206  0.3618 -0.7685 -0.3238
 4774SOL    HW125958   0.421   4.265   2.183  1.3595  1.6790 -0.5562
 4774SOL    HW225959   0.367   4.390   2.225  2.6023 -1.3409 -1.4790
 4775SOL     OW25960   0.509   2.449   7.149  0.5929 -0.1355 -0.6097
 4775SOL    HW125961   0.524   2.357   7.173  0.3490  0.0784  0.3418
 4775SOL    HW225962   0.579   2.485   7.203  0.0007  0.2281 -0.0884
 4776SOL     OW25963   1.498   0.560   6.984 -0.1770 -0.2654 -0.1342
 4776SOL    HW125964   1.429   0.493   6.980 -3.6404  3.2794 -0.6152
 4776SOL    HW225965   1.519   0.555   7.077 -0.2597 -1.6466 -0.1897
 4777SOL     OW25966   2.831   4.642   5.764  0.0366  0.7340  0.0997
 4777SOL    HW125967   2.820   4.590   5.685 -0.8873  0.8457  0.1534
 4777SOL    HW225968   2.817   4.732   5.733  0.1050  1.5387  2.3726
 4778SOL     OW25969   4.257   0.270   4.259  0.5762 -0.3907 -0.4438
 4778SOL    HW125970   4.311   0.197   4.228  1.0401  0.5974 -1.9829
 4778SOL    HW225971   4.170   0.249   4.224  0.3123 -1.4380  0.8571
 4779SOL     OW25972   2.160   0.627   4.248 -0.5292 -1.1186 -0.3869
 4779SOL    HW125973   2.239   0.605   4.296  0.3002 -0.7361 -1.5765
 4779SOL    HW225974   2.102   0.631   4.324  0.6173 -0.4459  0.4429
 4780SOL     OW25975   2.808   2.164   8.237  0.1570 -0.5638  0.2106
 4780SOL    HW125976   2.845   2.103   8.300  0.8998  0.2772  0.5899
 4780SOL    HW225977   2.728   2.115   8.218 -0.3754  0.4660 -0.1866
 4781SOL     OW25978   0.961   1.882  14.775 -0.0168 -0.3802  0.0615
 4781SOL    HW125979   1.036   1.825  14.790  2.3966  2.6637 -0.3578
 4781SOL    HW225980   0.904   1.828  14.720  1.3779 -0.8879 -0.8717
 4782SOL     OW25981   4.364   2.490   5.154  0.4954 -0.3928 -0.4797
 4782SOL    HW125982   4.448   2.536   5.162  0.0034  0.2882  0.9248
 4782SOL    HW225983   4.338   2.482   5.062 -1.6165 -0.1032  0.0866
 4783SOL     OW25984   0.504   4.041   9.090  0.1508 -0.3381 -0.3531
 4783SOL    HW125985   0.517   4.021   9.182 -2.2491 -0.8723 -0.1252
 4783SOL    HW225986   0.463   4.126   9.106 -1.1103 -1.0106 -0.0124
 4784SOL     OW25987   1.425   0.473   5.166  0.2429 -0.8151 -0.0707
 4784SOL    HW125988   1.354   0.536   5.183 -0.7116 -2.2418  1.1820
 4784SOL    HW225989   1.413   0.459   5.072 -1.7682 -0.2302  0.1076
 4785SOL     OW25990   3.380   1.396   5.611  0.1285 -0.1544  0.4014
 4785SOL    HW125991   3.396   1.454   5.685  1.1804  0.3416 -0.2163
 4785SOL    HW225992   3.461   1.415   5.563 -0.0063 -0.3010  0.1159
 4786SOL     OW25993   1.332   3.168   3.193 -0.0744 -0.1335  0.1251
 4786SOL    HW125994   1.422   3.164   3.227  0.6655  1.4626 -1.6381
 4786SOL    HW225995   1.304   3.257   3.216 -1.1084 -0.0924 -1.3317
 4787SOL     OW25996   2.334   4.238  11.831  0.0011 -0.5079 -0.0887
 4787SOL    HW125997   2.285   4.300  11.885 -0.7596  0.1625 -1.5440
 4787SOL    HW225998   2.327   4.282  11.747  0.4401 -2.5067 -1.1644
 4788SOL     OW25999   2.402   3.515   5.762 -0.4148  0.0527  0.0336
 4788SOL    HW126000   2.460   3.459   5.712  1.5711  2.8776 -0.8216
 4788SOL    HW226001   2.314   3.491   5.733  0.3226 -0.2159 -1.9308
 4789SOL     OW26002   2.304   1.220   2.231  0.5080 -0.7359 -0.1169
 4789SOL    HW126003   2.240   1.222   2.160  0.6374  2.0623 -0.1627
 4789SOL    HW226004   2.334   1.311   2.234 -0.9882 -0.2711  0.4389
 4790SOL     OW26005   0.579   3.811  11.155  0.7279 -0.6432  0.0395
 4790SOL    HW126006   0.532   3.771  11.083 -0.3339  0.2073  0.2691
 4790SOL    HW226007   0.528   3.786  11.232  1.0383  0.7392  0.6936
 4791SOL     OW26008   4.385   2.638   1.133  0.0160 -0.3844  0.1461
 4791SOL    HW126009   4.332   2.595   1.066 -1.7017  1.6003  0.2550
 4791SOL    HW226010   4.332   2.622   1.210  1.0692  0.6499  1.0828
 4792SOL     OW26011   3.422   3.697   2.390  0.3700 -0.2745  1.6696
 4792SOL    HW126012   3.402   3.732   2.477 -0.9072  0.7577  0.9668
 4792SOL    HW226013   3.337   3.720   2.351  0.2305 -0.9806  1.5720
 4793SOL     OW26014   1.439   0.266  15.954 -0.6988  0.1212 -0.3460
 4793SOL    HW126015   1.358   0.317  15.952 -1.9217 -1.7899  1.1370
 4793SOL    HW226016   1.425   0.199  16.021 -0.4157  1.2531  0.8486
 4794SOL     OW26017   2.462   0.175   5.279  0.4720  0.0068  0.4840
 4794SOL    HW126018   2.396   0.244   5.274  0.2956 -0.1076  1.3152
 4794SOL    HW226019   2.407   0.106   5.244 -1.4874  2.1526 -0.6883
 4795SOL     OW26020   2.291   3.158   5.534  0.5245 -0.3075  0.1713
 4795SOL    HW126021   2.328   3.214   5.465  1.7826  0.0806  1.1639
 4795SOL    HW226022   2.223   3.109   5.487 -0.1636  2.5624 -1.8576
 4796SOL     OW26023   3.358   4.306   2.044  0.4250 -0.2372  0.0974
 4796SOL    HW126024   3.418   4.259   1.986  0.7291  1.5403 -1.0189
 4796SOL    HW226025   3.421   4.360   2.091  0.7973  0.6202 -1.4148
 4797SOL     OW26026   0.627   1.524   8.288 -0.3971  0.7286  0.2056
 4797SOL    HW126027   0.653   1.615   8.300 -0.3701  0.3157  3.2791
 4797SOL    HW226028   0.604   1.509   8.196  0.9566  0.3399 -0.0646
 4798SOL     OW26029   1.857   2.739  11.623  0.1418 -0.3607 -0.3066
 4798SOL    HW126030   1.876   2.662  11.676 -1.2777  1.5276  2.9789
 4798SOL    HW226031   1.778   2.762  11.672  0.7441  0.5757  0.2326
 4799SOL     OW26032   0.208   2.289   3.822  0.5716  0.2820  0.1748
 4799SOL    HW126033   0.158   2.345   3.762 -1.1447 -0.3996  0.9817
 4799SOL    HW226034   0.279   2.347   3.851  1.0581  0.3597 -1.1660
 4800SOL     OW26035   3.187   2.384   8.771  0.0943 -0.6968  0.5041
 4800SOL    HW126036   3.202   2.315   8.707  2.1313  0.6538 -0.4824
 4800SOL    HW226037   3.115   2.432   8.730  1.2025  0.3171 -0.2546
 4801SOL     OW26038   0.475   0.714   7.864  0.1304 -0.3188  0.2193
 4801SOL    HW126039   0.450   0.683   7.777  1.3306  0.2295 -0.3187
 4801SOL    HW226040   0.394   0.714   7.914  0.3749 -0.1039  0.6154
 4802SOL     OW26041   1.225   0.499   6.964 -0.0796 -0.4196 -0.2174
 4802SOL    HW126042   1.210   0.593   6.958 -1.1282 -0.6918 -1.7081
 4802SOL    HW226043   1.138   0.465   6.943 -0.7527  1.2753 -0.1832
 4803SOL     OW26044   1.278   3.971  15.502  0.3976  0.2016  0.3065
 4803SOL    HW126045   1.329   4.045  15.470  0.6825 -0.3683 -0.5446
 4803SOL    HW226046   1.200   4.005  15.546  0.8033 -0.4922  1.5692
 4804SOL     OW26047   2.139   2.386   6.901 -0.4268 -0.2796  0.2241
 4804SOL    HW126048   2.234   2.398   6.906 -0.3323 -0.6443 -0.7052
 4804SOL    HW226049   2.116   2.327   6.973  1.7015  0.2212  1.3253
 4805SOL     OW26050   3.678   2.298   7.653  0.1254 -0.6972 -0.0735
 4805SOL    HW126051   3.740   2.264   7.718 -1.4509  0.6263  2.1502
 4805SOL    HW226052   3.630   2.368   7.698  2.3301 -0.5842  2.1147
 4806SOL     OW26053   1.151   3.939   7.271 -0.8969  0.0005  0.3576
 4806SOL    HW126054   1.184   3.853   7.295  1.5594  0.2601 -2.0806
 4806SOL    HW226055   1.241   3.965   7.249 -1.3679  0.0226 -1.5676
 4807SOL     OW26056   1.206   1.293   8.237  0.4947 -0.0362  0.0202
 4807SOL    HW126057   1.289   1.307   8.190  0.8807  2.5601  1.4473
 4807SOL    HW226058   1.161   1.371   8.205  0.7512 -1.0169 -2.7317
 4808SOL     OW26059   0.522   4.089   5.883 -0.1900 -0.8595  0.4649
 4808SOL    HW126060   0.439   4.052   5.854 -0.3027 -1.2205  1.2440
 4808SOL    HW226061   0.565   4.008   5.910 -0.2347 -0.2918  2.2656
 4809SOL     OW26062   2.088   4.466   8.878 -0.6957 -0.3260  0.7380
 4809SOL    HW126063   2.010   4.515   8.850  1.1834  2.0613 -0.2863
 4809SOL    HW226064   2.071   4.472   8.972 -0.2195 -0.4065  0.8298
 4810SOL     OW26065   0.709   1.460  10.411  0.3469 -0.4981 -0.0358
 4810SOL    HW126066   0.679   1.467  10.320 -2.8925 -0.9802  0.9960
 4810SOL    HW226067   0.706   1.551  10.440 -1.8529 -1.2356  1.9940
 4811SOL     OW26068   0.510   4.222   7.292 -0.0602 -0.2449 -0.4715
 4811SOL    HW126069   0.599   4.192   7.309  0.3121  0.0034 -1.9816
 4811SOL    HW226070   0.529   4.306   7.250 -2.3285 -1.6710 -4.3686
 4812SOL     OW26071   0.675   4.341   6.289 -0.0833  0.1779  0.0589
 4812SOL    HW126072   0.750   4.282   6.285 -0.3163 -0.0101 -1.5707
 4812SOL    HW226073   0.612   4.274   6.261  0.7530 -0.4944 -0.2040
 4813SOL     OW26074   4.234   3.688   1.692  0.3041  0.4597 -0.4593
 4813SOL    HW126075   4.282   3.769   1.712 -0.6811  0.5481  1.5371
 4813SOL    HW226076   4.303   3.623   1.704 -0.4522 -0.3288 -0.3423
 4814SOL     OW26077   1.634   2.786   7.814  0.2192 -0.5528 -0.0214
 4814SOL    HW126078   1.669   2.744   7.736  1.1854  0.3518 -0.0779
 4814SOL    HW226079   1.571   2.722   7.847 -0.1654  0.2214  0.7637
 4815SOL     OW26080   4.117   3.568  14.122 -0.0166  0.0529  0.4213
 4815SOL    HW126081   4.152   3.521  14.046 -0.8085 -1.0663  0.7477
 4815SOL    HW226082   4.094   3.506  14.191 -1.0878 -0.4930 -0.4341
 4816SOL     OW26083   0.532   3.347  12.684 -0.5175  0.2610 -0.1393
 4816SOL    HW126084   0.598   3.288  12.722 -0.3287 -0.1002 -1.0237
 4816SOL    HW226085   0.490   3.289  12.620  0.3610  0.0866 -0.5647
 4817SOL     OW26086   0.508   2.908   3.073  0.4784  0.4441  0.3610
 4817SOL    HW126087   0.519   2.970   3.001  2.0642  0.8597  0.9542
 4817SOL    HW226088   0.446   2.850   3.029  1.9099  0.1069 -1.2245
 4818SOL     OW26089   0.128   1.339  15.531  0.8262  0.0361 -0.1418
 4818SOL    HW126090   0.147   1.427  15.562  0.3035  0.1236 -0.0732
 4818SOL    HW226091   0.144   1.351  15.438  1.0078 -0.4132 -0.1715
 4819SOL     OW26092   4.580   1.054  14.363  0.2791  0.1108  0.4977
 4819SOL    HW126093   4.589   1.069  14.458  0.8009  0.8358  0.3348
 4819SOL    HW226094   4.493   1.021  14.341  0.8420 -1.6073  0.8558
 4820SOL     OW26095   2.095   3.219   4.686 -0.1665  0.2308  0.3757
 4820SOL    HW126096   2.147   3.147   4.650 -0.5566  0.7820 -1.2752
 4820SOL    HW226097   2.167   3.279   4.706  0.8330 -0.3396 -1.4868
 4821SOL     OW26098   0.011   2.719  10.077 -0.3781 -0.2808  0.0687
 4821SOL    HW126099   4.702   2.756  10.151  2.5166 -0.3513  2.0265
 4821SOL    HW226100   0.012   2.625  10.096  1.1881 -0.1793  0.5172
 4822SOL     OW26101   0.843   0.990   3.254 -0.0486  0.2429 -0.1730
 4822SOL    HW126102   0.862   1.044   3.178 -1.5618  1.1220  0.0877
 4822SOL    HW226103   0.856   0.902   3.218  1.5997  0.2150  0.5035
 4823SOL     OW26104   3.838   0.935  17.616 -1.2304 -0.4299  0.2611
 4823SOL    HW126105   3.895   0.942  17.540 -1.3596 -1.8876  0.0208
 4823SOL    HW226106   3.831   0.840  17.625 -0.9491 -0.6402 -1.8518
 4824SOL     OW26107   2.753   3.134   7.097 -0.0544  0.1180 -0.1387
 4824SOL    HW126108   2.770   3.229   7.096 -1.0078  0.2539 -1.9254
 4824SOL    HW226109   2.831   3.102   7.052 -1.7872 -0.7687 -2.4637
 4825SOL     OW26110   2.065   3.174   7.817 -0.1856  0.2367 -0.1808
 4825SOL    HW126111   2.089   3.195   7.907  2.4928 -0.0066 -0.8620
 4825SOL    HW226112   2.141   3.130   7.779  1.1491  1.2256  1.4068
 4826SOL     OW26113   3.584   2.875   4.447 -0.9727  0.1131  0.3909
 4826SOL    HW126114   3.656   2.812   4.438  1.3399  2.7496  0.6299
 4826SOL    HW226115   3.588   2.875   4.542  2.9508  1.5282  0.2418
 4827SOL     OW26116   1.221   4.701   5.001  0.5448 -0.2368  0.4735
 4827SOL    HW126117   1.154   4.693   5.069 -1.7700  2.7593 -1.4760
 4827SOL    HW226118   1.232   0.055   4.999 -1.1550 -0.0542  0.3928
 4828SOL     OW26119   0.694   0.260   8.233  0.3301  0.2869 -0.2424
 4828SOL    HW126120   0.673   0.354   8.231  1.9777  0.6842  1.2800
 4828SOL    HW226121   0.729   0.239   8.320 -0.0046  2.7897  0.5214
 4829SOL     OW26122   3.607   3.247   7.539 -0.2317  0.3863 -0.3113
 4829SOL    HW126123   3.609   3.207   7.626 -1.0202  0.8339 -0.0870
 4829SOL    HW226124   3.700   3.241   7.517 -1.0721 -4.1907 -2.6798
 4830SOL     OW26125   1.367   0.969   4.369  0.1349  0.3468  0.4261
 4830SOL    HW126126   1.375   1.063   4.385  1.2252 -0.0714  2.4228
 4830SOL    HW226127   1.287   0.973   4.316  0.2257  0.7946  0.3270
 4831SOL     OW26128   0.786   0.601  10.481 -0.3011 -0.0567 -0.3947
 4831SOL    HW126129   0.719   0.619  10.415 -0.5223  0.6793  0.0273
 4831SOL    HW226130   0.852   0.571  10.418  0.2397  0.8504 -0.2681
 4832SOL     OW26131   1.986   4.625   6.122  0.1652  0.4205  0.7816
 4832SOL    HW126132   1.917   4.690   6.137  2.3409  2.6635  0.9978
 4832SOL    HW226133   1.937   4.546   6.100  0.1572  0.9368 -1.0748
 4833SOL     OW26134   4.218   1.835   0.166  0.7080  0.0951 -0.6144
 4833SOL    HW126135   4.295   1.791   0.130  2.1198 -0.4838  3.1243
 4833SOL    HW226136   4.208   1.781   0.245  0.2566  1.9524  0.5918
 4834SOL     OW26137   4.692   3.883   8.180 -0.3000  0.5072  0.7948
 4834SOL    HW126138   4.642   3.803   8.164  2.5752 -1.5203  1.7605
 4834SOL    HW226139   4.625   3.950   8.172 -1.4077 -0.8636 -1.3298
 4835SOL     OW26140   1.139   1.796   6.173  0.4035 -0.4769  0.5122
 4835SOL    HW126141   1.170   1.861   6.110 -0.5905  0.9881  1.5380
 4835SOL    HW226142   1.149   1.847   6.253  1.3379 -0.8204  0.6186
 4836SOL     OW26143   0.450   3.059   2.242 -0.1950 -0.2724 -0.0702
 4836SOL    HW126144   0.400   3.072   2.161  1.5238 -1.4613 -1.3056
 4836SOL    HW226145   0.537   3.088   2.215  0.6055 -5.0156 -2.4740
 4837SOL     OW26146   2.501   1.514   3.813  0.4848 -0.3440 -0.0671
 4837SOL    HW126147   2.430   1.472   3.763  0.6110 -1.6433  0.8524
 4837SOL    HW226148   2.576   1.460   3.788 -0.0728 -0.6552 -1.0778
 4838SOL     OW26149   2.729   4.442   8.590  0.3069  0.0878 -0.0779
 4838SOL    HW126150   2.654   4.400   8.629  1.1391 -0.3718  1.0100
 4838SOL    HW226151   2.762   4.504   8.656  0.2559  1.8237 -1.6722
 4839SOL     OW26152   1.275   3.195   7.044  0.0012  0.0003 -0.0882
 4839SOL    HW126153   1.198   3.160   7.090 -0.3959  0.0240 -0.7391
 4839SOL    HW226154   1.281   3.135   6.970 -2.8790 -1.0480  0.5015
 4840SOL     OW26155   2.878   0.392   8.971  0.4785 -0.3988  0.1475
 4840SOL    HW126156   2.784   0.385   8.991  1.1151  0.1001  3.2477
 4840SOL    HW226157   2.915   0.434   9.049  3.1513 -1.0629 -0.7894
 4841SOL     OW26158   4.285   0.714   4.116 -0.1967 -0.1416 -0.3700
 4841SOL    HW126159   4.237   0.652   4.062 -1.1189 -0.2957  0.6143
 4841SOL    HW226160   4.210   0.759   4.156 -0.4109  1.2672 -2.3331
 4842SOL     OW26161   2.230   1.400   4.760  0.4159  0.3131  0.0762
 4842SOL    HW126162   2.316   1.359   4.774  0.2866 -1.2339 -3.7252
 4842SOL    HW226163   2.180   1.361   4.832  0.9903 -1.0834 -0.2804
 4843SOL     OW26164   3.933   0.884   8.452  0.2125  0.6980  0.1680
 4843SOL    HW126165   3.871   0.814   8.472 -0.6607  1.3175 -0.3774
 4843SOL    HW226166   3.911   0.955   8.512 -0.4414  0.4602  0.2080
 4844SOL     OW26167   2.167   4.230   4.068  0.8070  0.3185 -0.6512
 4844SOL    HW126168   2.081   4.193   4.085  0.1730  1.4003 -1.5128
 4844SOL    HW226169   2.230   4.159   4.055 -0.2281 -0.9527  1.3012
 4845SOL     OW26170   1.280   1.010  14.668  0.8415 -0.3243 -0.3105
 4845SOL    HW126171   1.209   0.952  14.695  0.2945 -0.1338 -1.3488
 4845SOL    HW226172   1.239   1.092  14.695  1.3127 -0.8382  2.0029
 4846SOL     OW26173   4.270   0.317   3.742  0.1432 -0.0159 -0.5311
 4846SOL    HW126174   4.331   0.365   3.686 -0.0329 -1.6320 -2.1200
 4846SOL    HW226175   4.323   0.238   3.742  2.1061  1.2599 -3.3784
 4847SOL     OW26176   2.496   0.849   3.245  0.0833 -0.0841  0.0993
 4847SOL    HW126177   2.467   0.758   3.250 -1.0941  0.2785 -0.0340
 4847SOL    HW226178   2.420   0.886   3.199  0.6200 -1.5819 -1.9998
 4848SOL     OW26179   2.508   0.189  10.314  0.3399 -0.1459 -0.3242
 4848SOL    HW126180   2.536   0.132  10.386 -1.6364 -1.4821 -0.5942
 4848SOL    HW226181   2.416   0.170  10.295 -0.6305  4.4434 -0.2601
 4849SOL     OW26182   0.835   0.941  16.703 -0.2689 -0.0866  1.1147
 4849SOL    HW126183   0.772   0.873  16.730 -0.4229 -0.2095  0.4360
 4849SOL    HW226184   0.846   0.921  16.610 -1.0017  0.7820  0.8399
 4850SOL     OW26185   0.045   0.874   7.850  0.5071  0.4667  0.5880
 4850SOL    HW126186   0.021   0.930   7.777  0.8782 -0.7262 -0.4456
 4850SOL    HW226187   4.708   0.822   7.872  0.8112  0.2916  1.2612
 4851SOL     OW26188   0.305   1.855  11.861  0.0813 -0.5249  0.2679
 4851SOL    HW126189   0.312   1.797  11.785  2.2714 -1.2919  1.0676
 4851SOL    HW226190   0.379   1.914  11.849 -2.2351  2.5388  1.2104
 4852SOL     OW26191   2.307   0.495   9.879  0.8945 -0.2256 -0.4472
 4852SOL    HW126192   2.261   0.456   9.804  1.3640 -0.1357 -0.7868
 4852SOL    HW226193   2.238   0.536   9.931 -0.0657 -1.0151 -1.1124
 4853SOL     OW26194   1.320   2.193   7.475 -0.0309 -0.5197 -0.6367
 4853SOL    HW126195   1.301   2.169   7.566  0.3153  0.4386 -0.3114
 4853SOL    HW226196   1.296   2.116   7.423 -0.8413 -1.1851  0.7188
 4854SOL     OW26197   2.534   2.051   2.944 -0.4029 -0.4674  1.0109
 4854SOL    HW126198   2.558   1.986   2.878  0.5470  0.5270  0.3697
 4854SOL    HW226199   2.449   2.074   2.906  0.1312  1.6680  1.1000
 4855SOL     OW26200   3.264   3.768  16.952 -0.1193  0.5483  0.5843
 4855SOL    HW126201   3.239   3.853  16.989 -2.8379 -0.4293  0.9264
 4855SOL    HW226202   3.193   3.750  16.890 -0.7063  0.9500  1.1371
 4856SOL     OW26203   0.067   4.175  13.795  0.3157 -0.0162  0.2888
 4856SOL    HW126204   4.728   4.220  13.824 -1.0764 -1.5706 -1.1532
 4856SOL    HW226205   0.088   4.229  13.720  0.5894 -0.8049 -0.2014
 4857SOL     OW26206   3.979   1.701  16.386 -0.2181  0.7778 -0.6407
 4857SOL    HW126207   3.973   1.606  16.377 -2.3023  0.7417  0.9125
 4857SOL    HW226208   3.887   1.721  16.406  0.3679  3.5625 -0.7501
 4858SOL     OW26209   0.948   4.347   3.380 -0.4441 -0.4222  0.0593
 4858SOL    HW126210   0.869   4.381   3.423 -0.9501 -0.9231 -0.4794
 4858SOL    HW226211   0.987   4.431   3.357  0.9559 -0.8661  0.7692
 4859SOL     OW26212   1.628   2.991  10.676  0.4211 -0.3730  0.5918
 4859SOL    HW126213   1.663   2.902  10.681 -3.6998 -1.9713  1.2169
 4859SOL    HW226214   1.643   3.020  10.766 -1.6212  1.7156  0.2566
 4860SOL     OW26215   2.488   3.808   3.839  0.4871 -0.0515 -0.3551
 4860SOL    HW126216   2.540   3.885   3.818  0.0930 -0.0945 -1.4482
 4860SOL    HW226217   2.477   3.800   3.934  1.1970  0.0312 -0.2699
 4861SOL     OW26218   0.473   3.120   8.949 -0.5562  0.1029  0.6849
 4861SOL    HW126219   0.399   3.091   9.003 -0.2559  0.3118  1.2077
 4861SOL    HW226220   0.427   3.174   8.885 -0.5138 -1.5572 -0.7469
 4862SOL     OW26221   1.569   4.322   3.306 -0.0428 -0.3880 -0.1062
 4862SOL    HW126222   1.592   4.314   3.213 -1.3540 -0.7846 -0.3969
 4862SOL    HW226223   1.650   4.360   3.339 -1.0040  2.0573 -0.5099
 4863SOL     OW26224   0.055   0.534   6.172  0.2933 -0.2492 -0.4557
 4863SOL    HW126225   0.053   0.596   6.098  1.2066 -2.1242 -2.0474
 4863SOL    HW226226   0.092   0.596   6.235  2.2208 -2.7363  0.8150
 4864SOL     OW26227   2.350   3.859   4.505 -0.1942 -0.4667 -0.3333
 4864SOL    HW126228   2.344   3.868   4.600  2.2073  0.5671 -0.2784
 4864SOL    HW226229   2.268   3.810   4.496 -0.2405 -0.4634  0.0751
 4865SOL     OW26230   2.608   0.767   9.192  0.1058 -0.2990 -0.4308
 4865SOL    HW126231   2.571   0.764   9.280  0.3418 -2.3714 -0.4090
 4865SOL    HW226232   2.555   0.842   9.165  1.1573  1.4271  2.2807
 4866SOL     OW26233   4.396   1.505  17.054 -0.4665 -0.1068  0.1732
 4866SOL    HW126234   4.489   1.525  17.064 -0.4053 -1.3799  2.0980
 4866SOL    HW226235   4.394   1.427  17.109  1.1783 -0.9796 -0.9879
 4867SOL     OW26236   3.179   2.858   4.018  0.5502 -0.3828  0.2548
 4867SOL    HW126237   3.113   2.893   3.958 -0.0059 -1.9649 -0.0584
 4867SOL    HW226238   3.190   2.770   3.983  1.8438  0.0912 -0.5271
 4868SOL     OW26239   4.218   2.074   3.096 -0.5920 -0.2574  0.0409
 4868SOL    HW126240   4.298   2.127   3.092 -0.8307  0.1141  0.1824
 4868SOL    HW226241   4.227   2.008   3.164 -2.0501  0.7149  1.1646
 4869SOL     OW26242   1.959   4.713   9.209  0.2850  0.3479 -0.1793
 4869SOL    HW126243   1.995   4.709   9.298 -1.4705 -2.4772  0.4198
 4869SOL    HW226244   1.924   0.061   9.217  0.4043  0.4833 -1.1709
 4870SOL     OW26245   2.770   3.418   7.150  0.1637 -0.2855  0.0943
 4870SOL    HW126246   2.828   3.494   7.155  0.8946 -0.7413 -1.2604
 4870SOL    HW226247   2.767   3.410   7.054  0.4912 -1.1383  0.1514
 4871SOL     OW26248   4.374   3.195   2.730  0.0378 -0.2023  0.0272
 4871SOL    HW126249   4.356   3.183   2.637  0.2761 -1.6306  0.1578
 4871SOL    HW226250   4.313   3.267   2.744 -0.1903 -0.2365 -0.7852
 4872SOL     OW26251   4.294   1.775  17.116  0.2860 -0.0369  0.0380
 4872SOL    HW126252   4.232   1.772  17.188  0.7541 -2.5430  0.3356
 4872SOL    HW226253   4.335   1.688  17.116 -1.7234 -1.0056 -1.1453
 4873SOL     OW26254   3.653   4.244  13.313 -0.4048 -0.6543  0.4467
 4873SOL    HW126255   3.736   4.246  13.359 -1.4728  2.1198  2.2384
 4873SOL    HW226256   3.677   4.253  13.221 -0.7917 -2.9824  0.1102
 4874SOL     OW26257   4.013   0.800   6.910  0.0340  0.5652  0.0739
 4874SOL    HW126258   4.008   0.890   6.942 -0.5735  0.8115 -0.7295
 4874SOL    HW226259   3.924   0.791   6.878 -0.1006  0.4721  0.4800
 4875SOL     OW26260   3.228   3.224   3.002  0.2327 -0.1338 -0.4800
 4875SOL    HW126261   3.264   3.259   2.920 -1.4070  2.5354 -0.0700
 4875SOL    HW226262   3.159   3.291   3.011  1.3173  0.4433  3.4652
 4876SOL     OW26263   1.165   2.168   2.740  0.5118 -0.2808  0.0719
 4876SOL    HW126264   1.196   2.144   2.827  1.4199 -0.5024 -0.3072
 4876SOL    HW226265   1.121   2.252   2.752 -2.3008 -1.2950 -2.9479
 4877SOL     OW26266   2.504   1.664   6.442 -0.3088  0.2744  0.5213
 4877SOL    HW126267   2.479   1.753   6.465 -0.2874  0.8046 -1.5527
 4877SOL    HW226268   2.594   1.652   6.474  0.8216  3.3326 -1.6007
 4878SOL     OW26269   2.364   3.139   2.278  0.0723 -1.1252 -0.1571
 4878SOL    HW126270   2.302   3.075   2.314 -0.8250 -0.3779 -0.3620
 4878SOL    HW226271   2.402   3.175   2.358 -0.6990  0.8045 -0.6617
 4879SOL     OW26272   4.355   0.158   6.697  0.3278  0.4765  0.9754
 4879SOL    HW126273   4.290   0.114   6.751  0.3669  1.5610  1.8951
 4879SOL    HW226274   4.430   0.147   6.756  0.5879  2.5352  1.0302
 4880SOL     OW26275   1.180   0.917   8.767 -0.8147  0.4741  0.4964
 4880SOL    HW126276   1.270   0.883   8.766 -0.8925  0.3032 -0.5935
 4880SOL    HW226277   1.161   0.930   8.674 -0.0761  0.6813  0.3730
 4881SOL     OW26278   0.145   0.059   3.423 -0.7924  0.6450  0.3302
 4881SOL    HW126279   0.223   0.053   3.367  0.9832 -0.8471  2.9651
 4881SOL    HW226280   0.103   4.716   3.405 -0.4197  0.6446 -0.5546
 4882SOL     OW26281   2.252   3.218   4.067  0.1299 -0.8013  0.2331
 4882SOL    HW126282   2.208   3.206   4.152  0.3291  0.3482  0.5103
 4882SOL    HW226283   2.299   3.301   4.078  0.6859 -1.1418  0.4260
 4883SOL     OW26284   4.167   2.537   6.398  0.0424 -0.2459  0.3914
 4883SOL    HW126285   4.244   2.521   6.454  1.7662  0.1491 -1.8841
 4883SOL    HW226286   4.215   2.547   6.316  0.1983  0.7661  0.6118
 4884SOL     OW26287   3.218   1.883  11.737 -0.1137  0.2073 -0.6713
 4884SOL    HW126288   3.245   1.920  11.820 -0.7770 -2.1943  0.6390
 4884SOL    HW226289   3.126   1.860  11.753  0.1554 -0.5543 -0.2141
 4885SOL     OW26290   2.708   1.343   3.747  0.1608  0.0252  0.1058
 4885SOL    HW126291   2.766   1.271   3.723 -1.4047 -0.8284 -1.0797
 4885SOL    HW226292   2.764   1.386   3.812 -1.7040  3.6964 -0.7237
 4886SOL     OW26293   4.283   4.272  14.952 -0.0239  0.0433 -0.5255
 4886SOL    HW126294   4.279   4.367  14.941 -0.1072  0.0228 -0.6639
 4886SOL    HW226295   4.224   4.241  14.883 -0.2843  1.9261 -1.1485
 4887SOL     OW26296   1.607   2.846   3.584 -0.0713  0.7651  0.4440
 4887SOL    HW126297   1.636   2.760   3.615 -0.7749  0.1166 -0.6914
 4887SOL    HW226298   1.589   2.888   3.668 -1.9907 -0.0396  0.4271
 4888SOL     OW26299   1.876   3.008   7.666  1.0412 -0.5048  1.0057
 4888SOL    HW126300   1.926   3.070   7.719  2.0601 -0.9468  0.5567
 4888SOL    HW226301   1.946   2.984   7.605  1.5339 -0.7837  1.6658
 4889SOL     OW26302   2.291   1.904  11.848 -0.4731  0.2424 -0.3445
 4889SOL    HW126303   2.378   1.875  11.821  0.1360  1.0374  0.7574
 4889SOL    HW226304   2.295   1.887  11.942  0.3488 -1.7823 -0.7348
 4890SOL     OW26305   2.056   1.478  15.111 -0.6113 -0.2760  0.1041
 4890SOL    HW126306   2.056   1.410  15.179 -2.7698 -2.1296 -1.7836
 4890SOL    HW226307   2.145   1.463  15.080 -0.5814 -0.4705  0.2818
 4891SOL     OW26308   4.098   2.452   2.895  0.0768  1.1099  0.0471
 4891SOL    HW126309   4.031   2.453   2.827  0.1315  2.6380  0.0070
 4891SOL    HW226310   4.055   2.519   2.948 -0.9674 -1.3119  2.2161
 4892SOL     OW26311   4.525   1.749  16.008  0.2464  0.1790 -0.1861
 4892SOL    HW126312   4.548   1.827  16.058  0.9291  0.4427 -0.9134
 4892SOL    HW226313   4.499   1.683  16.072  0.7827  0.6620  0.5234
 4893SOL     OW26314   1.621   4.458   2.653 -0.2906 -1.3853 -0.2740
 4893SOL    HW126315   1.532   4.466   2.617 -0.1625 -1.8005 -0.6877
 4893SOL    HW226316   1.670   4.426   2.577  3.9679  0.4872  1.7224
 4894SOL     OW26317   3.987   4.322   7.761  0.2991  0.1512 -0.1177
 4894SOL    HW126318   4.019   4.388   7.823 -0.7790 -0.5949  1.2271
 4894SOL    HW226319   4.027   4.245   7.802 -0.9368  0.8529  2.4332
 4895SOL     OW26320   2.587   3.504   4.581  0.0812  0.5507 -0.6731
 4895SOL    HW126321   2.544   3.554   4.651 -0.9126  1.9801 -2.2776
 4895SOL    HW226322   2.678   3.509   4.608 -0.9432 -0.1429  2.8835
 4896SOL     OW26323   2.992   0.727  17.583  0.1024  0.1631  0.4082
 4896SOL    HW126324   2.977   0.677  17.663 -0.5339 -0.0532  0.1594
 4896SOL    HW226325   3.059   0.674  17.538 -1.2619 -1.4885  0.2995
 4897SOL     OW26326   2.656   4.273  17.373  0.3628  0.5758  0.4066
 4897SOL    HW126327   2.598   4.339  17.411 -1.9122 -1.2613  0.1464
 4897SOL    HW226328   2.590   4.240  17.311  0.7049 -0.6656  0.7219
 4898SOL     OW26329   1.408   3.885   5.025 -0.5208  0.0421 -0.3745
 4898SOL    HW126330   1.376   3.827   4.956  0.2733  0.6414 -1.2466
 4898SOL    HW226331   1.356   3.852   5.098  0.8234 -2.0075 -0.3302
 4899SOL     OW26332   0.978   0.550   1.150  0.0091  0.0234  0.2081
 4899SOL    HW126333   0.979   0.567   1.244 -0.7147  1.9755 -0.1389
 4899SOL    HW226334   1.070   0.534   1.126  0.3202  0.5595  1.0321
 4900SOL     OW26335   2.361   3.802   7.457  0.3324 -0.2212  0.2224
 4900SOL    HW126336   2.285   3.838   7.413 -0.6109 -1.0775  1.1470
 4900SOL    HW226337   2.356   3.817   7.552 -0.7715  2.7081 -0.3109
 4901SOL     OW26338   0.402   0.954   4.691  0.3459 -0.3565 -0.0769
 4901SOL    HW126339   0.348   0.981   4.764 -0.0731 -1.2132 -0.0628
 4901SOL    HW226340   0.475   1.015   4.700  0.6933 -0.7575 -0.1272
 4902SOL     OW26341   2.830   2.347   1.153  0.1394 -0.1412 -0.4261
 4902SOL    HW126342   2.859   2.436   1.134 -1.0429  0.1484 -0.8628
 4902SOL    HW226343   2.910   2.313   1.194  0.1944  1.3516  0.6959
 4903SOL     OW26344   3.109   0.951  15.696 -0.3260  0.1004  0.2515
 4903SOL    HW126345   3.163   0.931  15.620 -1.4014 -2.3725  0.1531
 4903SOL    HW226346   3.023   0.922  15.666  0.2350 -0.9523 -0.2997
 4904SOL     OW26347   1.069   4.442  16.392  0.4221 -0.0333 -0.1390
 4904SOL    HW126348   1.087   4.366  16.337  2.0250  0.1992  0.0839
 4904SOL    HW226349   1.001   4.402  16.446  0.3727 -0.4678 -0.5275
 4905SOL     OW26350   0.961   3.770  11.230  0.0554 -0.4103  0.1186
 4905SOL    HW126351   0.911   3.754  11.149 -0.7441 -0.3827  0.6073
 4905SOL    HW226352   0.898   3.743  11.297  1.0381 -0.5011  0.9957
 4906SOL     OW26353   2.059   0.545  15.740 -0.2968 -0.4998 -0.4146
 4906SOL    HW126354   2.139   0.569  15.693 -0.7518  0.2610 -0.7962
 4906SOL    HW226355   2.047   0.455  15.709  0.7465 -0.8476  0.1815
 4907SOL     OW26356   0.003   2.232  14.516 -0.3679  0.3125  0.2212
 4907SOL    HW126357   4.729   2.177  14.593  0.5647  0.2824  0.3698
 4907SOL    HW226358   0.083   2.186  14.489 -2.0769 -2.8512  0.4860
 4908SOL     OW26359   0.884   1.658  10.797 -0.2172  0.3260 -0.2553
 4908SOL    HW126360   0.902   1.648  10.704  0.4985 -0.9071  0.0077
 4908SOL    HW226361   0.793   1.630  10.805 -0.4443  1.5328  1.3698
 4909SOL     OW26362   4.233   2.486   5.839 -0.3347 -0.5140  0.1286
 4909SOL    HW126363   4.323   2.482   5.806 -0.4235  1.3715 -0.3605
 4909SOL    HW226364   4.233   2.569   5.888 -0.5886  0.7953 -2.0816
 4910SOL     OW26365   4.304   4.305  17.010 -0.3132  0.0852 -0.5210
 4910SOL    HW126366   4.232   4.368  17.001  1.9744  2.9949  1.3152
 4910SOL    HW226367   4.275   4.225  16.966  1.2904 -0.2725 -0.9089
 4911SOL     OW26368   4.160   0.867   4.511  0.0876 -0.1343  0.0302
 4911SOL    HW126369   4.156   0.936   4.445  4.4685  0.3596  0.2821
 4911SOL    HW226370   4.256   0.860   4.514  0.0773 -1.0426 -1.5515
 4912SOL     OW26371   1.637   3.464   9.697 -0.4953  0.0050 -0.1967
 4912SOL    HW126372   1.663   3.388   9.644 -0.1491 -0.6161  0.8767
 4912SOL    HW226373   1.548   3.489   9.673  0.6564  2.5136 -1.9858
 4913SOL     OW26374   3.697   1.388  12.249 -0.0804 -0.2191  0.3766
 4913SOL    HW126375   3.694   1.356  12.339  2.7997 -4.7894 -1.1532
 4913SOL    HW226376   3.620   1.344  12.214 -2.2565  1.7800  2.7223
 4914SOL     OW26377   4.397   1.702   7.051 -0.3799 -0.1854  0.1433
 4914SOL    HW126378   4.304   1.714   7.035 -0.3776 -0.5806 -0.1725
 4914SOL    HW226379   4.433   1.678   6.966  0.8019  0.1943  0.5307
 4915SOL     OW26380   3.232   2.925  14.043 -0.3217  0.2444  0.3135
 4915SOL    HW126381   3.180   2.858  13.998  0.0736 -0.1627  0.4716
 4915SOL    HW226382   3.183   3.003  14.018 -0.5969 -0.7050 -2.1136
 4916SOL     OW26383   0.465   0.901   4.132  0.1654  0.0399 -0.3276
 4916SOL    HW126384   0.520   0.895   4.053  2.1615  0.1231  1.0522
 4916SOL    HW226385   0.403   0.831   4.115 -0.0635 -0.1038  1.1887
 4917SOL     OW26386   1.823   1.303  15.516  0.2970 -0.3475 -0.1191
 4917SOL    HW126387   1.883   1.378  15.517  0.1517 -0.2307 -0.1060
 4917SOL    HW226388   1.810   1.289  15.422 -0.7280 -1.9105  0.2495
 4918SOL     OW26389   0.734   1.530   2.668 -0.7687  0.3180 -0.3660
 4918SOL    HW126390   0.784   1.516   2.588  2.1002  0.4761  1.4192
 4918SOL    HW226391   0.767   1.454   2.715 -2.0390  0.9054  1.5045
 4919SOL     OW26392   1.439   2.940  13.385 -0.3091  0.7255 -0.3691
 4919SOL    HW126393   1.350   2.971  13.371 -0.0125  2.1415  0.8923
 4919SOL    HW226394   1.435   2.854  13.342  0.9882 -0.3913  1.7281
 4920SOL     OW26395   4.027   3.668  16.024  0.0110  0.5915 -0.7084
 4920SOL    HW126396   4.118   3.681  15.995  1.0413  0.2320  2.4082
 4920SOL    HW226397   3.986   3.726  15.960  2.0144 -0.3795 -2.8872
 4921SOL     OW26398   2.891   4.394   2.068  0.1279  0.4736 -1.0109
 4921SOL    HW126399   2.975   4.390   2.113  0.9130 -1.0870 -2.6187
 4921SOL    HW226400   2.903   4.462   2.002 -0.2502  0.6230 -0.9255
 4922SOL     OW26401   4.384   1.539   2.649 -0.1613 -0.1361 -0.2868
 4922SOL    HW126402   4.348   1.621   2.682 -2.6577 -1.3848  0.1470
 4922SOL    HW226403   4.396   1.564   2.557  2.0117 -0.4738 -0.0758
 4923SOL     OW26404   3.592   3.326  16.282 -0.2917  0.8564  0.2967
 4923SOL    HW126405   3.663   3.382  16.252  0.5508  0.5406  1.7241
 4923SOL    HW226406   3.522   3.391  16.273  0.3698  1.3273 -1.4336
 4924SOL     OW26407   4.612   0.933   6.774 -0.1355  0.0950 -0.1971
 4924SOL    HW126408   4.570   0.958   6.692  0.9809  0.9309 -0.5019
 4924SOL    HW226409   4.536   0.957   6.827 -0.2784 -1.5940  0.3850
 4925SOL     OW26410   0.756   0.090   3.586  0.2661 -0.2084 -1.2338
 4925SOL    HW126411   0.833   0.101   3.642  1.7362 -2.5528 -2.8126
 4925SOL    HW226412   0.759   4.735   3.586 -0.6301 -0.2442 -0.4582
 4926SOL     OW26413   4.553   2.920   7.210 -0.1815 -0.1634 -0.4122
 4926SOL    HW126414   4.503   3.001   7.217  1.5076  0.9631 -1.1666
 4926SOL    HW226415   4.583   2.902   7.299 -1.5135 -1.0294 -0.1449
 4927SOL     OW26416   4.154   4.276   6.707  0.4425 -0.2124 -0.1424
 4927SOL    HW126417   4.074   4.226   6.692  0.0950 -0.2271  1.7602
 4927SOL    HW226418   4.147   4.274   6.802  0.4973 -0.8982 -0.1549
 4928SOL     OW26419   4.711   2.562   6.395 -0.5036 -0.2671  0.3132
 4928SOL    HW126420   0.029   2.531   6.326 -2.0978 -1.0953 -0.6707
 4928SOL    HW226421   0.033   2.609   6.450  0.2560 -0.2461 -0.5738
 4929SOL     OW26422   3.896   4.597   7.749 -0.1441 -0.3226 -0.3306
 4929SOL    HW126423   3.868   4.538   7.678 -0.6190 -0.5894  0.0798
 4929SOL    HW226424   3.858   4.681   7.722 -0.3674 -0.9314 -1.9285
 4930SOL     OW26425   3.399   3.365   5.544 -0.5520  0.0958  0.3972
 4930SOL    HW126426   3.343   3.305   5.592 -0.0216 -0.0886  0.7815
 4930SOL    HW226427   3.481   3.363   5.592 -1.1062 -0.8172  1.2943
 4931SOL     OW26428   1.750   3.200   7.290 -0.6129 -0.1099  0.4515
 4931SOL    HW126429   1.724   3.274   7.345 -1.6149 -0.0108 -0.1592
 4931SOL    HW226430   1.695   3.141   7.342 -2.4866 -0.8150 -2.3699
 4932SOL     OW26431   0.211   1.412   1.246  0.4224 -0.3413  0.7649
 4932SOL    HW126432   0.294   1.371   1.268 -0.4244 -1.6705  1.4802
 4932SOL    HW226433   0.162   1.353   1.188 -1.1196  1.2376  0.4689
 4933SOL     OW26434   1.313   0.658  11.346 -0.7519  0.5541  0.2712
 4933SOL    HW126435   1.243   0.688  11.405  0.7445  0.4231  2.1042
 4933SOL    HW226436   1.318   0.563  11.353 -0.9406  0.6568  1.8984
 4934SOL     OW26437   0.914   3.089   9.869 -0.2690  0.0607 -0.1024
 4934SOL    HW126438   0.964   3.077   9.789 -1.1592 -2.6581 -0.2502
 4934SOL    HW226439   0.889   3.182   9.865 -1.2652 -0.2671 -1.3849
 4935SOL     OW26440   4.683   0.724   7.142  0.0128  0.0111  0.1079
 4935SOL    HW126441   4.597   0.763   7.126  0.9481  2.3141  0.6225
 4935SOL    HW226442   4.739   0.757   7.072  1.4832 -0.1428  1.2141
 4936SOL     OW26443   3.642   2.768   5.550  0.1278  0.3300  0.3862
 4936SOL    HW126444   3.552   2.799   5.560 -0.4612 -2.1095  2.8233
 4936SOL    HW226445   3.679   2.821   5.620 -1.7367 -1.1100  2.4713
 4937SOL     OW26446   2.648   2.083   7.930  0.2475 -0.4023 -0.5208
 4937SOL    HW126447   2.671   2.040   8.013 -1.4479 -1.5148 -0.6341
 4937SOL    HW226448   2.591   2.150   7.967 -0.7942 -1.1097 -0.8302
 4938SOL     OW26449   0.887   0.623   7.075 -0.0647 -0.3472 -0.5956
 4938SOL    HW126450   0.937   0.672   7.140 -0.1103 -0.4128 -0.5121
 4938SOL    HW226451   0.930   0.656   6.996  0.0542  0.0235 -0.3785
 4939SOL     OW26452   1.760   3.984   3.163 -0.4071 -0.4518  0.4165
 4939SOL    HW126453   1.770   4.077   3.144 -0.4123 -0.4925  0.2200
 4939SOL    HW226454   1.678   3.977   3.114  0.1045  1.2317 -0.6694
 4940SOL     OW26455   4.127   2.144  12.285  0.1287 -0.1804  0.4460
 4940SOL    HW126456   4.044   2.120  12.244  0.4876  2.2629 -1.6640
 4940SOL    HW226457   4.163   2.199  12.216 -1.3858 -1.0009 -1.0055
 4941SOL     OW26458   4.444   2.499   1.479  0.6462 -0.2346 -0.1686
 4941SOL    HW126459   4.523   2.529   1.524  0.0977 -0.5732  1.0234
 4941SOL    HW226460   4.484   2.445   1.411  0.2514 -1.5619  0.6417
 4942SOL     OW26461   1.910   3.994   2.169  0.3461  0.0008 -1.3204
 4942SOL    HW126462   1.846   4.062   2.191  2.4295  1.5860 -0.1434
 4942SOL    HW226463   1.858   3.916   2.150 -0.4652  0.2522 -0.1919
 4943SOL     OW26464   0.309   3.140   1.725 -0.2512  0.8923 -0.5434
 4943SOL    HW126465   0.397   3.168   1.750  0.4621 -0.5113 -1.4790
 4943SOL    HW226466   0.254   3.218   1.732 -2.8086 -1.0384  0.7109
 4944SOL     OW26467   2.939   2.505   8.692 -0.1905  0.4568 -0.3570
 4944SOL    HW126468   2.986   2.538   8.616  0.5944  1.7678  0.7058
 4944SOL    HW226469   2.854   2.474   8.660  0.1527 -1.2272  0.3623
 4945SOL     OW26470   4.021   0.945   5.423  0.3167  0.2926 -0.1116
 4945SOL    HW126471   4.004   1.006   5.351 -2.0449  2.2029  2.0867
 4945SOL    HW226472   4.101   0.906   5.388 -0.1792 -1.2095  0.4427
 4946SOL     OW26473   1.308   0.471   1.412  0.4653 -0.2296  0.0666
 4946SOL    HW126474   1.232   0.429   1.454  0.2270 -0.1566 -0.2897
 4946SOL    HW226475   1.291   0.447   1.320  0.8937 -0.4957  0.0573
 4947SOL     OW26476   1.235   2.326   4.362  0.0345  0.1717  0.1807
 4947SOL    HW126477   1.203   2.266   4.295  1.7989 -1.3945  0.7361
 4947SOL    HW226478   1.170   2.304   4.428  0.0072 -2.7898 -0.8608
 4948SOL     OW26479   3.743   2.399   8.331  0.2619 -0.2403  0.1363
 4948SOL    HW126480   3.767   2.488   8.353  1.2873  0.1133 -2.4314
 4948SOL    HW226481   3.653   2.407   8.363  0.9373  1.3772  1.6099
 4949SOL     OW26482   3.050   4.062   1.795  0.8946  0.3720 -0.0435
 4949SOL    HW126483   2.995   4.069   1.873 -0.9984 -0.1330 -1.3327
 4949SOL    HW226484   3.130   4.017   1.824 -0.5399 -1.0239  1.7652
 4950SOL     OW26485   2.587   3.570   9.285  0.2072 -0.0263  0.1491
 4950SOL    HW126486   2.577   3.637   9.218  2.4966  0.2097  0.0385
 4950SOL    HW226487   2.520   3.508   9.257 -0.6256  1.5512 -1.3334
 4951SOL     OW26488   2.579   2.066   6.438 -0.7127  0.2365  0.3742
 4951SOL    HW126489   2.645   2.070   6.507  1.1171  0.9837 -1.4419
 4951SOL    HW226490   2.512   2.131   6.462  0.1290  1.1077  0.3322
 4952SOL     OW26491   2.868   3.045   8.903 -0.0314  0.8340 -0.0601
 4952SOL    HW126492   2.903   3.130   8.879 -0.1644  0.2684 -2.2208
 4952SOL    HW226493   2.886   3.056   8.997  1.4526 -0.6027 -0.1781
 4953SOL     OW26494   1.687   3.735   1.709  0.2454  0.1592 -0.3886
 4953SOL    HW126495   1.777   3.762   1.724  0.1576 -0.0233  0.4885
 4953SOL    HW226496   1.674   3.785   1.629 -0.0373 -1.2988 -1.2439
 4954SOL     OW26497   3.246   0.963  14.501  0.3959  0.1040  0.2979
 4954SOL    HW126498   3.242   0.980  14.406 -0.5911 -0.3511  0.2667
 4954SOL    HW226499   3.340   0.974  14.517  0.7464 -1.1815 -0.8437
 4955SOL     OW26500   4.133   3.502   4.761  0.7742 -0.2805 -0.1004
 4955SOL    HW126501   4.105   3.448   4.835  4.5443 -2.5074 -0.2924
 4955SOL    HW226502   4.099   3.587   4.789 -0.7965 -1.0503  0.3345
 4956SOL     OW26503   3.673   2.011  14.397  0.8083 -0.1894  0.4482
 4956SOL    HW126504   3.582   1.995  14.373  1.1929 -0.1513 -1.0301
 4956SOL    HW226505   3.691   1.928  14.443  0.4429 -0.3348  0.3301
 4957SOL     OW26506   2.714   2.581  12.839  0.0703  0.0653  0.3027
 4957SOL    HW126507   2.636   2.618  12.799 -0.0151 -1.0960 -0.6164
 4957SOL    HW226508   2.668   2.532  12.908 -1.0508  1.5402  0.6055
 4958SOL     OW26509   1.984   2.242   5.672  0.6665 -0.7790 -0.4591
 4958SOL    HW126510   1.902   2.198   5.694 -0.9718  2.9294  1.0492
 4958SOL    HW226511   2.039   2.168   5.650  0.5825 -1.0987  0.4345
 4959SOL     OW26512   3.721   2.361  10.126 -0.2710  0.2692 -0.3437
 4959SOL    HW126513   3.719   2.337  10.034 -2.3270  1.6033 -0.6405
 4959SOL    HW226514   3.666   2.299  10.174 -0.4088  0.5453 -0.1432
 4960SOL     OW26515   0.686   1.476   3.796 -0.4483  0.1575  0.2076
 4960SOL    HW126516   0.594   1.492   3.816 -0.3954 -0.7735  1.1878
 4960SOL    HW226517   0.723   1.517   3.874  0.9078  1.7233 -1.2688
 4961SOL     OW26518   1.190   0.816  16.994  0.0758  0.1458 -0.1581
 4961SOL    HW126519   1.247   0.870  16.940  1.6468  0.0482  1.4127
 4961SOL    HW226520   1.229   0.839  17.078 -0.2752 -2.5558  0.7556
 4962SOL     OW26521   3.242   4.236  16.724  0.1021 -0.3430 -0.2488
 4962SOL    HW126522   3.160   4.245  16.675  0.6364  0.6239 -0.9882
 4962SOL    HW226523   3.222   4.299  16.793  1.1641 -0.8265  0.4849
 4963SOL     OW26524   1.674   1.155  15.702 -0.1419 -0.8729  0.5276
 4963SOL    HW126525   1.749   1.194  15.658  0.7831 -1.9489  1.1411
 4963SOL    HW226526   1.686   1.060  15.699  0.6732 -0.7425 -0.1446
 4964SOL     OW26527   2.013   4.512   9.700 -0.8551 -0.1352 -0.0066
 4964SOL    HW126528   1.962   4.445   9.654  0.6130 -0.4239 -1.2422
 4964SOL    HW226529   2.090   4.457   9.716 -1.0547 -0.3059  0.3631
 4965SOL     OW26530   0.304   0.797  16.325 -0.2308 -0.0024  0.0703
 4965SOL    HW126531   0.314   0.836  16.238 -3.2917 -0.3579 -0.4346
 4965SOL    HW226532   0.394   0.815  16.354  0.0291  3.7136 -3.0354
 4966SOL     OW26533   2.286   1.742   6.244  0.6564  0.0682 -0.6422
 4966SOL    HW126534   2.379   1.725   6.261  0.9262  1.2689 -0.9042
 4966SOL    HW226535   2.282   1.783   6.158 -0.5801  0.0717 -0.5850
 4967SOL     OW26536   0.057   1.671  16.415  0.3668 -0.4718  0.3339
 4967SOL    HW126537   0.032   1.582  16.391 -0.3535  0.3301 -1.8409
 4967SOL    HW226538   4.712   1.713  16.425  0.2653 -1.1691  2.5896
 4968SOL     OW26539   3.581   1.233  11.127  0.1616  0.2291 -0.4143
 4968SOL    HW126540   3.540   1.253  11.211  0.4274 -1.0083  0.0147
 4968SOL    HW226541   3.548   1.143  11.125 -0.2963  0.3926 -0.2379
 4969SOL     OW26542   1.492   1.091  16.494 -0.3604  0.1605 -0.3498
 4969SOL    HW126543   1.467   1.153  16.425 -1.6933  0.7135  0.6270
 4969SOL    HW226544   1.544   1.024  16.451 -0.1878 -0.7482  1.2631
 4970SOL     OW26545   2.647   1.784   3.541 -0.2947  0.2067  0.0909
 4970SOL    HW126546   2.718   1.832   3.498 -0.2604 -1.3099 -1.5304
 4970SOL    HW226547   2.574   1.846   3.542  0.6428  1.3503 -1.5247
 4971SOL     OW26548   0.361   3.823   4.496 -0.2863 -0.2923  0.3007
 4971SOL    HW126549   0.311   3.780   4.427 -0.0980 -0.8807  0.5340
 4971SOL    HW226550   0.349   3.914   4.470  0.6332  0.1255  1.3166
 4972SOL     OW26551   2.918   2.460  12.366  0.2726 -0.1302 -0.0055
 4972SOL    HW126552   2.829   2.453  12.332  0.4256  1.0649 -0.6630
 4972SOL    HW226553   2.903   2.505  12.449  1.3532  1.0390 -0.4360
 4973SOL     OW26554   2.170   1.211   3.954  0.3184 -0.3622 -0.7236
 4973SOL    HW126555   2.209   1.157   3.885  0.1548  1.7935 -2.4836
 4973SOL    HW226556   2.148   1.281   3.893  0.1831  0.0416 -0.2071
 4974SOL     OW26557   1.990   1.040  16.204  0.1580 -0.3102  0.1954
 4974SOL    HW126558   1.961   1.097  16.132 -0.5577  0.9697  1.4880
 4974SOL    HW226559   1.910   1.044  16.257  0.0606  1.4606 -0.0543
 4975SOL     OW26560   1.740   1.671   7.086  0.4145  0.4804  0.5679
 4975SOL    HW126561   1.833   1.648   7.084 -0.2219 -2.1226  1.2741
 4975SOL    HW226562   1.704   1.614   7.154 -0.4735 -0.8815 -1.0578
 4976SOL     OW26563   2.556   1.493   7.575 -0.0939 -1.0836  0.2083
 4976SOL    HW126564   2.467   1.527   7.574  0.5736  0.7176  2.5413
 4976SOL    HW226565   2.603   1.572   7.601 -0.5291 -0.9973  0.7225
 4977SOL     OW26566   3.375   4.425   7.333  0.3534  0.2784  0.4239
 4977SOL    HW126567   3.288   4.385   7.339  0.7180 -0.1208  2.9658
 4977SOL    HW226568   3.359   4.519   7.341 -0.8679  0.1625 -0.6133
 4978SOL     OW26569   0.641   0.423   2.024 -0.4986  0.2238  0.0496
 4978SOL    HW126570   0.588   0.502   2.035 -1.0049 -0.2235  0.7789
 4978SOL    HW226571   0.664   0.403   2.115  2.8705  1.3172 -0.5517
 4979SOL     OW26572   0.774   2.991   8.508 -0.0782  0.3808 -0.1633
 4979SOL    HW126573   0.726   2.949   8.437 -0.9906 -0.0558  0.7194
 4979SOL    HW226574   0.711   3.043   8.557  0.4711  1.8379 -0.9781
 4980SOL     OW26575   2.111   2.951   3.128  0.1630 -0.9770  0.7422
 4980SOL    HW126576   2.163   2.969   3.206  1.2779  1.0666 -0.4846
 4980SOL    HW226577   2.026   2.981   3.162  1.7507  3.0459  1.1604
 4981SOL     OW26578   0.411   3.463   6.021 -0.0540  0.4178 -0.0300
 4981SOL    HW126579   0.397   3.529   6.089  0.5788  0.1761  0.3344
 4981SOL    HW226580   0.355   3.491   5.949 -0.7889 -2.0662 -0.4088
 4982SOL     OW26581   1.422   1.522   8.995  0.3984  0.1567 -0.4070
 4982SOL    HW126582   1.436   1.431   8.968  0.3984 -0.3510  1.3175
 4982SOL    HW226583   1.469   1.531   9.078  1.2665  0.7393 -0.9638
 4983SOL     OW26584   1.430   4.522   2.367 -0.5901 -0.8218 -0.1580
 4983SOL    HW126585   1.445   4.616   2.376  0.3143 -1.0700  0.9671
 4983SOL    HW226586   1.383   4.506   2.449 -1.2762  1.0539 -0.1933
 4984SOL     OW26587   2.714   0.822   2.786 -0.2162  0.5803 -0.1073
 4984SOL    HW126588   2.686   0.911   2.807 -1.9516  0.1011 -0.3581
 4984SOL    HW226589   2.715   0.842   2.693 -1.4335 -1.9348 -0.6775
 4985SOL     OW26590   1.988   2.676   2.466 -0.0173  0.9608 -0.8023
 4985SOL    HW126591   1.920   2.654   2.401  0.7791 -1.1815 -0.9080
 4985SOL    HW226592   2.063   2.620   2.446 -0.8854  0.0282 -1.4959
 4986SOL     OW26593   4.219   2.912   6.915  0.3934 -0.5086 -0.1339
 4986SOL    HW126594   4.289   2.956   6.867 -1.0073  1.4422 -0.3593
 4986SOL    HW226595   4.175   2.870   6.841  2.3991  2.1651 -2.8095
 4987SOL     OW26596   0.871   4.489   9.472 -0.0504 -0.3634  0.1987
 4987SOL    HW126597   0.918   4.452   9.546  1.2977  0.9469  0.0124
 4987SOL    HW226598   0.831   4.569   9.507 -4.6981 -1.2685 -3.0380
 4988SOL     OW26599   0.752   4.226  16.270  0.1467 -0.0472  0.2004
 4988SOL    HW126600   0.708   4.299  16.313  1.4668 -0.8906  3.0364
 4988SOL    HW226601   0.815   4.203  16.339  0.3206 -2.3652 -0.7232
 4989SOL     OW26602   1.296   3.688   0.348  0.4727  0.7045 -0.3466
 4989SOL    HW126603   1.238   3.648   0.283  2.9028  0.2711 -2.2767
 4989SOL    HW226604   1.377   3.708   0.300  0.1367  1.6401 -0.5111
 4990SOL     OW26605   4.506   2.304  17.559 -0.0021 -0.0910  0.4555
 4990SOL    HW126606   4.520   2.388  17.517  1.3527 -0.3553  0.3936
 4990SOL    HW226607   4.556   2.316  17.639  0.4718  0.7443  0.0228
 4991SOL     OW26608   0.154   1.672   2.820  0.0650 -0.6922 -0.5498
 4991SOL    HW126609   0.068   1.700   2.789 -0.9282 -3.3448 -0.2374
 4991SOL    HW226610   0.113   1.591   2.851 -0.6619 -0.1260 -0.0369
 4992SOL     OW26611   2.316   1.694  11.179  0.1771  0.3975  0.2618
 4992SOL    HW126612   2.246   1.758  11.164 -1.2109 -0.9937  0.7509
 4992SOL    HW226613   2.265   1.622  11.216 -1.0654  1.1920  0.1226
 4993SOL     OW26614   0.711   0.047   9.199 -0.5067  0.5065 -0.3026
 4993SOL    HW126615   0.658   4.733   9.141 -0.4604 -0.5472  0.6468
 4993SOL    HW226616   0.762   0.089   9.129 -0.1115  3.1756  1.5936
 4994SOL     OW26617   2.930   1.724   2.285 -0.5397 -0.8576 -0.3284
 4994SOL    HW126618   2.836   1.736   2.294 -0.4432  0.5323 -1.1637
 4994SOL    HW226619   2.962   1.793   2.343 -0.7142 -0.6833 -0.4392
 4995SOL     OW26620   4.058   3.399   4.476  0.2219 -0.1741  0.0502
 4995SOL    HW126621   4.138   3.407   4.425  0.9841  1.2402  1.4637
 4995SOL    HW226622   4.091   3.396   4.566  0.6649 -0.1745 -0.1122
 4996SOL     OW26623   0.390   3.915   3.030 -0.2260 -0.2758 -0.2162
 4996SOL    HW126624   0.343   3.988   3.069  0.6545 -0.3673  1.0289
 4996SOL    HW226625   0.311   3.865   3.009  1.1123 -2.0904 -0.9931
 4997SOL     OW26626   4.277   3.155   4.559  0.0208  0.0864 -0.3095
 4997SOL    HW126627   4.336   3.156   4.484  1.2714 -1.2970  0.6503
 4997SOL    HW226628   4.313   3.230   4.607 -0.9650  0.1949  0.2697
 4998SOL     OW26629   1.838   2.975   6.970  0.4869 -0.3861  0.7014
 4998SOL    HW126630   1.829   2.967   7.065 -0.4290 -1.4775  0.5177
 4998SOL    HW226631   1.919   2.925   6.954 -1.0383 -2.6432  0.0497
 4999SOL     OW26632   3.560   4.212   7.891 -0.3430 -0.3352  0.2195
 4999SOL    HW126633   3.465   4.207   7.903 -0.3411 -0.5929  0.1167
 4999SOL    HW226634   3.601   4.261   7.964  0.6870 -0.6957 -0.1146
 5000SOL     OW26635   1.103   2.309   0.579  0.1268  0.0454 -0.3631
 5000SOL    HW126636   1.104   2.402   0.604 -0.2441 -0.6463  2.2975
 5000SOL    HW226637   1.198   2.311   0.569  0.0895 -0.7449 -0.8857
 5001SOL     OW26638   0.684   2.912  17.175 -0.0278  0.1099  0.4352
 5001SOL    HW126639   0.635   2.834  17.149 -0.4022  0.5629 -0.1861
 5001SOL    HW226640   0.763   2.863  17.199 -0.4315 -0.2347  1.0792
 5002SOL     OW26641   3.953   3.440   1.926 -0.5814 -0.1176  0.2153
 5002SOL    HW126642   3.900   3.509   1.966  1.6960  2.9639 -2.0635
 5002SOL    HW226643   3.928   3.433   1.833  0.4521 -0.2726 -0.0459
 5003SOL     OW26644   0.401   0.451   5.303  0.3189 -0.1311 -0.0125
 5003SOL    HW126645   0.318   0.474   5.345  0.2636 -1.3478  0.5083
 5003SOL    HW226646   0.445   0.422   5.382  1.0100  2.6304  0.6099
 5004SOL     OW26647   3.557   4.350   8.796  0.3525  0.0454 -0.2992
 5004SOL    HW126648   3.595   4.328   8.881 -1.8578  0.3497  0.7819
 5004SOL    HW226649   3.463   4.353   8.814  0.9350  0.4774  2.7342
 5005SOL     OW26650   3.286   4.357   3.708 -0.6952  0.2583  0.2423
 5005SOL    HW126651   3.357   4.350   3.644  0.5203 -0.2751  1.6524
 5005SOL    HW226652   3.271   4.267   3.739  1.3490  0.4797  1.8287
 5006SOL     OW26653   3.292   0.831   3.357  0.2124  0.0576  0.3965
 5006SOL    HW126654   3.331   0.752   3.395 -1.0213 -0.7947 -0.1139
 5006SOL    HW226655   3.203   0.800   3.374 -0.7756  0.9530 -3.3557
 5007SOL     OW26656   2.296   3.951  10.013  0.8141 -0.7845 -0.5090
 5007SOL    HW126657   2.352   4.015  10.056  0.1645 -2.0189  2.1718
 5007SOL    HW226658   2.363   3.884   9.997 -0.1282 -1.8415 -0.0406
 5008SOL     OW26659   3.163   0.562   1.570 -0.8470 -0.0219 -0.3114
 5008SOL    HW126660   3.202   0.488   1.616 -1.2853 -1.1238 -1.6965
 5008SOL    HW226661   3.071   0.540   1.558 -1.0875  1.8258 -1.8153
 5009SOL     OW26662   1.415   1.464   7.069 -0.0260 -0.3104  0.1676
 5009SOL    HW126663   1.386   1.530   7.005  2.2382 -0.0226 -0.5737
 5009SOL    HW226664   1.397   1.502   7.155 -3.7510  1.0074 -1.2189
 5010SOL     OW26665   2.198   2.179   2.435  0.0685 -0.3397 -0.5273
 5010SOL    HW126666   2.193   2.134   2.350 -1.8345 -1.2806  0.0678
 5010SOL    HW226667   2.117   2.139   2.466  1.1025 -2.0281 -0.0184
 5011SOL     OW26668   3.895   4.550   1.445  0.1747  0.5712  0.5617
 5011SOL    HW126669   3.956   4.508   1.384 -0.5776 -0.2898  0.4098
 5011SOL    HW226670   3.839   4.603   1.389  1.7179  0.4476 -1.0998
 5012SOL     OW26671   1.201   1.600   3.684 -0.5069 -0.7398 -0.6359
 5012SOL    HW126672   1.261   1.675   3.678 -1.6028  0.1237 -0.7405
 5012SOL    HW226673   1.156   1.592   3.600  0.3806  1.6431 -1.3528
 5013SOL     OW26674   1.655   0.893   4.731 -0.1880 -0.5138 -0.0809
 5013SOL    HW126675   1.719   0.885   4.661  0.4786 -0.5069  0.5373
 5013SOL    HW226676   1.699   0.959   4.782  1.0309  1.3814 -3.5803
 5014SOL     OW26677   1.150   3.457  17.315  0.2755  0.0807 -0.5623
 5014SOL    HW126678   1.203   3.399  17.370  0.0823  1.8623  1.5074
 5014SOL    HW226679   1.081   3.401  17.279 -0.1467  0.1255  0.1577
 5015SOL     OW26680   2.044   3.927   5.783 -0.3732 -0.1803 -0.4734
 5015SOL    HW126681   2.117   3.947   5.842  1.0433 -0.6528 -2.0661
 5015SOL    HW226682   1.971   3.921   5.844  0.0839  0.8925  0.1869
 5016SOL     OW26683   0.522   2.869   4.168 -0.4255  0.0337  0.4173
 5016SOL    HW126684   0.521   2.819   4.249  1.0060  0.7934  0.9114
 5016SOL    HW226685   0.617   2.883   4.161 -0.3967 -0.6518 -0.4708
 5017SOL     OW26686   2.177   0.630   8.823 -0.4281  0.1784  0.1604
 5017SOL    HW126687   2.272   0.622   8.833 -0.0675  1.6083 -2.2670
 5017SOL    HW226688   2.164   0.713   8.870  1.5116  1.3556 -1.4080
 5018SOL     OW26689   4.577   2.718  10.457 -0.9237  0.2969 -0.1181
 5018SOL    HW126690   4.572   2.704  10.552  1.1062 -0.8399 -0.1848
 5018SOL    HW226691   4.651   2.778  10.450 -2.0610  1.8522  1.1372
 5019SOL     OW26692   2.305   0.612   5.476  0.5901  0.2107 -0.3444
 5019SOL    HW126693   2.242   0.682   5.491 -0.6609 -0.6408 -1.5170
 5019SOL    HW226694   2.253   0.536   5.448  1.2999 -2.3872  5.5260
 5020SOL     OW26695   4.425   1.803   2.971  0.4037  0.0007  0.5322
 5020SOL    HW126696   4.415   1.861   3.047 -1.3749 -0.1232  0.4033
 5020SOL    HW226697   4.367   1.851   2.911  1.6647  1.3826  0.4291
 5021SOL     OW26698   0.650   4.697   3.222  0.2493  0.2044  0.4792
 5021SOL    HW126699   0.661   4.717   3.129 -3.2108  1.6046  0.3633
 5021SOL    HW226700   0.742   4.674   3.235  0.6471  0.2317 -2.3562
 5022SOL     OW26701   3.433   1.635   5.859 -0.1519 -0.4052 -0.6079
 5022SOL    HW126702   3.436   1.714   5.806  2.0266 -0.8620 -1.1736
 5022SOL    HW226703   3.523   1.639   5.890  0.4953 -2.1293 -2.2886
 5023SOL     OW26704   3.999   4.232  17.414  0.1881  0.3285 -0.0369
 5023SOL    HW126705   4.069   4.271  17.467  1.2030  0.9639 -1.8625
 5023SOL    HW226706   3.938   4.207  17.484  2.6125 -0.7506  1.6899
 5024SOL     OW26707   0.514   1.601  17.318  0.2672 -0.0551  0.4971
 5024SOL    HW126708   0.477   1.686  17.342 -2.1134 -1.3981  1.5428
 5024SOL    HW226709   0.460   1.540  17.367  2.1514 -0.9734  1.4113
 5025SOL     OW26710   1.104   2.436   6.185 -0.5612  0.0406 -0.4679
 5025SOL    HW126711   1.080   2.348   6.156  1.5406 -0.3583 -0.9910
 5025SOL    HW226712   1.125   2.416   6.276  1.3511 -1.4427 -1.2418
 5026SOL     OW26713   2.098   2.571   8.909  0.0600 -0.4792  0.2047
 5026SOL    HW126714   2.100   2.666   8.921  1.7738 -0.1792 -2.4048
 5026SOL    HW226715   2.183   2.553   8.948 -0.1969 -1.1779  0.4430
 5027SOL     OW26716   0.399   3.184  16.936 -0.1689 -0.2590 -0.6707
 5027SOL    HW126717   0.341   3.147  17.002 -1.6112  0.8846 -1.3158
 5027SOL    HW226718   0.347   3.168  16.857  2.8289 -2.1975 -2.2596
 5028SOL     OW26719   4.485   0.717  11.179 -0.1529  0.2946  0.1357
 5028SOL    HW126720   4.412   0.683  11.231 -0.2746 -0.4705 -0.5441
 5028SOL    HW226721   4.540   0.639  11.181  2.2255  1.9535 -0.1298
 5029SOL     OW26722   3.878   4.372  15.094 -0.0972 -0.0147  0.2760
 5029SOL    HW126723   3.790   4.387  15.127 -0.6789  0.2963 -1.3942
 5029SOL    HW226724   3.857   4.356  15.002  0.7052 -1.1916  0.2880
 5030SOL     OW26725   3.639   0.551  13.442  0.1586 -0.0116  0.2236
 5030SOL    HW126726   3.701   0.581  13.509  0.8616 -0.2457 -0.3138
 5030SOL    HW226727   3.676   0.598  13.367 -0.9350 -0.0863 -0.3588
 5031SOL     OW26728   3.926   2.581   8.465  0.5194  0.0325 -0.0613
 5031SOL    HW126729   4.001   2.523   8.448  0.8565  0.3744  0.2869
 5031SOL    HW226730   3.911   2.563   8.557 -0.6426  2.2939  0.1915
 5032SOL     OW26731   2.524   2.298   7.684 -0.1686  0.0020  0.3151
 5032SOL    HW126732   2.435   2.307   7.651  0.0806  1.7496  0.0976
 5032SOL    HW226733   2.513   2.312   7.778 -0.7970  2.2766 -0.1047
 5033SOL     OW26734   3.087   2.383  11.437 -0.6834 -0.5049 -0.3147
 5033SOL    HW126735   2.997   2.390  11.469 -0.2561 -1.4875  1.0981
 5033SOL    HW226736   3.113   2.473  11.415 -0.6657 -0.6270 -0.7915
 5034SOL     OW26737   1.697   4.340   8.496  0.2601  0.0228 -0.1816
 5034SOL    HW126738   1.680   4.409   8.560  2.7618 -0.5009  1.0279
 5034SOL    HW226739   1.792   4.347   8.492  0.1750  1.6477  0.5115
 5035SOL     OW26740   2.732   1.915   6.793  0.1533 -0.1569  0.0815
 5035SOL    HW126741   2.726   1.822   6.815  2.6482 -0.5686 -0.9408
 5035SOL    HW226742   2.805   1.919   6.731  1.0817 -2.5091  1.0232
 5036SOL     OW26743   1.169   2.953   2.789  0.2163 -0.4331 -0.5190
 5036SOL    HW126744   1.232   2.958   2.862  0.9329  0.2029 -1.1866
 5036SOL    HW226745   1.130   3.038   2.807  0.7794 -0.2971  0.0916
 5037SOL     OW26746   2.408   0.998   1.939  0.2347 -0.0395  0.1498
 5037SOL    HW126747   2.322   0.991   1.897  1.1936 -0.0707 -1.8322
 5037SOL    HW226748   2.397   0.990   2.033 -2.7616 -0.6013 -0.2642
 5038SOL     OW26749   1.848   2.300   8.441  0.5530 -0.1149  0.0648
 5038SOL    HW126750   1.943   2.289   8.428  0.7597 -2.1483  3.1232
 5038SOL    HW226751   1.834   2.292   8.535  1.5056  2.6230  0.4370
 5039SOL     OW26752   2.560   1.130   1.128  0.1833  0.1805 -0.4621
 5039SOL    HW126753   2.502   1.125   1.052  1.3947 -0.3814 -1.3442
 5039SOL    HW226754   2.505   1.180   1.189 -1.1654 -0.1271 -1.4333
 5040SOL     OW26755   0.269   0.364  12.380 -0.2045 -0.3874 -0.0372
 5040SOL    HW126756   0.311   0.282  12.407 -2.1199 -0.0770  3.8770
 5040SOL    HW226757   0.282   0.418  12.458 -0.5264 -1.2492  0.6157
 5041SOL     OW26758   4.698   4.000   8.694  0.1949  0.4205  0.6303
 5041SOL    HW126759   0.028   4.033   8.639  0.9688 -1.0866  0.6968
 5041SOL    HW226760   0.007   3.934   8.742  2.6974  1.2741 -0.8040
 5042SOL     OW26761   3.452   4.731   2.897  0.3164 -0.0203 -0.0567
 5042SOL    HW126762   3.480   0.041   2.974 -0.0948  1.2447 -0.7426
 5042SOL    HW226763   3.483   0.051   2.829  0.8222  0.2390  0.3994
 5043SOL     OW26764   4.340   0.035   1.198 -0.0016  0.3768  0.1541
 5043SOL    HW126765   4.281   0.027   1.273  0.3738  1.8140  0.6013
 5043SOL    HW226766   4.331   0.127   1.172  0.9316  0.8145  1.4027
 5044SOL     OW26767   3.752   0.876   6.326  0.0454  0.6400  0.2344
 5044SOL    HW126768   3.732   0.940   6.258  2.8056  2.1395  0.7973
 5044SOL    HW226769   3.841   0.847   6.305 -0.4750 -0.1936 -0.7962
 5045SOL     OW26770   1.502   4.140   7.201 -0.1776  0.5293 -0.1188
 5045SOL    HW126771   1.444   4.072   7.167  1.0218 -0.9278  0.7586
 5045SOL    HW226772   1.564   4.151   7.129  0.3256 -2.2268 -0.1261
 5046SOL     OW26773   0.209   3.703   7.106 -0.7444 -0.3224 -0.1127
 5046SOL    HW126774   0.142   3.639   7.085 -0.4800 -1.4212  2.3284
 5046SOL    HW226775   0.185   3.765   7.038  0.9529  0.8852  0.3640
 5047SOL     OW26776   3.236   2.341  12.994 -0.1328  0.2875  0.2357
 5047SOL    HW126777   3.270   2.309  13.078  1.6697  2.1005  0.1875
 5047SOL    HW226778   3.275   2.428  12.994  0.0416  0.1991 -1.3910
 5048SOL     OW26779   2.301   2.098   2.811 -0.3351 -0.2483  0.1691
 5048SOL    HW126780   2.259   2.170   2.763 -0.9860 -1.3717 -0.9365
 5048SOL    HW226781   2.230   2.034   2.814  0.4205 -1.1527 -1.2048
 5049SOL     OW26782   3.312   1.953   2.106 -0.0556 -0.6909 -0.0119
 5049SOL    HW126783   3.376   1.930   2.173  0.9667  0.8541 -0.4527
 5049SOL    HW226784   3.362   1.989   2.033 -0.1513  2.0283  1.2842
 5050SOL     OW26785   4.691   2.019  11.027 -0.1067 -0.2220 -0.1783
 5050SOL    HW126786   4.649   2.105  11.037 -1.7183 -0.9530 -0.7055
 5050SOL    HW226787   4.693   2.000  11.121  1.4800  0.4947 -0.0747
 5051SOL     OW26788   3.605   1.780   5.001 -0.1773 -0.9184  0.1396
 5051SOL    HW126789   3.636   1.825   5.080  0.7445 -0.5761 -0.4133
 5051SOL    HW226790   3.576   1.691   5.022 -2.1490 -0.3115 -0.0078
 5052SOL     OW26791   1.675   3.025  13.321 -0.0766  0.0962 -0.0702
 5052SOL    HW126792   1.663   3.071  13.238 -0.9167  2.8205  1.5801
 5052SOL    HW226793   1.583   3.022  13.345  0.1703  0.5627  0.9138
 5053SOL     OW26794   3.768   0.697   7.243  0.2937 -0.1720  0.0004
 5053SOL    HW126795   3.688   0.745   7.221  0.7510  0.1969 -0.8503
 5053SOL    HW226796   3.736   0.645   7.317  2.0683  0.4287  1.1931
 5054SOL     OW26797   0.042   1.413   2.879 -0.3263  0.1020  0.0903
 5054SOL    HW126798   4.733   1.401   2.960  1.1684  0.9507  1.1130
 5054SOL    HW226799   4.714   1.412   2.811  1.1201  2.6497 -1.4090
 5055SOL     OW26800   2.722   2.060   6.207  0.0676  0.1233  0.0333
 5055SOL    HW126801   2.773   2.138   6.231  0.1945  0.1545 -0.3303
 5055SOL    HW226802   2.673   2.043   6.287 -1.8574  1.2589 -0.9053
 5056SOL     OW26803   2.156   1.013   8.712 -0.5164  0.1362 -1.0579
 5056SOL    HW126804   2.114   1.018   8.797  0.2292 -1.5102 -0.5940
 5056SOL    HW226805   2.231   1.073   8.712 -0.8697  0.5795 -2.0989
 5057SOL     OW26806   0.960   2.367   5.488  0.0230  0.9086  0.5254
 5057SOL    HW126807   0.997   2.351   5.575  2.3890  2.2691 -0.2402
 5057SOL    HW226808   1.031   2.373   5.425 -0.0046 -1.2590  0.2892
 5058SOL     OW26809   2.678   1.222   7.348 -0.2012  0.1853 -0.1912
 5058SOL    HW126810   2.644   1.179   7.270 -2.1094  0.3241  0.5837
 5058SOL    HW226811   2.599   1.199   7.396 -1.1207  0.7263 -1.4619
 5059SOL     OW26812   3.079   2.434   1.535  0.7381 -0.6150 -0.1020
 5059SOL    HW126813   3.058   2.447   1.628  1.6803 -2.6231  0.3815
 5059SOL    HW226814   3.108   2.520   1.503  0.6092 -0.3535  0.4878
 5060SOL     OW26815   2.790   0.044   2.538  0.2090  0.3589 -0.4096
 5060SOL    HW126816   2.727   0.099   2.585  0.0380 -1.6575  1.7412
 5060SOL    HW226817   2.870   0.046   2.592 -0.3260 -1.3281  0.4232
 5061SOL     OW26818   1.543   0.456   3.519  0.6039 -0.5474 -0.0084
 5061SOL    HW126819   1.555   0.540   3.563 -0.2085 -0.2398 -0.3651
 5061SOL    HW226820   1.476   0.411   3.570  2.4207 -1.0718  1.9110
 5062SOL     OW26821   2.115   4.720   0.996  0.3289 -0.9805 -0.4795
 5062SOL    HW126822   2.031   4.695   0.956  0.5670 -0.4799 -1.2785
 5062SOL    HW226823   2.186   4.689   0.941  0.3776 -2.4700  0.4177
 5063SOL     OW26824   1.722   1.127   3.558 -0.1590  0.0719  0.0884
 5063SOL    HW126825   1.784   1.073   3.510 -0.0550 -1.0525  1.4844
 5063SOL    HW226826   1.702   1.069   3.632 -0.8419 -0.5714 -0.5985
 5064SOL     OW26827   3.030   3.289   7.233 -0.5686  0.4573  0.0897
 5064SOL    HW126828   2.976   3.282   7.312 -1.3863  0.6231 -0.4599
 5064SOL    HW226829   3.013   3.380   7.209 -0.0772 -0.1015 -2.3041
 5065SOL     OW26830   1.115   3.528   2.596 -0.2366  0.2783 -0.0817
 5065SOL    HW126831   1.200   3.521   2.552 -0.6323  1.5575 -1.0528
 5065SOL    HW226832   1.065   3.534   2.515  0.3970  1.1172 -0.4054
 5066SOL     OW26833   1.106   0.733   5.538  0.5893 -0.1054 -0.0816
 5066SOL    HW126834   1.066   0.650   5.513  1.8509  0.0133 -2.4956
 5066SOL    HW226835   1.199   0.712   5.543  0.9379  1.3583 -0.4716
 5067SOL     OW26836   0.740   1.342   1.375  0.0637 -1.2693  0.1698
 5067SOL    HW126837   0.768   1.423   1.332 -0.2964 -1.4493 -0.4093
 5067SOL    HW226838   0.648   1.332   1.351 -0.1422  0.1517  0.3511
 5068SOL     OW26839   1.889   0.614   6.856 -0.1951  0.1810 -0.2406
 5068SOL    HW126840   1.856   0.643   6.941 -0.8043 -1.5482  0.1175
 5068SOL    HW226841   1.829   0.663   6.800 -1.5996  0.2004  1.2796
 5069SOL     OW26842   0.015   1.815   8.883  0.2483 -0.9902 -0.1776
 5069SOL    HW126843   0.057   1.738   8.844  2.2397  0.2757 -0.5366
 5069SOL    HW226844   4.703   1.848   8.810 -0.9895  1.7090  1.9316
 5070SOL     OW26845   4.290   2.572   6.154 -0.3985  0.2112 -0.6093
 5070SOL    HW126846   4.338   2.647   6.188 -1.2267  0.1573  0.6763
 5070SOL    HW226847   4.351   2.517   6.105 -0.4205 -0.5381  0.2104
 5071SOL     OW26848   0.137   3.826   7.964 -0.3230 -0.3197 -0.6841
 5071SOL    HW126849   0.092   3.863   8.040  2.4282  0.4282  0.5831
 5071SOL    HW226850   0.230   3.850   7.964 -0.8338  1.6069 -0.1543
 5072SOL     OW26851   3.074   0.513   9.138 -0.1168 -0.0303 -0.4391
 5072SOL    HW126852   3.149   0.496   9.195 -1.4604 -1.7968  0.8177
 5072SOL    HW226853   3.093   0.606   9.132 -0.5274  0.1630  1.2131
 5073SOL     OW26854   3.110   1.427   5.686  0.4739 -0.0294 -0.5629
 5073SOL    HW126855   3.191   1.430   5.635 -0.0880 -2.1498 -1.5817
 5073SOL    HW226856   3.067   1.370   5.622 -0.5427 -1.1463  1.0828
 5074SOL     OW26857   3.233   2.905   7.767  0.2284  0.6328 -0.3882
 5074SOL    HW126858   3.209   2.934   7.679  0.6807 -3.3011 -1.7790
 5074SOL    HW226859   3.146   2.880   7.797  1.0964 -0.3866  1.2496
 5075SOL     OW26860   3.811   0.563   2.163 -0.4851 -0.1460  0.0031
 5075SOL    HW126861   3.756   0.639   2.184 -0.0771  0.4201 -0.9821
 5075SOL    HW226862   3.753   0.528   2.096 -1.1838 -2.4483  1.7908
 5076SOL     OW26863   1.739   3.044  15.514 -0.3829 -0.5179  0.2583
 5076SOL    HW126864   1.812   3.026  15.573 -1.1864  0.6475  1.6108
 5076SOL    HW226865   1.779   3.091  15.441 -0.1357 -1.2657 -0.0804
 5077SOL     OW26866   1.585   1.064   8.788  0.3579  0.7717  0.0788
 5077SOL    HW126867   1.681   1.060   8.788  0.3419  0.4275  2.3705
 5077SOL    HW226868   1.560   0.979   8.751 -1.4213  0.7619  1.3062
 5078SOL     OW26869   3.569   4.647   6.416  0.0818 -0.1513  0.5619
 5078SOL    HW126870   3.494   4.699   6.387  1.1300  1.1450  0.1405
 5078SOL    HW226871   3.633   4.718   6.415  1.8504 -1.6887  3.6281
 5079SOL     OW26872   0.680   1.518   3.507 -0.2968 -0.1035  0.5539
 5079SOL    HW126873   0.770   1.548   3.515 -1.3129  3.4200 -1.4146
 5079SOL    HW226874   0.661   1.492   3.598  1.9607  0.7943  1.2822
 5080SOL     OW26875   1.369   0.045  13.582 -0.0291  0.0860 -0.5602
 5080SOL    HW126876   1.399   0.136  13.579  2.1893 -0.6111  0.4189
 5080SOL    HW226877   1.276   0.064  13.597 -0.2169 -1.3562  0.0923
 5081SOL     OW26878   3.481   3.835   1.720 -0.3462 -0.5055  0.6651
 5081SOL    HW126879   3.538   3.775   1.768 -0.1443  2.0285  3.5516
 5081SOL    HW226880   3.410   3.848   1.783  0.9487  0.1043  1.9858
 5082SOL     OW26881   3.458   2.732   3.162  0.5582  0.2365  0.5050
 5082SOL    HW126882   3.411   2.802   3.206  1.2472 -0.2853  2.0630
 5082SOL    HW226883   3.506   2.696   3.237 -0.2741  1.3610  1.5687
 5083SOL     OW26884   2.049   3.559   9.340  0.1688  0.0456 -0.3183
 5083SOL    HW126885   1.996   3.481   9.355  1.4482 -0.4637  1.6480
 5083SOL    HW226886   1.978   3.619   9.360  0.7558 -0.0584  2.1331
 5084SOL     OW26887   2.418   2.678  13.631 -0.1781 -0.0637 -0.2802
 5084SOL    HW126888   2.403   2.713  13.718 -0.5727 -0.8960 -0.0186
 5084SOL    HW226889   2.513   2.695  13.629 -0.3789  1.0356 -0.4090
 5085SOL     OW26890   0.216   0.310  13.789  0.0885  0.0800  0.0849
 5085SOL    HW126891   0.303   0.350  13.781  0.6475 -1.4160 -1.4205
 5085SOL    HW226892   0.229   0.232  13.843  0.1448 -0.2291 -0.3744
 5086SOL     OW26893   2.864   3.715   2.727  0.1887 -0.0994 -0.8724
 5086SOL    HW126894   2.832   3.790   2.777 -0.3064  1.9824 -4.3185
 5086SOL    HW226895   2.953   3.694   2.754 -0.3774 -0.0853  0.9624
 5087SOL     OW26896   4.263   2.306   0.809 -0.5304 -0.0225  0.3005
 5087SOL    HW126897   4.261   2.358   0.889  1.0223  0.4947  0.0127
 5087SOL    HW226898   4.222   2.370   0.750 -0.5562 -0.2523  0.0647
 5088SOL     OW26899   1.589   1.602   6.848  0.5337 -0.4356  0.3743
 5088SOL    HW126900   1.630   1.588   6.933  3.1965  1.3274 -0.6322
 5088SOL    HW226901   1.659   1.618   6.785  0.2928 -0.0258  0.2100
 5089SOL     OW26902   2.603   3.597   7.433 -0.1279 -0.1223  0.5450
 5089SOL    HW126903   2.574   3.572   7.346  0.5444  2.0626 -0.3068
 5089SOL    HW226904   2.526   3.642   7.467  0.4720  0.2350  1.4537
 5090SOL     OW26905   0.470   0.153   2.052  0.1305 -0.3427 -0.5781
 5090SOL    HW126906   0.394   0.104   2.085  1.8141 -3.2543 -1.0345
 5090SOL    HW226907   0.472   0.223   2.116  1.5586 -0.9777  0.0765
 5091SOL     OW26908   0.711   0.220   3.350  0.9081  0.1783  0.1036
 5091SOL    HW126909   0.617   0.242   3.351  0.5027 -1.5882  0.4177
 5091SOL    HW226910   0.728   0.171   3.430  0.1592 -1.5911 -0.8318
 5092SOL     OW26911   4.649   1.796   3.287  0.3219 -0.4701  0.2521
 5092SOL    HW126912   4.725   1.849   3.310 -0.5261  0.8525  0.0037
 5092SOL    HW226913   4.679   1.725   3.230 -1.0482 -0.1344 -0.8922
 5093SOL     OW26914   1.658   0.002   9.857 -0.2871  0.3204 -0.2555
 5093SOL    HW126915   1.620   4.698   9.782  0.6736 -2.0740  0.6912
 5093SOL    HW226916   1.599   0.078   9.856 -1.1238 -0.3470 -1.5905
 5094SOL     OW26917   3.776   1.794   4.557 -0.2703 -0.4699  0.2627
 5094SOL    HW126918   3.855   1.746   4.581  0.3938 -0.7855 -2.5232
 5094SOL    HW226919   3.767   1.770   4.464 -0.2271 -1.6305  0.5487
 5095SOL     OW26920   3.991   0.474   1.921  0.1245  0.1559  0.1056
 5095SOL    HW126921   3.951   0.480   2.008 -0.6690 -1.3305 -0.1601
 5095SOL    HW226922   4.012   0.566   1.902 -2.8946  1.0223  0.8793
 5096SOL     OW26923   1.719   3.652   9.055 -0.8347  0.3866  0.0242
 5096SOL    HW126924   1.800   3.607   9.033 -1.1183 -0.0086 -0.2073
 5096SOL    HW226925   1.691   3.605   9.134  0.4109 -0.4801 -0.0454
 5097SOL     OW26926   2.145   1.837   3.594 -0.0321 -0.0894 -0.4598
 5097SOL    HW126927   2.197   1.864   3.519 -0.6348 -2.2291 -1.6384
 5097SOL    HW226928   2.213   1.799   3.650 -1.6185 -0.2735  1.3223
 5098SOL     OW26929   4.494   4.050  10.562  0.2324  0.5111  0.2581
 5098SOL    HW126930   4.509   4.145  10.555  2.1507  0.2118  0.2695
 5098SOL    HW226931   4.491   4.032  10.468  0.2591  0.6480  0.2299
 5099SOL     OW26932   3.335   4.088   2.887  0.7462  0.1695 -0.3140
 5099SOL    HW126933   3.425   4.077   2.857  0.4928  0.0446 -1.0287
 5099SOL    HW226934   3.284   4.091   2.806 -0.5605 -0.8967  0.4593
 5100SOL     OW26935   3.816   1.904  15.002 -0.3231  0.3152 -0.5263
 5100SOL    HW126936   3.730   1.920  14.964 -1.4832 -2.4616  0.9834
 5100SOL    HW226937   3.819   1.971  15.071 -2.1919 -0.9470  0.7680
 5101SOL     OW26938   2.552   0.935  13.842 -0.2417 -0.4397 -0.4130
 5101SOL    HW126939   2.504   0.884  13.777 -0.4922  0.6981 -1.1372
 5101SOL    HW226940   2.490   0.984  13.896 -1.3224  0.6449 -2.6314
 5102SOL     OW26941   2.117   3.427   2.034  0.4455 -0.3863 -0.6599
 5102SOL    HW126942   2.193   3.394   1.986 -0.0426 -1.1006 -0.9479
 5102SOL    HW226943   2.152   3.447   2.121  0.6402 -1.5622 -0.4676
 5103SOL     OW26944   1.102   1.493   9.716 -0.3735 -0.1300  0.6989
 5103SOL    HW126945   1.034   1.446   9.669 -0.7882 -0.1768  1.3411
 5103SOL    HW226946   1.058   1.575   9.738 -1.0480 -0.5186  0.7949
 5104SOL     OW26947   0.269   0.125   2.515 -0.2321 -0.1962 -0.0678
 5104SOL    HW126948   0.321   0.205   2.524  0.7188 -0.7323 -0.8537
 5104SOL    HW226949   0.341   0.067   2.493 -0.2651  0.1359 -1.0351
 5105SOL     OW26950   3.506   0.714   3.950 -0.0033 -0.1421 -0.2307
 5105SOL    HW126951   3.478   0.627   3.923 -1.5042  0.8687 -1.9635
 5105SOL    HW226952   3.591   0.718   3.906  1.0466 -0.9446  1.7524
 5106SOL     OW26953   1.763   0.199   6.860  0.0241  0.1945  0.1218
 5106SOL    HW126954   1.733   0.288   6.846 -2.4963 -0.8654 -1.3250
 5106SOL    HW226955   1.688   0.148   6.893 -0.7438  0.8832 -0.5688
 5107SOL     OW26956   1.387   3.672  14.059  0.3045 -0.4874 -0.1351
 5107SOL    HW126957   1.398   3.663  14.154 -0.1920 -1.4029 -0.1641
 5107SOL    HW226958   1.417   3.587  14.026  3.9889  0.0879  1.7171
 5108SOL     OW26959   2.660   0.977   4.480  0.0108  0.4690  0.5732
 5108SOL    HW126960   2.728   0.966   4.547  1.0802 -0.5703 -0.6993
 5108SOL    HW226961   2.690   1.051   4.426 -0.7491 -0.0205 -0.5174
 5109SOL     OW26962   1.577   3.680   5.247  0.0750 -0.0135 -0.2275
 5109SOL    HW126963   1.529   3.688   5.330  1.7143  2.8641  0.4430
 5109SOL    HW226964   1.645   3.618   5.273 -0.3588 -0.0959  0.7312
 5110SOL     OW26965   1.888   1.487   3.050  0.3675  0.0756 -0.1276
 5110SOL    HW126966   1.934   1.405   3.034 -0.0162  0.3267 -2.4040
 5110SOL    HW226967   1.831   1.472   3.126 -1.5824 -0.0828 -1.6246
 5111SOL     OW26968   2.273   1.032   4.802  0.2346 -0.5103 -0.3429
 5111SOL    HW126969   2.337   1.070   4.862 -2.1600  1.1774  1.1616
 5111SOL    HW226970   2.322   1.026   4.720 -1.4180  1.7226 -1.4810
 5112SOL     OW26971   2.989   0.659   6.491  0.1762 -0.2375  0.0357
 5112SOL    HW126972   3.012   0.610   6.412  1.6974 -1.3734  1.1855
 5112SOL    HW226973   2.895   0.643   6.483 -0.2778  1.0847  2.9366
 5113SOL     OW26974   3.389   0.451   8.728 -0.2732  0.5571 -0.6056
 5113SOL    HW126975   3.484   0.447   8.740 -0.5448 -1.4970  0.8317
 5113SOL    HW226976   3.351   0.471   8.813  1.0992 -0.0473  0.1633
 5114SOL     OW26977   3.794   3.730  12.450 -0.0653  0.4182  0.6419
 5114SOL    HW126978   3.818   3.797  12.385  1.8553 -1.5524 -0.6567
 5114SOL    HW226979   3.796   3.656  12.389  0.3949 -0.0892  1.2762
 5115SOL     OW26980   1.572   0.076  14.458  0.3002  0.0857 -0.4244
 5115SOL    HW126981   1.554   0.124  14.539  2.6991  0.6983 -0.2434
 5115SOL    HW226982   1.494   0.106  14.411 -1.2567 -1.9452  0.8672
 5116SOL     OW26983   1.829   4.327   3.987  0.3495  0.0042 -0.0887
 5116SOL    HW126984   1.790   4.304   4.072 -1.1030  2.4210 -0.1193
 5116SOL    HW226985   1.859   4.417   3.994 -1.1119  0.5348 -0.6758
 5117SOL     OW26986   3.304   2.891   6.879  0.5533 -0.0554 -0.3890
 5117SOL    HW126987   3.394   2.869   6.903  0.6741  0.3313 -0.4936
 5117SOL    HW226988   3.250   2.862   6.952  0.1785 -0.5950 -0.8807
 5118SOL     OW26989   1.697   3.802   2.147  0.0251  0.1923 -0.7549
 5118SOL    HW126990   1.713   3.708   2.152  0.6985  0.3446 -0.0461
 5118SOL    HW226991   1.604   3.809   2.122 -0.4548  2.3273  1.6116
 5119SOL     OW26992   3.637   1.228   7.580  0.4202 -0.3440 -0.0799
 5119SOL    HW126993   3.692   1.306   7.572  0.6090 -0.4378  0.2548
 5119SOL    HW226994   3.697   1.159   7.550 -0.3210 -0.6730 -0.7939
 5120SOL     OW26995   0.109   2.306   1.762  0.7967  0.0939  0.1924
 5120SOL    HW126996   0.189   2.256   1.778  0.1350 -1.7103 -2.0734
 5120SOL    HW226997   0.148   2.392   1.748  0.1716  0.2866 -0.3684
 5121SOL     OW26998   0.311   0.772  12.267 -0.1321  0.8743 -0.3312
 5121SOL    HW126999   0.233   0.745  12.317 -0.0135 -0.2257 -0.7591
 5121SOL    HW227000   0.283   0.864  12.261 -0.8798  0.6308 -0.6131
 5122SOL     OW27001   0.780   1.174   1.580 -0.1343 -0.3510 -0.1657
 5122SOL    HW127002   0.875   1.163   1.570  0.1421  2.5922 -1.0424
 5122SOL    HW227003   0.773   1.234   1.505 -3.6010 -1.7743 -0.9816
 5123SOL     OW27004   1.798   0.392   3.761  0.1891  0.7677 -0.0161
 5123SOL    HW127005   1.752   0.447   3.825  1.8483  0.4920  1.4237
 5123SOL    HW227006   1.880   0.436   3.738  0.2123  0.7255 -0.0145
 5124SOL     OW27007   4.599   1.243   2.019  0.1322  0.5924 -0.3496
 5124SOL    HW127008   4.613   1.277   1.931 -0.5134  1.3664 -0.1587
 5124SOL    HW227009   4.683   1.278   2.051  0.5235 -0.9453  0.2967
 5125SOL     OW27010   2.704   2.178   3.079 -0.5658 -0.1767 -0.0751
 5125SOL    HW127011   2.638   2.109   3.069  0.5798 -1.2220 -0.3418
 5125SOL    HW227012   2.711   2.206   2.988  2.6133 -0.6406  0.0477
 5126SOL     OW27013   3.123   4.295   0.598  0.1123  0.1878  0.0391
 5126SOL    HW127014   3.099   4.233   0.668 -0.5972  0.5075  0.0835
 5126SOL    HW227015   3.193   4.250   0.552 -0.4425  0.9828 -1.5667
 5127SOL     OW27016   2.868   2.800  12.911 -0.2809  0.3430  0.2956
 5127SOL    HW127017   2.811   2.726  12.894  0.3335 -0.4662  1.7572
 5127SOL    HW227018   2.871   2.848  12.828 -0.9543 -0.5582 -0.2449
 5128SOL     OW27019   3.176   1.319   5.342  0.1483 -0.4247 -0.3625
 5128SOL    HW127020   3.262   1.349   5.315  0.7719 -1.9236 -0.0280
 5128SOL    HW227021   3.170   1.226   5.322 -1.1444 -0.8106  1.8265
 5129SOL     OW27022   0.819   4.582   3.697  0.2242  0.7840  0.3199
 5129SOL    HW127023   0.913   4.578   3.715  0.0536  2.0023  1.5067
 5129SOL    HW227024   0.796   4.489   3.692 -1.2636  1.1480  0.4103
 5130SOL     OW27025   0.796   4.290   3.872 -0.1084 -0.7961  0.3118
 5130SOL    HW127026   0.867   4.301   3.809  1.5499  0.3490  2.4164
 5130SOL    HW227027   0.845   4.290   3.954 -1.0935 -0.9377  0.9080
 5131SOL     OW27028   1.078   1.025   3.363 -0.6293  0.0718 -0.1023
 5131SOL    HW127029   1.070   1.101   3.421  2.1779 -0.5290  1.0567
 5131SOL    HW227030   0.993   1.011   3.321 -1.7678 -2.5125  3.0599
 5132SOL     OW27031   0.425   1.329   9.384 -0.1395  0.7147 -0.0577
 5132SOL    HW127032   0.430   1.289   9.297 -0.3523  1.7622 -0.5565
 5132SOL    HW227033   0.503   1.385   9.385  0.1984  0.2141  1.3001
 5133SOL     OW27034   0.079   1.985  14.616 -0.2445  0.1690 -0.5338
 5133SOL    HW127035   0.109   1.922  14.681  1.7635 -0.0802 -1.6971
 5133SOL    HW227036   4.732   1.953  14.593  0.7049 -1.0765 -2.4297
 5134SOL     OW27037   4.527   1.207  11.007 -0.1627  0.0456 -0.4465
 5134SOL    HW127038   4.466   1.157  11.061  0.9136 -0.8825 -0.0900
 5134SOL    HW227039   4.601   1.147  11.015 -0.8295 -0.7572 -0.3926
 5135SOL     OW27040   3.755   1.757   2.479 -0.1447 -0.6115  0.1703
 5135SOL    HW127041   3.825   1.695   2.459 -0.8714 -1.6626  0.9058
 5135SOL    HW227042   3.679   1.708   2.447  0.0155 -1.1923  0.6796
 5136SOL     OW27043   2.825   1.525   0.883  0.6508  0.4731  0.4849
 5136SOL    HW127044   2.810   1.433   0.906 -2.1429  1.4555  2.6087
 5136SOL    HW227045   2.881   1.509   0.807 -0.1406 -0.0328  0.0031
 5137SOL     OW27046   1.976   2.100   7.023  0.4194  0.0210 -0.0642
 5137SOL    HW127047   2.060   2.072   7.058  0.3510 -1.8060 -1.4143
 5137SOL    HW227048   1.991   2.080   6.931  0.8856  0.6160 -0.1172
 5138SOL     OW27049   1.363   2.422   4.631  0.0153  0.0278 -0.0638
 5138SOL    HW127050   1.355   2.398   4.539  0.7917 -0.3700 -0.0293
 5138SOL    HW227051   1.316   2.353   4.678 -1.1341  0.1665 -1.0145
 5139SOL     OW27052   1.351   0.572   4.288  0.3593  0.3467  0.0617
 5139SOL    HW127053   1.391   0.498   4.332  0.3113 -0.2153 -0.8341
 5139SOL    HW227054   1.412   0.645   4.299  0.6920 -0.0278  0.6756
 5140SOL     OW27055   1.330   1.536  13.048  0.1741 -0.1091 -0.3734
 5140SOL    HW127056   1.365   1.548  12.959 -0.6197  0.5445 -0.6046
 5140SOL    HW227057   1.266   1.608  13.042 -0.1018 -0.3050  0.2560
 5141SOL     OW27058   3.627   0.748  15.390  0.2075  0.5101  0.3645
 5141SOL    HW127059   3.573   0.689  15.337 -0.2715  0.3971  0.9775
 5141SOL    HW227060   3.673   0.684  15.444 -0.2785 -0.2500 -0.1249
 5142SOL     OW27061   2.811   3.025   1.300 -0.3007  0.0177  0.0269
 5142SOL    HW127062   2.749   2.995   1.234 -2.3228 -0.5949  2.2152
 5142SOL    HW227063   2.770   3.104   1.334 -0.6200  0.8977 -2.4261
 5143SOL     OW27064   0.287   1.257   9.624 -0.6688  0.6865 -0.4538
 5143SOL    HW127065   0.320   1.171   9.651 -1.0265  1.0488  1.0970
 5143SOL    HW227066   0.333   1.266   9.540  3.2618  1.6019  1.7987
 5144SOL     OW27067   2.455   3.452   4.880  0.2879  0.4107  0.0880
 5144SOL    HW127068   2.549   3.451   4.864  0.1495  1.2568 -0.8154
 5144SOL    HW227069   2.443   3.546   4.870 -0.0653  0.3761  0.2062
 5145SOL     OW27070   0.274   0.640   9.297 -0.2005  0.2308  0.4013
 5145SOL    HW127071   0.300   0.695   9.223 -2.2593 -3.2106 -2.8967
 5145SOL    HW227072   0.304   0.694   9.370 -0.1931 -2.5399  2.4240
 5146SOL     OW27073   2.500   0.415  16.028  0.0084 -0.4411  0.1917
 5146SOL    HW127074   2.554   0.354  15.977 -3.2804 -2.0124 -1.3923
 5146SOL    HW227075   2.416   0.370  16.034 -0.3545  0.1828 -0.2463
 5147SOL     OW27076   2.025   4.457   2.541 -0.0464 -0.5270 -0.0685
 5147SOL    HW127077   1.990   4.510   2.469  0.7577 -1.6787 -1.3066
 5147SOL    HW227078   1.987   4.510   2.610  2.4338 -1.7552  2.2151
 5148SOL     OW27079   3.259   3.546   4.943  0.3194 -0.1135  0.0218
 5148SOL    HW127080   3.350   3.541   4.974  0.0835 -1.2796  0.5005
 5148SOL    HW227081   3.212   3.591   5.013  1.5100  0.1571  0.6504
 5149SOL     OW27082   4.112   2.977   2.951  0.1412  0.0398 -0.0089
 5149SOL    HW127083   4.025   2.951   2.981 -0.1430 -1.8168 -2.4102
 5149SOL    HW227084   4.094   3.028   2.872 -0.2023  0.7247  0.5083
 5150SOL     OW27085   4.579   0.051   9.852 -0.0414 -0.3015  0.0692
 5150SOL    HW127086   4.548   4.706   9.883 -0.0960  0.3390  1.8045
 5150SOL    HW227087   4.614   0.019   9.769  0.8241 -1.9425  1.0726
 5151SOL     OW27088   2.268   1.782   6.780  0.2234 -0.4445  0.1653
 5151SOL    HW127089   2.311   1.852   6.829 -1.2786  0.9878 -0.5597
 5151SOL    HW227090   2.209   1.752   6.850  1.2763 -1.5469  0.5619
 5152SOL     OW27091   1.346   0.843   2.879 -0.3783  0.1660  0.9098
 5152SOL    HW127092   1.280   0.829   2.948 -0.1886 -0.7425  0.9061
 5152SOL    HW227093   1.326   0.929   2.843 -0.9858  0.7987  2.7279
 5153SOL     OW27094   1.918   2.154  12.509  0.3510 -0.1949 -0.1274
 5153SOL    HW127095   1.961   2.164  12.424 -0.7463  2.3719 -0.3890
 5153SOL    HW227096   1.864   2.078  12.490 -1.9915  1.9096 -1.9553
 5154SOL     OW27097   2.492   1.592   5.032 -0.3745  0.0767 -0.4649
 5154SOL    HW127098   2.531   1.526   5.089 -0.6976  0.2610 -0.0335
 5154SOL    HW227099   2.409   1.548   5.011  0.1338 -1.4222  0.6691
 5155SOL     OW27100   1.013   4.406   8.050  0.2231  0.3763  0.3683
 5155SOL    HW127101   0.931   4.394   8.097 -0.0540 -0.0245 -0.2073
 5155SOL    HW227102   1.033   4.312   8.057  1.7382  0.6972  0.3803
 5156SOL     OW27103   3.153   1.413   4.951  0.6255  0.0642 -0.3807
 5156SOL    HW127104   3.229   1.356   4.950  1.3802  1.0667 -0.7584
 5156SOL    HW227105   3.083   1.364   4.993  1.6898 -1.4610 -0.4195
 5157SOL     OW27106   2.997   3.567   7.194  0.4226 -0.1065 -0.0443
 5157SOL    HW127107   3.000   3.632   7.124 -0.0234  0.1893  0.2127
 5157SOL    HW227108   3.090   3.565   7.217  0.0549 -0.6021  1.4105
 5158SOL     OW27109   3.886   4.735  12.443  0.2539 -0.2178  0.3930
 5158SOL    HW127110   3.878   0.070  12.503  0.1685  0.8734 -0.9837
 5158SOL    HW227111   3.795   4.710  12.432 -0.4173  2.2867  0.1142
 5159SOL     OW27112   2.650   0.393   2.434 -0.5053 -0.5277  0.9371
 5159SOL    HW127113   2.694   0.370   2.352  1.5016  1.4326  1.4795
 5159SOL    HW227114   2.724   0.444   2.465 -1.7938  0.9582  1.5937
 5160SOL     OW27115   3.329   3.675   3.701  0.1165 -0.5528 -0.4259
 5160SOL    HW127116   3.275   3.599   3.678 -0.1552 -0.8462  1.1627
 5160SOL    HW227117   3.264   3.744   3.713  0.4210 -0.1669 -1.0751
 5161SOL     OW27118   2.164   4.027   0.383  0.0889  0.2749 -0.4220
 5161SOL    HW127119   2.252   4.058   0.362 -0.7114  2.0381 -1.1814
 5161SOL    HW227120   2.167   4.006   0.476 -2.0016  4.2826  0.5325
 5162SOL     OW27121   2.934   1.495  17.669  0.4703 -0.2627 -0.1270
 5162SOL    HW127122   2.950   1.506  17.575 -2.4942 -0.3623 -0.6410
 5162SOL    HW227123   2.975   1.410  17.687 -1.7242 -1.4427 -0.6940
 5163SOL     OW27124   1.864   4.188   5.578  0.3256  0.0085  0.1747
 5163SOL    HW127125   1.945   4.141   5.596  1.0933  1.2483 -0.0475
 5163SOL    HW227126   1.802   4.118   5.598 -0.1999  0.0174 -1.4031
 5164SOL     OW27127   0.394   3.555  12.408 -0.0474  0.2382  0.5193
 5164SOL    HW127128   0.330   3.609  12.455 -2.3418  0.7310 -3.1833
 5164SOL    HW227129   0.338   3.481  12.384 -0.3831  1.0932 -1.3971
 5165SOL     OW27130   3.469   3.448   7.405 -0.2946  0.5333 -0.2033
 5165SOL    HW127131   3.475   3.403   7.489  0.3978 -0.7114 -0.9161
 5165SOL    HW227132   3.554   3.434   7.363  0.6197  3.4759  0.6534
 5166SOL     OW27133   1.735   2.344  11.004 -0.0678 -0.3931 -0.1085
 5166SOL    HW127134   1.822   2.357  11.040 -0.1358  3.0609 -1.1699
 5166SOL    HW227135   1.681   2.398  11.063  0.4703  0.5702 -0.4917
 5167SOL     OW27136   3.975   4.644   4.198  0.2531  0.2531  0.0459
 5167SOL    HW127137   3.906   4.591   4.159  1.0994  0.6817 -2.0146
 5167SOL    HW227138   4.022   4.575   4.245 -0.0797  0.4517  0.6742
 5168SOL     OW27139   3.684   2.986   2.746 -0.3088 -0.6345 -0.2014
 5168SOL    HW127140   3.734   3.049   2.798 -0.5762  0.5873 -1.4335
 5168SOL    HW227141   3.727   2.900   2.756  0.4997 -0.3598 -1.2820
 5169SOL     OW27142   0.961   3.181  15.082  0.5793  0.1331  0.0034
 5169SOL    HW127143   1.012   3.262  15.094  1.2381 -0.2900  0.0509
 5169SOL    HW227144   1.025   3.118  15.050  0.1651 -0.1238 -0.3072
 5170SOL     OW27145   3.016   0.365   9.448 -0.2177  0.0167  0.1355
 5170SOL    HW127146   3.080   0.293   9.449 -0.2114  0.0414  2.0191
 5170SOL    HW227147   3.077   0.433   9.476 -1.0664  0.4148  1.0162
 5171SOL     OW27148   0.402   4.651   0.317 -0.2822  0.0043  0.0366
 5171SOL    HW127149   0.425   4.558   0.323 -1.8577 -0.5178 -1.8683
 5171SOL    HW227150   0.443   4.660   0.231 -1.3729 -0.1238 -0.5077
 5172SOL     OW27151   1.635   1.410  17.157  0.1469 -0.1442 -0.1034
 5172SOL    HW127152   1.723   1.410  17.193 -1.2081  0.9928  3.1787
 5172SOL    HW227153   1.643   1.489  17.104 -2.1740  0.4050  0.3598
 5173SOL     OW27154   1.591   2.335  17.679  0.4407  0.1607  0.2604
 5173SOL    HW127155   1.562   2.300   0.005 -0.4397 -0.3521 -0.2609
 5173SOL    HW227156   1.656   2.396  17.715  3.6675 -1.8586 -2.1219
 5174SOL     OW27157   0.320   1.370   2.930  0.6242  0.4363  0.0319
 5174SOL    HW127158   0.229   1.362   2.901  0.8765  1.3827 -0.9983
 5174SOL    HW227159   0.325   1.321   3.012 -1.2896  0.1370 -0.0185
 5175SOL     OW27160   1.173   4.195  15.283  0.6185  0.0351 -0.5530
 5175SOL    HW127161   1.260   4.190  15.323 -0.8717 -0.8701  2.6194
 5175SOL    HW227162   1.163   4.119  15.227 -1.1911  0.0910 -0.3016
 5176SOL     OW27163   3.634   4.720  15.834  0.4009  0.0874 -0.5198
 5176SOL    HW127164   3.699   4.716  15.764 -2.4345 -0.5137 -3.1159
 5176SOL    HW227165   3.606   0.070  15.820 -1.1282 -0.4615 -1.0262
 5177SOL     OW27166   4.183   0.024   6.840  0.7616 -0.4127  0.8219
 5177SOL    HW127167   4.208   0.070   6.920  1.6924 -1.8111  1.3339
 5177SOL    HW227168   4.119   4.702   6.874 -1.0307  0.8526 -0.2588
 5178SOL     OW27169   1.205   3.638   2.066  0.2291 -0.3854  0.1413
 5178SOL    HW127170   1.271   3.707   2.068 -1.7108  1.5570 -2.0204
 5178SOL    HW227171   1.266   3.567   2.048 -1.4425 -1.6811 -0.4131
 5179SOL     OW27172   1.376   0.857   2.289 -0.3061 -0.7085 -0.0765
 5179SOL    HW127173   1.350   0.894   2.374  0.0260  1.2240 -0.8070
 5179SOL    HW227174   1.466   0.832   2.309  0.1426  2.0368  1.3386
 5180SOL     OW27175   1.481   3.301  15.453  0.4024  0.6273 -0.5513
 5180SOL    HW127176   1.486   3.337  15.541 -1.0485  0.4947 -0.4283
 5180SOL    HW227177   1.388   3.278  15.448  0.2768  1.6484 -2.8486
 5181SOL     OW27178   3.194   2.596  12.320  0.2320  0.1115 -0.9567
 5181SOL    HW127179   3.166   2.622  12.408  0.1529  1.2998 -1.3383
 5181SOL    HW227180   3.218   2.505  12.338 -1.1228 -0.1879 -0.6933
 5182SOL     OW27181   2.713   2.542   1.457  0.5330 -0.2189  0.1049
 5182SOL    HW127182   2.771   2.471   1.487 -0.0070 -0.3377  0.8744
 5182SOL    HW227183   2.733   2.611   1.520 -0.4884 -0.3119  0.5338
 5183SOL     OW27184   1.136   3.767  15.213  0.2616  0.3546  0.3339
 5183SOL    HW127185   1.151   3.848  15.165  2.6810 -0.0858  0.3167
 5183SOL    HW227186   1.080   3.723  15.150 -1.6152  0.3395  1.9955
 5184SOL     OW27187   3.148   1.914   1.581  0.3705 -0.4405 -0.5602
 5184SOL    HW127188   3.236   1.887   1.609  0.7741  0.6103 -0.7846
 5184SOL    HW227189   3.143   2.005   1.610 -0.3210 -0.9313  0.8498
 5185SOL     OW27190   4.184   3.780  16.497 -0.4481 -0.1580  0.1218
 5185SOL    HW127191   4.122   3.708  16.484  0.2806 -0.9452  0.9488
 5185SOL    HW227192   4.223   3.793  16.411 -0.9431  0.3673 -0.0180
 5186SOL     OW27193   0.433   3.746   9.896  0.2354 -0.0321 -0.4034
 5186SOL    HW127194   0.344   3.773   9.916  1.2943  1.2622  2.5537
 5186SOL    HW227195   0.424   3.724   9.803  1.5408  0.2518 -0.5960
 5187SOL     OW27196   1.654   4.261   1.693  0.0698 -0.9006  1.3449
 5187SOL    HW127197   1.708   4.197   1.738  2.0735  0.9936  1.6344
 5187SOL    HW227198   1.578   4.203   1.686  1.1261 -2.0411 -0.6861
 5188SOL     OW27199   0.621   3.235   7.715  0.2505 -0.4695  0.5867
 5188SOL    HW127200   0.656   3.290   7.785 -1.1480  2.1084 -0.7532
 5188SOL    HW227201   0.606   3.302   7.649 -1.9792 -2.8146 -1.2713
 5189SOL     OW27202   1.493   1.861   9.636  0.4912 -0.3365  0.3420
 5189SOL    HW127203   1.545   1.903   9.567 -0.1491  0.3569  0.2854
 5189SOL    HW227204   1.426   1.923   9.666  0.0562  0.0374 -1.4428
 5190SOL     OW27205   2.945   1.499   3.803 -1.0636  0.1411 -0.5969
 5190SOL    HW127206   2.938   1.466   3.714 -1.7917  1.1900 -0.9233
 5190SOL    HW227207   3.013   1.567   3.802 -0.9086 -0.0197 -0.8350
 5191SOL     OW27208   1.865   0.438   8.453  0.2859 -0.6471  0.2060
 5191SOL    HW127209   1.921   0.509   8.485 -3.1265  1.8784  0.6591
 5191SOL    HW227210   1.850   0.384   8.531 -0.8805 -0.9719 -0.2402
 5192SOL     OW27211   1.172   4.054   2.681 -0.0346  0.4949  0.0489
 5192SOL    HW127212   1.141   4.143   2.664  3.2883  1.7131  0.4609
 5192SOL    HW227213   1.266   4.071   2.681 -0.0956  0.8459  0.6990
 5193SOL     OW27214   1.845   4.389   3.356 -0.1742 -0.0363 -0.0881
 5193SOL    HW127215   1.822   4.376   3.448 -1.2113 -1.3480 -0.5286
 5193SOL    HW227216   1.878   4.479   3.363  1.0335 -0.4946 -0.0591
 5194SOL     OW27217   3.942   0.399   8.116 -0.2906 -0.1797  0.0034
 5194SOL    HW127218   3.904   0.416   8.030  1.0741  1.5093 -0.2759
 5194SOL    HW227219   4.012   0.340   8.089 -0.7217 -0.7388  0.1004
 5195SOL     OW27220   4.084   0.911  13.505  0.1612 -0.1333  0.1448
 5195SOL    HW127221   4.110   0.951  13.588 -1.9572 -0.5944  1.0332
 5195SOL    HW227222   4.111   0.819  13.504 -0.5287 -0.3284 -0.2757
 5196SOL     OW27223   1.736   4.348   4.231  0.3565  0.0322 -0.0516
 5196SOL    HW127224   1.749   4.437   4.264  0.7846  0.1394 -0.5169
 5196SOL    HW227225   1.756   4.298   4.310  0.3553  0.0036 -0.0692
 5197SOL     OW27226   0.035   1.157   3.746  0.3969 -0.3497  0.5287
 5197SOL    HW127227   4.695   1.180   3.793 -0.3034  1.0402 -1.3661
 5197SOL    HW227228   0.102   1.224   3.759 -0.4630  0.7360 -0.6719
 5198SOL     OW27229   0.745   1.941   9.713  0.0542 -0.0029  0.2176
 5198SOL    HW127230   0.734   2.011   9.777  0.9300 -2.4130  2.9684
 5198SOL    HW227231   0.804   1.977   9.647  0.5914  1.4854  1.5220
 5199SOL     OW27232   3.396   3.493   0.621 -0.1563  0.3005  0.3419
 5199SOL    HW127233   3.489   3.515   0.622 -0.1178  0.1212  0.9133
 5199SOL    HW227234   3.383   3.510   0.528  0.4968 -2.0344 -0.1822
 5200SOL     OW27235   1.257   4.049   7.677 -0.5505  0.3338 -0.2290
 5200SOL    HW127236   1.305   4.032   7.596  0.0167 -0.4321  0.2645
 5200SOL    HW227237   1.183   4.100   7.643  0.6162  1.6737 -0.7337
 5201SOL     OW27238   2.512   3.485   7.209 -0.0245 -0.2468  0.2393
 5201SOL    HW127239   2.495   3.513   7.119 -1.8225 -1.4239  0.2206
 5201SOL    HW227240   2.607   3.472   7.199  0.4620  2.9000  0.5633
 5202SOL     OW27241   3.362   2.593   2.401  0.1167  0.2996  0.0419
 5202SOL    HW127242   3.287   2.623   2.350 -0.8415  0.1398  1.3735
 5202SOL    HW227243   3.362   2.646   2.481  2.3402  1.2602 -0.5920
 5203SOL     OW27244   2.041   1.573  12.805  0.1345  0.3223  0.1742
 5203SOL    HW127245   1.968   1.584  12.745 -1.1112 -0.7276  1.4886
 5203SOL    HW227246   2.010   1.626  12.879  0.8012  0.4879  0.3425
 5204SOL     OW27247   4.403   2.936   0.422 -0.5008  0.1019 -0.2431
 5204SOL    HW127248   4.427   2.844   0.430 -2.2333 -0.4568 -1.5114
 5204SOL    HW227249   4.356   2.950   0.504 -0.8618  2.1393 -0.7867
 5205SOL     OW27250   0.266   3.723   4.750  0.0169 -0.2339 -0.3139
 5205SOL    HW127251   0.304   3.803   4.786 -2.1496  0.8476 -0.3674
 5205SOL    HW227252   0.292   3.739   4.659  1.5362  0.5808  0.2770
 5206SOL     OW27253   2.359   1.045   0.189 -0.0330 -0.8570  0.3516
 5206SOL    HW127254   2.402   1.108   0.131 -0.1538 -2.6266 -1.6717
 5206SOL    HW227255   2.329   1.107   0.255  0.5525 -1.3638  1.0925
 5207SOL     OW27256   3.451   2.477   9.938  0.6366  0.1368 -0.2303
 5207SOL    HW127257   3.518   2.415   9.908  1.2722  1.3689 -1.3949
 5207SOL    HW227258   3.437   2.516   9.852 -1.2388 -0.5414 -0.2238
 5208SOL     OW27259   0.104   4.411   3.795  0.3101 -0.6840  0.3346
 5208SOL    HW127260   0.018   4.414   3.838  0.3549  1.3245  0.3066
 5208SOL    HW227261   0.162   4.376   3.863  0.4935  0.4666  0.7674
 5209SOL     OW27262   3.819   4.618   1.720  0.7062  0.0963  0.1476
 5209SOL    HW127263   3.793   4.534   1.757 -1.6793  0.5936 -0.4046
 5209SOL    HW227264   3.853   4.588   1.636  1.5713  1.1843  0.1004
 5210SOL     OW27265   1.644   0.212  16.384 -0.1136 -0.1711  0.8614
 5210SOL    HW127266   1.561   0.166  16.386  1.1271 -2.4518 -0.0365
 5210SOL    HW227267   1.674   0.186  16.297 -0.8519  0.9281  0.2736
 5211SOL     OW27268   0.188   0.258   6.649 -0.4179  0.1776  0.0563
 5211SOL    HW127269   0.246   0.192   6.611  0.1605  0.9651 -0.4363
 5211SOL    HW227270   0.235   0.276   6.731 -0.3696 -0.6529  0.2119
 5212SOL     OW27271   0.345   3.179   5.678  0.3934 -0.1285  0.0807
 5212SOL    HW127272   0.377   3.269   5.668 -1.3017  0.6232  1.4231
 5212SOL    HW227273   0.383   3.155   5.763  0.6925 -1.7676 -0.5221
 5213SOL     OW27274   4.274   3.885  10.953 -0.7330 -0.6638 -0.2673
 5213SOL    HW127275   4.360   3.907  10.918 -1.8848  0.9878 -2.0480
 5213SOL    HW227276   4.254   3.969  10.995 -0.0602  0.1904 -1.6900
 5214SOL     OW27277   4.023   2.269  13.761  0.1867 -0.0176 -0.1345
 5214SOL    HW127278   3.992   2.179  13.773 -1.7726  0.6343 -0.3256
 5214SOL    HW227279   3.936   2.309  13.766  0.6403  0.9556  0.0179
 5215SOL     OW27280   0.552   1.760   7.229  0.0810 -0.7041 -0.0956
 5215SOL    HW127281   0.520   1.808   7.153  0.4870 -0.8639 -0.3678
 5215SOL    HW227282   0.501   1.793   7.303  1.1179  0.0854  0.2809
 5216SOL     OW27283   1.968   4.184   8.545 -0.1285 -0.4214 -0.0257
 5216SOL    HW127284   1.973   4.199   8.450  0.4639  1.3375  0.2762
 5216SOL    HW227285   2.057   4.208   8.573  0.6930 -1.6038 -1.6029
 5217SOL     OW27286   1.277   1.534  16.993  0.3478 -0.0407 -0.2102
 5217SOL    HW127287   1.196   1.487  17.013  1.5083 -2.1068 -0.3742
 5217SOL    HW227288   1.347   1.469  16.997  0.8862  0.6538  1.4461
 5218SOL     OW27289   3.924   2.663   5.083  0.5681  0.0379 -0.5191
 5218SOL    HW127290   3.941   2.706   5.167  0.9588  2.6345 -1.9365
 5218SOL    HW227291   3.997   2.708   5.040 -0.5588  0.9993 -1.4252
 5219SOL     OW27292   0.337   0.774  16.825  0.4566  0.5419  0.8851
 5219SOL    HW127293   0.383   0.727  16.756 -0.8363  1.5633 -0.6651
 5219SOL    HW227294   0.243   0.756  16.814  0.9916 -1.7475  0.0986
 5220SOL     OW27295   2.783   0.691   6.846 -0.2069  0.0741  0.2783
 5220SOL    HW127296   2.822   0.604   6.856 -0.7868 -0.2991 -0.6758
 5220SOL    HW227297   2.714   0.682   6.912 -2.2309  0.8483 -1.7295
 5221SOL     OW27298   4.401   1.358   3.274 -0.2290 -0.3345 -0.2976
 5221SOL    HW127299   4.388   1.452   3.280  0.6181 -0.4088  2.3612
 5221SOL    HW227300   4.323   1.327   3.228  0.7048 -1.0069 -1.4273
 5222SOL     OW27301   2.567   2.124  10.315 -0.2369  0.5127 -0.2833
 5222SOL    HW127302   2.559   2.215  10.288 -0.7323  1.1871  2.1079
 5222SOL    HW227303   2.484   2.105  10.360 -1.1078  0.5928 -1.8527
 5223SOL     OW27304   4.174   4.268   6.971  0.0925  0.0747  0.4052
 5223SOL    HW127305   4.174   4.187   7.021 -1.4718 -0.6733 -0.8295
 5223SOL    HW227306   4.235   4.321   7.023 -1.1605  1.3493  0.5712
 5224SOL     OW27307   0.717   0.533  12.716 -0.4879  0.0140 -0.2774
 5224SOL    HW127308   0.666   0.580  12.781  0.3072  1.3838 -0.6481
 5224SOL    HW227309   0.734   0.459  12.775  0.9551 -0.0811 -0.8108
 5225SOL     OW27310   3.522   1.452  11.623 -0.6168 -0.1530  0.0651
 5225SOL    HW127311   3.497   1.528  11.570  0.2020  0.0547 -0.0219
 5225SOL    HW227312   3.562   1.396  11.557 -1.5303  0.9177 -1.3948
 5226SOL     OW27313   0.306   3.725   0.338 -0.0238  0.2721 -0.4382
 5226SOL    HW127314   0.255   3.646   0.351 -0.8695  0.7309 -0.9737
 5226SOL    HW227315   0.252   3.780   0.281  2.3863  1.5814 -1.4873
 5227SOL     OW27316   3.661   0.307   7.681  0.0828 -0.4010 -0.1648
 5227SOL    HW127317   3.613   0.225   7.671 -1.5284  0.2455  2.1436
 5227SOL    HW227318   3.591   0.347   7.732 -0.8762 -2.4304  0.1117
 5228SOL     OW27319   0.520   2.235   3.756 -0.3031 -0.4134  0.7694
 5228SOL    HW127320   0.433   2.222   3.720  0.3799  2.9145 -2.0575
 5228SOL    HW227321   0.573   2.276   3.687 -0.6048 -0.2463  0.6405
 5229SOL     OW27322   1.427   4.710  15.809 -0.6690  0.3784 -0.3465
 5229SOL    HW127323   1.439   0.032  15.880  0.3189 -1.6057  1.2339
 5229SOL    HW227324   1.378   4.646  15.860 -0.8811  1.5472  0.8964
 5230SOL     OW27325   4.623   2.532   4.302 -0.3665 -0.4736  0.2168
 5230SOL    HW127326   4.654   2.559   4.215 -2.2045 -0.9624 -0.5977
 5230SOL    HW227327   4.529   2.538   4.282 -0.3155 -0.1988  0.0493
 5231SOL     OW27328   4.016   3.590  14.435  0.1009  0.5381  0.0427
 5231SOL    HW127329   3.996   3.683  14.445  0.3847  0.6772 -0.6359
 5231SOL    HW227330   3.979   3.577  14.347  0.7053  3.0720 -0.5767
 5232SOL     OW27331   2.321   1.796   0.526  0.0033  0.7082  0.1282
 5232SOL    HW127332   2.391   1.825   0.584 -0.7924  0.3768  1.2606
 5232SOL    HW227333   2.259   1.787   0.599 -1.5620 -0.4543 -1.3514
 5233SOL     OW27334   0.085   2.454   8.078  0.0182 -0.7969  0.2616
 5233SOL    HW127335   0.048   2.404   8.151  0.6074 -1.3109  0.2112
 5233SOL    HW227336   0.010   2.496   8.036  1.0051 -0.7988 -1.5094
 5234SOL     OW27337   4.295   2.247   6.615 -0.1599  0.4169 -0.0649
 5234SOL    HW127338   4.324   2.161   6.586 -0.3118  0.2985  0.1323
 5234SOL    HW227339   4.375   2.272   6.662 -0.2845 -0.5733  0.6767
 5235SOL     OW27340   1.904   1.109   0.902 -0.0854 -0.4950  0.4699
 5235SOL    HW127341   1.832   1.047   0.905  0.3440 -1.0681 -1.4147
 5235SOL    HW227342   1.918   1.120   0.996 -0.3642 -1.6710  0.6450
 5236SOL     OW27343   3.991   2.664   9.793  0.4492  0.2670  0.0559
 5236SOL    HW127344   4.006   2.622   9.877 -1.6580  0.8924  0.7588
 5236SOL    HW227345   4.016   2.599   9.727  2.0195  1.2740 -0.3370
 5237SOL     OW27346   2.067   2.868   0.452  0.1020 -0.0025  0.5777
 5237SOL    HW127347   2.073   2.773   0.444 -0.6788 -0.1286  1.5441
 5237SOL    HW227348   2.159   2.890   0.464  0.0448  1.4967 -1.7123
 5238SOL     OW27349   4.520   3.291   3.461  0.7763 -0.2103 -0.1467
 5238SOL    HW127350   4.500   3.269   3.370  0.6163 -0.4238 -0.0610
 5238SOL    HW227351   4.590   3.355   3.448  1.0201 -0.5025 -0.2803
 5239SOL     OW27352   2.750   0.063   3.490  0.3294 -0.3431 -0.2015
 5239SOL    HW127353   2.782   0.054   3.579 -2.4249 -1.1639  0.7145
 5239SOL    HW227354   2.828   0.044   3.438  0.3379  0.6465 -0.5425
 5240SOL     OW27355   1.014   4.404   8.453  0.5616 -0.3379 -0.3026
 5240SOL    HW127356   1.086   4.388   8.391  1.1611 -1.4449  0.6619
 5240SOL    HW227357   1.053   4.441   8.532 -0.6869  0.2546  0.0220
 5241SOL     OW27358   4.330   3.636   8.266  0.4369 -0.0498 -1.1386
 5241SOL    HW127359   4.235   3.646   8.262  0.4170  0.8061  1.1790
 5241SOL    HW227360   4.355   3.717   8.221  1.2277  0.7433  0.7097
 5242SOL     OW27361   1.028   2.394   5.096 -0.4235 -0.1921 -0.4478
 5242SOL    HW127362   1.091   2.464   5.077  0.1154 -1.5033 -3.4680
 5242SOL    HW227363   1.043   2.390   5.190  3.4580 -0.7842 -1.1058
 5243SOL     OW27364   2.034   0.609   4.637 -0.7302 -0.0668 -0.5023
 5243SOL    HW127365   2.092   0.683   4.654  0.3597 -0.9463 -0.3811
 5243SOL    HW227366   2.009   0.591   4.727 -1.0011 -0.0433 -0.5713
 5244SOL     OW27367   4.499   4.246   5.087 -0.3438  0.3195 -0.0358
 5244SOL    HW127368   4.427   4.275   5.143 -1.5660 -0.0992 -1.3986
 5244SOL    HW227369   4.509   4.335   5.053 -0.2436  0.3649  0.1122
 5245SOL     OW27370   4.449   0.260   2.601  0.4969 -0.2029 -0.6561
 5245SOL    HW127371   4.518   0.257   2.667 -0.3172 -1.1355  0.1474
 5245SOL    HW227372   4.370   0.254   2.653  1.8339  0.0182  1.3955
 5246SOL     OW27373   3.776   1.681   3.669 -0.0501 -0.3887  0.4622
 5246SOL    HW127374   3.802   1.773   3.680 -0.4162 -0.3440  0.9392
 5246SOL    HW227375   3.690   1.698   3.707  0.8840  2.3985  1.3531
 5247SOL     OW27376   3.072   2.402   3.046 -0.4969 -0.2557  0.5349
 5247SOL    HW127377   3.137   2.383   3.113 -1.8855 -0.2354  1.8650
 5247SOL    HW227378   3.103   2.490   3.024  1.1638 -0.2781  2.7594
 5248SOL     OW27379   1.064   3.713   7.722  0.6377 -0.4415 -0.6786
 5248SOL    HW127380   1.160   3.706   7.723  0.4815 -2.7574  1.2224
 5248SOL    HW227381   1.043   3.639   7.666  1.5596  0.9993 -2.9179
 5249SOL     OW27382   4.195   3.476   8.652 -0.6542 -0.6048  0.5235
 5249SOL    HW127383   4.271   3.428   8.683  0.2590 -0.2816 -1.2203
 5249SOL    HW227384   4.237   3.551   8.610 -0.7931 -0.1638  1.1813
 5250SOL     OW27385   2.185   1.757   7.232 -0.2212  0.4068  0.2428
 5250SOL    HW127386   2.128   1.749   7.309 -1.9052 -1.6079 -1.1994
 5250SOL    HW227387   2.256   1.700   7.260  0.2661  0.2022 -1.3862
 5251SOL     OW27388   4.039   0.833   4.180  0.3533  0.0443 -0.3192
 5251SOL    HW127389   3.961   0.889   4.179 -1.3606 -2.3486 -0.6390
 5251SOL    HW227390   4.027   0.774   4.254  0.0463  3.0870  2.0615
 5252SOL     OW27391   3.895   1.391   4.555 -0.1101  0.2400  0.3407
 5252SOL    HW127392   3.904   1.485   4.572 -1.7421  0.0105  2.3989
 5252SOL    HW227393   3.985   1.360   4.547  0.0684  1.7237 -3.6428
 5253SOL     OW27394   4.701   0.670   3.551  0.6887  0.3157 -0.3072
 5253SOL    HW127395   4.734   0.686   3.640  1.5680  0.8410 -0.7222
 5253SOL    HW227396   4.678   0.757   3.519  0.4393  0.1653 -0.5409
 5254SOL     OW27397   2.649   2.045   5.259  0.5699 -0.5240 -0.0568
 5254SOL    HW127398   2.689   2.113   5.314 -2.1065  0.4055  0.7186
 5254SOL    HW227399   2.714   2.038   5.188  0.0503 -0.0763 -0.5848
 5255SOL     OW27400   3.127   3.509   2.299  0.7477  0.1769  0.1009
 5255SOL    HW127401   3.096   3.585   2.348  0.2668  0.8741 -1.3051
 5255SOL    HW227402   3.122   3.442   2.368  0.6651 -0.2283 -0.2991
 5256SOL     OW27403   2.526   4.622   0.985  0.3586  0.7812 -0.2836
 5256SOL    HW127404   2.450   4.566   0.971  1.2742 -0.2605 -1.0867
 5256SOL    HW227405   2.533   4.609   1.080  1.2762 -0.5807 -0.5265
 5257SOL     OW27406   0.611   3.865   6.152  0.0034  0.3658 -0.1592
 5257SOL    HW127407   0.666   3.842   6.227  0.9368  0.6804 -0.7580
 5257SOL    HW227408   0.622   3.960   6.145  0.0949  0.3554 -0.1479
 5258SOL     OW27409   3.255   1.257   7.932 -0.2088  0.2412  0.4664
 5258SOL    HW127410   3.189   1.229   7.868 -0.4921 -0.4007  1.0368
 5258SOL    HW227411   3.334   1.219   7.895 -2.1363 -2.2344 -1.0380
 5259SOL     OW27412   2.372   4.439   1.720  0.2368  0.1326  0.1002
 5259SOL    HW127413   2.383   4.518   1.667  0.0356  0.6086  0.7717
 5259SOL    HW227414   2.393   4.482   1.802  0.8739 -0.5527  0.2963
 5260SOL     OW27415   2.541   3.056   3.304  0.1868 -0.3111  0.0177
 5260SOL    HW127416   2.486   3.132   3.286 -0.4270 -0.2602  2.1026
 5260SOL    HW227417   2.628   3.094   3.312 -0.6287  1.4163  0.6504
 5261SOL     OW27418   3.505   3.533   5.044 -0.0613 -0.2655 -0.0597
 5261SOL    HW127419   3.576   3.469   5.059 -1.1980 -1.7528 -1.0055
 5261SOL    HW227420   3.450   3.522   5.122  2.1478 -0.3031  1.5191
 5262SOL     OW27421   1.891   1.483   8.675  0.3716 -0.3279  0.2275
 5262SOL    HW127422   1.841   1.443   8.746  0.2769 -1.8221 -0.6639
 5262SOL    HW227423   1.875   1.420   8.604 -1.6662 -2.6506  2.7467
 5263SOL     OW27424   2.098   1.531   2.123 -0.8712  0.2834  0.5879
 5263SOL    HW127425   2.115   1.510   2.215  1.5079  3.0218  0.7851
 5263SOL    HW227426   2.005   1.550   2.111 -1.0180 -1.0228 -0.3069
 5264SOL     OW27427   2.466   3.438  11.397 -0.6871  0.4826  0.5754
 5264SOL    HW127428   2.483   3.424  11.304  2.0069  0.9260  0.9962
 5264SOL    HW227429   2.410   3.516  11.394 -1.2738 -0.0113 -1.6229
 5265SOL     OW27430   2.976   0.840   6.966 -0.1696  0.1164  0.6589
 5265SOL    HW127431   3.043   0.778   6.939 -1.5215 -1.0721  0.0447
 5265SOL    HW227432   2.904   0.809   6.911  1.6062 -0.9076 -1.0740
 5266SOL     OW27433   2.682   0.841  17.221 -0.2617 -0.4850 -0.0572
 5266SOL    HW127434   2.753   0.777  17.221  1.4462  1.4231  2.2403
 5266SOL    HW227435   2.614   0.797  17.274 -1.0620 -0.8807 -1.4200
 5267SOL     OW27436   0.909   4.646   3.252 -0.1331 -0.4536  0.3237
 5267SOL    HW127437   0.975   4.653   3.183 -1.5287 -0.7243 -1.0333
 5267SOL    HW227438   0.940   4.713   3.314  1.0215  0.8397 -1.6544
 5268SOL     OW27439   1.209   3.024   4.577  0.2040  0.2436 -0.4915
 5268SOL    HW127440   1.225   3.089   4.509  0.5853 -0.5845 -1.1891
 5268SOL    HW227441   1.237   2.941   4.540  1.4227  0.6997 -0.5703
 5269SOL     OW27442   4.606   1.383   6.790  0.2884  0.5734 -0.2157
 5269SOL    HW127443   4.537   1.366   6.726  0.4885  0.6263 -0.4478
 5269SOL    HW227444   4.589   1.476   6.806  0.5884  0.0831  2.8651
 5270SOL     OW27445   1.796   4.259   3.713 -0.0687  0.2665  0.1078
 5270SOL    HW127446   1.805   4.285   3.804  1.7956  0.9390 -0.2587
 5270SOL    HW227447   1.857   4.186   3.706 -0.6033 -0.1657 -0.1052
 5271SOL     OW27448   2.490   1.612   3.301 -0.4876  0.0146  0.1879
 5271SOL    HW127449   2.542   1.577   3.373  2.8434  1.2444 -1.6092
 5271SOL    HW227450   2.540   1.688   3.271 -0.2764  0.2745  1.2031
 5272SOL     OW27451   2.710   1.903   4.913  0.0616  0.5071 -0.1742
 5272SOL    HW127452   2.641   1.861   4.964  1.7274  0.3283  1.9509
 5272SOL    HW227453   2.746   1.967   4.974 -1.7308  1.0337  0.3325
 5273SOL     OW27454   2.716   1.336   4.049 -0.1578  0.0531  0.3148
 5273SOL    HW127455   2.784   1.269   4.061 -0.0652 -0.0352 -0.7159
 5273SOL    HW227456   2.658   1.331   4.125  1.1641 -1.3511  1.2389
 5274SOL     OW27457   4.337   0.869   6.247  0.3543  0.0527  0.3761
 5274SOL    HW127458   4.359   0.960   6.227  1.3734  0.0592  1.5999
 5274SOL    HW227459   4.300   0.829   6.168 -0.3241 -1.0719  1.2662
 5275SOL     OW27460   3.737   3.429   8.773 -0.1759  0.7068  0.5054
 5275SOL    HW127461   3.755   3.523   8.772 -0.6662  0.8030  0.5393
 5275SOL    HW227462   3.803   3.394   8.834  0.3282 -1.7485 -1.4641
 5276SOL     OW27463   3.208   3.441   6.867  0.4329  0.6236  0.0741
 5276SOL    HW127464   3.135   3.433   6.806 -0.0193 -0.6023  0.7762
 5276SOL    HW227465   3.226   3.347   6.875  0.1895  0.6431  0.7866
 5277SOL     OW27466   2.932   4.179  13.122  0.4873 -0.0004  0.1466
 5277SOL    HW127467   3.021   4.145  13.127  0.5317 -0.0070 -0.6422
 5277SOL    HW227468   2.899   4.091  13.140 -0.2658  0.5820  1.5864
 5278SOL     OW27469   1.615   0.332   1.928  0.4406  0.1998  0.2715
 5278SOL    HW127470   1.541   0.275   1.906  0.4154  0.9096 -1.4989
 5278SOL    HW227471   1.593   0.368   2.013 -2.0531  0.1785 -0.3652
 5279SOL     OW27472   1.542   1.261  16.273  0.1473 -0.1259 -1.1054
 5279SOL    HW127473   1.536   1.248  16.179 -1.5526  0.6510 -1.0931
 5279SOL    HW227474   1.520   1.353  16.289 -2.3073 -0.6430 -1.5974
 5280SOL     OW27475   2.865   4.423   5.932  0.7704 -0.4825  0.2888
 5280SOL    HW127476   2.890   4.501   5.881 -0.6584  0.8216  1.5962
 5280SOL    HW227477   2.919   4.425   6.011  3.2657  0.1895 -1.4288
 5281SOL     OW27478   3.557   4.108   3.864  0.0624 -0.2105  0.1677
 5281SOL    HW127479   3.598   4.112   3.778 -1.0963 -0.3614 -0.3874
 5281SOL    HW227480   3.464   4.099   3.845  0.3761  0.5559 -1.7754
 5282SOL     OW27481   1.021   0.290   1.737  0.6866  0.6874 -0.2031
 5282SOL    HW127482   1.074   0.363   1.770  2.2974 -0.8342  0.5897
 5282SOL    HW227483   0.947   0.281   1.797  1.2979 -0.5795  0.3648
 5283SOL     OW27484   3.902   1.505   7.720  0.6062  0.4215  0.5463
 5283SOL    HW127485   3.969   1.493   7.787 -0.2405  0.5256  1.4203
 5283SOL    HW227486   3.893   1.414   7.693 -2.0667  1.7579 -3.1566
 5284SOL     OW27487   0.149   4.561   2.868 -0.1572  0.0288  0.5138
 5284SOL    HW127488   0.223   4.554   2.808 -1.0987  0.2451 -0.6789
 5284SOL    HW227489   0.106   4.640   2.835 -0.1017  0.3956  1.3178
 5285SOL     OW27490   2.659   1.549   8.335 -0.0389 -0.0126  0.5916
 5285SOL    HW127491   2.717   1.472   8.332  0.2378  0.2874 -1.6058
 5285SOL    HW227492   2.664   1.562   8.240 -1.9066  1.1042  0.6526
 5286SOL     OW27493   0.593   0.111   9.778  0.2311  0.6750  0.0219
 5286SOL    HW127494   0.574   0.063   9.859 -3.5717  0.5137 -0.9521
 5286SOL    HW227495   0.501   0.116   9.752  0.2723  2.5410  0.2493
 5287SOL     OW27496   2.049   2.606  12.049  0.3370  0.1586 -0.3914
 5287SOL    HW127497   2.068   2.697  12.028 -1.0043  0.9256  1.6257
 5287SOL    HW227498   1.988   2.582  11.980  1.5925  0.7235 -1.6878
 5288SOL     OW27499   2.856   3.475   7.846  0.3245  0.5717  0.5608
 5288SOL    HW127500   2.883   3.557   7.888  1.4213  0.5942 -0.1751
 5288SOL    HW227501   2.933   3.451   7.794  0.7827  1.6473  0.7339
 5289SOL     OW27502   3.459   2.005   1.892  0.6318  0.0886 -0.5888
 5289SOL    HW127503   3.547   1.975   1.915 -0.4071 -1.5078  1.3233
 5289SOL    HW227504   3.451   1.980   1.800 -2.6111  0.8338 -0.5061
 5290SOL     OW27505   3.737   0.983   3.443 -0.3559  0.1179 -0.3587
 5290SOL    HW127506   3.659   1.013   3.396  0.6040  2.4434 -0.4946
 5290SOL    HW227507   3.796   1.058   3.440  0.1869 -0.3310 -0.8954
 5291SOL     OW27508   0.597   0.869   2.777  0.5056  0.1763 -0.1795
 5291SOL    HW127509   0.524   0.930   2.782  0.4307  0.2151 -1.9792
 5291SOL    HW227510   0.625   0.846   2.866 -1.2943 -0.4842  0.2181
 5292SOL     OW27511   3.205   0.218   4.321 -0.2471  0.2483  0.1290
 5292SOL    HW127512   3.245   0.209   4.235 -0.3235  1.8472 -0.0678
 5292SOL    HW227513   3.214   0.128   4.352 -0.1330 -0.2216 -1.2641
 5293SOL     OW27514   1.370   4.331   7.856  0.5418 -0.1998  0.0363
 5293SOL    HW127515   1.305   4.326   7.787  1.2844 -0.7592 -0.6275
 5293SOL    HW227516   1.391   4.239   7.872  0.1846  0.0168  1.8105
 5294SOL     OW27517   4.609   2.190   6.756 -0.4514 -0.2287  0.4240
 5294SOL    HW127518   4.539   2.154   6.810 -0.0528 -1.9213 -0.1670
 5294SOL    HW227519   4.583   2.282   6.753  1.8343  0.4607  1.2214
 5295SOL     OW27520   1.006   4.107  16.344 -0.7337 -0.0937 -0.1113
 5295SOL    HW127521   1.008   4.144  16.433 -4.1141  1.7247 -0.7900
 5295SOL    HW227522   1.100   4.094  16.333 -0.6319  0.3773  0.2029
 5296SOL     OW27523   0.555   3.232   5.309 -0.5392 -0.7458  0.5257
 5296SOL    HW127524   0.516   3.163   5.361 -1.4952 -1.2630 -0.8850
 5296SOL    HW227525   0.486   3.283   5.266 -1.6513  1.0440  4.4090
 5297SOL     OW27526   2.083   3.949   1.123  0.3238 -0.3983  0.0087
 5297SOL    HW127527   2.118   3.946   1.212  0.7214 -1.5103 -0.1976
 5297SOL    HW227528   1.990   3.933   1.139  0.5047 -2.0739 -0.7205
 5298SOL     OW27529   0.259   2.610   5.912 -0.5100  0.5510  0.1870
 5298SOL    HW127530   0.276   2.654   5.829  1.1729 -1.5541 -0.5670
 5298SOL    HW227531   0.347   2.597   5.947 -0.4561  0.0308 -0.1459
 5299SOL     OW27532   4.008   0.591   6.212 -0.1126  0.2538  0.6578
 5299SOL    HW127533   4.034   0.669   6.162  1.7942  0.6268  2.2519
 5299SOL    HW227534   3.928   0.571   6.164  1.4972  0.1205 -2.0062
 5300SOL     OW27535   4.704   1.702   8.609  0.5185 -0.0970  0.1880
 5300SOL    HW127536   4.731   1.630   8.665  0.4055  1.8193  2.7202
 5300SOL    HW227537   4.661   1.661   8.534  0.9896 -0.1140 -0.0711
 5301SOL     OW27538   2.382   4.210   8.448  0.2951  0.3210  0.2933
 5301SOL    HW127539   2.339   4.133   8.411  3.5192 -1.2462 -0.2367
 5301SOL    HW227540   2.472   4.181   8.430  0.5034  2.4474 -2.0446
 5302SOL     OW27541   3.767   1.577   2.960 -0.4613 -0.0773 -0.2699
 5302SOL    HW127542   3.758   1.544   2.870  0.7301 -2.0186  0.3387
 5302SOL    HW227543   3.810   1.501   2.999  0.4555  0.4598 -0.2330
 5303SOL     OW27544   2.624   3.720   2.232 -0.0492  0.1800  0.0518
 5303SOL    HW127545   2.535   3.686   2.237  0.6609 -1.5333  0.8491
 5303SOL    HW227546   2.677   3.656   2.280 -1.3417 -0.8362  0.0882
 5304SOL     OW27547   1.667   0.997   3.786 -0.2744 -0.2679  0.1021
 5304SOL    HW127548   1.667   0.990   3.882 -0.1594 -0.8844  0.0513
 5304SOL    HW227549   1.610   0.925   3.759 -0.8423 -0.4609  1.8059
 5305SOL     OW27550   2.423   0.977   4.251  0.2694  0.1724 -0.2614
 5305SOL    HW127551   2.516   1.003   4.250  0.2549  0.2897  1.7697
 5305SOL    HW227552   2.390   1.062   4.280 -1.2228 -0.4240 -0.2172
 5306SOL     OW27553   3.339   0.163   8.780  0.2714  0.5960  0.4753
 5306SOL    HW127554   3.345   0.247   8.735 -2.2212  0.4729 -0.0399
 5306SOL    HW227555   3.318   0.181   8.872  0.9738 -1.1831  0.9865
 5307SOL     OW27556   4.354   1.954  14.906 -0.2790 -0.5935 -0.0379
 5307SOL    HW127557   4.262   1.968  14.927  0.1019  1.1979  0.4117
 5307SOL    HW227558   4.388   1.914  14.986  0.5377 -1.0102 -0.5929
 5308SOL     OW27559   2.814   1.977  10.300  0.1382  0.3384 -0.4134
 5308SOL    HW127560   2.866   2.057  10.299  0.5189  0.0745 -2.7655
 5308SOL    HW227561   2.728   2.011  10.326 -0.4027 -0.0109 -1.7714
 5309SOL     OW27562   0.292   0.577   7.725  0.3853 -0.4118 -0.4006
 5309SOL    HW127563   0.228   0.546   7.790  2.4673 -2.7178  0.5235
 5309SOL    HW227564   0.305   0.489   7.690 -0.1198 -0.0281 -1.5650
 5310SOL     OW27565   4.493   2.061  13.371  0.4959 -0.3112  0.3299
 5310SOL    HW127566   4.556   2.108  13.426  1.0237 -0.2603 -0.3134
 5310SOL    HW227567   4.502   2.123  13.299 -2.5502  1.9735  1.9034
 5311SOL     OW27568   0.619   4.576   6.739  0.1962  0.1491  0.0189
 5311SOL    HW127569   0.697   4.609   6.782  1.0294 -2.5363  0.5797
 5311SOL    HW227570   0.638   4.482   6.736 -0.6680 -0.1049  2.0279
 5312SOL     OW27571   2.909   3.988  14.997  0.5907  0.1438 -0.0557
 5312SOL    HW127572   2.861   3.989  14.914 -1.6123 -1.2797  1.1976
 5312SOL    HW227573   2.936   3.896  15.002  0.9231  0.1986 -0.7824
 5313SOL     OW27574   0.633   2.913  13.484  0.6185 -0.1543  0.2573
 5313SOL    HW127575   0.600   2.831  13.448 -0.0259  0.7677 -1.2640
 5313SOL    HW227576   0.604   2.898  13.574  1.1906 -0.1555  0.4399
 5314SOL     OW27577   0.676   3.358   4.358 -0.5293 -0.2425  0.1589
 5314SOL    HW127578   0.667   3.289   4.424  2.2939 -0.7705  0.0142
 5314SOL    HW227579   0.717   3.417   4.421 -1.4735  0.9701 -0.3760
 5315SOL     OW27580   0.583   1.447   8.967 -0.0602  0.0542  0.3048
 5315SOL    HW127581   0.647   1.419   8.901  0.6936  1.7726  0.3188
 5315SOL    HW227582   0.581   1.542   8.965 -2.7403  0.0052  1.0315
 5316SOL     OW27583   0.521   0.604   0.645  0.5442 -0.6138 -0.0367
 5316SOL    HW127584   0.551   0.660   0.717 -0.9470 -1.1172  0.9725
 5316SOL    HW227585   0.459   0.545   0.688  0.7501  0.3984  1.6502
 5317SOL     OW27586   2.094   0.705   2.075  0.5322  0.3625 -0.3480
 5317SOL    HW127587   2.161   0.688   2.141  2.2092  1.4844 -1.7350
 5317SOL    HW227588   2.142   0.674   1.998  1.9735  0.2132  0.6188
 5318SOL     OW27589   0.925   4.174   6.884 -0.0573  0.4031  1.3449
 5318SOL    HW127590   0.963   4.177   6.972 -0.1596  0.2380  1.3950
 5318SOL    HW227591   0.946   4.263   6.856  0.7854  0.3638  1.8310
 5319SOL     OW27592   0.343   0.620   1.800  0.1295 -0.5398  0.1524
 5319SOL    HW127593   0.292   0.542   1.777 -0.7450 -0.1423  0.7636
 5319SOL    HW227594   0.349   0.671   1.719  0.3214 -0.4082  0.2493
 5320SOL     OW27595   0.964   0.358   5.108 -0.6908 -0.1395  0.4812
 5320SOL    HW127596   1.037   0.298   5.123 -0.1614  0.1534 -0.9061
 5320SOL    HW227597   0.995   0.419   5.042  2.4066 -0.3014  1.7744
 5321SOL     OW27598   2.261   4.291   2.342  0.1582  0.1908  0.1017
 5321SOL    HW127599   2.269   4.386   2.338 -0.3749  0.2134 -0.4067
 5321SOL    HW227600   2.190   4.276   2.405 -1.5503 -0.4483 -1.9546
 5322SOL     OW27601   0.526   1.951  17.040 -0.0837 -0.6003 -0.1739
 5322SOL    HW127602   0.573   1.969  16.959  1.6881 -0.7508  0.8128
 5322SOL    HW227603   0.596   1.948  17.106  0.1404 -3.5233 -0.5298
 5323SOL     OW27604   2.592   0.970   7.178  0.1652  0.4388  0.3976
 5323SOL    HW127605   2.536   0.936   7.247  0.5200 -0.0227  0.4618
 5323SOL    HW227606   2.678   0.942   7.210 -0.2591 -0.0319  1.1196
 5324SOL     OW27607   0.507   0.270  17.685 -0.7930  0.1359 -0.4543
 5324SOL    HW127608   0.538   0.302   0.011  2.6046  2.1675 -2.4514
 5324SOL    HW227609   0.425   0.228  17.712  0.0739 -0.9678  0.4252
 5325SOL     OW27610   4.256   0.876   3.794  0.6023  0.4832 -0.4321
 5325SOL    HW127611   4.318   0.839   3.856 -2.1121 -1.1970  1.3033
 5325SOL    HW227612   4.296   0.917   3.718  2.3206 -0.5405 -0.0638
 5326SOL     OW27613   2.649   4.274   7.367  0.5514 -0.7571 -0.3582
 5326SOL    HW127614   2.579   4.234   7.419  2.0997  0.1421  2.4435
 5326SOL    HW227615   2.723   4.212   7.370 -0.2125 -1.7247 -1.7848
 5327SOL     OW27616   2.811   4.218   6.158 -0.2550  0.0182 -0.0137
 5327SOL    HW127617   2.848   4.130   6.154  2.8294  1.3134  0.0365
 5327SOL    HW227618   2.719   4.192   6.164  0.0365 -1.0308 -0.1055
 5328SOL     OW27619   0.097   0.138   1.820 -0.4248  0.4418 -0.2452
 5328SOL    HW127620   0.028   0.074   1.834  0.2597  0.4275  3.1022
 5328SOL    HW227621   0.163   0.086   1.775 -1.6779  0.6995 -2.3806
 5329SOL     OW27622   3.606   2.438   4.660 -0.0122  0.7617  0.7226
 5329SOL    HW127623   3.680   2.442   4.721  2.3922 -1.2553 -2.0845
 5329SOL    HW227624   3.576   2.347   4.671  1.0252  0.3820  0.4376
 5330SOL     OW27625   2.572   2.824   1.572  0.0529 -0.0654 -0.7312
 5330SOL    HW127626   2.549   2.854   1.660 -2.1697 -2.4191 -0.5132
 5330SOL    HW227627   2.495   2.834   1.517 -1.1268  2.3052  1.3635
 5331SOL     OW27628   3.446   0.974   0.471 -0.1675 -0.3958  0.3197
 5331SOL    HW127629   3.381   1.009   0.410 -1.0448 -0.8104  1.0056
 5331SOL    HW227630   3.522   0.980   0.413 -1.4065 -1.3620 -1.3813
 5332SOL     OW27631   2.857   0.573   2.510 -0.3788  0.2105  0.1121
 5332SOL    HW127632   2.924   0.505   2.505 -0.3194  0.3549 -0.9844
 5332SOL    HW227633   2.891   0.646   2.458 -1.0372 -0.6714 -1.5544
 5333SOL     OW27634   1.933   1.758   5.262 -0.6621  0.3014 -0.2581
 5333SOL    HW127635   1.902   1.788   5.177 -1.7204 -1.7386 -0.5836
 5333SOL    HW227636   2.027   1.747   5.249 -1.1796 -0.9517 -2.9521
 5334SOL     OW27637   4.460   1.990   8.418 -0.0376 -0.3130 -0.4626
 5334SOL    HW127638   4.540   2.040   8.434  1.0358 -2.2525  0.3384
 5334SOL    HW227639   4.481   1.940   8.339  1.3616 -0.7594  0.1789
 5335SOL     OW27640   3.968   3.939   7.358 -0.3246 -0.0450 -0.9922
 5335SOL    HW127641   4.019   3.911   7.434 -1.3567 -0.3381 -0.4198
 5335SOL    HW227642   3.911   4.006   7.394 -0.8693 -0.6248 -0.7669
 5336SOL     OW27643   1.529   1.345  15.570 -0.0864  0.5132 -0.3475
 5336SOL    HW127644   1.609   1.292  15.575  0.2255  0.8335 -1.7618
 5336SOL    HW227645   1.469   1.298  15.628  1.4548 -0.4324  0.4836
 5337SOL     OW27646   0.160   1.832   4.076 -0.1991  0.6256  0.5005
 5337SOL    HW127647   0.112   1.866   4.151  0.7410  0.3257  1.2360
 5337SOL    HW227648   0.208   1.909   4.048  0.2946  0.4448  0.8421
 5338SOL     OW27649   0.903   0.466  14.730  0.2587  0.0871 -0.1773
 5338SOL    HW127650   0.956   0.544  14.712 -1.1355  1.1540  0.3143
 5338SOL    HW227651   0.854   0.441  14.652  1.1888  0.4580 -0.8717
 5339SOL     OW27652   1.224   4.412   8.653 -0.2272  0.0423 -0.5625
 5339SOL    HW127653   1.288   4.342   8.638 -0.0396 -0.2150  1.4976
 5339SOL    HW227654   1.255   4.471   8.584  1.0417  0.3752  0.3056
 5340SOL     OW27655   2.409   2.398  12.572  0.5334 -0.0380  0.2536
 5340SOL    HW127656   2.316   2.392  12.552  1.1237  1.7762 -3.0370
 5340SOL    HW227657   2.446   2.311  12.556 -1.9797 -1.5828  2.8633
 5341SOL     OW27658   1.726   3.484  14.785 -0.6885  0.8095  0.2324
 5341SOL    HW127659   1.730   3.419  14.855 -0.7938  1.1475  0.5506
 5341SOL    HW227660   1.637   3.509  14.810  0.2582  1.4004  3.0280
 5342SOL     OW27661   1.139   3.436   5.156 -0.0645 -0.0297  0.5176
 5342SOL    HW127662   1.181   3.445   5.241 -3.2278 -0.9478  2.1825
 5342SOL    HW227663   1.074   3.507   5.156  0.1357  0.1537  1.3862
 5343SOL     OW27664   4.579   0.973   3.678  0.1538 -0.2080 -0.1293
 5343SOL    HW127665   4.540   0.941   3.597  0.2445  2.2059 -1.1172
 5343SOL    HW227666   4.665   0.995   3.644  0.3921 -1.1175 -0.1167
 5344SOL     OW27667   4.209   1.005   4.289 -0.3330  0.2381 -0.2096
 5344SOL    HW127668   4.154   0.948   4.235 -0.4090 -0.2397  0.3756
 5344SOL    HW227669   4.279   1.038   4.233  0.6825  0.1756  1.0265
 5345SOL     OW27670   2.356   2.482   5.166 -0.2885  0.0541  0.1241
 5345SOL    HW127671   2.448   2.463   5.147 -0.0718  1.7776 -0.5671
 5345SOL    HW227672   2.342   2.553   5.104 -0.4444  0.0949  0.2080
 5346SOL     OW27673   0.538   2.718  10.898  0.3301 -0.0771 -0.6072
 5346SOL    HW127674   0.596   2.770  10.842 -2.1753  2.3367 -0.9554
 5346SOL    HW227675   0.594   2.656  10.944 -0.8389 -1.3979 -0.9623
 5347SOL     OW27676   3.284   1.487  11.239 -0.0073  0.0766  0.3532
 5347SOL    HW127677   3.259   1.418  11.177 -1.3652 -0.3002  1.3241
 5347SOL    HW227678   3.204   1.539  11.243 -1.9445 -2.8257 -1.0651
 5348SOL     OW27679   3.563   1.790  17.639  0.0282 -0.8272 -0.4185
 5348SOL    HW127680   3.579   1.812  17.548 -1.3158 -0.4252 -0.5509
 5348SOL    HW227681   3.649   1.806  17.678 -0.4577  1.5097 -0.2933
 5349SOL     OW27682   1.439   1.227   9.747  0.3843 -0.6475 -0.2202
 5349SOL    HW127683   1.509   1.280   9.787  0.0360 -1.0354  0.9166
 5349SOL    HW227684   1.366   1.282   9.775  0.3382 -0.2032 -1.2245
 5350SOL     OW27685   1.565   0.074   1.771 -0.1242 -0.3944  0.1974
 5350SOL    HW127686   1.545   4.736   1.822  0.7402 -2.2571 -2.2938
 5350SOL    HW227687   1.658   0.053   1.773  0.1423  1.0335  2.9965
 5351SOL     OW27688   4.489   1.531   4.811 -0.3237  0.4871 -0.1101
 5351SOL    HW127689   4.567   1.576   4.844  0.5867 -1.2431  0.0940
 5351SOL    HW227690   4.479   1.450   4.861 -0.0604  0.3607 -0.2653
 5352SOL     OW27691   0.144   0.836  15.811  0.1167  0.0842  0.2989
 5352SOL    HW127692   0.111   0.925  15.825  0.4322  0.1975  0.3333
 5352SOL    HW227693   0.067   0.782  15.825  0.0608  0.1894  0.3974
 5353SOL     OW27694   0.356   2.518  16.322  0.0123 -0.2185 -0.4418
 5353SOL    HW127695   0.302   2.461  16.267  0.4106  0.4870 -1.5651
 5353SOL    HW227696   0.319   2.605  16.305  0.9015  0.6090  1.8656
 5354SOL     OW27697   3.585   2.119  14.820 -0.3933  0.0172  0.2582
 5354SOL    HW127698   3.600   2.098  14.728 -1.5750  1.5108 -0.2747
 5354SOL    HW227699   3.676   2.144  14.837 -0.5944  0.2449  0.9982
 5355SOL     OW27700   3.065   2.614  15.100  0.3649  0.0997  0.6958
 5355SOL    HW127701   3.106   2.552  15.161 -0.6918 -1.5253 -0.2179
 5355SOL    HW227702   3.044   2.682  15.164 -0.0035  0.5346  0.1127
 5356SOL     OW27703   4.315   4.737   9.578  0.4619 -0.0212 -0.2460
 5356SOL    HW127704   4.403   4.704   9.597 -0.3938 -1.8175  0.5199
 5356SOL    HW227705   4.349   0.054   9.509 -0.3896  0.9356  0.1379
 5357SOL     OW27706   2.344   2.229   9.360  0.4323  0.0399 -0.1749
 5357SOL    HW127707   2.373   2.159   9.301  2.5952  0.6102  0.2324
 5357SOL    HW227708   2.426   2.247   9.405 -0.1017  1.8634  0.0595
 5358SOL     OW27709   4.539   4.329   6.769  0.0952 -0.1878 -0.0650
 5358SOL    HW127710   4.611   4.370   6.720 -0.0309 -0.9551 -0.8836
 5358SOL    HW227711   4.493   4.407   6.800 -0.2923 -0.0984 -0.8784
 5359SOL     OW27712   0.765   1.123   4.072 -0.2646  0.6189  0.3101
 5359SOL    HW127713   0.736   1.195   4.017 -1.1731 -1.0182 -1.3570
 5359SOL    HW227714   0.798   1.056   4.012  1.1384  2.3733 -0.8514
 5360SOL     OW27715   1.791   0.172   3.921 -0.0961 -0.7424 -0.2999
 5360SOL    HW127716   1.823   0.243   3.865 -0.8159  1.2418  1.8058
 5360SOL    HW227717   1.813   0.198   4.010  1.4895  0.4451 -1.0379
 5361SOL     OW27718   1.990   3.388   6.285  0.0988 -0.0901 -0.1886
 5361SOL    HW127719   2.040   3.448   6.229  2.4622 -0.9825  0.9568
 5361SOL    HW227720   1.971   3.320   6.220  2.1402 -1.5564  0.7470
 5362SOL     OW27721   3.823   1.721  12.456 -0.0694  0.6995  0.2494
 5362SOL    HW127722   3.734   1.754  12.450 -0.2324 -0.0834 -1.4881
 5362SOL    HW227723   3.878   1.800  12.462  0.3271  0.5816 -1.8646
 5363SOL     OW27724   3.873   0.718   5.201 -0.5345 -0.0581  0.1489
 5363SOL    HW127725   3.908   0.677   5.122  1.2284 -0.2247  1.0296
 5363SOL    HW227726   3.914   0.803   5.207  1.5884 -1.0263 -0.8172
 5364SOL     OW27727   3.853   1.142   3.721 -0.4977  0.0912  0.3177
 5364SOL    HW127728   3.771   1.109   3.758 -0.1629 -2.5466 -1.2832
 5364SOL    HW227729   3.919   1.081   3.754 -1.9255 -1.2801  0.6556
 5365SOL     OW27730   3.013   2.447   5.773 -0.1548 -0.3038  0.6599
 5365SOL    HW127731   3.085   2.483   5.722 -0.5861 -0.8271 -0.3042
 5365SOL    HW227732   3.054   2.361   5.775  0.1824 -0.1922 -2.2254
 5366SOL     OW27733   2.153   2.452   0.797 -0.4906  0.4712 -0.2543
 5366SOL    HW127734   2.241   2.428   0.828 -1.4267 -1.4074  0.8920
 5366SOL    HW227735   2.140   2.540   0.834  1.5643 -0.2201  2.1346
 5367SOL     OW27736   0.745   0.121  14.382  0.5143  0.4761  0.3766
 5367SOL    HW127737   0.776   0.177  14.453 -2.3550  1.4444  0.8651
 5367SOL    HW227738   0.730   0.042  14.434 -0.9004 -0.5419 -1.5881
 5368SOL     OW27739   0.825   2.651   4.083 -0.0134 -0.3985 -0.1867
 5368SOL    HW127740   0.764   2.599   4.030 -2.0669  2.4175 -0.5573
 5368SOL    HW227741   0.801   2.612   4.167  0.5812 -0.5908 -0.1048
 5369SOL     OW27742   2.012   2.742   7.245  0.2718 -0.5295  0.3721
 5369SOL    HW127743   1.954   2.812   7.276  0.6486 -0.3553  0.6849
 5369SOL    HW227744   1.958   2.663   7.255 -1.1649  0.4417  0.3111
 5370SOL     OW27745   1.000   3.603   5.611 -0.1416 -0.1140  0.0460
 5370SOL    HW127746   0.928   3.543   5.629 -0.4402  0.2187 -0.0318
 5370SOL    HW227747   1.065   3.540   5.581 -2.1715 -1.9852 -0.3659
 5371SOL     OW27748   1.628   1.647   5.149 -0.1861 -0.4071 -0.0638
 5371SOL    HW127749   1.603   1.631   5.058  1.0465  0.3063 -0.5256
 5371SOL    HW227750   1.700   1.585   5.156  0.2875  0.2450  0.9055
 5372SOL     OW27751   0.026   3.014   6.468 -0.4937 -0.1471 -0.3925
 5372SOL    HW127752   0.029   2.918   6.469 -2.5676 -0.2189 -0.7075
 5372SOL    HW227753   4.738   3.028   6.378 -0.4698 -0.9961 -0.5352
 5373SOL     OW27754   4.578   1.540   8.429  0.3941  0.7056 -0.2008
 5373SOL    HW127755   4.502   1.520   8.483 -1.3618  1.6189 -2.3609
 5373SOL    HW227756   4.565   1.480   8.356  2.2121  0.5611 -0.4093
 5374SOL     OW27757   2.294   1.543  16.974 -0.2949 -0.6392 -0.3827
 5374SOL    HW127758   2.322   1.634  16.984 -0.6754 -0.2904 -2.3836
 5374SOL    HW227759   2.208   1.565  16.936 -0.8674  0.7795  1.7409
 5375SOL     OW27760   0.372   2.552  13.522 -0.7852 -0.4238 -0.1226
 5375SOL    HW127761   0.391   2.483  13.586  0.6419  0.7044  0.6756
 5375SOL    HW227762   0.460   2.577  13.494 -0.3215  0.3412  1.9718
 5376SOL     OW27763   1.271   4.486   8.913 -0.0020 -0.1420 -0.1408
 5376SOL    HW127764   1.259   4.442   8.829  0.2033  0.3396 -0.4263
 5376SOL    HW227765   1.180   4.504   8.936  0.1667  0.0590  0.3576
 5377SOL     OW27766   3.756   0.684  13.214 -0.1153  0.2546  0.5031
 5377SOL    HW127767   3.798   0.619  13.157  0.5549 -0.7388  2.0967
 5377SOL    HW227768   3.813   0.761  13.213  0.6061 -0.3001 -1.3292
 5378SOL     OW27769   2.800   0.631   1.410  0.5572 -0.1814 -0.2830
 5378SOL    HW127770   2.711   0.646   1.379  0.7284  0.3050 -0.5406
 5378SOL    HW227771   2.830   0.721   1.425 -0.6832 -0.1813  2.1980
 5379SOL     OW27772   3.148   4.051   3.488 -0.0183 -0.4224 -0.8476
 5379SOL    HW127773   3.056   4.028   3.479  0.4845 -3.1407  0.6869
 5379SOL    HW227774   3.152   4.139   3.452  0.3761  0.0079  0.2405
 5380SOL     OW27775   2.519   1.166   4.906 -0.1965  0.2726  0.1321
 5380SOL    HW127776   2.541   1.217   4.828 -0.6290 -0.9573 -0.7939
 5380SOL    HW227777   2.541   1.227   4.976  0.7887  1.4049 -1.1534
 5381SOL     OW27778   4.633   2.579   7.919 -0.0553 -0.7839 -0.3438
 5381SOL    HW127779   4.595   2.555   7.835  2.6000 -1.2993 -1.4081
 5381SOL    HW227780   4.702   2.637   7.886  0.5786 -0.8377  0.8904
 5382SOL     OW27781   0.272   1.792   8.458 -0.1434 -0.4909 -0.5283
 5382SOL    HW127782   0.225   1.720   8.416  1.0466 -1.2466 -0.5469
 5382SOL    HW227783   0.320   1.819   8.381 -1.1091 -0.3170 -1.0688
 5383SOL     OW27784   0.222   4.187   3.094 -0.0490 -0.2284 -0.3180
 5383SOL    HW127785   0.270   4.265   3.067 -0.5623 -0.2043 -1.1437
 5383SOL    HW227786   0.275   4.155   3.168 -1.1188  0.6582  0.8225
 5384SOL     OW27787   1.757   3.737   5.553 -1.0343  0.1628  0.7240
 5384SOL    HW127788   1.834   3.694   5.516 -0.1966  2.1550  0.1716
 5384SOL    HW227789   1.722   3.674   5.616  1.2589 -1.7228  0.1336
 5385SOL     OW27790   2.934   1.190   8.050 -0.1707 -0.3643 -0.1783
 5385SOL    HW127791   2.992   1.197   7.974  0.0363  0.2847  0.0347
 5385SOL    HW227792   2.881   1.118   8.016 -1.2516  0.8765 -1.1397
 5386SOL     OW27793   4.594   2.857   2.169  0.4420  0.0510 -0.4936
 5386SOL    HW127794   4.510   2.864   2.213  0.9733  2.4715  0.1136
 5386SOL    HW227795   4.560   2.886   2.084 -0.9653 -1.5036 -0.4718
 5387SOL     OW27796   0.180   0.009  14.429 -0.0502 -0.2713  0.0363
 5387SOL    HW127797   0.207   4.678  14.371 -1.6398 -1.9568  1.3680
 5387SOL    HW227798   0.093   0.021  14.392  1.3897 -1.0108 -3.6626
 5388SOL     OW27799   2.555   1.340   4.272 -0.1915  0.2883  0.5168
 5388SOL    HW127800   2.494   1.386   4.215 -1.5657 -1.8462  0.2305
 5388SOL    HW227801   2.574   1.413   4.330  0.5292  0.8193 -0.3943
 5389SOL     OW27802   2.298   3.059   7.696  0.5329 -0.1035  0.3241
 5389SOL    HW127803   2.371   3.119   7.684 -0.6295  1.3826  0.6543
 5389SOL    HW227804   2.344   2.978   7.676 -0.3005 -0.7354  0.9501
 5390SOL     OW27805   3.168   2.769   5.269 -0.5251 -0.1439 -0.2998
 5390SOL    HW127806   3.252   2.727   5.290  0.0976  1.7694  1.0477
 5390SOL    HW227807   3.102   2.721   5.319 -1.6020  0.8371 -0.7871
 5391SOL     OW27808   4.223   3.674  12.014 -0.2705 -0.1384 -0.1472
 5391SOL    HW127809   4.316   3.680  11.992 -0.6499 -1.3063 -2.0613
 5391SOL    HW227810   4.200   3.581  12.004  1.7253 -1.0129  3.2201
 5392SOL     OW27811   3.990   2.327   6.076 -0.2771  0.1639  0.6583
 5392SOL    HW127812   3.952   2.254   6.124 -0.6378  0.0203  0.1626
 5392SOL    HW227813   4.071   2.285   6.048 -0.5663  0.5449 -0.7908
 5393SOL     OW27814   2.985   4.498   7.681  0.0811 -0.1799 -0.5867
 5393SOL    HW127815   3.014   4.532   7.596 -0.1546  0.5712 -0.3688
 5393SOL    HW227816   2.905   4.461   7.644  0.3222 -1.8221  0.5641
 5394SOL     OW27817   0.785   1.148  12.135  0.8709  0.3171 -0.3945
 5394SOL    HW127818   0.823   1.139  12.223  0.6324 -0.6631 -0.3944
 5394SOL    HW227819   0.836   1.223  12.105  0.8418  0.1812 -0.7818
 5395SOL     OW27820   3.586   3.118   7.765  0.3905  0.0836  0.1721
 5395SOL    HW127821   3.523   3.108   7.836  1.1425 -0.0096  0.8302
 5395SOL    HW227822   3.656   3.063   7.800  2.2419  1.1472 -1.9011
 5396SOL     OW27823   4.706   2.336  15.443 -0.4226  0.2636 -0.0376
 5396SOL    HW127824   4.694   2.422  15.402  0.0481  0.3223 -0.0555
 5396SOL    HW227825   4.661   2.274  15.386  0.4200 -1.4601  1.1720
 5397SOL     OW27826   2.979   0.968   6.111  0.5045  0.3778  0.6888
 5397SOL    HW127827   3.068   0.953   6.079 -0.4789  3.0554 -3.4277
 5397SOL    HW227828   2.982   1.058   6.143  1.2969  0.7678 -0.4752
 5398SOL     OW27829   2.765   3.304  11.760  0.2556  0.0573  0.0552
 5398SOL    HW127830   2.754   3.216  11.724 -1.4838  1.2606 -2.2767
 5398SOL    HW227831   2.691   3.353  11.725  1.2308  1.5576  0.1245
 5399SOL     OW27832   0.302   2.885   8.254 -0.6510 -0.0305 -0.2625
 5399SOL    HW127833   0.337   2.928   8.176  0.6338  0.5278  0.6152
 5399SOL    HW227834   0.287   2.794   8.229  2.0485 -0.1689 -1.3443
 5400SOL     OW27835   3.314   1.903   4.552 -0.3758 -0.1197  0.3474
 5400SOL    HW127836   3.382   1.837   4.565  1.4509  1.9154  1.3465
 5400SOL    HW227837   3.361   1.977   4.592  1.8993 -0.8735 -0.9138
 5401SOL     OW27838   2.381   2.860   9.649 -0.9894 -0.5349  0.5938
 5401SOL    HW127839   2.465   2.813   9.654  0.0134  0.8566 -2.9996
 5401SOL    HW227840   2.417   2.939   9.609 -2.5592  0.4583  1.1788
 5402SOL     OW27841   1.954   0.797   1.799 -0.2390 -0.0928 -0.2556
 5402SOL    HW127842   1.984   0.708   1.776  0.7230 -0.1429  1.2178
 5402SOL    HW227843   2.039   0.841   1.793 -0.2602 -0.0156  0.0125
 5403SOL     OW27844   1.610   4.660   4.682 -0.3062  0.9332 -0.7147
 5403SOL    HW127845   1.602   4.582   4.627  1.4818  1.1990 -1.3400
 5403SOL    HW227846   1.663   4.633   4.757 -0.4541  0.2387 -0.8572
 5404SOL     OW27847   4.516   1.283  17.601 -0.2223  0.0611  0.2654
 5404SOL    HW127848   4.424   1.286  17.572 -0.2332 -0.8300  0.2072
 5404SOL    HW227849   4.555   1.330  17.527 -0.4569 -0.3028 -0.0896
 5405SOL     OW27850   4.333   3.450  14.398  0.6635  0.3160  0.2307
 5405SOL    HW127851   4.246   3.423  14.369  1.7032 -2.2335 -0.4644
 5405SOL    HW227852   4.367   3.458  14.309 -1.4895  0.7625 -0.5302
 5406SOL     OW27853   2.934   0.314   4.594  0.4978 -0.0805  0.1007
 5406SOL    HW127854   2.941   0.238   4.535 -1.4733 -1.5550  1.7721
 5406SOL    HW227855   2.967   0.380   4.532  2.3596 -3.0223 -2.0603
 5407SOL     OW27856   1.690   1.016   4.055  0.3500  0.3625 -0.0618
 5407SOL    HW127857   1.784   1.026   4.071  0.3543  0.1361  0.0539
 5407SOL    HW227858   1.656   1.064   4.131  0.3129  0.3351 -0.0610
 5408SOL     OW27859   2.699   3.438   3.610  0.1709  1.0189  0.5500
 5408SOL    HW127860   2.611   3.422   3.643  1.2907 -0.5683  2.7471
 5408SOL    HW227861   2.678   3.497   3.538  0.8535  1.5433  0.7784
 5409SOL     OW27862   1.948   2.224  13.917 -0.4255  0.3809  0.2599
 5409SOL    HW127863   1.941   2.254  14.008 -2.2797 -3.1172  1.2733
 5409SOL    HW227864   1.964   2.307  13.872 -0.8137  0.7341  0.7817
 5410SOL     OW27865   3.068   2.112   9.458 -0.2989 -0.3491 -0.1018
 5410SOL    HW127866   3.100   2.033   9.415 -1.3633 -0.2341 -1.1070
 5410SOL    HW227867   3.011   2.150   9.391 -0.0939  0.3212  0.0972
 5411SOL     OW27868   1.353   3.933   8.149 -0.2465  0.4439 -0.1330
 5411SOL    HW127869   1.388   3.935   8.239 -0.4436 -0.3864 -0.0350
 5411SOL    HW227870   1.263   3.964   8.161 -0.5736 -0.5922  0.1367
 5412SOL     OW27871   1.971   0.057   7.641  0.3190 -0.0480  0.2650
 5412SOL    HW127872   2.060   0.090   7.651 -0.1773  1.5189 -0.4351
 5412SOL    HW227873   1.922   0.134   7.669  0.0346  0.3339 -1.2570
 5413SOL     OW27874   2.483   1.116   7.828  0.1111 -0.4895 -0.4927
 5413SOL    HW127875   2.389   1.125   7.811 -0.4067 -1.5023  1.7983
 5413SOL    HW227876   2.520   1.154   7.749  0.4563  1.7039  0.6954
 5414SOL     OW27877   0.533   1.992   4.742 -1.0136 -0.3539  0.2289
 5414SOL    HW127878   0.509   1.974   4.651 -1.3470  0.3292  0.1846
 5414SOL    HW227879   0.617   2.037   4.731 -0.8672 -0.7653 -0.3456
 5415SOL     OW27880   3.340   3.439   4.444  0.3709  0.0007  0.0208
 5415SOL    HW127881   3.379   3.525   4.427  0.6750 -0.1138  0.1438
 5415SOL    HW227882   3.295   3.410   4.364 -0.4172 -1.4558  0.9745
 5416SOL     OW27883   0.064   3.607   2.263 -0.0853  0.0570  0.2827
 5416SOL    HW127884   4.714   3.615   2.295  0.2175 -0.1104  1.2006
 5416SOL    HW227885   0.100   3.693   2.288  0.3250 -0.2606  0.7940
 5417SOL     OW27886   4.307   2.406   0.408  0.1337 -0.1177 -0.2542
 5417SOL    HW127887   4.269   2.319   0.397  1.1514 -0.5347 -0.5540
 5417SOL    HW227888   4.298   2.446   0.321 -1.5033  0.5522  0.2411
 5418SOL     OW27889   2.430   3.052   7.016  0.2491 -0.1038 -0.1399
 5418SOL    HW127890   2.407   3.064   7.108  0.0372 -0.6669 -0.1233
 5418SOL    HW227891   2.375   2.976   6.996 -0.2390  0.6299 -1.6637
 5419SOL     OW27892   3.756   4.737   5.394  0.3179 -0.1670  0.1834
 5419SOL    HW127893   3.833   4.733   5.337 -1.2642 -1.6374 -1.8221
 5419SOL    HW227894   3.787   0.040   5.474  0.8422 -0.0129 -0.0990
 5420SOL     OW27895   1.564   4.402   4.590 -0.5868 -0.3820  0.2756
 5420SOL    HW127896   1.590   4.317   4.554  0.8639  0.8977 -1.6655
 5420SOL    HW227897   1.476   4.415   4.555 -0.5852  0.7223  0.6986
 5421SOL     OW27898   1.391   0.905   6.074 -0.1727  0.1419 -0.1222
 5421SOL    HW127899   1.447   0.828   6.073 -0.1288  0.2001 -2.4691
 5421SOL    HW227900   1.457   0.972   6.087  0.6671 -0.7731  0.3447
 5422SOL     OW27901   1.591   2.785  10.039  0.6509 -0.7991 -0.3145
 5422SOL    HW127902   1.523   2.827   9.988  0.2539  0.1465  0.9973
 5422SOL    HW227903   1.572   2.832  10.121 -0.7769  0.4852 -1.3771
 5423SOL     OW27904   2.190   2.230   7.950  0.4433  0.2864  0.0426
 5423SOL    HW127905   2.181   2.155   7.891  1.4090 -0.1450  0.4417
 5423SOL    HW227906   2.096   2.248   7.945  0.5468  1.0494  0.7241
 5424SOL     OW27907   3.519   1.756   4.648 -0.1753  0.2800  0.1153
 5424SOL    HW127908   3.549   1.748   4.739  1.0169  2.0018 -0.1389
 5424SOL    HW227909   3.591   1.801   4.604 -2.2586  1.7062 -1.7893
 5425SOL     OW27910   4.179   2.485  10.890  0.6039 -0.1755 -0.2811
 5425SOL    HW127911   4.138   2.408  10.930  0.1922  1.6162  2.7421
 5425SOL    HW227912   4.177   2.453  10.800  3.5439 -1.4352  0.0904
 5426SOL     OW27913   0.692   3.284   8.298 -0.4641  0.2902 -0.3460
 5426SOL    HW127914   0.640   3.264   8.376  2.9580 -0.8296  1.6478
 5426SOL    HW227915   0.777   3.290   8.342 -0.7976 -0.7595  0.4364
 5427SOL     OW27916   1.683   1.319  12.758  0.1293 -0.0258  0.2514
 5427SOL    HW127917   1.756   1.272  12.798  0.0731  1.0831  1.6732
 5427SOL    HW227918   1.638   1.254  12.705 -1.1939  0.1188  1.1946
 5428SOL     OW27919   4.558   2.562   3.175  0.1263 -0.6879  0.0607
 5428SOL    HW127920   4.495   2.554   3.103 -0.7147 -0.8284  0.8179
 5428SOL    HW227921   4.590   2.652   3.163 -0.1535 -0.7685 -1.2784
 5429SOL     OW27922   3.444   3.313   4.163 -0.5182 -0.1391 -0.4719
 5429SOL    HW127923   3.474   3.222   4.162 -3.0034 -0.9415 -2.0482
 5429SOL    HW227924   3.534   3.341   4.182 -1.3038  1.3295  1.0182
 5430SOL     OW27925   1.755   3.873   8.845  0.4186 -0.0820 -0.2912
 5430SOL    HW127926   1.704   3.804   8.803 -1.0984 -0.5271  2.2539
 5430SOL    HW227927   1.729   3.848   8.934 -1.5377 -0.1907 -0.8994
 5431SOL     OW27928   2.296   4.732   5.152  0.0105  0.3106 -0.4141
 5431SOL    HW127929   2.219   0.015   5.101 -0.6659  0.2208  0.5663
 5431SOL    HW227930   2.261   4.664   5.209 -2.1409  0.3894 -1.6659
 5432SOL     OW27931   1.412   4.455   3.505 -0.5252 -0.1178 -0.0519
 5432SOL    HW127932   1.445   4.401   3.433  2.0592  1.8211 -0.3328
 5432SOL    HW227933   1.457   4.538   3.489 -2.7850  1.1222 -0.0315
 5433SOL     OW27934   4.373   0.460   3.526  0.4844 -0.0921 -0.3084
 5433SOL    HW127935   4.431   0.478   3.451 -0.7928  1.7789 -0.8354
 5433SOL    HW227936   4.367   0.546   3.567  0.4017  0.5172 -1.5951
 5434SOL     OW27937   0.729   4.238  14.281 -0.2530 -0.4803  1.0498
 5434SOL    HW127938   0.818   4.203  14.278  0.2575  0.9951 -1.3741
 5434SOL    HW227939   0.734   4.308  14.215  0.8293 -0.2857  1.3299
 5435SOL     OW27940   4.074   4.545   7.950 -0.3029 -0.2876  0.1021
 5435SOL    HW127941   4.014   4.587   7.888 -0.2512 -1.3193 -0.6499
 5435SOL    HW227942   4.014   4.525   8.022 -0.3685 -0.3112  0.0414
 5436SOL     OW27943   1.182   1.470   4.527  0.2872 -0.0911  0.2100
 5436SOL    HW127944   1.278   1.477   4.522  0.0279  1.5166 -2.7503
 5436SOL    HW227945   1.158   1.552   4.485  0.9942 -0.3005 -0.6059
 5437SOL     OW27946   0.167   2.714   3.051 -0.3736  0.1602 -0.5501
 5437SOL    HW127947   0.077   2.717   3.018 -1.1701  1.6665  1.7673
 5437SOL    HW227948   0.188   2.805   3.072 -0.2797  0.0976 -0.3761
 5438SOL     OW27949   3.503   2.285  10.322  0.2297  0.2167 -0.5576
 5438SOL    HW127950   3.433   2.225  10.297 -0.0656  0.1125  0.5256
 5438SOL    HW227951   3.566   2.236  10.376 -0.4196 -0.4463 -0.3951
 5439SOL     OW27952   3.606   2.579  13.878 -0.6341  0.0110  0.2882
 5439SOL    HW127953   3.623   2.565  13.972  3.6839 -2.8954 -0.9354
 5439SOL    HW227954   3.620   2.674  13.872 -1.1748  0.0239 -0.6965
 5440SOL     OW27955   3.552   4.067   4.322 -0.4333  0.4904 -0.0214
 5440SOL    HW127956   3.648   4.061   4.321 -0.6407 -2.5979 -0.3520
 5440SOL    HW227957   3.533   4.101   4.410 -2.6001 -1.5056  0.2513
 5441SOL     OW27958   3.034   1.045   4.936  0.0721  0.5065 -0.0623
 5441SOL    HW127959   3.083   1.036   4.854 -0.4445 -2.6870 -0.0277
 5441SOL    HW227960   3.102   1.016   4.997  0.1560 -0.5232 -0.6412
 5442SOL     OW27961   0.760   0.355   8.601  0.0261  0.0885  0.1505
 5442SOL    HW127962   0.669   0.339   8.626  0.2963 -1.9067 -0.1373
 5442SOL    HW227963   0.772   0.281   8.542  0.2925 -0.1888  0.5544
 5443SOL     OW27964   3.368   2.156   0.278  0.2864 -0.4025 -0.3283
 5443SOL    HW127965   3.288   2.105   0.285  0.0860  0.1077  1.1626
 5443SOL    HW227966   3.423   2.085   0.244 -0.1271 -1.8096  1.9406
 5444SOL     OW27967   0.357   4.721   9.227  0.9035 -0.0623  0.1283
 5444SOL    HW127968   0.301   4.734   9.150 -0.5195  0.5657  1.2701
 5444SOL    HW227969   0.364   4.628   9.247 -1.7683  0.3629  3.0527
 5445SOL     OW27970   1.675   4.567  13.861  0.3096 -0.4110  0.1067
 5445SOL    HW127971   1.694   4.482  13.822  1.1177 -0.0850 -0.2147
 5445SOL    HW227972   1.761   4.597  13.889  0.5486 -0.2548 -0.7984
 5446SOL     OW27973   4.354   4.697   4.996 -0.0670 -0.3536  0.0137
 5446SOL    HW127974   4.288   4.693   4.926  0.5364 -2.8283 -0.3785
 5446SOL    HW227975   4.368   0.052   4.993  1.4358 -0.5741  0.1327
 5447SOL     OW27976   0.741   2.992   7.840 -0.0635 -0.1025 -0.0486
 5447SOL    HW127977   0.827   2.969   7.804 -0.3470 -0.0120 -0.7917
 5447SOL    HW227978   0.765   3.058   7.905 -0.9344  0.8188 -0.6508
 5448SOL     OW27979   1.328   0.314   9.708  0.6706  0.0123 -0.1087
 5448SOL    HW127980   1.364   0.270   9.631 -0.3045 -0.5549 -0.2453
 5448SOL    HW227981   1.348   0.406   9.689  0.0698  0.4707  1.5207
 5449SOL     OW27982   2.314   4.152   4.642  0.0658 -0.4165  0.0527
 5449SOL    HW127983   2.393   4.182   4.687 -1.3492  1.2382  1.3951
 5449SOL    HW227984   2.283   4.084   4.701 -2.4256 -1.2688 -2.2532
 5450SOL     OW27985   3.592   4.102   2.820  0.0217  0.1168  0.4209
 5450SOL    HW127986   3.650   4.125   2.747 -1.7607 -0.6401 -1.2523
 5450SOL    HW227987   3.640   4.137   2.895 -0.8284  0.4205  0.8181
 5451SOL     OW27988   2.641   4.290   5.876 -0.2102 -0.5088  0.0700
 5451SOL    HW127989   2.725   4.335   5.887  0.4406 -1.4692 -0.9653
 5451SOL    HW227990   2.623   4.280   5.969 -2.8004 -0.3398 -0.4160
 5452SOL     OW27991   0.450   4.312   9.787 -0.0158 -0.0880 -0.1610
 5452SOL    HW127992   0.442   4.222   9.819 -2.3411  0.7848  1.6982
 5452SOL    HW227993   0.438   4.356   9.871  1.0006  0.6740 -0.4085
 5453SOL     OW27994   2.970   2.167   3.344  0.6168  0.0749 -0.0632
 5453SOL    HW127995   2.906   2.236   3.358  0.0505  0.1832 -3.3203
 5453SOL    HW227996   2.978   2.172   3.249  0.4730  1.2051 -0.0132
 5454SOL     OW27997   1.456   1.475   4.552 -0.3620 -1.0100  0.5110
 5454SOL    HW127998   1.477   1.426   4.632  0.7663 -0.1576  0.7204
 5454SOL    HW227999   1.539   1.511   4.523 -0.2772  0.5799  2.6765
 5455SOL     OW28000   3.426   3.179  16.769 -0.0011 -0.0759 -0.0458
 5455SOL    HW128001   3.463   3.198  16.683  0.7420  1.4798  0.6250
 5455SOL    HW228002   3.466   3.094  16.790  0.0634 -0.0795 -0.1850
 5456SOL     OW28003   1.902   2.314  12.747  0.3835 -0.4678  0.3754
 5456SOL    HW128004   1.935   2.271  12.668 -0.2877 -2.0696  0.9644
 5456SOL    HW228005   1.816   2.333  12.709 -0.5368 -0.4646  2.4219
 5457SOL     OW28006   0.192   0.049   7.752 -0.0129 -0.1402  0.5122
 5457SOL    HW128007   0.156   4.729   7.817 -0.4338 -1.7254 -1.1885
 5457SOL    HW228008   0.110   0.065   7.705  0.0706  1.1303  0.7975
 5458SOL     OW28009   1.655   2.642  10.878 -0.1709  0.6937  0.2108
 5458SOL    HW128010   1.616   2.610  10.959  1.3512  0.7028  0.9518
 5458SOL    HW228011   1.736   2.592  10.870 -0.0662  1.0175 -0.8023
 5459SOL     OW28012   4.660   1.495   7.314 -0.0434 -0.3279 -0.4453
 5459SOL    HW128013   4.655   1.579   7.269 -1.3832 -0.3661 -0.3430
 5459SOL    HW228014   4.566   1.477   7.313 -0.4225  1.7604 -0.4577
 5460SOL     OW28015   1.824   0.669  15.765 -0.2231 -0.1781 -0.0943
 5460SOL    HW128016   1.898   0.609  15.779 -0.5548 -0.8270 -1.1560
 5460SOL    HW228017   1.858   0.746  15.811 -0.4256  0.5775 -1.1860
 5461SOL     OW28018   3.378   1.145   6.980 -0.0781 -0.0442 -0.1121
 5461SOL    HW128019   3.301   1.167   6.928 -0.5085  1.8350  1.3176
 5461SOL    HW228020   3.439   1.128   6.909 -0.0136  1.7108 -0.4738
 5462SOL     OW28021   4.186   1.507   2.982  0.0598  0.3469  0.3022
 5462SOL    HW128022   4.141   1.454   3.048  2.2237 -0.5114  1.0837
 5462SOL    HW228023   4.128   1.583   2.977  1.1896  1.2625  1.0884
 5463SOL     OW28024   1.848   2.777   5.770  0.4590  0.2490 -0.1525
 5463SOL    HW128025   1.846   2.740   5.682  0.9749  1.0529 -0.5011
 5463SOL    HW228026   1.811   2.704   5.819  0.2283 -0.2034 -1.0000
 5464SOL     OW28027   3.056   1.108   4.401 -0.1554 -0.7342 -0.4451
 5464SOL    HW128028   3.044   1.186   4.455  0.1741 -0.2235 -1.1068
 5464SOL    HW228029   3.149   1.090   4.419 -0.3341  1.1477  2.3228
 5465SOL     OW28030   2.527   2.243   1.709  0.1092 -0.6472  0.2057
 5465SOL    HW128031   2.499   2.333   1.722 -1.8025 -1.0547 -1.0545
 5465SOL    HW228032   2.578   2.220   1.786 -0.6802 -1.9781  0.3334
 5466SOL     OW28033   2.394   0.096   3.783 -0.1263 -0.2702 -0.6632
 5466SOL    HW128034   2.440   0.048   3.852 -0.0218  1.7484  0.6683
 5466SOL    HW228035   2.446   0.084   3.703 -1.8634 -1.9004 -1.5391
 5467SOL     OW28036   0.548   4.670   1.935  0.0150 -0.5723  0.4517
 5467SOL    HW128037   0.504   0.011   1.961 -0.3232 -1.4052  2.4417
 5467SOL    HW228038   0.581   4.704   1.852 -0.2473  0.1573  0.6487
 5468SOL     OW28039   0.389   1.271   7.908  0.2195  0.1519 -0.6141
 5468SOL    HW128040   0.424   1.208   7.846 -0.9286  2.2104 -3.3182
 5468SOL    HW228041   0.333   1.203   7.948  0.8000  1.0070  1.6932
 5469SOL     OW28042   2.217   0.202   7.662  0.4150 -0.0030  0.6291
 5469SOL    HW128043   2.227   0.259   7.738  1.0358 -3.0835  2.8453
 5469SOL    HW228044   2.249   0.263   7.595  1.1968 -0.1900  0.8358
 5470SOL     OW28045   3.098   4.243   7.408  0.0264  0.0492  0.3086
 5470SOL    HW128046   3.139   4.166   7.449 -0.5927  0.2057  1.2248
 5470SOL    HW228047   3.018   4.201   7.375 -0.9253  1.2871  1.0462
 5471SOL     OW28048   0.676   1.220   8.495  0.6672 -0.2314 -0.4568
 5471SOL    HW128049   0.638   1.138   8.460  2.5287 -1.9810  1.6619
 5471SOL    HW228050   0.732   1.249   8.423  0.2278 -0.0817 -0.7397
 5472SOL     OW28051   4.627   1.221   6.980  0.0594 -0.0911  0.7877
 5472SOL    HW128052   4.624   1.294   6.918  0.8178 -1.2941 -0.6648
 5472SOL    HW228053   4.594   1.151   6.923  2.2105 -0.5812  0.1378
 5473SOL     OW28054   1.308   4.037   1.936  0.0795  0.0808  0.1910
 5473SOL    HW128055   1.220   4.020   1.901  0.7355  0.3005 -1.5688
 5473SOL    HW228056   1.296   4.130   1.954  1.2999  0.1865  0.4111
 5474SOL     OW28057   1.757   0.448  13.647 -0.4988  0.3526 -0.7529
 5474SOL    HW128058   1.853   0.456  13.643 -0.6148  1.4070 -1.4786
 5474SOL    HW228059   1.750   0.487  13.560 -1.8244  2.2537  0.2056
 5475SOL     OW28060   0.264   1.124  13.951  0.4130 -0.1268  0.3304
 5475SOL    HW128061   0.315   1.058  13.904  0.2138 -1.7285  2.3642
 5475SOL    HW228062   0.256   1.075  14.033 -2.0252  2.2980  1.5308
 5476SOL     OW28063   4.286   3.814   2.736  0.0836 -0.2400  0.4684
 5476SOL    HW128064   4.350   3.759   2.691 -0.6354 -0.5080 -0.2208
 5476SOL    HW228065   4.222   3.749   2.764 -1.4026  1.6341  1.4278
 5477SOL     OW28066   3.646   0.769   2.285 -0.0550  0.7130 -0.4692
 5477SOL    HW128067   3.577   0.825   2.320  0.3739  0.6409  0.4922
 5477SOL    HW228068   3.730   0.809   2.307  0.3554 -0.3925 -0.0193
 5478SOL     OW28069   4.117   2.937   6.422  0.3498  0.3116 -0.5770
 5478SOL    HW128070   4.129   2.896   6.507 -0.8598  0.3378 -0.3953
 5478SOL    HW228071   4.144   2.878   6.351 -1.4038  0.9239 -1.7557
 5479SOL     OW28072   0.943   4.584  11.260  0.1437 -0.0874  0.2563
 5479SOL    HW128073   0.885   4.658  11.278  0.5013  0.4249 -0.7127
 5479SOL    HW228074   0.889   4.523  11.210 -1.3253  0.5847  1.0285
 5480SOL     OW28075   0.766   2.614   3.725  0.2476  0.3457 -0.2141
 5480SOL    HW128076   0.752   2.700   3.765  0.7276  0.2860  0.0756
 5480SOL    HW228077   0.793   2.642   3.638 -0.6295  1.5053 -0.1147
 5481SOL     OW28078   3.043   2.924   3.812  0.1770 -0.2300  0.7356
 5481SOL    HW128079   2.956   2.893   3.788 -0.8871  2.0103  1.7306
 5481SOL    HW228080   3.091   2.870   3.749  1.7353 -0.5219  2.1714
 5482SOL     OW28081   3.191   2.152   7.010  0.2637 -0.0542  0.2383
 5482SOL    HW128082   3.278   2.144   6.972  0.3204  0.8498  0.1720
 5482SOL    HW228083   3.198   2.232   7.062 -2.8905 -0.0837  0.7666
 5483SOL     OW28084   2.990   3.698   7.980  0.2966 -0.1773  0.3333
 5483SOL    HW128085   3.016   3.758   7.910  1.0948  0.0825  0.8503
 5483SOL    HW228086   2.957   3.746   8.057 -0.8480  1.2645 -1.0691
 5484SOL     OW28087   1.321   3.636  17.181 -0.2474 -0.2388  0.0353
 5484SOL    HW128088   1.340   3.681  17.264  0.2823 -0.4537  0.0330
 5484SOL    HW228089   1.251   3.577  17.209 -0.8138  1.0075  1.2916
 5485SOL     OW28090   0.683   0.760   1.598 -0.0806  0.3614 -0.2734
 5485SOL    HW128091   0.598   0.715   1.598  0.3804 -0.4905  1.5041
 5485SOL    HW228092   0.742   0.687   1.620  1.8816  1.4250 -2.0281
 5486SOL     OW28093   0.137   0.480  16.970  0.1786  0.8006  0.5647
 5486SOL    HW128094   0.120   0.568  16.936  1.4534  0.3432 -1.2179
 5486SOL    HW228095   0.057   0.429  16.985  1.0493 -0.9127 -0.7235
 5487SOL     OW28096   3.023   1.880   8.802 -0.4047  0.3038  0.0576
 5487SOL    HW128097   2.975   1.828   8.866  0.1807  0.5430  0.6817
 5487SOL    HW228098   3.056   1.949   8.859 -1.1237 -0.7691  1.7730
 5488SOL     OW28099   4.381   3.907   1.226 -0.1361 -0.1883 -0.1142
 5488SOL    HW128100   4.320   3.929   1.296  2.4556 -0.0799  2.1436
 5488SOL    HW228101   4.413   3.825   1.263 -0.2859 -1.5692 -3.0575
 5489SOL     OW28102   1.883   4.666   3.332  0.3182 -0.1164 -0.0036
 5489SOL    HW128103   1.912   4.666   3.241  0.9528 -2.4942  0.2028
 5489SOL    HW228104   1.808   4.724   3.319 -1.2111 -2.3521 -1.4280
 5490SOL     OW28105   0.844   1.011   6.333  0.1317 -0.2714 -0.0309
 5490SOL    HW128106   0.784   1.063   6.386 -1.3421 -1.0231 -0.9605
 5490SOL    HW228107   0.802   0.926   6.318 -0.7418  0.8009 -3.6100
 5491SOL     OW28108   1.305   1.579   7.337 -0.4258  0.1759  0.2742
 5491SOL    HW128109   1.227   1.632   7.319  0.4122  0.9685 -1.0024
 5491SOL    HW228110   1.275   1.533   7.416  2.1704 -1.3767  0.3489
 5492SOL     OW28111   4.260   1.311  17.515  0.1239 -0.5684 -0.1961
 5492SOL    HW128112   4.201   1.244  17.549 -1.4934 -0.0939 -2.0815
 5492SOL    HW228113   4.201   1.376  17.477 -0.2850  0.1588  1.6375
 5493SOL     OW28114   4.697   0.966   0.280  0.0850  0.0432  0.6542
 5493SOL    HW128115   0.007   0.994   0.357 -0.2074  0.7437  0.5907
 5493SOL    HW228116   0.011   1.004   0.210  0.3502 -1.4709  0.0404
 5494SOL     OW28117   0.212   3.126   2.105 -0.1711  0.6254 -0.2851
 5494SOL    HW128118   0.159   3.085   2.173  2.2728 -0.7468  0.7883
 5494SOL    HW228119   0.173   3.213   2.109 -0.6964  0.2335  2.6135
 5495SOL     OW28120   2.522   4.007   5.757  0.1696 -0.3148 -0.3316
 5495SOL    HW128121   2.472   4.084   5.728 -0.6450 -0.9750 -0.7087
 5495SOL    HW228122   2.608   4.036   5.785 -0.1735 -0.3689  0.7581
 5496SOL     OW28123   1.258   2.910   0.049  0.6643  0.0541 -0.6231
 5496SOL    HW128124   1.281   2.834  17.754 -0.5587 -1.8949  1.5851
 5496SOL    HW228125   1.336   2.966   0.051  1.7177 -1.3698 -1.0797
 5497SOL     OW28126   0.600   1.813  10.974 -0.9985  0.1494  0.2457
 5497SOL    HW128127   0.615   1.877  10.905  0.4482  0.3490  0.7452
 5497SOL    HW228128   0.687   1.795  11.010 -1.0562  0.3836  0.5055
 5498SOL     OW28129   1.615   0.376   4.162  0.1983  0.0711 -0.2749
 5498SOL    HW128130   1.695   0.328   4.183  1.9280  2.2707 -1.7939
 5498SOL    HW228131   1.631   0.400   4.071 -1.5445  0.9653 -0.3541
 5499SOL     OW28132   3.389   2.439   1.265  0.0323 -0.2015  0.4362
 5499SOL    HW128133   3.380   2.456   1.171  0.0826  0.0149  0.4728
 5499SOL    HW228134   3.370   2.524   1.303  0.3721  0.3334 -0.5884
 5500SOL     OW28135   3.618   1.244   0.401 -0.0294  0.2309 -0.3598
 5500SOL    HW128136   3.643   1.161   0.361  0.0356 -0.9691  2.2094
 5500SOL    HW228137   3.654   1.299   0.331  1.5294 -1.6516 -1.0491
 5501SOL     OW28138   0.730   1.814   8.258  1.0105 -0.3631  0.3529
 5501SOL    HW128139   0.686   1.858   8.185  0.9478  1.6795  1.6360
 5501SOL    HW228140   0.683   1.856   8.330 -1.0912 -0.1399 -1.1267
 5502SOL     OW28141   1.712   3.933  10.234 -0.1079  0.0382  0.5630
 5502SOL    HW128142   1.694   3.877  10.158  0.3617  0.9397 -0.2291
 5502SOL    HW228143   1.676   3.887  10.309  0.9815 -0.9465  0.4788
 5503SOL     OW28144   1.821   0.933  12.735 -0.5634 -0.2069 -0.0586
 5503SOL    HW128145   1.795   0.939  12.643  0.0456  1.1447 -0.1414
 5503SOL    HW228146   1.828   1.025  12.759 -1.9754  0.1106 -0.8638
 5504SOL     OW28147   1.975   3.393   2.493 -0.0227  0.4942 -0.0772
 5504SOL    HW128148   1.890   3.414   2.532 -0.7971 -1.0713 -0.9332
 5504SOL    HW228149   2.022   3.391   2.576  0.2967 -0.4495 -0.2873
 5505SOL     OW28150   3.559   4.634  10.675  0.1182  0.2037 -0.1376
 5505SOL    HW128151   3.499   4.681  10.617  0.0094 -2.1553 -1.9524
 5505SOL    HW228152   3.573   4.564  10.611  2.0086  1.6920 -1.3388
 5506SOL     OW28153   1.544   4.707   3.580 -0.2052  0.3510  0.1569
 5506SOL    HW128154   1.603   4.633   3.596  0.3132  1.2268  2.3704
 5506SOL    HW228155   1.534   0.003   3.668 -3.8426  0.7578 -0.4158
 5507SOL     OW28156   1.105   1.139   3.863 -0.0058 -0.0118 -0.3695
 5507SOL    HW128157   1.184   1.187   3.841 -0.4259  0.7211 -0.2819
 5507SOL    HW228158   1.093   1.164   3.955 -2.8919  1.3241 -1.0997
 5508SOL     OW28159   4.693   0.165   7.620 -0.1645  0.6920  0.6105
 5508SOL    HW128160   4.661   0.108   7.551 -0.3506 -1.8115  2.7490
 5508SOL    HW228161   0.004   0.229   7.571  0.1287 -0.1106 -0.1372
 5509SOL     OW28162   3.054   3.059   5.838  0.1303  0.7937  0.1743
 5509SOL    HW128163   2.999   3.015   5.902 -0.7382 -0.5029 -1.4660
 5509SOL    HW228164   3.119   2.990   5.823 -0.8450 -0.1120  0.1069
 5510SOL     OW28165   2.723   3.118   2.148 -0.4572  0.2147 -0.1690
 5510SOL    HW128166   2.661   3.136   2.077 -0.4715 -0.8264 -0.4200
 5510SOL    HW228167   2.786   3.190   2.145  0.0834 -0.1396  3.0037
 5511SOL     OW28168   1.303   4.063   6.678  0.0051 -0.2471 -0.8339
 5511SOL    HW128169   1.285   4.091   6.768 -1.0002 -2.3609 -0.3708
 5511SOL    HW228170   1.398   4.059   6.686 -0.1157 -0.9002  0.2773
 5512SOL     OW28171   0.544   2.507  14.559  0.3846 -0.1483 -0.4073
 5512SOL    HW128172   0.493   2.588  14.560 -0.2461 -0.5887  2.8380
 5512SOL    HW228173   0.583   2.513  14.646 -0.1906 -1.6718 -0.0368
 5513SOL     OW28174   0.460   1.504   5.750 -0.3345 -0.5853  0.5413
 5513SOL    HW128175   0.377   1.472   5.715 -0.1283  0.2138 -0.6667
 5513SOL    HW228176   0.502   1.543   5.673  1.5963 -1.1194  1.3169
 5514SOL     OW28177   0.380   0.863  17.076  0.0632 -0.2908 -0.4577
 5514SOL    HW128178   0.305   0.822  17.121 -0.1490  2.8435  2.0369
 5514SOL    HW228179   0.366   0.823  16.991 -0.9471 -1.2205  0.1439
 5515SOL     OW28180   0.132   4.351   0.562  0.1779 -0.1649  0.2478
 5515SOL    HW128181   0.113   4.261   0.590 -0.6287 -1.1418 -3.4125
 5515SOL    HW228182   0.124   4.381   0.652 -0.8591 -0.3658  0.2284
 5516SOL     OW28183   2.544   3.338   8.205 -0.3809  0.0341  0.1222
 5516SOL    HW128184   2.501   3.404   8.150 -0.5426 -0.9516 -0.9248
 5516SOL    HW228185   2.572   3.389   8.282  2.0018 -1.5335  0.2642
 5517SOL     OW28186   2.462   0.427   4.650  0.0135 -0.6518  0.6118
 5517SOL    HW128187   2.527   0.356   4.653  1.6188  0.7840 -0.2209
 5517SOL    HW228188   2.514   0.497   4.689  1.3921 -1.5592  0.4016
 5518SOL     OW28189   0.535   2.404   6.881  0.2599 -0.3532  0.4490
 5518SOL    HW128190   0.506   2.415   6.972 -0.2331  1.4598  0.0690
 5518SOL    HW228191   0.541   2.497   6.860 -0.1223 -0.3060  0.5537
 5519SOL     OW28192   0.702   3.035   9.355 -0.5507 -0.1390 -0.6055
 5519SOL    HW128193   0.623   3.045   9.409 -1.0664 -2.7728 -0.8517
 5519SOL    HW228194   0.746   2.958   9.391  2.0574  1.1842 -0.9427
 5520SOL     OW28195   2.132   1.094   5.282 -0.2204 -0.1306 -0.0191
 5520SOL    HW128196   2.059   1.044   5.321 -0.4228  0.9203  0.9470
 5520SOL    HW228197   2.130   1.175   5.332  1.6066  0.5888 -1.1057
 5521SOL     OW28198   2.373   3.268   7.926  0.4726 -0.4814 -0.7231
 5521SOL    HW128199   2.378   3.198   7.862 -2.2632 -3.3381  2.1803
 5521SOL    HW228200   2.464   3.296   7.938  0.0508  0.7999 -0.5009
 5522SOL     OW28201   2.221   3.573  12.574  0.2194 -0.7028  0.0113
 5522SOL    HW128202   2.264   3.504  12.523 -2.4859 -2.2303 -0.1867
 5522SOL    HW228203   2.179   3.632  12.512  1.7130 -1.5537 -1.7864
 5523SOL     OW28204   4.728   1.627   5.930  0.1669  0.1503  0.2092
 5523SOL    HW128205   4.711   1.635   5.836  1.0508  0.0153  0.0428
 5523SOL    HW228206   0.083   1.621   5.933  0.2584  1.5833 -0.0085
 5524SOL     OW28207   4.426   3.987  12.427  0.0428  0.0901  0.2613
 5524SOL    HW128208   4.446   3.918  12.491 -2.0553 -0.6140  0.1843
 5524SOL    HW228209   4.431   3.931  12.349  1.2053  0.5452  0.0179
 5525SOL     OW28210   1.262   1.916   4.098 -0.0347 -0.4214  0.4394
 5525SOL    HW128211   1.342   1.959   4.068 -0.3546 -0.2926 -0.2231
 5525SOL    HW228212   1.230   1.902   4.009  1.4603 -0.0469 -0.1631
 5526SOL     OW28213   2.938   0.878   9.743  0.0414  0.2494  0.3376
 5526SOL    HW128214   2.933   0.930   9.823 -2.0319 -0.4329  0.6557
 5526SOL    HW228215   2.849   0.894   9.711 -0.4979 -0.3682  1.5417
 5527SOL     OW28216   0.030   1.113   9.249  0.1902  0.7903 -0.1246
 5527SOL    HW128217   0.008   1.157   9.331 -2.4197 -1.0681  0.1788
 5527SOL    HW228218   0.105   1.165   9.220 -0.0547  1.4580  0.4417
 5528SOL     OW28219   1.032   3.741   5.993 -0.2765  0.4064  0.2236
 5528SOL    HW128220   1.116   3.787   5.994  0.5820 -1.1854  0.0820
 5528SOL    HW228221   1.061   3.659   6.033  0.5452  1.0949  1.0422
 5529SOL     OW28222   1.699   2.662   7.600  0.4445  0.2100  0.6739
 5529SOL    HW128223   1.746   2.684   7.519 -0.4278 -1.2968 -0.2453
 5529SOL    HW228224   1.617   2.624   7.570  1.9563 -1.5117 -1.3000
 5530SOL     OW28225   4.084   4.113   6.264  0.2572 -0.1428  0.3142
 5530SOL    HW128226   4.151   4.179   6.284  1.0781 -0.5438 -1.0857
 5530SOL    HW228227   4.021   4.134   6.333 -0.9351  2.0510 -1.4526
 5531SOL     OW28228   1.081   4.488   7.022  0.5869 -1.0436  0.4486
 5531SOL    HW128229   1.115   4.576   7.037 -0.6482 -0.4980 -0.0091
 5531SOL    HW228230   1.031   4.498   6.941 -0.0548 -1.3679  0.8004
 5532SOL     OW28231   2.564   1.223   1.929 -0.1519  0.0134 -0.3997
 5532SOL    HW128232   2.514   1.142   1.920 -1.4860  0.4322  3.0339
 5532SOL    HW228233   2.506   1.285   1.974  0.8592  0.6929 -0.0220
 5533SOL     OW28234   3.141   4.633   6.558 -0.4471 -0.3102  0.0495
 5533SOL    HW128235   3.213   4.597   6.609 -0.5436 -1.8663 -0.8860
 5533SOL    HW228236   3.164   4.593   6.474  0.3861 -0.9676  0.5976
 5534SOL     OW28237   3.650   2.846  17.037  0.3788  0.3097  0.3227
 5534SOL    HW128238   3.615   2.883  16.956  1.8834  1.4150  0.1892
 5534SOL    HW228239   3.593   2.878  17.107  1.4916 -0.6864  1.6825
 5535SOL     OW28240   0.939   0.735   3.228  0.0115 -0.8978  0.3761
 5535SOL    HW128241   0.944   0.718   3.322 -0.2123  2.3775  0.9747
 5535SOL    HW228242   0.909   0.647   3.204 -3.2577  0.5125 -0.6733
 5536SOL     OW28243   4.690   0.581   8.896 -0.2089 -0.1500 -0.0183
 5536SOL    HW128244   4.643   0.593   8.978 -0.5128 -0.5951 -0.1227
 5536SOL    HW228245   4.615   0.596   8.838 -0.3725  0.0134  0.2367
 5537SOL     OW28246   2.672   4.233   2.054  0.0947  0.2010  0.7132
 5537SOL    HW128247   2.761   4.261   2.033 -0.3468  0.0474 -1.4084
 5537SOL    HW228248   2.680   4.192   2.140  1.9873 -0.8577  0.0330
 5538SOL     OW28249   0.293   4.284   4.424  0.2885  0.4097  0.3302
 5538SOL    HW128250   0.385   4.312   4.431  0.9270 -1.1925 -1.5738
 5538SOL    HW228251   0.307   4.198   4.383  0.0960  1.5587 -2.1300
 5539SOL     OW28252   4.587   1.023   8.280  0.2002  0.3598 -0.2512
 5539SOL    HW128253   4.574   1.054   8.370 -0.9401 -0.3552 -0.1764
 5539SOL    HW228254   4.681   1.043   8.272 -0.4236  2.9332 -1.0588
 5540SOL     OW28255   2.470   0.644   8.329 -0.3458 -0.5131 -0.0318
 5540SOL    HW128256   2.380   0.613   8.327 -0.2841 -0.8120  1.9341
 5540SOL    HW228257   2.528   0.571   8.349  0.4430  0.0660 -0.1594
 5541SOL     OW28258   0.158   1.219  16.478 -0.0496  0.3964  0.2685
 5541SOL    HW128259   0.238   1.194  16.432  1.1875 -0.8403  3.0570
 5541SOL    HW228260   0.133   1.147  16.536  1.9171  0.3748  1.0881
 5542SOL     OW28261   1.726   2.982   3.089 -0.3470  0.0466 -0.3833
 5542SOL    HW128262   1.652   2.924   3.073  0.9252 -0.9510 -2.6348
 5542SOL    HW228263   1.721   2.995   3.184 -1.2436 -1.4516 -0.2231
 5543SOL     OW28264   1.042   0.154   8.052  0.1863  0.3527  0.7985
 5543SOL    HW128265   1.004   0.066   8.044  1.0912  0.1300 -1.0632
 5543SOL    HW228266   0.963   0.198   8.022  0.3896 -0.9923 -1.7585
 5544SOL     OW28267   3.926   1.910  16.037 -0.0052  0.3953 -0.4027
 5544SOL    HW128268   3.873   1.876  16.109  0.2462  0.2668 -0.2771
 5544SOL    HW228269   3.953   1.826  15.999  0.4767  0.9642 -1.3132
 5545SOL     OW28270   3.151   3.359   3.953 -0.1361 -0.0646  0.7041
 5545SOL    HW128271   3.087   3.368   4.024  0.8722  1.5216  1.4082
 5545SOL    HW228272   3.110   3.420   3.892 -2.1858  2.8761  4.9952
 5546SOL     OW28273   2.811   0.074   9.093  0.3680 -0.0901  0.2229
 5546SOL    HW128274   2.758   0.000   9.125  2.6157 -1.4944  0.7467
 5546SOL    HW228275   2.741   0.138   9.085 -0.3825 -1.0529 -0.9212
 5547SOL     OW28276   1.925   4.213  12.535 -0.0908 -0.2505  0.1689
 5547SOL    HW128277   2.007   4.249  12.568 -0.3015  0.7258 -0.3834
 5547SOL    HW228278   1.919   4.142  12.599  1.3725 -1.5760 -1.1582
 5548SOL     OW28279   3.958   0.922  12.924  0.0125 -0.0509 -0.6577
 5548SOL    HW128280   4.012   0.881  12.856  1.9472  0.3906  0.6012
 5548SOL    HW228281   3.910   0.993  12.883 -1.8723 -0.8920  0.0862
 5549SOL     OW28282   0.058   3.633   5.021  0.4128  0.0459  0.5616
 5549SOL    HW128283   0.152   3.635   5.003  0.4472 -1.7180  0.5935
 5549SOL    HW228284   0.046   3.726   5.001 -2.6331 -0.6596 -0.9244
 5550SOL     OW28285   3.002   0.110   0.006 -0.2430 -0.3006  0.3608
 5550SOL    HW128286   2.980   0.197  17.731 -2.4233 -2.2678 -3.2006
 5550SOL    HW228287   3.000   0.113   0.102 -0.0784  1.1095  0.3185
 5551SOL     OW28288   4.246   2.229   2.750  0.2273 -0.1935  0.0074
 5551SOL    HW128289   4.173   2.201   2.696 -0.4798  0.2684  0.7235
 5551SOL    HW228290   4.202   2.301   2.796  0.0478 -1.4849  1.8372
 5552SOL     OW28291   1.819   0.057   1.020  0.3703 -0.6780  0.6299
 5552SOL    HW128292   1.825   0.050   1.115  0.6443  0.1402  0.6732
 5552SOL    HW228293   1.863   0.142   1.013  1.2254 -1.1710  0.0266
 5553SOL     OW28294   1.432   4.173   2.211 -0.5977  0.2426 -0.0557
 5553SOL    HW128295   1.469   4.152   2.296 -1.0544 -0.7813 -0.1062
 5553SOL    HW228296   1.364   4.105   2.211  1.2293 -1.5548 -2.9445
 5554SOL     OW28297   2.183   3.280   0.963 -0.2349  0.0977  0.3607
 5554SOL    HW128298   2.258   3.322   0.922 -0.2884 -0.2374 -0.0817
 5554SOL    HW228299   2.168   3.325   1.046 -1.0137  0.0984  0.2228
 5555SOL     OW28300   1.823   0.571   2.583  0.5119  0.0316  0.0831
 5555SOL    HW128301   1.854   0.481   2.588 -0.0820 -0.2578 -1.4337
 5555SOL    HW228302   1.889   0.601   2.645  1.7399 -2.7737  0.1264
 5556SOL     OW28303   2.302   3.562  12.814  0.3384  0.3153 -0.2113
 5556SOL    HW128304   2.393   3.593  12.819  0.1396  1.2593 -2.3562
 5556SOL    HW228305   2.290   3.562  12.719 -0.5667  3.3980 -0.0973
 5557SOL     OW28306   1.498   0.154   4.350 -0.3388 -0.2189  0.2397
 5557SOL    HW128307   1.479   0.204   4.271  2.1872 -0.9827 -0.8433
 5557SOL    HW228308   1.556   0.086   4.317 -0.6651 -0.4987  0.2345
 5558SOL     OW28309   1.379   1.875   5.974  0.2140  0.4620  0.0742
 5558SOL    HW128310   1.414   1.900   5.888  0.0405 -0.7884 -0.3649
 5558SOL    HW228311   1.433   1.924   6.036  1.4800 -1.7912  0.7500
 5559SOL     OW28312   0.627   2.367   2.258 -0.7695  0.0265  0.2691
 5559SOL    HW128313   0.582   2.311   2.195  1.3478 -0.3582 -0.9048
 5559SOL    HW228314   0.558   2.390   2.320  1.0121  1.4636  1.7208
 5560SOL     OW28315   2.987   3.948   8.590  0.9915 -0.2559 -0.3184
 5560SOL    HW128316   3.041   3.881   8.548  1.8932  1.9631 -2.6974
 5560SOL    HW228317   3.042   4.025   8.604  1.2229 -0.5339  0.2599
 5561SOL     OW28318   1.752   1.094  16.320  0.0925 -0.4628 -0.3451
 5561SOL    HW128319   1.689   1.163  16.302  0.8177  0.5287  0.8902
 5561SOL    HW228320   1.756   1.090  16.416  1.4853 -1.3031 -0.4396
 5562SOL     OW28321   1.776   4.027   6.315 -0.4026  0.4736 -0.5192
 5562SOL    HW128322   1.817   3.942   6.298 -1.0023  0.0628  0.1207
 5562SOL    HW228323   1.694   4.031   6.266 -0.7416 -2.7451 -0.1999
 5563SOL     OW28324   3.200   4.280   6.246 -0.4846 -0.0143  0.2768
 5563SOL    HW128325   3.205   4.227   6.167 -0.3564  2.8682 -1.6557
 5563SOL    HW228326   3.235   4.216   6.308 -0.2209  0.8935  1.0734
 5564SOL     OW28327   1.259   3.980   8.584  0.2329 -0.1040 -0.5317
 5564SOL    HW128328   1.260   4.020   8.671 -0.5657 -0.7608 -0.2114
 5564SOL    HW228329   1.170   3.994   8.551 -0.1245  0.6374  0.7407
 5565SOL     OW28330   0.311   0.635   9.988 -0.1579  0.8663  0.4651
 5565SOL    HW128331   0.231   0.593  10.017  0.0017 -0.2201 -0.6617
 5565SOL    HW228332   0.350   0.680  10.063 -1.5619  2.0395  0.4868
 5566SOL     OW28333   1.733   3.907   7.949 -0.5682 -0.0980 -0.0946
 5566SOL    HW128334   1.643   3.878   7.935 -0.4591 -1.3577  1.7989
 5566SOL    HW228335   1.734   3.962   8.028  0.1863  0.1445 -0.2707
 5567SOL     OW28336   1.432   1.740   3.061 -0.2086  0.2837  0.0181
 5567SOL    HW128337   1.428   1.808   3.128  0.7528 -1.1908  1.5864
 5567SOL    HW228338   1.396   1.803   2.999 -1.0331  1.0153  1.2441
 5568SOL     OW28339   1.279   0.050  11.596  0.0827  0.7543  0.2358
 5568SOL    HW128340   1.251   0.013  11.513 -0.4486 -0.2825  0.8762
 5568SOL    HW228341   1.215   0.003  11.650  1.7095 -1.6784  0.0916
 5569SOL     OW28342   1.402   2.382  11.486 -0.2590 -0.0090  0.2582
 5569SOL    HW128343   1.434   2.295  11.463  0.2801  0.7017 -1.6693
 5569SOL    HW228344   1.394   2.418  11.398  0.6013  0.6610  0.4578
 5570SOL     OW28345   2.096   2.682   0.912  0.2260 -0.1528  0.2658
 5570SOL    HW128346   2.044   2.739   0.855  0.1205 -0.8290 -0.3233
 5570SOL    HW228347   2.033   2.671   0.983  0.2556 -3.3004 -0.1932
 5571SOL     OW28348   1.841   2.035   4.520 -0.4703 -0.3519  0.3645
 5571SOL    HW128349   1.907   1.975   4.486 -0.9080 -0.3206 -0.5470
 5571SOL    HW228350   1.836   2.103   4.452  1.2030  0.3810  0.9776
 5572SOL     OW28351   0.836   4.580   9.944  0.7507 -0.0888  0.1510
 5572SOL    HW128352   0.787   4.523  10.004 -0.7737  1.1989  0.1136
 5572SOL    HW228353   0.786   4.580   9.862  1.0529  2.6314 -0.0395
 5573SOL     OW28354   0.720   3.353  11.609 -0.0401 -0.5425 -0.1685
 5573SOL    HW128355   0.644   3.344  11.552 -0.6105  0.5868  0.4195
 5573SOL    HW228356   0.795   3.354  11.550  0.5454 -1.6379  0.5352
 5574SOL     OW28357   3.415   2.037   1.613  0.0811 -0.4333 -0.0250
 5574SOL    HW128358   3.444   1.976   1.545  0.0793  0.0372 -0.4465
 5574SOL    HW228359   3.435   2.119   1.567  1.6402  1.2207  3.5236
 5575SOL     OW28360   0.510   4.556  12.374 -0.4404 -0.1746  0.4071
 5575SOL    HW128361   0.575   4.627  12.371 -3.2811  2.4735  1.4564
 5575SOL    HW228362   0.510   4.520  12.463 -1.0908 -2.2280 -0.4528
 5576SOL     OW28363   4.315   1.744   7.480  0.4963  0.1620 -0.1578
 5576SOL    HW128364   4.395   1.790   7.506 -0.2253  0.5123  1.4219
 5576SOL    HW228365   4.269   1.736   7.563  0.1950 -0.7483 -0.4191
 5577SOL     OW28366   0.199   3.422  17.036  0.1035  0.3325  0.6973
 5577SOL    HW128367   0.134   3.393  17.101 -2.0570 -1.6732 -2.3842
 5577SOL    HW228368   0.159   3.401  16.952  0.0592 -1.9645  1.2920
 5578SOL     OW28369   4.528   1.094   0.466  0.1443  0.3519  0.7384
 5578SOL    HW128370   4.533   1.068   0.374  2.3978 -2.4188  1.6661
 5578SOL    HW228371   4.524   1.009   0.508 -0.9538  0.0550  0.0544
 5579SOL     OW28372   0.724   0.347  14.907 -0.1416 -0.5942  0.2898
 5579SOL    HW128373   0.795   0.408  14.884 -1.1775 -0.7842 -3.3222
 5579SOL    HW228374   0.729   0.282  14.837  0.2978 -1.9465  1.6003
 5580SOL     OW28375   3.271   4.350  13.366 -0.8080 -0.2719 -0.5435
 5580SOL    HW128376   3.357   4.337  13.406 -0.4010  3.9459 -0.1185
 5580SOL    HW228377   3.266   4.440  13.334  0.1528  0.1998  0.6317
 5581SOL     OW28378   3.471   3.829   7.508  0.7787 -0.1977 -0.2146
 5581SOL    HW128379   3.475   3.918   7.542 -0.1599 -0.3898  0.3750
 5581SOL    HW228380   3.380   3.804   7.495 -0.1752  2.8421  0.6467
 5582SOL     OW28381   0.498   1.676  16.563 -0.2607 -0.2164 -0.7304
 5582SOL    HW128382   0.540   1.747  16.515  1.8462 -1.3062 -0.4829
 5582SOL    HW228383   0.407   1.704  16.550 -0.2805  0.0755  0.0714
 5583SOL     OW28384   3.821   1.154  12.812 -0.2176  0.3174 -0.5558
 5583SOL    HW128385   3.786   1.240  12.787 -1.5332 -0.5412 -1.6633
 5583SOL    HW228386   3.782   1.090  12.753 -0.9326  0.2576 -0.0193
 5584SOL     OW28387   0.452   3.655   6.400 -0.1105  0.3423 -0.0976
 5584SOL    HW128388   0.414   3.664   6.313 -0.7902 -1.0199  0.0674
 5584SOL    HW228389   0.503   3.576   6.381 -1.1466 -1.4210  4.5745
 5585SOL     OW28390   0.584   3.918   4.688  0.2016  0.7570 -1.0299
 5585SOL    HW128391   0.584   3.823   4.680 -1.0726  0.4819  2.0169
 5585SOL    HW228392   0.640   3.958   4.621  1.9266  1.5845  0.8969
 5586SOL     OW28393   1.312   3.830   6.003  0.1392 -0.1305 -0.1318
 5586SOL    HW128394   1.384   3.860   5.948  0.8460  1.3189  1.6011
 5586SOL    HW228395   1.342   3.756   6.055 -0.9144  0.8387  1.8472
 5587SOL     OW28396   4.369   1.551   8.873  0.0891 -0.1212  0.4860
 5587SOL    HW128397   4.349   1.527   8.963 -1.8045 -1.1003 -0.1964
 5587SOL    HW228398   4.312   1.490   8.825 -0.7274  1.2225 -0.2670
 5588SOL     OW28399   0.207   3.154  16.726 -0.4698  0.4220  0.2781
 5588SOL    HW128400   0.124   3.140  16.773 -0.7755 -0.6779 -0.5979
 5588SOL    HW228401   0.184   3.218  16.660 -0.7677 -2.9156 -2.8638
 5589SOL     OW28402   0.285   3.928  11.117 -0.5039  0.2251  0.0302
 5589SOL    HW128403   0.326   3.880  11.188  0.1598 -0.1393 -0.5951
 5589SOL    HW228404   0.195   3.932  11.149 -0.2195 -0.7931  0.9233
 5590SOL     OW28405   4.454   2.372   8.039 -0.2697 -0.4216  0.0964
 5590SOL    HW128406   4.520   2.381   8.107 -1.8286 -1.9029  1.7934
 5590SOL    HW228407   4.406   2.454   8.053 -0.1408 -0.2190 -0.6648
 5591SOL     OW28408   0.702   1.236   6.808  0.5404  0.1234 -0.0610
 5591SOL    HW128409   0.629   1.231   6.870  1.3415 -0.0931  0.8613
 5591SOL    HW228410   0.766   1.169   6.833 -0.5609 -0.9085 -0.0050
 5592SOL     OW28411   2.062   2.421   2.818 -0.4967  0.0694  0.5326
 5592SOL    HW128412   2.013   2.501   2.799 -0.2875  0.5196  1.8680
 5592SOL    HW228413   2.058   2.428   2.913  0.5661  2.0447  0.4388
 5593SOL     OW28414   0.702   0.507   3.262  0.2806  0.5665 -0.4108
 5593SOL    HW128415   0.680   0.424   3.220 -0.2421  0.1801  0.6303
 5593SOL    HW228416   0.757   0.466   3.330 -2.0203  1.1427  1.8179
 5594SOL     OW28417   0.600   3.209   8.575 -0.3978 -0.1858  0.1773
 5594SOL    HW128418   0.676   3.252   8.616 -0.3772  1.0365 -1.1327
 5594SOL    HW228419   0.529   3.271   8.592  0.2808 -0.2170  3.1667
 5595SOL     OW28420   2.533   3.379   8.912  0.0367  0.2625 -0.4916
 5595SOL    HW128421   2.600   3.380   8.844 -0.2035  0.6564 -0.7215
 5595SOL    HW228422   2.478   3.308   8.880 -0.9570  1.0688 -0.5873
 5596SOL     OW28423   0.528   2.173   3.327  0.1947  0.7625  0.4458
 5596SOL    HW128424   0.474   2.196   3.252  1.3029  2.3279  0.1057
 5596SOL    HW228425   0.574   2.104   3.279  0.7302 -1.0884  3.5938
 5597SOL     OW28426   1.006   2.213   7.892 -0.5066  0.8121 -0.3776
 5597SOL    HW128427   0.971   2.254   7.971  0.1975 -2.9151  1.8950
 5597SOL    HW228428   0.955   2.133   7.879  0.1441  0.0391  1.7760
 5598SOL     OW28429   1.315   1.488   9.535  0.4899 -0.0186  0.3617
 5598SOL    HW128430   1.258   1.506   9.460  0.9310 -1.5092 -0.3347
 5598SOL    HW228431   1.242   1.475   9.595  1.2015  1.6832  1.5700
 5599SOL     OW28432   3.290   3.577   7.251 -0.1470 -0.8115  0.2708
 5599SOL    HW128433   3.347   3.545   7.321 -1.0867 -2.8525  0.1221
 5599SOL    HW228434   3.344   3.637   7.200 -0.7372 -1.1245 -0.7189
 5600SOL     OW28435   1.282   3.400   5.392 -0.4847 -0.2715  0.1544
 5600SOL    HW128436   1.341   3.472   5.414 -2.1793  0.7747  1.3253
 5600SOL    HW228437   1.253   3.390   5.482  0.9542  3.4730  1.0359
 5601SOL     OW28438   2.683   1.403   6.668 -0.0072  0.1681 -0.1161
 5601SOL    HW128439   2.738   1.325   6.677  0.0205 -0.0150 -1.8980
 5601SOL    HW228440   2.676   1.411   6.573 -1.3679 -0.5658 -0.0824
 5602SOL     OW28441   1.888   2.501   9.228  0.7031  0.4356  0.0011
 5602SOL    HW128442   1.956   2.563   9.203 -0.2565  1.1743 -0.7500
 5602SOL    HW228443   1.943   2.424   9.243 -2.7669 -1.7749  1.2667
 5603SOL     OW28444   2.405   0.300   1.098  0.0064  0.7965 -0.0539
 5603SOL    HW128445   2.326   0.323   1.148 -0.0871 -1.1068  0.6878
 5603SOL    HW228446   2.361   0.287   1.014  1.7278  1.3369 -1.0215
 5604SOL     OW28447   2.248   1.704  12.577 -0.6497 -0.0613  0.1544
 5604SOL    HW128448   2.276   1.663  12.659 -2.4368  0.4870  1.0443
 5604SOL    HW228449   2.173   1.654  12.545  1.3912 -1.9768 -1.5538
 5605SOL     OW28450   3.838   1.018   4.130 -0.2706  0.4276 -0.3127
 5605SOL    HW128451   3.884   0.999   4.048 -0.9961 -1.4038 -0.2912
 5605SOL    HW228452   3.885   1.098   4.152  0.2580  0.0224  0.0335
 5606SOL     OW28453   4.604   0.879   4.002 -0.0690 -0.1085  0.1414
 5606SOL    HW128454   4.575   0.887   3.911  1.8689 -1.3004 -0.5800
 5606SOL    HW228455   4.551   0.949   4.039 -0.4629 -0.9681  1.2202
 5607SOL     OW28456   4.415   0.244   7.515 -0.0459 -0.3583 -0.1376
 5607SOL    HW128457   4.413   0.329   7.470 -0.7410  1.1473  2.7274
 5607SOL    HW228458   4.497   0.250   7.565  1.4857  1.2609 -2.8002
 5608SOL     OW28459   2.800   2.473  15.116  0.2922 -0.1112 -0.3079
 5608SOL    HW128460   2.886   2.513  15.129  0.9077 -0.8895 -2.0508
 5608SOL    HW228461   2.795   2.387  15.159 -0.8143 -0.4662 -1.1358
 5609SOL     OW28462   2.022   1.516  13.805 -0.1803 -0.0651 -0.2949
 5609SOL    HW128463   2.025   1.516  13.900  0.1196  1.0592 -0.2929
 5609SOL    HW228464   2.110   1.526  13.767 -0.5324  0.0183 -1.0932
 5610SOL     OW28465   2.589   3.433   9.828  0.4783 -0.2610  0.4453
 5610SOL    HW128466   2.542   3.503   9.872  0.3658  0.1363 -0.3053
 5610SOL    HW228467   2.527   3.362   9.842 -1.3628  2.1312  4.4758
 5611SOL     OW28468   3.943   2.377   0.479 -0.0240 -0.0370 -0.3956
 5611SOL    HW128469   3.916   2.302   0.533  0.0042  0.6342  0.5500
 5611SOL    HW228470   3.995   2.329   0.415 -0.7687 -1.6479  0.1948
 5612SOL     OW28471   3.469   2.778   2.171 -0.2562  0.1185 -0.3122
 5612SOL    HW128472   3.452   2.846   2.236  0.5504  1.1827 -1.2092
 5612SOL    HW228473   3.563   2.769   2.189 -0.9005 -3.7812  0.9941
 5613SOL     OW28474   4.540   3.457   6.039  0.4263 -0.2091 -0.3619
 5613SOL    HW128475   4.608   3.456   6.106 -0.1243  1.6655  0.2171
 5613SOL    HW228476   4.511   3.548   6.049  2.5913  0.4454 -0.1238
 5614SOL     OW28477   0.012   0.318  11.361 -0.2045 -0.2810 -0.0433
 5614SOL    HW128478   0.017   0.223  11.372 -1.3022 -0.4063 -0.6941
 5614SOL    HW228479   0.095   0.346  11.400 -0.9734  0.7068  0.9001
 5615SOL     OW28480   3.247   4.453   5.009  0.6412  0.3825  0.1324
 5615SOL    HW128481   3.157   4.431   5.035  0.1529  3.8300  1.3905
 5615SOL    HW228482   3.277   4.496   5.089  1.9845  2.6064 -1.5954
 5616SOL     OW28483   0.251   0.412   5.732  0.3665 -0.1861  0.4709
 5616SOL    HW128484   0.226   0.434   5.642  0.4960 -0.9862  0.2441
 5616SOL    HW228485   0.287   0.327   5.706 -0.9159 -0.7582  0.5986
 5617SOL     OW28486   3.731   1.004   1.275  0.1079  0.7753 -0.6550
 5617SOL    HW128487   3.772   1.082   1.310  1.2117  0.7490 -1.8980
 5617SOL    HW228488   3.649   1.044   1.247  0.0327  0.8220 -0.3669
 5618SOL     OW28489   2.060   0.090  17.147  0.1795 -0.0352 -0.1888
 5618SOL    HW128490   2.113   0.157  17.190 -1.1618  0.0167  1.3749
 5618SOL    HW228491   2.082   0.013  17.198  1.1769  2.0595  2.5259
 5619SOL     OW28492   4.173   0.125   2.638  0.1238  0.5025 -0.1538
 5619SOL    HW128493   4.079   0.105   2.631  0.1289  0.8130 -1.1611
 5619SOL    HW228494   4.207   0.054   2.691  0.0020  0.4386 -0.1616
 5620SOL     OW28495   1.762   1.582  12.767  0.5697  0.9794  0.2005
 5620SOL    HW128496   1.721   1.498  12.749  1.2891  0.6234  0.2393
 5620SOL    HW228497   1.714   1.620  12.841  0.4291  1.1591  0.0183
 5621SOL     OW28498   3.362   1.256   1.932  0.4052 -0.3310 -0.0787
 5621SOL    HW128499   3.354   1.167   1.899 -0.8447 -1.0429  2.1329
 5621SOL    HW228500   3.450   1.251   1.969  0.0962  0.8020  0.8296
 5622SOL     OW28501   4.191   4.152   3.106  0.2295 -0.3239  0.3352
 5622SOL    HW128502   4.261   4.152   3.042  1.3865 -2.6341  1.6017
 5622SOL    HW228503   4.147   4.068   3.093  0.9345 -0.5420 -0.5942
 5623SOL     OW28504   1.093   4.643   3.735 -0.0422  0.3882  0.3648
 5623SOL    HW128505   1.094   4.680   3.647 -3.3600 -1.5460 -0.4680
 5623SOL    HW228506   1.167   4.585   3.717 -1.8718 -2.2201  1.3696
 5624SOL     OW28507   4.141   1.962   1.936  0.2300 -0.3215  0.0247
 5624SOL    HW128508   4.129   2.056   1.921 -0.8405 -0.7367 -1.7389
 5624SOL    HW228509   4.205   1.967   2.007  0.2774 -0.2618 -0.0224
 5625SOL     OW28510   4.385   0.161   1.498  0.1375 -0.1425  0.5777
 5625SOL    HW128511   4.304   0.124   1.461  1.0653 -0.2471 -1.3630
 5625SOL    HW228512   4.435   0.080   1.508  0.7724  0.2119  0.2962
 5626SOL     OW28513   2.901   3.879   7.613 -0.8386 -0.2991 -0.3260
 5626SOL    HW128514   2.948   3.796   7.616 -1.1262 -0.4513 -0.0678
 5626SOL    HW228515   2.953   3.925   7.679 -0.0039 -0.7759 -0.6592
 5627SOL     OW28516   1.941   1.650   3.650  0.5222  0.3672  0.1875
 5627SOL    HW128517   1.872   1.688   3.596  1.1106  0.2316 -0.6541
 5627SOL    HW228518   1.994   1.730   3.654 -0.2862  0.9792 -1.1940
 5628SOL     OW28519   0.701   3.815  14.798  0.4831  0.1499 -0.2298
 5628SOL    HW128520   0.636   3.856  14.854 -0.7372 -0.4935 -1.1884
 5628SOL    HW228521   0.654   3.787  14.719  0.2985 -1.5010  0.4708
 5629SOL     OW28522   1.839   1.732  12.296 -0.0231 -0.8091 -0.7987
 5629SOL    HW128523   1.811   1.686  12.217 -0.5361 -1.6145 -0.1456
 5629SOL    HW228524   1.772   1.722  12.363  0.0973  0.6828 -0.4680
 5630SOL     OW28525   2.447   1.898  13.018  0.1295  0.2120  0.1756
 5630SOL    HW128526   2.406   1.831  12.964  0.6729 -0.0254  0.0568
 5630SOL    HW228527   2.520   1.938  12.970 -0.9789  1.3119 -0.6016
 5631SOL     OW28528   0.943   0.293   7.678  0.5598 -0.0336  0.2869
 5631SOL    HW128529   0.898   0.324   7.756  1.1077 -1.4802  1.1661
 5631SOL    HW228530   1.014   0.233   7.699 -0.8543 -1.6842  0.3257
 5632SOL     OW28531   0.988   4.201  14.271 -0.4564  0.0604  0.3631
 5632SOL    HW128532   1.028   4.114  14.272  0.4474  0.4795  1.7307
 5632SOL    HW228533   1.069   4.247  14.292 -0.0535  0.0849 -1.2611
 5633SOL     OW28534   1.602   3.757   6.488 -0.4999  0.1513 -0.2696
 5633SOL    HW128535   1.660   3.683   6.472  0.0784  0.4373  0.5235
 5633SOL    HW228536   1.551   3.720   6.561  1.3874 -1.7127  0.0814
 5634SOL     OW28537   0.159   1.469   9.765  0.8064 -0.5200  0.1894
 5634SOL    HW128538   0.185   1.407   9.697  2.7010 -0.3060  0.7200
 5634SOL    HW228539   0.196   1.417   9.836 -0.4564 -0.3522  0.9674
 5635SOL     OW28540   3.805   4.128   6.069 -0.1447  0.0250 -0.0671
 5635SOL    HW128541   3.836   4.040   6.050 -1.0392 -0.3040  0.0437
 5635SOL    HW228542   3.807   4.173   5.984 -1.5332 -1.3790 -0.8239
 5636SOL     OW28543   0.195   0.787   0.005 -0.5326 -0.1724 -0.2109
 5636SOL    HW128544   0.154   0.838  17.694 -0.0753 -0.8338 -0.9658
 5636SOL    HW228545   0.253   0.736  17.707  0.9843  0.4832  0.7683
 5637SOL     OW28546   2.602   3.018  10.083 -0.3154 -0.3422  0.0876
 5637SOL    HW128547   2.696   3.025  10.098 -0.1444 -1.2572 -0.5368
 5637SOL    HW228548   2.590   2.975   9.998 -2.6410  1.2290 -0.3953
 5638SOL     OW28549   0.602   4.018  14.980  0.1175  0.3278 -0.1140
 5638SOL    HW128550   0.510   3.992  14.988  0.3386 -0.3526  0.2187
 5638SOL    HW228551   0.615   4.095  15.036  0.8105  1.1556 -1.3945
 5639SOL     OW28552   2.872   1.022   5.343 -0.0831  0.2187 -0.4228
 5639SOL    HW128553   2.859   0.937   5.386  0.9782  0.5770  0.6038
 5639SOL    HW228554   2.966   1.025   5.330  0.0388 -0.1678  0.3660
 5640SOL     OW28555   0.841   4.359   5.237  0.3603  0.1132  0.6694
 5640SOL    HW128556   0.825   4.355   5.143  1.9342  1.2158  0.3473
 5640SOL    HW228557   0.930   4.394   5.234 -0.0454  1.2317  1.6645
 5641SOL     OW28558   0.823   4.642   8.300 -0.3012  0.4002  0.2012
 5641SOL    HW128559   0.814   4.578   8.370 -0.0261  0.2593  0.1080
 5641SOL    HW228560   0.919   4.644   8.297 -0.3161  2.3821  0.9562
 5642SOL     OW28561   2.347   2.045   4.319  0.2484 -0.6190  0.0600
 5642SOL    HW128562   2.345   2.077   4.229  1.9518  2.8060  1.2499
 5642SOL    HW228563   2.273   2.089   4.360  0.7677 -1.0127  1.4215
 5643SOL     OW28564   2.693   2.964   0.376 -0.0154 -0.1167 -0.0898
 5643SOL    HW128565   2.760   3.029   0.397  1.5554 -1.4598 -0.8526
 5643SOL    HW228566   2.619   3.014   0.342 -0.0030  0.1411  0.2723
 5644SOL     OW28567   3.675   0.351  12.710  0.3782  0.7017 -0.0537
 5644SOL    HW128568   3.741   0.353  12.780 -0.8345 -1.7923  1.1470
 5644SOL    HW228569   3.594   0.384  12.749  0.5428  3.4784 -2.0798
 5645SOL     OW28570   4.177   2.883   3.400 -0.4084 -0.1973  0.0772
 5645SOL    HW128571   4.258   2.865   3.449 -0.9806 -1.2342  0.6467
 5645SOL    HW228572   4.187   2.977   3.387 -1.0425  0.1094  1.7897
 5646SOL     OW28573   1.722   0.050   4.218 -0.0417 -0.5767 -0.3398
 5646SOL    HW128574   1.768   0.134   4.212 -0.0022 -0.3395  3.2809
 5646SOL    HW228575   1.779   4.736   4.272  1.2741 -0.3163 -1.4680
 5647SOL     OW28576   4.675   2.561   7.127  0.3431  0.4117 -0.0702
 5647SOL    HW128577   4.603   2.498   7.138  0.2561  0.2420 -1.5409
 5647SOL    HW228578   4.639   2.629   7.071 -3.0673 -3.3186 -2.4408
 5648SOL     OW28579   1.513   2.393   4.252 -0.7237 -0.4431 -0.4554
 5648SOL    HW128580   1.482   2.456   4.187  0.5207  0.5550 -0.0920
 5648SOL    HW228581   1.424   2.362   4.266 -0.3641 -0.9453  0.8086
 5649SOL     OW28582   1.956   3.757   9.677  0.2910 -0.6407 -0.1715
 5649SOL    HW128583   1.971   3.803   9.759 -0.3697 -0.3228 -0.2253
 5649SOL    HW228584   1.891   3.700   9.719  0.0842 -0.5376 -0.3452
 5650SOL     OW28585   0.261   0.129  17.754 -0.3004 -0.4539 -0.0746
 5650SOL    HW128586   0.210   0.060   0.038 -0.2724 -0.3866  0.0679
 5650SOL    HW228587   0.209   0.139  17.673  1.3814 -2.3332 -1.3995
 5651SOL     OW28588   3.079   0.020   2.335  0.3667 -0.1715  0.0810
 5651SOL    HW128589   2.985   0.022   2.317  0.1583 -1.5760  1.0211
 5651SOL    HW228590   3.087   0.107   2.373  0.8904 -1.1057  2.1127
 5652SOL     OW28591   2.299   0.430   8.453  0.4853  0.1622 -0.0220
 5652SOL    HW128592   2.256   0.353   8.416 -0.0881 -0.0599  1.0885
 5652SOL    HW228593   2.307   0.398   8.543 -0.3120  3.7392  1.3471
 5653SOL     OW28594   2.474   2.300   8.779 -0.0763 -0.2305  0.3218
 5653SOL    HW128595   2.500   2.374   8.833 -0.6825 -0.0157  0.3193
 5653SOL    HW228596   2.398   2.272   8.830 -0.4469 -0.1430 -0.1809
 5654SOL     OW28597   3.875   2.201   0.741 -0.8372  0.5809  0.6461
 5654SOL    HW128598   3.919   2.124   0.776 -0.3957 -0.3221 -1.8845
 5654SOL    HW228599   3.785   2.172   0.729 -0.7422 -0.1226  1.6133
 5655SOL     OW28600   0.774   0.711   8.297  0.0652 -0.1980  0.4761
 5655SOL    HW128601   0.799   0.702   8.205 -1.8535  1.2554 -0.2060
 5655SOL    HW228602   0.798   0.801   8.322  0.8562 -0.3597  0.3040
 5656SOL     OW28603   3.488   2.403   8.766 -0.6572 -0.3289 -0.0691
 5656SOL    HW128604   3.579   2.422   8.787 -0.6426  0.3858 -0.7560
 5656SOL    HW228605   3.455   2.362   8.846 -3.5280 -0.5524 -1.3678
 5657SOL     OW28606   0.563   1.672   3.293 -0.4023  0.2365 -0.0268
 5657SOL    HW128607   0.601   1.616   3.360 -1.1707 -0.9184 -0.5620
 5657SOL    HW228608   0.620   1.668   3.216  0.5044 -1.0323  0.7138
 5658SOL     OW28609   0.282   4.161  12.287 -0.4049 -0.6159  0.0165
 5658SOL    HW128610   0.364   4.144  12.333 -0.7192 -0.0481  0.7725
 5658SOL    HW228611   0.234   4.227  12.337 -0.2296  0.1857 -0.8620
 5659SOL     OW28612   3.279   0.963  15.043 -0.2166  0.1266 -0.0117
 5659SOL    HW128613   3.338   0.889  15.055 -0.0761  0.2360 -0.0318
 5659SOL    HW228614   3.199   0.910  15.046 -0.8518  1.1260  0.9410
 5660SOL     OW28615   3.300   0.029   2.159 -0.0854  0.0571  0.0453
 5660SOL    HW128616   3.255   0.020   2.243 -0.0208  0.9031  0.1699
 5660SOL    HW228617   3.231   0.024   2.092 -1.1131 -0.5879  1.1459
 5661SOL     OW28618   1.568   2.838   8.867 -0.1467 -0.7560  0.1141
 5661SOL    HW128619   1.503   2.888   8.817  2.1498  1.2600 -0.8743
 5661SOL    HW228620   1.505   2.795   8.925 -1.8943 -0.1076 -1.3119
 5662SOL     OW28621   0.546   4.729   6.237  0.1749  0.4146 -0.0468
 5662SOL    HW128622   0.588   4.712   6.321  4.2416  1.9582 -1.7274
 5662SOL    HW228623   0.472   4.668   6.232 -1.2764  2.2926 -1.6004
 5663SOL     OW28624   0.064   3.888   5.545  0.5232  0.2906  0.1591
 5663SOL    HW128625   0.019   3.963   5.584 -0.8649 -0.0956 -0.6961
 5663SOL    HW228626   0.112   3.928   5.472  2.7987  0.0264  1.5338
 5664SOL     OW28627   0.209   1.350   9.171 -0.3993 -0.6436  0.2531
 5664SOL    HW128628   0.249   1.356   9.258  0.0417 -1.0333  0.0708
 5664SOL    HW228629   0.193   1.444   9.158 -0.2637 -0.1627  3.5553
 5665SOL     OW28630   3.283   3.518   9.348  0.7302 -0.2688  0.0843
 5665SOL    HW128631   3.280   3.453   9.278  0.9033 -0.2010  0.0145
 5665SOL    HW228632   3.189   3.530   9.364  0.8713 -0.1534  0.8238
 5666SOL     OW28633   1.152   3.010   5.950  0.1640  0.0445  0.7080
 5666SOL    HW128634   1.124   2.961   6.027 -0.4245 -1.8402 -0.6931
 5666SOL    HW228635   1.085   2.979   5.889  0.7894 -0.4278  0.2438
 5667SOL     OW28636   0.699   1.029   9.566  0.4676 -0.5711  0.0713
 5667SOL    HW128637   0.742   0.963   9.621 -0.1227  0.0889  1.3010
 5667SOL    HW228638   0.690   0.976   9.486  0.8374 -0.9517  0.2814
 5668SOL     OW28639   3.210   2.786   7.107  0.0332  0.3217  0.3792
 5668SOL    HW128640   3.244   2.837   7.181  1.1278  0.5109 -0.2525
 5668SOL    HW228641   3.117   2.810   7.105 -0.1671 -0.2136  2.8238
 5669SOL     OW28642   1.503   0.052   2.423 -0.0517 -0.1025  0.6005
 5669SOL    HW128643   1.507   0.089   2.335  0.9301 -1.6044  0.0080
 5669SOL    HW228644   1.434   0.109   2.456  0.7772  2.6304 -2.4286
 5670SOL     OW28645   3.424   2.072   4.125  0.4895  0.1011  0.2812
 5670SOL    HW128646   3.413   2.009   4.053  2.7776 -0.2727  0.2625
 5670SOL    HW228647   3.466   2.012   4.187 -1.7827 -2.9435 -1.0793
 5671SOL     OW28648   0.630   3.597  12.113  0.6001 -0.2444 -0.1703
 5671SOL    HW128649   0.634   3.682  12.069  1.0551  0.1444  0.6167
 5671SOL    HW228650   0.687   3.550  12.051  0.5033  1.4918 -1.5592
 5672SOL     OW28651   1.696   1.299   5.431  0.2298 -0.2654  0.7460
 5672SOL    HW128652   1.638   1.223   5.434 -1.7362  1.1408 -1.9818
 5672SOL    HW228653   1.639   1.356   5.483  0.4144 -0.5973  1.3040
 5673SOL     OW28654   1.845   1.159   6.641 -0.1241  0.5411 -0.0927
 5673SOL    HW128655   1.777   1.226   6.634 -0.1454  0.6472  1.2207
 5673SOL    HW228656   1.822   1.098   6.570 -1.1549 -0.9811  1.5549
 5674SOL     OW28657   3.210   0.584   4.548  0.5357 -0.0167  0.1306
 5674SOL    HW128658   3.154   0.627   4.483 -0.2476  0.3779  1.0786
 5674SOL    HW228659   3.287   0.641   4.545  0.3438  0.2457  0.1061
 5675SOL     OW28660   1.438   1.117   4.666  0.4709  0.1780 -0.7793
 5675SOL    HW128661   1.497   1.045   4.644 -0.4405 -1.5439  2.4311
 5675SOL    HW228662   1.435   1.121   4.762  0.9802 -0.1287 -0.7512
 5676SOL     OW28663   4.409   0.975  17.653  0.1384 -0.2942 -0.3460
 5676SOL    HW128664   4.447   1.002  17.737 -0.6159 -0.6076  0.0986
 5676SOL    HW228665   4.336   1.038  17.648 -0.2102 -0.7275 -0.7456
 5677SOL     OW28666   2.387   0.037   9.508 -0.1351  0.0369 -0.0358
 5677SOL    HW128667   2.382   4.693   9.463 -4.6935 -0.5396  1.5779
 5677SOL    HW228668   2.439   0.087   9.445  1.8568 -1.2460  0.5781
 5678SOL     OW28669   3.724   2.767  13.348  0.7344 -0.4766 -0.3266
 5678SOL    HW128670   3.707   2.834  13.283  3.0881  0.7486  0.3345
 5678SOL    HW228671   3.819   2.759  13.342  0.8551  0.8404 -0.1733
 5679SOL     OW28672   1.488   1.217  17.259 -0.1743  0.0278  0.2020
 5679SOL    HW128673   1.421   1.255  17.317  0.3268  0.0081  0.7898
 5679SOL    HW228674   1.538   1.293  17.228  2.6116 -1.4949  0.9822
 5680SOL     OW28675   2.458   0.198   4.247 -0.2289  0.0766  0.0414
 5680SOL    HW128676   2.541   0.228   4.285  1.7896 -3.3668 -1.6513
 5680SOL    HW228677   2.434   0.120   4.298 -0.0301  0.2915  0.4701
 5681SOL     OW28678   2.991   3.692   3.199 -0.1098 -0.1814 -0.0739
 5681SOL    HW128679   3.057   3.740   3.148  0.7374 -0.9016  0.3277
 5681SOL    HW228680   3.009   3.603   3.169  0.6225 -0.2908  0.6933
 5682SOL     OW28681   2.332   3.801   6.500  0.1092 -0.2265  0.2436
 5682SOL    HW128682   2.360   3.859   6.429 -0.9913  0.3571  0.2960
 5682SOL    HW228683   2.412   3.805   6.552 -1.9449  0.1924  3.3754
 5683SOL     OW28684   0.789   4.557   4.542  0.2036 -0.1750  0.3354
 5683SOL    HW128685   0.854   4.620   4.509  0.7875 -0.7007  0.4831
 5683SOL    HW228686   0.845   4.510   4.603  0.8203 -0.2037 -0.2511
 5684SOL     OW28687   0.279   2.861  14.952  0.3956  0.1306  0.0055
 5684SOL    HW128688   0.341   2.928  14.980  0.9771 -0.4521  0.1257
 5684SOL    HW228689   0.245   2.825  15.033  2.7163  3.4965  2.4800
 5685SOL     OW28690   1.072   3.225   1.818 -0.2180  0.2145  0.2373
 5685SOL    HW128691   1.135   3.272   1.764 -0.3246  0.8564  0.6743
 5685SOL    HW228692   1.138   3.181   1.871  0.5402  0.5016 -0.4692
 5686SOL     OW28693   2.260   4.341   9.683 -0.5581 -0.2682  0.5164
 5686SOL    HW128694   2.200   4.296   9.624 -1.4015  1.9745 -0.3412
 5686SOL    HW228695   2.251   4.289   9.763  1.3000 -0.3637  0.6698
 5687SOL     OW28696   0.499   0.304   8.598  0.4568 -0.3288  0.5594
 5687SOL    HW128697   0.444   0.291   8.521  1.0462 -0.7852  0.2138
 5687SOL    HW228698   0.479   0.222   8.644  0.9700 -0.0484  1.2903
 5688SOL     OW28699   3.538   0.477   2.786 -0.2552  0.2896 -0.0995
 5688SOL    HW128700   3.508   0.562   2.816 -1.9855 -0.2329 -0.3562
 5688SOL    HW228701   3.556   0.432   2.869  0.1852 -1.5718 -1.2118
 5689SOL     OW28702   0.003   2.755   1.934 -0.0894 -0.0648  0.1091
 5689SOL    HW128703   4.735   2.779   2.026 -0.2142  1.9067 -0.4332
 5689SOL    HW228704   0.096   2.735   1.920  0.1579  0.1339  1.4718
 5690SOL     OW28705   3.910   0.963   6.630  0.7339 -0.2195  0.7887
 5690SOL    HW128706   3.905   1.021   6.554 -0.0824 -0.3891  0.7161
 5690SOL    HW228707   3.908   0.874   6.594 -0.3862  0.0824  0.1106
 5691SOL     OW28708   0.047   0.044  10.738 -0.4178  0.6494 -0.2127
 5691SOL    HW128709   0.136   0.043  10.774 -0.3889  1.2430 -0.2774
 5691SOL    HW228710   0.034   4.689  10.735  2.8825  0.3079 -3.5943
 5692SOL     OW28711   0.042   3.737   6.701  0.0503  0.3898  0.1775
 5692SOL    HW128712   0.121   3.705   6.658  1.3502  1.3104  1.8443
 5692SOL    HW228713   4.719   3.735   6.630 -1.2530 -0.3956  1.3616
 5693SOL     OW28714   0.491   1.074   8.777 -0.4203 -0.3704 -0.4836
 5693SOL    HW128715   0.526   1.160   8.798  1.6691 -1.1393 -0.8036
 5693SOL    HW228716   0.398   1.087   8.795 -0.2767  0.7950 -0.6084
 5694SOL     OW28717   2.115   3.158   8.837  0.3367 -0.0993  0.0535
 5694SOL    HW128718   2.206   3.126   8.840  0.7798  1.2576  1.3375
 5694SOL    HW228719   2.095   3.146   8.745  1.1458  1.2698 -0.3047
 5695SOL     OW28720   2.330   0.758   2.209  0.1819 -0.2037 -0.1864
 5695SOL    HW128721   2.347   0.844   2.247  0.1926  0.2354 -1.1739
 5695SOL    HW228722   2.422   0.731   2.201 -0.8140 -3.0762 -1.9453
 5696SOL     OW28723   3.482   3.452   6.817  0.0920 -0.3929  0.0084
 5696SOL    HW128724   3.507   3.374   6.867 -0.4429  1.7179  3.5498
 5696SOL    HW228725   3.386   3.444   6.819  0.0148  0.2066 -2.0307
 5697SOL     OW28726   0.919   1.667   0.568  0.1227  0.4872  0.3672
 5697SOL    HW128727   0.939   1.574   0.572 -2.1310 -0.0313 -0.3599
 5697SOL    HW228728   0.878   1.676   0.481  0.7130  0.6236  0.1046
 5698SOL     OW28729   2.845   1.670   6.039 -0.2287 -0.6083  0.3380
 5698SOL    HW128730   2.930   1.640   6.007  1.2448  1.5409  2.1906
 5698SOL    HW228731   2.845   1.760   6.006  0.4097 -1.3141 -1.6045
 5699SOL     OW28732   3.306   0.419  10.103  0.0767 -0.2365  0.1083
 5699SOL    HW128733   3.367   0.456  10.166 -1.5986  1.5599  0.6794
 5699SOL    HW228734   3.364   0.348  10.075  0.3157  0.5914 -1.4844
 5700SOL     OW28735   0.701   1.655   0.742 -0.2827 -0.2133 -0.3402
 5700SOL    HW128736   0.785   1.656   0.697  0.1523 -1.3214  0.4425
 5700SOL    HW228737   0.728   1.660   0.834  1.9337  1.2732 -1.0769
 5701SOL     OW28738   3.968   1.662   7.128 -0.4117 -0.1784 -0.7089
 5701SOL    HW128739   3.905   1.634   7.194  1.5942  0.5159  1.4768
 5701SOL    HW228740   4.008   1.726   7.186 -0.9042  0.0291 -0.5939
 5702SOL     OW28741   1.527   4.290   8.820 -0.3097  0.2243  0.3590
 5702SOL    HW128742   1.606   4.236   8.818  0.8908  1.9813 -1.3676
 5702SOL    HW228743   1.538   4.324   8.908 -0.6749  0.1747  0.4215
 5703SOL     OW28744   2.674   2.796   6.085 -0.4264  0.0992 -0.4503
 5703SOL    HW128745   2.662   2.734   6.012 -0.1071  2.1086 -2.2244
 5703SOL    HW228746   2.584   2.831   6.086  0.0598  1.4218 -2.3007
 5704SOL     OW28747   3.915   2.181   4.333  0.1266  0.4659  0.3486
 5704SOL    HW128748   3.979   2.157   4.266  1.7766  2.1886  1.3164
 5704SOL    HW228749   3.876   2.261   4.296 -0.2567  0.4847  0.7851
 5705SOL     OW28750   1.484   3.957   3.016 -0.1004  0.2400 -0.0694
 5705SOL    HW128751   1.399   3.944   3.059 -1.5262  2.8470 -2.0671
 5705SOL    HW228752   1.449   3.933   2.930 -0.3009  1.5806 -0.3723
 5706SOL     OW28753   0.364   0.066   1.218  0.7589 -0.4951  0.3277
 5706SOL    HW128754   0.339   0.088   1.128  0.4017 -1.6663  0.1311
 5706SOL    HW228755   0.297   0.001   1.239  0.5774  0.7945  3.7104
 5707SOL     OW28756   4.377   0.019  10.360  0.2031 -0.0281 -0.8174
 5707SOL    HW128757   4.286   0.047  10.363  0.5333  1.0634 -0.6943
 5707SOL    HW228758   4.423   0.101  10.339 -0.1899  1.1372  2.8469
 5708SOL     OW28759   1.223   4.218  13.165  0.1233  0.1000 -0.5883
 5708SOL    HW128760   1.242   4.301  13.208 -1.2703 -1.0405  2.2205
 5708SOL    HW228761   1.225   4.157  13.239 -1.3113 -0.4888 -1.0366
 5709SOL     OW28762   4.044   4.069   2.359  0.5920 -0.0121 -0.7012
 5709SOL    HW128763   4.003   4.004   2.302 -0.4584  0.5809 -0.6170
 5709SOL    HW228764   3.977   4.082   2.425 -1.0662 -1.4788 -2.0703
 5710SOL     OW28765   2.184   3.005   0.956 -0.3058  0.0869 -0.4178
 5710SOL    HW128766   2.176   2.985   0.862 -1.7635 -0.8612 -0.0905
 5710SOL    HW228767   2.202   3.099   0.957  1.6360 -0.2829 -0.9640
 5711SOL     OW28768   4.526   4.726  17.620  0.8359  0.1849 -0.1035
 5711SOL    HW128769   4.599   4.664  17.616 -0.7873 -1.7296 -0.0628
 5711SOL    HW228770   4.503   4.737  17.528  1.8437 -0.5843 -0.4377
 5712SOL     OW28771   2.025   4.498   1.425  0.3561 -0.3464 -0.4637
 5712SOL    HW128772   2.037   4.525   1.516  1.5853  0.1773 -0.7828
 5712SOL    HW228773   2.100   4.530   1.375  1.1041 -0.6410  0.4760
 5713SOL     OW28774   3.080   4.142   8.751  0.7728 -0.8867  0.0178
 5713SOL    HW128775   2.995   4.170   8.783  0.7361 -0.4052 -0.4864
 5713SOL    HW228776   3.125   4.225   8.768  1.4676 -1.4355  0.8562
 5714SOL     OW28777   1.075   1.663   3.457  0.2421  0.0081 -0.7620
 5714SOL    HW128778   1.083   1.654   3.362  0.8927 -0.9834 -0.6161
 5714SOL    HW228779   0.997   1.718   3.463  0.7237  0.4762  1.1969
 5715SOL     OW28780   2.602   1.219   8.926 -0.3426 -0.3695 -0.2841
 5715SOL    HW128781   2.673   1.247   8.868 -3.2651  1.8990 -2.7490
 5715SOL    HW228782   2.645   1.203   9.010 -3.0171  2.7778  1.6804
 5716SOL     OW28783   1.284   3.316  17.499  0.2478 -0.4831  0.3680
 5716SOL    HW128784   1.285   3.295  17.592 -0.7687  1.6292  0.8661
 5716SOL    HW228785   1.376   3.329  17.477  0.0166 -1.6264 -1.2919
 5717SOL     OW28786   0.928   2.280   3.983 -0.3569 -0.0034 -0.5197
 5717SOL    HW128787   0.856   2.342   3.974 -0.7410 -0.5346 -1.1692
 5717SOL    HW228788   0.877   2.220   4.037  2.0074 -1.4581  0.0713
 5718SOL     OW28789   0.859   1.683   4.571  0.1938  0.1665 -0.4111
 5718SOL    HW128790   0.937   1.704   4.519  1.6768  0.6299  1.9616
 5718SOL    HW228791   0.854   1.590   4.552  1.0152  0.2506 -1.0464
 5719SOL     OW28792   2.505   0.364   6.191  0.2342  0.2629 -0.1567
 5719SOL    HW128793   2.419   0.348   6.153  0.3309  1.2457 -0.7952
 5719SOL    HW228794   2.479   0.410   6.271 -1.0550 -0.0740 -0.3883
 5720SOL     OW28795   1.768   0.838   4.370  0.4320  0.8047  0.5560
 5720SOL    HW128796   1.831   0.892   4.322  1.7110  0.1382  1.4908
 5720SOL    HW228797   1.805   0.749   4.372 -0.9487  0.1824 -1.3394
 5721SOL     OW28798   1.867   4.289   4.877  0.6363 -0.7048 -0.1770
 5721SOL    HW128799   1.885   4.212   4.931  1.8559 -0.6157 -0.4383
 5721SOL    HW228800   1.922   4.268   4.801  0.9249  1.6360 -0.6102
 5722SOL     OW28801   4.049   3.134   6.761  0.5559 -0.2002 -0.3783
 5722SOL    HW128802   4.026   3.219   6.800 -0.2583 -0.4080 -0.4043
 5722SOL    HW228803   4.088   3.084   6.832  1.2783  0.4921 -0.2830
 5723SOL     OW28804   0.043   4.420  15.683  0.2435 -0.4005 -0.2615
 5723SOL    HW128805   0.131   4.398  15.654 -0.9045 -1.1629 -3.1891
 5723SOL    HW228806   0.039   4.390  15.773  3.2881 -2.6637 -0.8866
 5724SOL     OW28807   2.561   0.578   9.889 -0.2014  0.1599  0.5655
 5724SOL    HW128808   2.614   0.504   9.860 -0.3026  0.8965 -1.4675
 5724SOL    HW228809   2.472   0.546   9.876 -0.0918 -0.3804  1.1199
 5725SOL     OW28810   3.111   4.236   7.043 -0.2299  0.4058 -0.3389
 5725SOL    HW128811   3.171   4.230   6.968  0.7421  0.9730  0.3938
 5725SOL    HW228812   3.154   4.188   7.114 -0.2156  0.1606 -0.5099
 5726SOL     OW28813   0.375   2.280   1.522  0.1547 -0.5947  1.0192
 5726SOL    HW128814   0.398   2.348   1.586 -2.1534  0.1546  1.0366
 5726SOL    HW228815   0.330   2.212   1.571 -0.3335 -0.5851  0.5792
 5727SOL     OW28816   1.153   2.578   3.758  0.1645 -0.0960 -0.2656
 5727SOL    HW128817   1.064   2.590   3.725  0.0539 -0.1221  0.0225
 5727SOL    HW228818   1.133   2.596   3.850  1.1052  2.0544 -0.4788
 5728SOL     OW28819   1.604   4.681   3.081 -0.6368  0.1973  0.2581
 5728SOL    HW128820   1.520   4.715   3.111 -0.8022 -0.3038  0.3550
 5728SOL    HW228821   1.658   0.011   3.118  0.0294 -0.2424  0.1138
 5729SOL     OW28822   4.021   3.746   1.848 -0.4816 -0.0881  0.3159
 5729SOL    HW128823   4.031   3.836   1.879  0.9865  0.6693 -2.3924
 5729SOL    HW228824   4.093   3.734   1.787 -0.1403 -0.5725  0.8116
 5730SOL     OW28825   3.983   4.690   5.192 -0.2418 -0.0389 -0.4810
 5730SOL    HW128826   3.916   4.644   5.141 -0.8388 -0.3785  0.6144
 5730SOL    HW228827   4.030   4.733   5.120  0.1979 -0.0082 -0.1730
 5731SOL     OW28828   0.381   0.331   2.238  0.2085 -0.1536 -0.1256
 5731SOL    HW128829   0.288   0.309   2.232 -0.2050  1.5794 -0.0625
 5731SOL    HW228830   0.392   0.363   2.328 -0.3718  0.7883 -0.3895
 5732SOL     OW28831   1.209   1.426   6.543 -0.1622  0.3664  0.0787
 5732SOL    HW128832   1.270   1.420   6.469  3.2666  2.1252  2.7879
 5732SOL    HW228833   1.255   1.497   6.589 -0.5948  1.5101 -1.2475
 5733SOL     OW28834   3.313   3.534   6.370 -0.0259 -0.1498 -0.3663
 5733SOL    HW128835   3.298   3.615   6.418  1.1718 -0.8727  1.2393
 5733SOL    HW228836   3.270   3.470   6.428  1.6224 -0.5155  0.4428
 5734SOL     OW28837   3.476   0.687   3.004 -0.0458 -0.5869  0.2989
 5734SOL    HW128838   3.476   0.621   3.074 -2.2915  0.2569  1.0957
 5734SOL    HW228839   3.567   0.716   2.999 -0.5195  0.8640  0.3172
 5735SOL     OW28840   2.170   2.711  13.811  0.1622  0.1882 -0.0299
 5735SOL    HW128841   2.093   2.711  13.754 -0.3341 -0.1317  0.6431
 5735SOL    HW228842   2.163   2.790  13.865 -0.8998  0.5016 -0.6281
 5736SOL     OW28843   2.062   4.404   2.134 -1.0898 -0.5267 -0.0400
 5736SOL    HW128844   2.098   4.322   2.101 -0.6687  0.4044 -1.8556
 5736SOL    HW228845   1.968   4.387   2.136 -0.9098 -1.5832 -0.6209
 5737SOL     OW28846   2.707   3.626   5.913 -0.0192  0.0361  0.7068
 5737SOL    HW128847   2.679   3.667   5.831  0.8349  0.8958  0.8460
 5737SOL    HW228848   2.791   3.668   5.930 -0.2100  0.1172  1.4603
 5738SOL     OW28849   1.840   4.500   4.698  0.6172  0.0360 -0.4396
 5738SOL    HW128850   1.839   4.434   4.767  1.4527  0.3942 -0.0802
 5738SOL    HW228851   1.887   4.570   4.745  0.7812  0.5331 -1.3460
 5739SOL     OW28852   0.438   0.782   5.733 -0.6412 -0.1277  0.1143
 5739SOL    HW128853   0.441   0.710   5.797 -1.4247  0.2536  0.5892
 5739SOL    HW228854   0.458   0.734   5.653  0.2857  1.7950 -0.7903
 5740SOL     OW28855   1.170   0.101   9.861  0.0714 -0.8076  0.5317
 5740SOL    HW128856   1.091   0.080   9.812 -2.2867  0.7944  3.6742
 5740SOL    HW228857   1.207   0.176   9.814  0.8336 -0.7128  1.2833
 5741SOL     OW28858   2.475   0.651   2.787  0.3995  0.5316 -0.1556
 5741SOL    HW128859   2.562   0.684   2.811  0.7407  0.7437 -1.6429
 5741SOL    HW228860   2.429   0.733   2.772  0.4222  0.3970 -0.9409
 5742SOL     OW28861   1.434   2.598  13.521 -0.4857  0.6093 -0.1885
 5742SOL    HW128862   1.360   2.641  13.562 -0.3193  1.6633 -1.0046
 5742SOL    HW228863   1.435   2.632  13.431  0.3721 -1.4718 -0.9734
 5743SOL     OW28864   4.338   2.842   7.916 -0.3242  0.1532  0.7083
 5743SOL    HW128865   4.294   2.893   7.848 -0.8729 -0.9546  0.2161
 5743SOL    HW228866   4.328   2.903   7.989 -0.9312  2.3885 -1.2483
 5744SOL     OW28867   1.928   0.755  10.384 -0.4715 -0.4645  0.1565
 5744SOL    HW128868   1.876   0.812  10.328 -0.1745 -1.1927 -0.8615
 5744SOL    HW228869   1.876   0.752  10.464 -0.1971 -1.2123  0.3124
 5745SOL     OW28870   0.326   4.205  11.468  0.3765 -0.3308 -0.6332
 5745SOL    HW128871   0.357   4.251  11.390 -0.2263  1.5161  0.2172
 5745SOL    HW228872   0.280   4.274  11.517  0.5022 -0.3741 -0.4573
 5746SOL     OW28873   3.963   3.820   1.531  0.2081 -0.0377  0.2946
 5746SOL    HW128874   3.992   3.777   1.611  2.1982 -0.1943 -0.5079
 5746SOL    HW228875   3.886   3.770   1.505  0.4083 -0.4480  0.4862
 5747SOL     OW28876   4.122   2.755   3.793  0.2255 -0.0413 -0.1033
 5747SOL    HW128877   4.184   2.822   3.819  1.1909 -0.1566 -2.1002
 5747SOL    HW228878   4.090   2.746   3.883  0.2056 -0.5891 -0.1621
 5748SOL     OW28879   1.161   1.701  14.770  0.4497  0.0174  0.1515
 5748SOL    HW128880   1.183   1.618  14.727  1.1345 -0.0798  0.6842
 5748SOL    HW228881   1.226   1.707  14.840 -0.2098 -1.1775  0.8647
 5749SOL     OW28882   2.118   1.418  15.778  0.3953  0.6736 -0.2795
 5749SOL    HW128883   2.123   1.416  15.874 -1.1939 -1.7024 -0.2695
 5749SOL    HW228884   2.167   1.499  15.763 -0.8749  0.6607 -4.3281
 5750SOL     OW28885   0.973   0.107   4.781 -0.7122 -0.0970 -0.2628
 5750SOL    HW128886   1.058   0.136   4.749 -0.8547  0.8875  0.2497
 5750SOL    HW228887   0.964   0.142   4.870  0.7169 -0.1708 -0.0995
 5751SOL     OW28888   1.953   3.803   3.149 -0.1089 -0.4106 -0.1217
 5751SOL    HW128889   1.992   3.885   3.119  2.1343 -0.8339  1.6709
 5751SOL    HW228890   1.872   3.848   3.173 -0.4024 -0.8010 -0.3754
 5752SOL     OW28891   3.784   3.947   2.505 -0.1670 -0.2018  0.4063
 5752SOL    HW128892   3.691   3.927   2.496 -0.4125  0.7170  0.8841
 5752SOL    HW228893   3.815   3.858   2.518  1.7152  0.3408 -0.2533
 5753SOL     OW28894   3.500   3.991  15.515 -0.5824  0.2659  0.3093
 5753SOL    HW128895   3.500   4.008  15.421  2.2055 -2.3661 -0.1801
 5753SOL    HW228896   3.443   4.059  15.551 -1.6270  0.2471 -1.3532
 5754SOL     OW28897   2.596   0.249   9.517  0.3649  0.4230  0.8425
 5754SOL    HW128898   2.527   0.306   9.552 -0.9564  0.1288 -1.2998
 5754SOL    HW228899   2.646   0.229   9.597  1.1658 -0.1048  0.2074
 5755SOL     OW28900   2.133   2.237   8.426 -0.2424  0.7708  0.8775
 5755SOL    HW128901   2.159   2.258   8.336 -0.6886 -0.4156  0.4741
 5755SOL    HW228902   2.221   2.223   8.461 -0.1466  0.9120  0.6965
 5756SOL     OW28903   3.185   1.667   8.457  0.5724  0.0480 -0.0670
 5756SOL    HW128904   3.148   1.657   8.369  0.6897 -2.4116  0.1650
 5756SOL    HW228905   3.225   1.753   8.452 -2.5568  1.4936 -0.6353
 5757SOL     OW28906   1.632   3.142  13.081 -0.1694  0.2231  0.0460
 5757SOL    HW128907   1.597   3.095  13.005 -2.0384 -0.2667  1.2284
 5757SOL    HW228908   1.690   3.200  13.032 -0.6276  1.3990  0.9179
 5758SOL     OW28909   2.932   2.615   8.244  0.2769  0.8815 -0.7687
 5758SOL    HW128910   2.925   2.571   8.159  0.5314  1.1080 -0.9039
 5758SOL    HW228911   2.941   2.540   8.303 -2.9622  0.3877 -0.9015
 5759SOL     OW28912   1.059   4.682   5.236 -0.6287 -0.1589 -0.3285
 5759SOL    HW128913   1.061   4.738   5.314 -0.3032  1.2525 -1.3571
 5759SOL    HW228914   1.081   4.598   5.276 -0.4815 -0.7920 -1.7495
 5760SOL     OW28915   1.300   0.196   6.444  0.5941 -0.3260  0.0312
 5760SOL    HW128916   1.345   0.278   6.425  1.6627 -1.4636 -2.4259
 5760SOL    HW228917   1.278   0.202   6.537  2.1767 -1.2040  0.4716
 5761SOL     OW28918   0.355   4.341   9.528 -0.0251  0.1319 -0.1992
 5761SOL    HW128919   0.350   4.436   9.517 -1.0845  0.2317  1.1329
 5761SOL    HW228920   0.378   4.337   9.621 -1.1845  0.2338  0.0962
 5762SOL     OW28921   4.289   2.319  12.095 -0.2395 -0.6884 -0.5896
 5762SOL    HW128922   4.367   2.264  12.086  1.1294  1.1595 -0.1219
 5762SOL    HW228923   4.214   2.261  12.084 -0.3483 -1.0107  1.8407
 5763SOL     OW28924   2.349   2.913   2.659 -0.5126 -0.1161  0.1352
 5763SOL    HW128925   2.277   2.946   2.606 -0.3310 -0.5050 -0.3504
 5763SOL    HW228926   2.359   2.822   2.631 -2.7252  0.0133 -1.0921
 5764SOL     OW28927   4.156   2.968   4.669 -0.1576 -0.4040 -0.5819
 5764SOL    HW128928   4.088   3.020   4.711 -1.3382  0.0999 -3.1187
 5764SOL    HW228929   4.215   3.033   4.631  0.9906 -2.1755 -1.8144
 5765SOL     OW28930   2.141   3.652   5.807  0.6813 -0.1630 -0.1054
 5765SOL    HW128931   2.140   3.735   5.760  3.5222 -1.0346 -1.6658
 5765SOL    HW228932   2.167   3.583   5.746  1.7166 -1.5797  1.9153
 5766SOL     OW28933   2.742   2.916   5.133  0.9778  0.3821 -0.2948
 5766SOL    HW128934   2.794   2.990   5.100 -1.5480  1.4143 -1.8726
 5766SOL    HW228935   2.682   2.950   5.200  1.6075  0.9068  0.0069
 5767SOL     OW28936   1.404   0.332   7.951 -0.2582 -0.2643  0.5764
 5767SOL    HW128937   1.311   0.338   7.928 -0.8293 -0.3104  2.9464
 5767SOL    HW228938   1.412   0.237   7.959  3.2970  0.1811  2.1634
 5768SOL     OW28939   1.428   4.304   5.745 -0.1987  0.0901  0.2317
 5768SOL    HW128940   1.352   4.246   5.745 -0.6906  0.7357  1.8362
 5768SOL    HW228941   1.468   4.272   5.826 -1.0055  0.5845  0.8277
 5769SOL     OW28942   1.805   0.174   6.422  0.4741  0.1733  0.3024
 5769SOL    HW128943   1.864   0.249   6.428 -0.3572  0.9115 -0.8000
 5769SOL    HW228944   1.841   0.119   6.492 -1.1980  0.6450  1.5466
 5770SOL     OW28945   3.655   1.104   8.450 -0.0487 -0.2665 -0.1991
 5770SOL    HW128946   3.569   1.099   8.492 -1.2184  1.4152 -2.3719
 5770SOL    HW228947   3.659   1.030   8.389 -2.1268 -0.1312 -0.5091
 5771SOL     OW28948   1.324   3.564   5.856  0.6119  0.2658 -0.1506
 5771SOL    HW128949   1.289   3.518   5.932 -0.5604 -2.3334 -2.2798
 5771SOL    HW228950   1.329   3.655   5.885 -0.6039  0.5112 -0.7416
 5772SOL     OW28951   0.072   0.889   4.196 -0.1554 -0.0659  0.3983
 5772SOL    HW128952   0.074   0.984   4.182  2.2246 -0.2987 -0.7495
 5772SOL    HW228953   0.012   0.877   4.122  0.1072  1.5722 -0.0795
 5773SOL     OW28954   0.361   2.820  16.281  0.4544 -0.0773 -0.2331
 5773SOL    HW128955   0.399   2.772  16.354 -0.3061 -0.6126 -0.1895
 5773SOL    HW228956   0.422   2.894  16.276 -0.3281  0.5871  0.0223
 5774SOL     OW28957   4.361   3.968   2.945  0.5639 -0.0515 -0.1480
 5774SOL    HW128958   4.364   3.904   3.016 -1.3156 -0.6772 -0.6209
 5774SOL    HW228959   4.319   3.916   2.877  1.4275  1.7578 -2.0568
 5775SOL     OW28960   4.669   0.175  15.819 -0.0601  0.6282 -0.5248
 5775SOL    HW128961   4.614   0.101  15.794 -1.2882  0.3981  2.8477
 5775SOL    HW228962   4.613   0.201  15.892  2.1116 -1.1358  1.8210
 5776SOL     OW28963   3.122   2.591   6.913  0.4672  0.2082 -0.0207
 5776SOL    HW128964   3.179   2.658   6.952 -3.0392  3.1757  0.0468
 5776SOL    HW228965   3.036   2.626   6.935 -0.5367 -2.9769  1.0292
 5777SOL     OW28966   0.394   3.969  15.300 -0.1898 -0.5015 -0.2851
 5777SOL    HW128967   0.479   3.948  15.338  0.3663  0.2088 -1.1568
 5777SOL    HW228968   0.417   4.009  15.217  0.7047  0.0171  0.2176
 5778SOL     OW28969   2.798   1.977   1.996 -0.0618 -0.3858  0.1571
 5778SOL    HW128970   2.867   1.956   2.059  0.2179 -1.0056 -0.3490
 5778SOL    HW228971   2.846   1.951   1.917 -0.3616  1.3387 -0.5898
 5779SOL     OW28972   0.829   2.881  10.925 -0.2148  0.3848  0.5056
 5779SOL    HW128973   0.837   2.839  10.839 -2.0339  0.8038  0.1338
 5779SOL    HW228974   0.801   2.972  10.913  1.7443  1.0521  1.0335
 5780SOL     OW28975   1.805   3.141   6.594 -0.3717 -0.1651 -0.4552
 5780SOL    HW128976   1.861   3.066   6.576  0.8710  0.7602 -0.4539
 5780SOL    HW228977   1.871   3.207   6.617  1.0478 -1.5918 -0.4529
 5781SOL     OW28978   1.068   1.020   8.989 -0.0800  0.2451  0.0733
 5781SOL    HW128979   1.112   0.983   8.913  2.3891  1.4129  0.9454
 5781SOL    HW228980   1.083   1.113   8.973 -0.2212  0.1201 -0.7898
 5782SOL     OW28981   3.951   0.245   1.318  0.2198  0.8103  0.6330
 5782SOL    HW128982   3.893   0.317   1.293 -0.7894 -0.2816 -0.1839
 5782SOL    HW228983   3.944   0.262   1.412 -1.9215  0.8173  0.4568
 5783SOL     OW28984   2.803   3.953   0.838 -0.0322  0.2241 -0.2649
 5783SOL    HW128985   2.737   4.008   0.796  0.9597 -0.1402 -2.3078
 5783SOL    HW228986   2.785   3.873   0.789 -1.7790 -0.7923  2.0391
 5784SOL     OW28987   4.464   3.417  14.120  0.2030 -0.4730  0.2589
 5784SOL    HW128988   4.401   3.409  14.048 -1.4530 -0.9024  1.7382
 5784SOL    HW228989   4.525   3.348  14.096  0.4142 -0.0392 -0.4493
 5785SOL     OW28990   3.987   0.445   7.317  0.4337 -0.4964  0.5035
 5785SOL    HW128991   3.997   0.533   7.281 -2.8147 -0.5670 -0.5405
 5785SOL    HW228992   4.058   0.451   7.382 -1.2690  0.4870  2.2552
 5786SOL     OW28993   3.074   4.653   6.953 -0.2693 -0.1633  0.0871
 5786SOL    HW128994   3.044   4.657   6.863  1.0906 -1.0403 -0.4052
 5786SOL    HW228995   3.168   4.669   6.944 -0.0230 -1.0388  1.0830
 5787SOL     OW28996   0.278   1.870  16.583 -0.1373  0.2651 -0.4811
 5787SOL    HW128997   0.260   1.863  16.489 -0.9396  2.6090 -0.5043
 5787SOL    HW228998   0.265   1.964  16.597  1.4174  0.4855 -0.5229
 5788SOL     OW28999   3.245   2.756   1.762  0.5640 -0.0991 -0.1857
 5788SOL    HW129000   3.169   2.736   1.817  0.6237 -0.4212 -0.2208
 5788SOL    HW229001   3.282   2.670   1.741  1.3874 -0.2265  1.7541
 5789SOL     OW29002   1.332   2.251  16.706  0.4291  0.5306 -0.4549
 5789SOL    HW129003   1.320   2.310  16.781 -2.6391  0.9600 -1.3033
 5789SOL    HW229004   1.408   2.287  16.661 -0.7786  1.7802 -1.4742
 5790SOL     OW29005   1.365   1.590   6.719 -0.3909  0.4468  0.5991
 5790SOL    HW129006   1.318   1.632   6.791 -0.8835  1.5004 -0.3279
 5790SOL    HW229007   1.446   1.596   6.770  0.5083 -0.6063 -0.7233
 5791SOL     OW29008   4.725   2.079  11.844 -0.2115  0.2664  0.9495
 5791SOL    HW129009   4.637   2.042  11.839  0.4059 -0.9864 -0.8732
 5791SOL    HW229010   4.735   2.118  11.931  1.5278  1.7170  0.1001
 5792SOL     OW29011   1.507   2.056   7.174  0.6105  0.1496  0.2177
 5792SOL    HW129012   1.454   2.033   7.250 -0.0241  1.6701  0.2464
 5792SOL    HW229013   1.588   2.008   7.192  0.6988 -0.0234 -0.6561
 5793SOL     OW29014   0.800   1.436   9.221 -0.4180  0.3348 -0.6614
 5793SOL    HW129015   0.804   1.492   9.143 -1.7799  1.8994  0.3897
 5793SOL    HW229016   0.895   1.433   9.231 -0.4807  0.1426 -0.1317
 5794SOL     OW29017   0.827   1.650   2.115 -0.3286  0.0005 -0.1561
 5794SOL    HW129018   0.848   1.562   2.087 -0.9103 -0.4349  0.7671
 5794SOL    HW229019   0.853   1.697   2.036  0.2384  1.1665  0.7231
 5795SOL     OW29020   0.514   1.614  11.975 -0.1902  0.1574  0.4087
 5795SOL    HW129021   0.426   1.579  11.963 -0.4877  0.4215  1.7892
 5795SOL    HW229022   0.534   1.554  12.046 -2.0266 -0.8213  0.0980
 5796SOL     OW29023   4.498   1.332   2.270  0.0108  0.3507  0.4940
 5796SOL    HW129024   4.590   1.316   2.293  0.1579  0.6845  0.1509
 5796SOL    HW229025   4.490   1.305   2.178  0.0369  1.9477  0.0190
 5797SOL     OW29026   0.040   2.121   8.780  0.3151 -0.7834 -0.1833
 5797SOL    HW129027   0.099   2.130   8.855 -2.6398  1.3473  1.9282
 5797SOL    HW229028   0.098   2.139   8.706 -0.0653 -2.2373 -0.8309
 5798SOL     OW29029   2.203   0.556   5.970  0.2968 -0.7174  0.8445
 5798SOL    HW129030   2.218   0.472   6.013  0.8446 -0.5716  0.9388
 5798SOL    HW229031   2.287   0.602   5.963  0.1605 -0.7563 -1.0668
 5799SOL     OW29032   2.707   4.355  14.788  0.4372  0.4441 -0.3181
 5799SOL    HW129033   2.757   4.436  14.781  3.2155 -1.1970  0.7674
 5799SOL    HW229034   2.764   4.292  14.744  0.6823  1.1249 -0.9844
 5800SOL     OW29035   0.900   1.566  13.408 -0.3021  0.8103  0.7737
 5800SOL    HW129036   0.855   1.515  13.475  0.6293  2.7911  2.8822
 5800SOL    HW229037   0.875   1.651  13.443 -0.4239  1.7019 -1.4753
 5801SOL     OW29038   2.412   3.727  15.907 -0.1520  0.9417  0.2883
 5801SOL    HW129039   2.413   3.776  15.989  2.2770 -0.4668  1.1331
 5801SOL    HW229040   2.489   3.670  15.912 -0.5782  0.3729  0.3867
 5802SOL     OW29041   4.653   0.800  11.676 -0.5139 -0.0529 -0.0851
 5802SOL    HW129042   4.618   0.813  11.588  0.2351 -0.6723 -0.4758
 5802SOL    HW229043   4.671   0.708  11.660 -1.3930 -0.7873  3.0127
 5803SOL     OW29044   4.363   4.426  11.575 -0.2183 -0.0877 -0.2822
 5803SOL    HW129045   4.347   4.507  11.526 -0.2188 -0.0976 -0.2986
 5803SOL    HW229046   4.314   4.460  11.650 -0.2887  0.7234 -0.6904
 5804SOL     OW29047   0.719   1.947  14.456 -0.0899 -0.5523 -0.1326
 5804SOL    HW129048   0.679   1.960  14.370 -0.2187  0.2642  0.0551
 5804SOL    HW229049   0.784   1.877  14.448  0.6188  0.0128  0.6164
 5805SOL     OW29050   3.569   1.198   9.026 -0.1882  0.3894  0.1031
 5805SOL    HW129051   3.523   1.250   9.092 -0.6886 -0.1949  0.2213
 5805SOL    HW229052   3.661   1.212   9.047 -0.6530 -0.7221  2.9536
 5806SOL     OW29053   1.215   4.055  14.318 -0.3928 -0.1147 -0.7643
 5806SOL    HW129054   1.306   4.086  14.314 -0.2303 -0.2306  1.8300
 5806SOL    HW229055   1.220   3.983  14.256 -2.9802 -0.1923 -0.8785
 5807SOL     OW29056   4.284   2.235   1.306 -0.4622  0.4086  0.0442
 5807SOL    HW129057   4.275   2.254   1.400  0.3025 -0.7386  0.3607
 5807SOL    HW229058   4.371   2.270   1.285 -0.7447  0.5342 -0.9161
 5808SOL     OW29059   2.503   1.850   5.066  0.5123  0.3436 -0.2098
 5808SOL    HW129060   2.486   1.761   5.036 -3.2335 -0.1430  3.4357
 5808SOL    HW229061   2.567   1.831   5.135 -0.5523 -2.0333  0.1216
 5809SOL     OW29062   2.429   2.454  14.677  0.1648 -0.3830  0.3472
 5809SOL    HW129063   2.438   2.367  14.638  1.7844 -0.0275 -0.0326
 5809SOL    HW229064   2.335   2.468  14.660  0.4985  2.1500  0.5439
 5810SOL     OW29065   3.988   3.159   3.659 -0.5445  0.8400  0.1054
 5810SOL    HW129066   3.985   3.069   3.691 -0.8899  1.1011  0.8204
 5810SOL    HW229067   3.895   3.178   3.655 -1.3597 -3.1535 -0.3890
 5811SOL     OW29068   1.603   0.796   8.095 -0.0516  0.4337 -0.0049
 5811SOL    HW129069   1.698   0.799   8.093 -0.0841  1.4327 -0.2337
 5811SOL    HW229070   1.578   0.884   8.065  1.4832  0.5849 -0.8140
 5812SOL     OW29071   3.331   4.249   4.629 -0.5959 -0.0724 -0.5838
 5812SOL    HW129072   3.316   4.158   4.603 -0.0807  0.1136 -1.5413
 5812SOL    HW229073   3.248   4.253   4.676 -0.3156 -0.1615 -0.0793
 5813SOL     OW29074   1.390   4.649   7.479 -0.0442 -0.6245 -0.1298
 5813SOL    HW129075   1.393   4.584   7.409 -2.0122 -0.4227 -0.4108
 5813SOL    HW229076   1.350   4.729   7.445 -1.6028 -0.4643  2.0963
 5814SOL     OW29077   2.697   2.629   9.412  0.5482  0.5219 -0.6258
 5814SOL    HW129078   2.731   2.712   9.381  3.4098 -0.7459 -0.8578
 5814SOL    HW229079   2.773   2.579   9.442 -0.0557 -0.2002 -0.2695
 5815SOL     OW29080   0.276   0.529   8.707 -0.4211 -0.0623  0.0488
 5815SOL    HW129081   0.206   0.486   8.658  0.0214  0.1727 -0.7820
 5815SOL    HW229082   0.360   0.498   8.675 -0.9342 -1.3473 -0.0599
 5816SOL     OW29083   4.428   4.653   4.327 -0.7546 -1.3574  0.6336
 5816SOL    HW129084   4.421   4.558   4.334 -4.6114 -1.0788  0.7106
 5816SOL    HW229085   4.407   4.680   4.416 -0.4376  0.0707  0.2809
 5817SOL     OW29086   2.927   4.217   7.968  0.5524  0.1325 -0.8429
 5817SOL    HW129087   2.906   4.272   8.044  1.5759  0.8139 -1.0467
 5817SOL    HW229088   2.853   4.246   7.914 -0.5432 -0.5477  0.2989
 5818SOL     OW29089   0.618   1.690   2.289  0.3979 -0.4939  0.1223
 5818SOL    HW129090   0.701   1.687   2.242  1.0797  1.4225  1.1866
 5818SOL    HW229091   0.595   1.599   2.272  0.4563 -0.8937  2.0990
 5819SOL     OW29092   0.651   3.438   5.034 -0.2084 -0.1719  0.0834
 5819SOL    HW129093   0.584   3.372   5.051  0.1820 -0.4199  0.6851
 5819SOL    HW229094   0.729   3.385   5.018  0.8226  1.1585  0.7199
 5820SOL     OW29095   1.202   3.323   2.254 -0.0526 -0.1304 -0.1733
 5820SOL    HW129096   1.243   3.297   2.336  2.5294  1.2545 -1.0422
 5820SOL    HW229097   1.272   3.321   2.189  0.1488 -1.2352  0.0759
 5821SOL     OW29098   3.051   2.712  15.372  0.0388 -0.3598 -0.1989
 5821SOL    HW129099   2.985   2.732  15.438 -0.8751 -1.6418 -0.7193
 5821SOL    HW229100   3.095   2.639  15.414  0.0028 -0.8242 -0.9649
 5822SOL     OW29101   1.454   0.301   7.219  0.1136 -0.3772 -0.1618
 5822SOL    HW129102   1.517   0.229   7.214 -0.4909 -0.8411 -0.9964
 5822SOL    HW229103   1.440   0.325   7.311 -0.5824 -1.4496  0.0237
 5823SOL     OW29104   2.880   2.565   7.735 -0.2625 -0.6454  0.2167
 5823SOL    HW129105   2.799   2.520   7.709 -1.1401 -0.3486  2.4066
 5823SOL    HW229106   2.927   2.567   7.652  0.6723  1.8821  0.8103
 5824SOL     OW29107   1.210   4.273  10.591 -0.0178  0.2409  0.2427
 5824SOL    HW129108   1.143   4.234  10.535 -0.0047 -0.6096  0.8224
 5824SOL    HW229109   1.197   4.217  10.668 -1.6097  2.5806  1.7019
 5825SOL     OW29110   1.577   3.407  10.083 -0.1455  0.0738  0.2012
 5825SOL    HW129111   1.492   3.440  10.113 -0.2605 -0.6401  0.6732
 5825SOL    HW229112   1.591   3.354  10.162  1.5685  0.2120 -0.0255
 5826SOL     OW29113   3.267   0.500   4.922 -0.2639 -0.4955 -1.0364
 5826SOL    HW129114   3.285   0.531   4.833 -2.3899 -0.9070 -1.6238
 5826SOL    HW229115   3.213   0.421   4.911  1.1447 -1.2582 -2.5412
 5827SOL     OW29116   3.185   2.191   6.733  0.5752 -0.0912 -0.1469
 5827SOL    HW129117   3.096   2.196   6.697  0.6157 -1.1824 -0.3956
 5827SOL    HW229118   3.175   2.165   6.824 -1.5823  0.1748 -0.3030
 5828SOL     OW29119   0.937   2.267  12.333  0.1404  0.0570 -0.4764
 5828SOL    HW129120   0.984   2.256  12.416  1.6851  0.8641 -1.2583
 5828SOL    HW229121   0.883   2.343  12.358  0.6595 -0.8130  3.3351
 5829SOL     OW29122   1.048   2.147   6.134  0.4392 -0.2095  0.5992
 5829SOL    HW129123   0.952   2.151   6.131  0.5477  1.5842 -0.6745
 5829SOL    HW229124   1.039   2.070   6.190 -1.7835 -1.1549 -1.0382
 5830SOL     OW29125   1.914   1.756  12.987 -0.2684  0.2807 -0.0478
 5830SOL    HW129126   1.853   1.830  12.989  1.5221  1.7404  0.6827
 5830SOL    HW229127   1.851   1.685  12.979  1.2998 -0.9261 -1.7041
 5831SOL     OW29128   2.364   3.876   1.390 -0.2871 -0.1920 -0.2021
 5831SOL    HW129129   2.380   3.914   1.476 -0.9763 -1.4291  0.4822
 5831SOL    HW229130   2.424   3.920   1.329  0.0934 -0.8450 -0.3053
 5832SOL     OW29131   3.894   0.980   1.076 -0.3903 -0.1184 -0.0959
 5832SOL    HW129132   3.880   1.075   1.072 -0.1909 -0.1390 -1.3654
 5832SOL    HW229133   3.834   0.970   1.149 -0.8245 -1.0315 -0.5748
 5833SOL     OW29134   2.005   0.267   4.803  0.3056  0.2233  0.7546
 5833SOL    HW129135   2.063   0.325   4.853  1.5037 -0.4420  0.1102
 5833SOL    HW229136   2.045   0.295   4.721 -0.2924  0.2481  0.4723
 5834SOL     OW29137   2.571   2.852   4.822 -0.0163 -0.5209 -0.2297
 5834SOL    HW129138   2.591   2.821   4.733 -0.0043 -1.5713  0.1393
 5834SOL    HW229139   2.596   2.775   4.873 -0.6888 -0.5083  0.1230
 5835SOL     OW29140   4.568   1.458   7.771  0.2568 -0.0174  0.0229
 5835SOL    HW129141   4.582   1.463   7.676  1.7587 -0.7981  0.1939
 5835SOL    HW229142   4.607   1.372   7.792 -0.1256 -0.3035 -0.4387
 5836SOL     OW29143   4.417   3.592  15.247  0.3073 -0.0179 -0.5300
 5836SOL    HW129144   4.402   3.677  15.290 -1.4596 -0.7878  0.3854
 5836SOL    HW229145   4.512   3.590  15.237  0.4242  0.1867  0.4888
 5837SOL     OW29146   3.356   1.365   4.270  0.1823  0.0645  0.1108
 5837SOL    HW129147   3.278   1.419   4.283  1.8260  2.0734  1.4954
 5837SOL    HW229148   3.392   1.377   4.357 -0.2766  0.1180  0.2952
 5838SOL     OW29149   0.414   0.386  12.125 -0.0764  0.1781  0.0466
 5838SOL    HW129150   0.363   0.397  12.205  1.3486  1.8676  0.7070
 5838SOL    HW229151   0.451   0.474  12.116  0.4891  0.0218  0.8683
 5839SOL     OW29152   0.620   3.496   9.444  0.0653  0.5752 -0.1021
 5839SOL    HW129153   0.663   3.420   9.405  0.5449  0.4972  0.5803
 5839SOL    HW229154   0.530   3.463   9.440 -0.1823  1.0975  1.0392
 5840SOL     OW29155   4.334   0.881   1.870  0.5253 -0.1431 -0.4162
 5840SOL    HW129156   4.327   0.787   1.858  0.4839 -0.2836  0.6560
 5840SOL    HW229157   4.356   0.920   1.786 -1.0331  0.6358 -0.4546
 5841SOL     OW29158   3.314   3.140  12.432  0.7112 -0.6420 -0.3897
 5841SOL    HW129159   3.292   3.160  12.523  2.8704  1.4366 -0.3479
 5841SOL    HW229160   3.388   3.080  12.439  0.7831 -0.5164 -0.1060
 5842SOL     OW29161   3.110   0.854   3.870  0.3889  0.3391 -0.0405
 5842SOL    HW129162   3.147   0.820   3.951 -1.6210  1.4421  1.3238
 5842SOL    HW229163   3.022   0.816   3.878 -0.0475  1.8970  2.2539
 5843SOL     OW29164   1.574   0.793   3.252 -0.5416  0.0134 -0.5565
 5843SOL    HW129165   1.504   0.832   3.303  0.8362  1.6001  0.1067
 5843SOL    HW229166   1.568   0.700   3.276  1.4469 -0.0462 -0.3087
 5844SOL     OW29167   1.255   3.077   1.958  0.1059  0.3618 -0.4694
 5844SOL    HW129168   1.231   3.092   2.050 -0.9657  0.1167 -0.7043
 5844SOL    HW229169   1.280   2.984   1.953 -1.3359  0.0061 -1.3055
 5845SOL     OW29170   1.425   1.513  12.571 -0.3372  0.0044 -0.5764
 5845SOL    HW129171   1.367   1.551  12.506  0.8186 -0.7238 -2.0428
 5845SOL    HW229172   1.439   1.424  12.538 -2.4835 -0.4963 -0.1420
 5846SOL     OW29173   1.694   1.391   8.866 -0.6705  0.3082 -0.6611
 5846SOL    HW129174   1.738   1.308   8.846  1.7867  1.5674 -0.4605
 5846SOL    HW229175   1.622   1.356   8.917  1.0986 -2.2109  0.1475
 5847SOL     OW29176   2.614   2.321   3.987  0.4472  0.5715  0.3675
 5847SOL    HW129177   2.568   2.289   4.064 -0.2741  0.1346 -0.2494
 5847SOL    HW229178   2.695   2.271   3.983 -1.1440 -1.9413 -0.2870
 5848SOL     OW29179   2.562   2.213  11.692 -0.5005  0.5408  0.5066
 5848SOL    HW129180   2.631   2.164  11.647  1.1815  1.6339  1.9338
 5848SOL    HW229181   2.523   2.261  11.619 -1.1975 -1.1782 -0.2589
 5849SOL     OW29182   2.360   3.338   9.949 -0.2736  0.4253 -0.1193
 5849SOL    HW129183   2.355   3.387  10.031  4.0324 -0.3253  0.5731
 5849SOL    HW229184   2.266   3.321   9.939 -0.2704 -0.4805  1.4749
 5850SOL     OW29185   3.538   1.245   3.387  0.5169  0.2410 -0.1456
 5850SOL    HW129186   3.476   1.177   3.414  1.3286 -0.3786  0.1752
 5850SOL    HW229187   3.593   1.253   3.465  2.5839 -0.1829 -1.5702
 5851SOL     OW29188   3.824   3.438   7.362 -0.3190 -0.4770 -0.4298
 5851SOL    HW129189   3.875   3.497   7.307 -2.0568  2.0178  0.6209
 5851SOL    HW229190   3.780   3.497   7.424 -0.7267 -0.5407 -0.6606
 5852SOL     OW29191   1.827   0.943   2.274 -0.0765 -0.1842  0.1822
 5852SOL    HW129192   1.872   0.870   2.318 -0.9485 -1.4841 -1.0883
 5852SOL    HW229193   1.818   0.990   2.357  1.2167  1.7451 -0.7685
 5853SOL     OW29194   0.590   4.537   9.366  0.0305  0.7491  0.0533
 5853SOL    HW129195   0.645   4.568   9.438 -1.9563  0.8578  1.5166
 5853SOL    HW229196   0.603   4.606   9.300 -0.6523 -0.2181 -1.0916
 5854SOL     OW29197   1.966   2.226   4.294  0.2315  0.2732 -0.8507
 5854SOL    HW129198   1.875   2.202   4.275 -0.4062  0.9029  1.4063
 5854SOL    HW229199   1.991   2.264   4.209  0.2587  0.5514 -0.7183
 5855SOL     OW29200   0.687   1.435   9.880 -0.3955  0.0047  0.0485
 5855SOL    HW129201   0.658   1.382   9.805 -0.4903  0.5393 -0.2896
 5855SOL    HW229202   0.656   1.523   9.861  0.1052  0.1001 -0.3176
 5856SOL     OW29203   1.355   1.001   7.045  0.0048  0.3444  0.0107
 5856SOL    HW129204   1.390   0.973   7.130 -2.3287  0.6498  1.0621
 5856SOL    HW229205   1.412   1.069   7.010 -0.8942 -0.3813 -2.8810
 5857SOL     OW29206   1.778   1.165   7.349 -0.1131 -0.4604  0.0949
 5857SOL    HW129207   1.832   1.225   7.297  1.5072 -2.9065 -1.0461
 5857SOL    HW229208   1.689   1.174   7.316  0.0258 -0.6178 -0.3256
 5858SOL     OW29209   3.423   4.555   8.153 -0.3529 -0.1860  0.2451
 5858SOL    HW129210   3.432   4.633   8.207 -2.7839  0.6633 -0.5628
 5858SOL    HW229211   3.329   4.537   8.158 -0.4264  0.4591  0.9846
 5859SOL     OW29212   0.637   2.791  12.690  0.5696  0.3836  0.2872
 5859SOL    HW129213   0.680   2.791  12.605 -1.7749  2.9959 -0.8873
 5859SOL    HW229214   0.703   2.817  12.754  1.0682  0.1754 -0.1517
 5860SOL     OW29215   2.019   2.444  15.307 -0.0345 -0.0942 -0.7633
 5860SOL    HW129216   2.081   2.423  15.237 -0.3427 -0.0919 -1.0393
 5860SOL    HW229217   2.081   2.440  15.380 -0.2765  1.3586 -0.4830
 5861SOL     OW29218   1.723   2.677   2.863 -0.0878 -0.3809 -0.7315
 5861SOL    HW129219   1.729   2.581   2.862  3.4761 -0.1897  3.5448
 5861SOL    HW229220   1.629   2.691   2.878  0.3084 -0.0296  1.5032
 5862SOL     OW29221   2.648   3.079   4.175  0.0116  0.3894 -0.0807
 5862SOL    HW129222   2.735   3.095   4.138  0.1013 -2.8334 -1.2193
 5862SOL    HW229223   2.648   3.154   4.235  2.2704  1.7937 -1.8365
 5863SOL     OW29224   3.525   0.475   5.053 -0.0873 -0.5673  0.3021
 5863SOL    HW129225   3.502   0.463   5.145 -0.7545  1.1881  0.3628
 5863SOL    HW229226   3.437   0.491   5.018  0.8338  0.8480 -1.3302
 5864SOL     OW29227   3.661   4.010   5.239  0.2060  0.2182 -0.0813
 5864SOL    HW129228   3.618   3.925   5.242  0.9230 -0.0751  1.8951
 5864SOL    HW229229   3.578   4.058   5.249  0.5912  0.7964  0.3363
 5865SOL     OW29230   0.242   3.966   6.603  0.8205  0.0739  0.1401
 5865SOL    HW129231   0.221   3.874   6.618  1.8874 -0.2883 -0.5857
 5865SOL    HW229232   0.326   3.971   6.558  0.1611  2.7318 -0.8050
 5866SOL     OW29233   3.883   2.200  16.508 -0.2171 -0.2202  0.0401
 5866SOL    HW129234   3.938   2.205  16.586  3.0799 -1.4663 -2.2407
 5866SOL    HW229235   3.877   2.295  16.498 -3.4183 -0.4313 -0.0271
 5867SOL     OW29236   0.346   0.164   5.650 -1.0608  0.0969 -0.7071
 5867SOL    HW129237   0.339   0.081   5.696 -0.6322  1.5430  1.9565
 5867SOL    HW229238   0.365   0.135   5.561 -1.6793 -2.9624  0.1794
 5868SOL     OW29239   3.681   0.419   6.315  0.1746 -0.1834 -0.2225
 5868SOL    HW129240   3.719   0.432   6.228  3.0515 -0.1762  1.0330
 5868SOL    HW229241   3.763   0.412   6.364  1.4493  1.5528 -2.0935
 5869SOL     OW29242   3.514   0.115   7.056  0.1982  0.4758  0.3235
 5869SOL    HW129243   3.494   0.199   7.096 -1.2711  0.0824  0.4157
 5869SOL    HW229244   3.586   0.078   7.106 -0.2110 -0.9584 -0.1483
 5870SOL     OW29245   3.827   3.091  17.228  0.2157 -0.3586  0.1345
 5870SOL    HW129246   3.808   3.122  17.140  0.0347 -0.7631  0.0304
 5870SOL    HW229247   3.893   3.159  17.240 -0.0334  0.2769 -2.1551
 5871SOL     OW29248   2.801   1.226   2.620 -0.7924  0.7866  0.2457
 5871SOL    HW129249   2.869   1.258   2.681  1.6829  0.4375 -2.3432
 5871SOL    HW229250   2.842   1.263   2.542  1.0472 -0.9987  0.3629
 5872SOL     OW29251   2.645   2.698   1.241  0.3164  0.0258 -0.1421
 5872SOL    HW129252   2.626   2.658   1.326  0.6714 -1.5192 -0.7873
 5872SOL    HW229253   2.740   2.686   1.236  0.0169 -2.0388 -0.8274
 5873SOL     OW29254   4.105   3.283   7.233  0.4752 -0.7917 -0.5127
 5873SOL    HW129255   4.074   3.283   7.142  0.1239 -0.1159 -0.3995
 5873SOL    HW229256   4.151   3.200   7.233  1.7052 -0.1306 -2.7517
 5874SOL     OW29257   4.629   4.060  16.118  0.2855 -0.2283  0.3828
 5874SOL    HW129258   4.577   4.001  16.174  1.6843 -0.8439  1.0289
 5874SOL    HW229259   4.622   4.141  16.168 -0.2769  0.0167 -0.0892
 5875SOL     OW29260   4.405   1.393   5.342 -0.0458  0.3672  0.0310
 5875SOL    HW129261   4.404   1.399   5.438  0.6370 -0.7250  0.1008
 5875SOL    HW229262   4.494   1.420   5.323 -0.0663 -0.1007 -0.7527
 5876SOL     OW29263   2.672   1.622   4.259 -0.1264  0.6563  0.1812
 5876SOL    HW129264   2.667   1.636   4.165  0.0435 -1.1181 -0.0979
 5876SOL    HW229265   2.673   1.714   4.284  0.1590  0.5056  0.7415
 5877SOL     OW29266   4.390   3.244   6.955  0.1188  0.0758 -0.3907
 5877SOL    HW129267   4.451   3.317   6.951  0.2227  0.0845  1.1726
 5877SOL    HW229268   4.317   3.266   6.897 -1.9665 -0.6982  1.9298
 5878SOL     OW29269   3.810   1.290   1.333  0.6209 -0.1962 -0.1481
 5878SOL    HW129270   3.742   1.273   1.398 -0.4517 -0.2359 -1.2710
 5878SOL    HW229271   3.871   1.331   1.394  1.4418 -1.8305  0.1277
 5879SOL     OW29272   4.048   2.305   6.521  0.1951 -0.2167  0.8424
 5879SOL    HW129273   4.122   2.249   6.546  0.9845  1.2049  1.6832
 5879SOL    HW229274   4.091   2.372   6.469 -1.3365 -2.0146 -2.7654
 5880SOL     OW29275   3.565   1.488   7.023  0.4046 -0.3102  0.1194
 5880SOL    HW129276   3.481   1.456   6.989  0.7803 -0.7936 -0.3531
 5880SOL    HW229277   3.632   1.423   7.003 -2.5645 -3.1489 -0.5656
 5881SOL     OW29278   3.677   1.244  17.756  0.2314  0.2029  0.3497
 5881SOL    HW129279   3.698   1.322  17.705  0.7993 -1.3877 -1.8274
 5881SOL    HW229280   3.619   1.282   0.064  0.1626  1.6250 -0.5186
 5882SOL     OW29281   3.140   0.802   5.109 -0.1405 -0.0381  0.3066
 5882SOL    HW129282   3.150   0.708   5.124 -2.1263 -0.1154  1.1913
 5882SOL    HW229283   3.053   0.804   5.069 -0.4775 -0.7269  1.0049
 5883SOL     OW29284   4.549   2.204   0.848  0.1567 -0.1820  0.1144
 5883SOL    HW129285   4.477   2.221   0.787 -0.0401  0.3129  0.4761
 5883SOL    HW229286   4.502   2.204   0.932  0.7140  0.6450  0.4344
 5884SOL     OW29287   4.573   1.707   4.606  0.4492  0.3620 -0.1335
 5884SOL    HW129288   4.507   1.666   4.663  0.4880 -2.2273 -1.9549
 5884SOL    HW229289   4.598   1.783   4.658  0.0191  0.7761 -0.5311
 5885SOL     OW29290   3.794   4.115   5.462  0.3798  0.9338 -0.4995
 5885SOL    HW129291   3.809   4.022   5.480 -2.0778  0.6352  0.0688
 5885SOL    HW229292   3.750   4.109   5.377 -0.2946 -1.9885  0.0309
 5886SOL     OW29293   2.241   3.935  14.025  0.3909  0.6590 -0.2794
 5886SOL    HW129294   2.259   3.966  14.113 -1.2962  0.2667  0.2140
 5886SOL    HW229295   2.179   4.003  14.000 -1.9009 -1.3175 -0.0455
 5887SOL     OW29296   3.543   2.333   3.280 -0.1643  0.3655  0.2111
 5887SOL    HW129297   3.578   2.259   3.330 -0.3320  1.2097  1.5992
 5887SOL    HW229298   3.627   2.368   3.249 -0.1461 -0.5566 -0.7551
 5888SOL     OW29299   0.678   3.663  12.401 -0.2641 -0.0021  0.2439
 5888SOL    HW129300   0.695   3.634  12.311 -2.0050  2.4984 -0.9299
 5888SOL    HW229301   0.585   3.637  12.406 -0.2823 -0.5196 -2.3255
 5889SOL     OW29302   1.261   2.002   9.728 -0.5631 -0.2848  0.1377
 5889SOL    HW129303   1.242   1.990   9.635  0.0977 -0.5476  0.0388
 5889SOL    HW229304   1.220   2.088   9.743 -0.1756 -0.6165  3.0459
 5890SOL     OW29305   1.700   0.264   5.997 -0.0058 -0.1365 -0.0908
 5890SOL    HW129306   1.739   0.203   6.059  1.1707  0.1893 -0.5105
 5890SOL    HW229307   1.659   0.324   6.059 -1.1854  2.0232 -2.9769
 5891SOL     OW29308   2.013   0.293  15.605 -0.3757 -0.1500 -0.3934
 5891SOL    HW129309   1.994   0.345  15.527 -0.2834 -0.5974 -0.7193
 5891SOL    HW229310   1.944   0.230  15.583 -0.1427  1.0689 -4.6270
 5892SOL     OW29311   0.416   3.800  17.196 -0.3045 -0.1470 -0.5855
 5892SOL    HW129312   0.437   3.708  17.215  1.7275  0.5291  0.4468
 5892SOL    HW229313   0.463   3.799  17.113 -1.2935 -3.2743 -1.1030
 5893SOL     OW29314   0.772   0.731  15.565 -0.4377  0.1024 -0.9091
 5893SOL    HW129315   0.737   0.789  15.631 -0.4030 -0.4639 -0.3896
 5893SOL    HW229316   0.840   0.689  15.618  0.4479  1.2609 -1.1363
 5894SOL     OW29317   4.334   4.662   5.515  0.1957  0.0637  0.2636
 5894SOL    HW129318   4.300   4.732   5.572  0.8636  2.1605 -1.9396
 5894SOL    HW229319   4.251   4.636   5.474  0.4007 -0.2917  0.0770
 5895SOL     OW29320   1.247   0.533   1.123  0.6674  0.5690 -0.2047
 5895SOL    HW129321   1.290   0.608   1.164 -1.1401 -1.0442  4.5891
 5895SOL    HW229322   1.321   0.494   1.076 -0.3241 -0.0954 -1.2141
 5896SOL     OW29323   4.449   0.334   7.028 -0.4340 -0.0003  0.3503
 5896SOL    HW129324   4.439   0.407   6.967 -0.2593 -0.1352  0.1623
 5896SOL    HW229325   4.543   0.318   7.028 -0.0270  2.4047 -0.3851
 5897SOL     OW29326   3.889   2.003   8.097  0.0330  0.3005  0.1907
 5897SOL    HW129327   3.898   2.098   8.089  0.0671  0.2926  0.1326
 5897SOL    HW229328   3.949   1.987   8.170 -0.1279 -2.7339 -0.3194
 5898SOL     OW29329   1.149   1.551   5.969 -0.7590  0.0215  0.0685
 5898SOL    HW129330   1.091   1.510   5.903  0.7547 -1.7521 -0.1754
 5898SOL    HW229331   1.103   1.634   5.976 -2.3620 -0.8245 -0.3662
 5899SOL     OW29332   1.732   1.734  10.182  0.6003  0.2170  0.3338
 5899SOL    HW129333   1.751   1.774  10.267  1.1036  1.6866 -0.4573
 5899SOL    HW229334   1.672   1.803  10.151 -0.7235  0.0203  2.4399
 5900SOL     OW29335   1.631   2.322   7.400  0.0353  0.1202  0.3232
 5900SOL    HW129336   1.597   2.411   7.397  0.2622  0.2065  0.3594
 5900SOL    HW229337   1.549   2.272   7.402 -0.5248  0.9109 -2.2076
 5901SOL     OW29338   0.275   3.458   7.367  0.3078  0.0173  0.8083
 5901SOL    HW129339   0.325   3.525   7.413  0.1047  0.4435  0.4121
 5901SOL    HW229340   0.308   3.382   7.414 -1.8338 -0.0621  2.1825
 5902SOL     OW29341   0.192   0.302   0.184  0.2389  0.1596 -0.6780
 5902SOL    HW129342   0.209   0.249   0.106  0.8649 -1.2692  0.4305
 5902SOL    HW229343   0.257   0.265   0.244 -1.5626  0.7186  1.6028
 5903SOL     OW29344   1.294   0.679   7.500 -0.3153 -0.0749 -0.0032
 5903SOL    HW129345   1.270   0.611   7.437  0.9740  0.8897 -1.5510
 5903SOL    HW229346   1.308   0.627   7.579  0.7600 -0.7895 -0.6599
 5904SOL     OW29347   1.554   0.542   7.868 -0.2518  0.3985  0.3242
 5904SOL    HW129348   1.558   0.607   7.938  1.1211  0.1889  0.4420
 5904SOL    HW229349   1.517   0.464   7.910 -1.3504 -0.5743 -2.3894
 5905SOL     OW29350   1.314   4.496   2.632  0.1043  0.1176  0.3831
 5905SOL    HW129351   1.259   4.557   2.681 -0.1185  0.4738 -0.3090
 5905SOL    HW229352   1.336   4.435   2.703 -3.4968 -0.6226  0.8647
 5906SOL     OW29353   0.891   3.911   6.774  0.5573  0.3224 -0.3916
 5906SOL    HW129354   0.890   3.999   6.810  0.2668  0.0504  0.2783
 5906SOL    HW229355   0.817   3.909   6.714 -2.5635  0.8006  3.4545
 5907SOL     OW29356   2.343   2.980   4.925  0.6188 -0.4201 -0.4541
 5907SOL    HW129357   2.370   3.064   4.963  2.7620 -1.0364 -0.6137
 5907SOL    HW229358   2.420   2.946   4.878  1.3582 -2.2894  2.1266
 5908SOL     OW29359   2.070   3.096   8.579  0.1915 -0.0431 -0.2436
 5908SOL    HW129360   2.136   3.047   8.530  2.7454  2.2218  0.9625
 5908SOL    HW229361   2.001   3.030   8.584  1.2370 -1.2895 -2.4110
 5909SOL     OW29362   4.650   2.938   6.767 -0.3093  0.1817 -0.5535
 5909SOL    HW129363   0.005   2.928   6.756 -0.1116  1.2922  0.1608
 5909SOL    HW229364   4.639   3.033   6.761 -0.0982  0.2082 -0.5216
 5910SOL     OW29365   3.389   1.435   2.614  0.2008  0.1711 -0.0095
 5910SOL    HW129366   3.453   1.390   2.560  0.9411  0.8308  0.3099
 5910SOL    HW229367   3.349   1.364   2.664  1.0474  1.5216  2.6310
 5911SOL     OW29368   3.036   1.170   2.008 -0.4828  0.1311  0.2072
 5911SOL    HW129369   3.109   1.225   2.037  0.4388 -2.1162  2.0992
 5911SOL    HW229370   2.997   1.223   1.938 -1.2999  0.0238  0.5802
 5912SOL     OW29371   2.261   1.208   4.212  0.1875 -0.3631 -0.0012
 5912SOL    HW129372   2.278   1.300   4.231 -3.7927 -0.1730  2.6234
 5912SOL    HW229373   2.224   1.209   4.124  0.2700  3.5368  0.0038
 5913SOL     OW29374   2.455   4.119   2.210  0.1453  0.3646 -0.1652
 5913SOL    HW129375   2.444   4.200   2.260 -0.9546 -0.0286  0.2391
 5913SOL    HW229376   2.367   4.082   2.204  0.3535 -0.3100  1.0707
 5914SOL     OW29377   3.096   2.186   3.578 -0.2305  0.0585 -0.1647
 5914SOL    HW129378   3.071   2.176   3.487 -1.3151  0.1352  0.1254
 5914SOL    HW229379   3.031   2.255   3.592 -0.9099 -0.2371 -1.9156
 5915SOL     OW29380   3.144   1.138   3.694 -0.1669  0.8012 -0.6553
 5915SOL    HW129381   3.092   1.156   3.772 -1.4780  1.5867 -1.7048
 5915SOL    HW229382   3.122   1.046   3.680 -1.2016  1.1492 -1.3480
 5916SOL     OW29383   1.435   0.074   7.994  0.0830  0.0100  0.1687
 5916SOL    HW129384   1.444   0.086   8.089  1.2980  1.3331 -0.0984
 5916SOL    HW229385   1.408   4.723   7.986 -0.1889  0.2899 -2.0350
 5917SOL     OW29386   4.194   1.547   5.198  0.5067  0.6368  0.2319
 5917SOL    HW129387   4.140   1.486   5.149  0.8551  1.1419 -0.7717
 5917SOL    HW229388   4.278   1.502   5.206 -0.1514 -0.5997  0.1613
 5918SOL     OW29389   3.008   3.778   6.609 -0.1009  0.8832 -0.1392
 5918SOL    HW129390   2.985   3.759   6.700  0.9187  1.5503  0.2608
 5918SOL    HW229391   2.950   3.719   6.561  0.7805 -0.7548  0.8020
 5919SOL     OW29392   2.155   2.948  13.930 -0.0910 -0.3206  0.0004
 5919SOL    HW129393   2.179   3.023  13.984  0.0938  0.8913 -1.7500
 5919SOL    HW229394   2.060   2.947  13.935 -0.1837  1.8551 -1.4418
 5920SOL     OW29395   0.042   2.408  12.282  0.1356 -0.0798 -0.0852
 5920SOL    HW129396   0.029   2.500  12.257  2.2293  1.3822  4.2475
 5920SOL    HW229397   0.087   2.426  12.365  0.7462  0.0132 -0.4434
 5921SOL     OW29398   0.599   3.008   0.420  0.0579  0.0451  0.5309
 5921SOL    HW129399   0.638   2.941   0.476 -0.6088 -1.8405 -1.3054
 5921SOL    HW229400   0.660   3.018   0.347  0.6626 -1.0463  0.8891
 5922SOL     OW29401   2.391   2.532   1.697 -0.2566  0.1303 -0.7028
 5922SOL    HW129402   2.336   2.611   1.693  0.1443  0.4876  0.7647
 5922SOL    HW229403   2.463   2.564   1.643 -0.4135 -0.7468 -1.4261
 5923SOL     OW29404   4.387   2.880  16.179  0.0795 -0.1355 -0.2121
 5923SOL    HW129405   4.358   2.883  16.088  0.0141  1.1573 -0.1404
 5923SOL    HW229406   4.308   2.903  16.228 -0.7519  0.5244 -1.9007
 5924SOL     OW29407   1.661   3.909   5.106 -0.1746  0.0055 -0.3562
 5924SOL    HW129408   1.568   3.916   5.084 -0.6013 -2.4256  0.6302
 5924SOL    HW229409   1.646   3.838   5.168  1.0878  1.0450  1.1244
 5925SOL     OW29410   3.372   3.041   2.774  0.3109  0.2179 -0.1198
 5925SOL    HW129411   3.379   2.968   2.836  0.0638  0.2043 -0.1079
 5925SOL    HW229412   3.464   3.046   2.751  0.7538  1.2302  1.8482
 5926SOL     OW29413   1.419   3.701   3.934  0.2464 -0.3187 -0.0437
 5926SOL    HW129414   1.352   3.666   3.876  0.5588 -2.6971  1.0414
 5926SOL    HW229415   1.410   3.621   3.985 -0.7414  0.4832  1.0414
 5927SOL     OW29416   2.472   3.497   6.954 -0.1563  0.1297 -0.0656
 5927SOL    HW129417   2.435   3.418   6.915  1.2689 -0.4320 -0.2591
 5927SOL    HW229418   2.391   3.549   6.960  0.2157  1.0198 -2.4722
 5928SOL     OW29419   2.367   0.819   7.947  0.4105 -0.6081  0.2015
 5928SOL    HW129420   2.340   0.871   7.872  0.6503  0.3235  0.7639
 5928SOL    HW229421   2.406   0.881   8.008  0.6400  0.2000 -0.7747
 5929SOL     OW29422   4.570   3.419   7.778 -0.0482 -0.1391  0.5365
 5929SOL    HW129423   4.542   3.497   7.730 -1.4131 -0.4558  0.8195
 5929SOL    HW229424   4.584   3.460   7.863 -0.6821 -0.0891  0.6146
 5930SOL     OW29425   0.007   1.263   8.948 -0.7722 -0.2858 -0.1510
 5930SOL    HW129426   0.096   1.290   8.972 -0.4815 -0.1752 -1.3738
 5930SOL    HW229427   0.006   1.170   8.970 -2.7009 -0.1738  0.2172
 5931SOL     OW29428   0.307   0.953  10.106 -1.0250  0.1296 -0.8924
 5931SOL    HW129429   0.371   1.020  10.082  0.1640 -0.7563 -0.1857
 5931SOL    HW229430   0.372   0.885  10.124 -0.6126  0.3219 -1.6669
 5932SOL     OW29431   2.935   3.976   4.670 -0.6464 -0.0518 -0.1262
 5932SOL    HW129432   2.964   3.979   4.762 -1.3648 -3.7225  0.2194
 5932SOL    HW229433   2.980   3.899   4.636 -0.4824 -0.2713  0.5815
 5933SOL     OW29434   3.653   1.329   2.231 -0.4879  0.1753 -0.1782
 5933SOL    HW129435   3.711   1.275   2.284 -1.5143 -0.0995  0.6601
 5933SOL    HW229436   3.664   1.296   2.142 -0.7575  0.3240 -0.2672
 5934SOL     OW29437   4.008   4.279   4.188 -0.2372 -0.1047  0.1829
 5934SOL    HW129438   3.976   4.259   4.100 -0.5397 -1.2376  0.5528
 5934SOL    HW229439   4.069   4.208   4.205 -0.8478 -0.7763 -0.4208
 5935SOL     OW29440   4.317   3.032   5.777 -0.4513 -0.1011  0.3949
 5935SOL    HW129441   4.347   2.958   5.724  1.1947  0.6495  0.3009
 5935SOL    HW229442   4.396   3.085   5.779  0.5082 -1.4428 -1.0007
 5936SOL     OW29443   3.768   2.294   1.324 -0.4938 -0.0385 -0.2322
 5936SOL    HW129444   3.706   2.316   1.254  0.2289 -2.2065 -1.5225
 5936SOL    HW229445   3.839   2.255   1.274  0.2701  0.6719  0.3037
 5937SOL     OW29446   1.883   2.618  13.276 -0.3272  0.5892  0.3520
 5937SOL    HW129447   1.932   2.577  13.347  0.6545  1.7420  0.3265
 5937SOL    HW229448   1.955   2.654  13.224 -0.1061  1.0053  0.9557
 5938SOL     OW29449   1.184   0.426   8.793 -0.6311 -0.0575  0.1892
 5938SOL    HW129450   1.137   0.351   8.753  2.6688 -1.3147 -1.3289
 5938SOL    HW229451   1.153   0.409   8.882  0.9657 -0.3557  0.6820
 5939SOL     OW29452   3.567   2.608   7.260  0.9869  0.1965 -0.3178
 5939SOL    HW129453   3.593   2.564   7.341 -0.2612 -0.1870 -0.1340
 5939SOL    HW229454   3.551   2.535   7.200  1.4358  0.1717 -0.4068
 5940SOL     OW29455   0.097   1.100  14.227 -0.3054  0.3486 -0.5858
 5940SOL    HW129456   0.063   1.186  14.204 -3.3661 -0.9490 -1.0318
 5940SOL    HW229457   0.017   1.059  14.261  1.3514 -3.3369 -1.1501
 5941SOL     OW29458   0.449   2.200   0.643 -0.2430  0.6455  0.3161
 5941SOL    HW129459   0.471   2.231   0.731  0.1898  1.1120  0.0474
 5941SOL    HW229460   0.531   2.226   0.601  1.7543 -0.8693  3.2681
 5942SOL     OW29461   4.007   2.109   2.685 -0.4826  0.2307  0.0018
 5942SOL    HW129462   3.989   2.020   2.657  2.3667 -0.2381 -0.3980
 5942SOL    HW229463   3.924   2.127   2.729 -0.3090  1.7781 -0.2960
 5943SOL     OW29464   2.284   2.452   8.689  0.3333 -0.1389  0.1847
 5943SOL    HW129465   2.306   2.535   8.647  2.4316 -0.1698  1.2104
 5943SOL    HW229466   2.361   2.396   8.693  1.6725  1.7133  0.3086
 5944SOL     OW29467   1.172   4.201   5.802  0.2396 -0.3788 -0.1565
 5944SOL    HW129468   1.165   4.140   5.875 -0.5853  1.4591  1.2899
 5944SOL    HW229469   1.101   4.171   5.744  0.2288  1.3931 -1.0730
 5945SOL     OW29470   4.655   2.600   4.028  0.8095  0.3002 -0.5653
 5945SOL    HW129471   4.691   2.684   4.001  0.2701  1.0958  1.2176
 5945SOL    HW229472   4.610   2.576   3.947  2.2643 -2.3920 -0.5632
 5946SOL     OW29473   4.238   0.562   7.759  0.0598 -0.2298  0.8680
 5946SOL    HW129474   4.279   0.601   7.836  1.3717  1.6154 -0.7324
 5946SOL    HW229475   4.155   0.550   7.803 -0.6765  1.7251  0.0428
 5947SOL     OW29476   4.122   3.848  12.218  0.2838 -0.2134  0.0081
 5947SOL    HW129477   4.196   3.821  12.272 -0.7986 -1.8489  0.6985
 5947SOL    HW229478   4.149   3.818  12.132  0.1731 -1.7594  0.4958
 5948SOL     OW29479   0.002   2.543   8.840 -0.4101  0.1448  0.0206
 5948SOL    HW129480   0.042   2.468   8.883 -0.0534 -1.5864 -3.2862
 5948SOL    HW229481   0.015   2.608   8.908 -1.0984 -0.1811  0.4657
 5949SOL     OW29482   0.535   2.479   1.352 -0.1549  0.1696  0.0331
 5949SOL    HW129483   0.468   2.422   1.388  0.2391  0.2982  0.9747
 5949SOL    HW229484   0.492   2.542   1.295  0.3802 -0.3060 -0.9003
 5950SOL     OW29485   2.398   1.441   8.013  0.1524 -0.2886 -0.0369
 5950SOL    HW129486   2.466   1.409   7.955 -1.3081 -2.1151 -0.7039
 5950SOL    HW229487   2.413   1.535   8.002 -3.2330  0.0576 -1.5981
 5951SOL     OW29488   4.354   1.865   4.373  0.2040  0.0335  0.2128
 5951SOL    HW129489   4.401   1.940   4.338 -2.4456  2.1433  1.1435
 5951SOL    HW229490   4.428   1.805   4.367 -0.2234 -0.4609 -0.1034
 5952SOL     OW29491   3.263   2.609   9.412  0.1372 -0.0514  0.1725
 5952SOL    HW129492   3.219   2.659   9.344 -2.3048 -0.7524  1.1986
 5952SOL    HW229493   3.300   2.685   9.457  0.1316 -0.4804  0.9161
 5953SOL     OW29494   0.704   0.269   5.163  0.3858  0.2904 -0.2280
 5953SOL    HW129495   0.693   0.192   5.107 -1.5511  0.3635  0.0492
 5953SOL    HW229496   0.800   0.269   5.155  0.4501 -2.9563  0.2402
 5954SOL     OW29497   0.871   3.437   3.413  0.3095  0.1305 -0.4200
 5954SOL    HW129498   0.916   3.521   3.416 -0.7962  0.7133 -0.0846
 5954SOL    HW229499   0.782   3.465   3.392  1.2674  1.7753 -2.1523
 5955SOL     OW29500   2.107   3.880   6.243  0.0677  0.6463 -0.1307
 5955SOL    HW129501   2.070   3.896   6.330  1.6202  0.4664  0.5687
 5955SOL    HW229502   2.042   3.815   6.216  0.8286  0.5032 -1.5799
 5956SOL     OW29503   4.245   0.291   4.542 -0.0917  0.4059  0.5114
 5956SOL    HW129504   4.320   0.238   4.569  0.1587  1.5474  2.0410
 5956SOL    HW229505   4.263   0.315   4.452  1.3479 -1.1753  0.3918
 5957SOL     OW29506   0.410   3.960  11.589 -0.4214 -0.0772  0.0083
 5957SOL    HW129507   0.459   4.000  11.661 -4.0270  3.2758  0.6126
 5957SOL    HW229508   0.399   4.038  11.535 -0.2201  0.3398  0.5711
 5958SOL     OW29509   1.202   4.636   0.438  0.0380  0.3661  0.2597
 5958SOL    HW129510   1.245   4.583   0.506  1.7472 -0.6023 -1.5744
 5958SOL    HW229511   1.276   4.632   0.378 -0.5414 -0.8722 -0.3730
 5959SOL     OW29512   1.491   3.712  12.109  0.2581 -0.2757 -0.0826
 5959SOL    HW129513   1.507   3.801  12.142 -1.8840 -0.9422  2.7609
 5959SOL    HW229514   1.415   3.701  12.165 -0.1914  2.5442 -0.1279
 5960SOL     OW29515   0.676   3.139  16.729  0.2951 -0.1195  0.6884
 5960SOL    HW129516   0.660   3.194  16.652  1.0099 -0.2553  0.4502
 5960SOL    HW229517   0.586   3.114  16.749 -0.2103 -0.2612 -1.7223
 5961SOL     OW29518   1.132   1.381   2.692  0.3525  0.4174  0.0050
 5961SOL    HW129519   1.167   1.400   2.779 -1.0631  2.1772  0.2075
 5961SOL    HW229520   1.045   1.348   2.715  1.0009 -1.5165 -0.3734
 5962SOL     OW29521   4.728   2.951   5.871 -0.8397  0.1938  0.6047
 5962SOL    HW129522   4.734   2.881   5.936  0.1768 -0.5682 -0.3128
 5962SOL    HW229523   0.079   2.980   5.870 -0.8346  0.1923  1.1196
 5963SOL     OW29524   0.196   4.604   1.979  0.1766 -0.4203 -0.4068
 5963SOL    HW129525   0.218   4.604   1.886  0.8524  0.5784 -0.2442
 5963SOL    HW229526   0.237   4.521   2.007 -1.2602 -1.1968 -0.6121
 5964SOL     OW29527   4.141   4.519   8.413  0.2227  0.3208 -0.5844
 5964SOL    HW129528   4.225   4.474   8.421 -0.8211 -1.6118 -0.6968
 5964SOL    HW229529   4.079   4.476   8.471 -1.1934  1.2269 -1.4056
 5965SOL     OW29530   0.892   3.799   5.743 -0.0617  0.2144 -0.1181
 5965SOL    HW129531   0.939   3.793   5.826 -0.3493 -0.2214  0.0085
 5965SOL    HW229532   0.927   3.727   5.692 -1.9958 -0.4974 -0.4217
 5966SOL     OW29533   4.001   0.474   1.007 -0.2732  0.4497 -0.6898
 5966SOL    HW129534   4.019   0.551   1.061 -0.0796 -0.8543  1.1197
 5966SOL    HW229535   4.065   0.488   0.938 -0.5309 -2.6056 -1.5476
 5967SOL     OW29536   0.359   2.943   4.820 -0.2662  0.6373  0.3410
 5967SOL    HW129537   0.344   2.971   4.910 -0.6190  1.1064  0.1292
 5967SOL    HW229538   0.446   2.983   4.811  0.6063 -1.0740  1.1460
 5968SOL     OW29539   1.997   4.337   5.907 -0.2102 -0.3938 -0.0168
 5968SOL    HW129540   2.091   4.358   5.908 -0.2446 -0.2008 -0.8446
 5968SOL    HW229541   1.988   4.255   5.955 -1.4799  0.1565  0.6881
 5969SOL     OW29542   1.908   2.549  10.475 -0.0446  0.5528 -0.2047
 5969SOL    HW129543   1.910   2.514  10.564  3.2674  0.9507 -0.1182
 5969SOL    HW229544   1.813   2.541  10.474  0.1885 -2.4036 -0.0558
 5970SOL     OW29545   0.190   1.077  15.634  0.0754 -0.1029  0.3433
 5970SOL    HW129546   0.101   1.041  15.637  0.0063  0.0321 -0.1265
 5970SOL    HW229547   0.180   1.172  15.625  0.2688 -0.2568 -1.4027
 5971SOL     OW29548   4.695   0.601   5.865  0.1662 -0.3571 -0.4345
 5971SOL    HW129549   4.610   0.599   5.821  0.0090 -0.5723 -0.1299
 5971SOL    HW229550   0.003   0.534   5.816  1.2029  1.0747 -1.3615
 5972SOL     OW29551   2.213   0.635   0.515  0.5209  0.5779 -0.2616
 5972SOL    HW129552   2.119   0.619   0.521  0.7445 -0.7791 -0.4115
 5972SOL    HW229553   2.212   0.698   0.442  2.5879  0.0681 -0.7466
 5973SOL     OW29554   2.430   4.044   8.748  0.4151 -0.3242 -0.5618
 5973SOL    HW129555   2.460   3.983   8.681  2.2198  0.1364 -0.1786
 5973SOL    HW229556   2.360   4.086   8.699  0.6890 -0.1190 -0.7766
 5974SOL     OW29557   2.389   1.185  13.521 -0.0583 -0.0495  0.4997
 5974SOL    HW129558   2.449   1.113  13.541  1.6017  1.1199 -0.3011
 5974SOL    HW229559   2.419   1.240  13.594  2.3470  0.5453 -0.9539
 5975SOL     OW29560   0.007   1.300   4.363  0.3398 -0.3581 -0.2039
 5975SOL    HW129561   4.686   1.335   4.428 -0.5947 -1.2479 -0.5962
 5975SOL    HW229562   0.052   1.236   4.417  0.4766  0.2413  0.3821
 5976SOL     OW29563   0.814   0.328  12.863 -0.6588  0.5928 -0.2684
 5976SOL    HW129564   0.907   0.304  12.863 -1.1324 -1.2774  3.1479
 5976SOL    HW229565   0.794   0.289  12.948 -0.6690  1.5556  0.1666
 5977SOL     OW29566   2.468   2.657   2.619  1.3771 -0.0548  0.1253
 5977SOL    HW129567   2.556   2.683   2.592  1.3934 -1.1556 -0.8992
 5977SOL    HW229568   2.481   2.628   2.709 -0.5615 -0.0652  0.4019
 5978SOL     OW29569   1.613   0.396   5.331 -0.3779 -0.0665 -0.6666
 5978SOL    HW129570   1.545   0.413   5.266 -0.6350 -0.6409 -0.5530
 5978SOL    HW229571   1.595   0.306   5.361 -0.9560  0.9619  2.0506
 5979SOL     OW29572   1.670   3.457  17.211  0.3139  0.1624 -0.8797
 5979SOL    HW129573   1.733   3.529  17.208  1.8452 -1.1378  0.0320
 5979SOL    HW229574   1.613   3.503  17.149  0.1153 -0.1148 -0.9062
 5980SOL     OW29575   1.515   1.677  12.233 -0.4056  0.3895 -0.1543
 5980SOL    HW129576   1.468   1.593  12.231 -1.8415  1.1974 -0.3894
 5980SOL    HW229577   1.582   1.656  12.168  0.4983 -1.3153  1.3328
 5981SOL     OW29578   0.925   4.670   7.991 -0.1173 -1.1854  0.1688
 5981SOL    HW129579   0.970   4.587   8.006 -0.3306 -1.1228  1.1139
 5981SOL    HW229580   0.870   4.685   8.068 -0.1561  0.6843 -0.2291
 5982SOL     OW29581   2.344   2.936   2.092 -0.4673 -0.2503  0.1218
 5982SOL    HW129582   2.278   2.940   2.022 -0.9462  1.9817  0.7048
 5982SOL    HW229583   2.386   3.022   2.088 -1.6766  0.4509  2.1079
 5983SOL     OW29584   3.801   3.146  16.259  0.0973  0.6199  0.2471
 5983SOL    HW129585   3.715   3.188  16.263  0.5541  1.6392 -0.6324
 5983SOL    HW229586   3.784   3.067  16.310 -1.0259  1.3497  1.0014
 5984SOL     OW29587   3.855   0.746   3.558 -0.2229  0.0930  0.6499
 5984SOL    HW129588   3.787   0.795   3.511  0.5730  0.2325 -0.3605
 5984SOL    HW229589   3.907   0.717   3.483  0.6524 -0.0445  1.3106
 5985SOL     OW29590   1.421   4.226   6.255  0.3478  0.5432 -0.5661
 5985SOL    HW129591   1.366   4.269   6.320 -0.3965 -0.4563 -0.5412
 5985SOL    HW229592   1.441   4.143   6.298  0.0430  0.8136  0.0919
 5986SOL     OW29593   1.246   3.803   5.218 -0.3807  0.5199 -0.2342
 5986SOL    HW129594   1.159   3.769   5.200  0.0959 -0.5221 -0.5760
 5986SOL    HW229595   1.248   3.796   5.313 -0.4085  0.4573 -0.2383
 5987SOL     OW29596   1.340   0.023   5.561  0.1648  0.3389 -0.2340
 5987SOL    HW129597   1.287   0.081   5.616  0.1394 -1.7428  1.9039
 5987SOL    HW229598   1.340   4.692   5.624  0.5381  2.0126  1.6440
 5988SOL     OW29599   0.143   2.387   7.106 -0.4795 -0.1441  0.1083
 5988SOL    HW129600   0.197   2.454   7.148 -1.0438 -0.8462  1.9533
 5988SOL    HW229601   0.058   2.430   7.114 -1.7869 -3.0281  1.8766
 5989SOL     OW29602   4.051   0.690   3.719 -0.9371 -0.2058  0.2809
 5989SOL    HW129603   3.981   0.721   3.662  0.7585  3.4174  0.1599
 5989SOL    HW229604   4.120   0.756   3.723 -0.7697 -0.5886  4.0960
 5990SOL     OW29605   2.908   0.551   8.015  0.5207  0.0350  0.5061
 5990SOL    HW129606   2.901   0.456   8.008  0.3490 -0.0547  1.9099
 5990SOL    HW229607   2.875   0.551   8.105  0.4091  2.6862  0.4918
 5991SOL     OW29608   2.623   2.857  16.472 -0.1208  0.0336  0.1510
 5991SOL    HW129609   2.603   2.940  16.430  0.2499  0.2827  0.4636
 5991SOL    HW229610   2.581   2.802  16.405 -1.6362  1.3649  0.0075
 5992SOL     OW29611   0.394   1.344   3.194 -0.4248 -0.2303  0.6514
 5992SOL    HW129612   0.483   1.326   3.224 -0.7793 -0.4507  1.5559
 5992SOL    HW229613   0.345   1.317   3.272 -1.7730 -1.5583 -0.6590
 5993SOL     OW29614   0.456   0.120   4.466 -0.0419  0.1960 -0.2883
 5993SOL    HW129615   0.471   0.166   4.549 -1.9284 -1.1077  0.7766
 5993SOL    HW229616   0.369   0.154   4.447 -1.5182 -2.1368  2.2448
 5994SOL     OW29617   0.863   3.212   7.625  0.2766 -0.5878  0.0113
 5994SOL    HW129618   0.777   3.196   7.663  0.7604 -1.1711  0.8732
 5994SOL    HW229619   0.918   3.154   7.679  0.4436  1.2371  1.7911
 5995SOL     OW29620   0.048   1.889   7.002 -0.3759 -0.1640 -0.3124
 5995SOL    HW129621   0.069   1.981   7.016 -0.1545 -0.6974  3.0063
 5995SOL    HW229622   0.099   1.859   6.927  1.6876  2.9445 -0.1423
 5996SOL     OW29623   3.771   4.375   4.365  0.4517  0.0749  0.8282
 5996SOL    HW129624   3.702   4.416   4.313 -0.1737 -1.9341  0.0711
 5996SOL    HW229625   3.830   4.354   4.292  0.0383  1.1056  0.1915
 5997SOL     OW29626   3.906   1.115   0.056 -0.2121 -0.6027 -0.4188
 5997SOL    HW129627   3.895   1.032   0.010  0.2953  0.0749 -1.7322
 5997SOL    HW229628   3.820   1.154   0.042 -0.2092 -0.4651 -0.0669
 5998SOL     OW29629   1.759   0.722   5.829 -0.4622  1.0877 -0.6694
 5998SOL    HW129630   1.837   0.684   5.790 -0.5324  0.7717 -0.5050
 5998SOL    HW229631   1.730   0.789   5.767 -1.0666  0.4543 -1.0885
 5999SOL     OW29632   2.487   0.575   0.371  0.3555 -0.1008  0.1270
 5999SOL    HW129633   2.443   0.546   0.450 -0.2766 -0.0841 -0.2133
 5999SOL    HW229634   2.449   0.661   0.355 -0.9670 -0.5625  0.8581
 6000SOL     OW29635   3.528   2.962  12.776  0.5543  0.3062  0.0074
 6000SOL    HW129636   3.511   2.956  12.870  0.2118 -1.9806 -0.2002
 6000SOL    HW229637   3.478   2.888  12.741 -0.0877  1.5236 -1.6478
 6001SOL     OW29638   1.570   4.350  10.618  0.9823 -0.1228 -0.2616
 6001SOL    HW129639   1.559   4.331  10.711  1.8836  0.4990 -0.0374
 6001SOL    HW229640   1.553   4.262  10.582  0.3073  0.7445 -2.0516
 6002SOL     OW29641   0.025   3.817   1.587  0.3884  0.2013  0.3364
 6002SOL    HW129642   0.110   3.849   1.616  0.1354  1.6043 -0.4830
 6002SOL    HW229643   0.056   3.735   1.549 -0.6436 -1.3038  2.7232
 6003SOL     OW29644   0.384   0.432   0.797 -0.2566 -0.1999  0.6782
 6003SOL    HW129645   0.386   0.355   0.853 -1.4887  0.0887  1.1133
 6003SOL    HW229646   0.314   0.414   0.735 -0.2944  0.2136  0.6007
 6004SOL     OW29647   1.514   0.911   9.339 -0.4825  0.2041 -0.1218
 6004SOL    HW129648   1.451   0.844   9.313 -1.8139  1.5442 -0.3418
 6004SOL    HW229649   1.477   0.989   9.297 -1.0494 -0.0102 -0.0265
 6005SOL     OW29650   0.789   2.043   6.165  0.4787  0.2281  0.4756
 6005SOL    HW129651   0.729   2.002   6.227  1.4923  0.1973  1.4378
 6005SOL    HW229652   0.725   2.103   6.127  0.0995 -0.8391 -0.5533
 6006SOL     OW29653   2.688   0.275   2.726 -0.0841  0.0420 -0.2801
 6006SOL    HW129654   2.750   0.348   2.723 -2.0295  1.7447  1.0523
 6006SOL    HW229655   2.704   0.250   2.816 -2.2976  0.3358  0.2107
 6007SOL     OW29656   0.631   0.599   4.380  0.3771 -0.3401 -0.5577
 6007SOL    HW129657   0.563   0.629   4.440  0.5675 -2.9027  0.9739
 6007SOL    HW229658   0.586   0.536   4.323  0.3461  0.8866 -1.8800
 6008SOL     OW29659   1.639   3.411   3.543  0.4279  0.5210 -0.5500
 6008SOL    HW129660   1.604   3.442   3.459  1.5267  0.6012 -0.9724
 6008SOL    HW229661   1.673   3.325   3.519 -0.4662  0.2337 -0.8053
 6009SOL     OW29662   3.394   1.290   3.689 -0.4210  0.2258  0.0046
 6009SOL    HW129663   3.477   1.244   3.703 -2.4282 -2.9798  1.4048
 6009SOL    HW229664   3.330   1.220   3.695  0.5817 -0.6222  0.6787
 6010SOL     OW29665   2.990   1.261   9.117  0.0946  0.2239 -0.3348
 6010SOL    HW129666   2.999   1.257   9.022 -0.3919 -1.3326 -0.3205
 6010SOL    HW229667   3.052   1.199   9.156  0.8403  0.7359 -0.7162
 6011SOL     OW29668   2.002   0.341   6.920 -0.8239 -0.0869  0.8197
 6011SOL    HW129669   1.943   0.416   6.922  0.1881  0.7966 -2.4059
 6011SOL    HW229670   1.938   0.281   6.882 -0.1535 -1.1185  1.3400
 6012SOL     OW29671   1.098   2.611   7.199  0.1569  0.1967  0.2010
 6012SOL    HW129672   1.156   2.554   7.148 -1.4401 -1.4430  0.2187
 6012SOL    HW229673   1.014   2.570   7.178  0.7666 -0.4657 -0.8828
 6013SOL     OW29674   3.610   1.440  10.972  0.1692  0.0461  0.4523
 6013SOL    HW129675   3.529   1.439  10.921 -0.4180 -0.3905  1.4026
 6013SOL    HW229676   3.603   1.358  11.020  0.2520 -0.7355 -0.8677
 6014SOL     OW29677   0.277   2.728   7.713 -0.3305  0.4976 -0.0755
 6014SOL    HW129678   0.272   2.804   7.655 -0.4900  0.6794  0.1735
 6014SOL    HW229679   0.193   2.728   7.759 -1.1347  2.1299 -1.5666
 6015SOL     OW29680   4.716   1.598   6.590 -0.1592  0.5930 -0.7669
 6015SOL    HW129681   0.056   1.604   6.641  0.1280 -0.2040 -1.1130
 6015SOL    HW229682   4.735   1.534   6.521  0.7020 -0.2283  0.2361
 6016SOL     OW29683   4.000   1.369   5.616  0.2585 -0.3804  0.3030
 6016SOL    HW129684   3.950   1.450   5.613  0.2074 -0.5081 -1.7804
 6016SOL    HW229685   4.049   1.399   5.693  0.0090  4.2789 -1.3687
 6017SOL     OW29686   3.283   1.707   8.733 -0.2558 -0.1065  0.8046
 6017SOL    HW129687   3.358   1.758   8.705 -0.3728 -0.1281  0.4597
 6017SOL    HW229688   3.206   1.762   8.751 -0.1217  0.8282 -1.5384
 6018SOL     OW29689   3.910   0.954   9.679  0.0661  0.1530  0.1105
 6018SOL    HW129690   3.973   0.986   9.614 -2.4196  1.6815 -1.5690
 6018SOL    HW229691   3.835   1.012   9.666  3.0233  3.8660 -0.3207
 6019SOL     OW29692   1.782   3.655   9.858 -0.2803  0.5683  0.5382
 6019SOL    HW129693   1.732   3.584   9.816  1.4077  0.2171 -0.8875
 6019SOL    HW229694   1.721   3.676   9.929  0.3232 -2.5835  2.0244
 6020SOL     OW29695   1.488   4.493   1.779  0.5887 -0.8242  0.1990
 6020SOL    HW129696   1.518   4.479   1.869 -0.2605 -0.3213  0.5566
 6020SOL    HW229697   1.553   4.435   1.737  0.4590  0.3367 -1.6123
 6021SOL     OW29698   4.635   0.319   3.947 -0.1262  0.2968  0.6725
 6021SOL    HW129699   4.540   0.316   3.960 -0.3231  0.6958 -0.7669
 6021SOL    HW229700   4.641   0.351   3.858 -0.2371 -1.0887  0.1605
 6022SOL     OW29701   3.981   0.256   6.685 -0.4757 -0.4015 -0.3978
 6022SOL    HW129702   3.918   0.280   6.752  2.5027 -0.2638  2.3495
 6022SOL    HW229703   3.950   0.178   6.639  0.7623 -1.1682  0.0498
 6023SOL     OW29704   1.980   0.851  16.406 -0.2372 -0.7051 -0.0523
 6023SOL    HW129705   1.951   0.801  16.330 -1.3149  1.5885 -1.1551
 6023SOL    HW229706   2.038   0.917  16.369 -1.0641 -1.0521 -1.9764
 6024SOL     OW29707   0.429   0.950   6.442  0.1922  0.2992  0.1114
 6024SOL    HW129708   0.473   0.999   6.373  0.8532  0.7367  0.8490
 6024SOL    HW229709   0.487   0.875   6.456  1.2767  0.9694 -0.8088
 6025SOL     OW29710   4.147   1.730   6.926  0.0254  0.6935 -0.3392
 6025SOL    HW129711   4.077   1.709   6.987  0.1790  0.7275 -0.1494
 6025SOL    HW229712   4.112   1.687   6.848 -1.2852 -0.4233  0.8714
 6026SOL     OW29713   1.421   0.857   3.491 -0.4537  0.7065 -0.2260
 6026SOL    HW129714   1.459   0.789   3.546 -1.3889 -0.9001 -1.5560
 6026SOL    HW229715   1.331   0.855   3.522 -0.5819 -0.5444 -0.6738
 6027SOL     OW29716   4.564   4.596   1.756  0.5030  0.8586 -0.1183
 6027SOL    HW129717   4.481   4.643   1.753 -1.4296 -2.4389  1.0913
 6027SOL    HW229718   4.611   4.633   1.830 -1.5280  1.3020  0.9225
 6028SOL     OW29719   3.109   1.826   0.633 -0.2114  0.3997 -0.1639
 6028SOL    HW129720   3.078   1.737   0.650  1.3332 -0.2069 -0.5257
 6028SOL    HW229721   3.155   1.849   0.713  0.3173  1.7118 -0.8434
 6029SOL     OW29722   4.137   3.091   5.121  0.3916 -1.0756 -0.0648
 6029SOL    HW129723   4.147   3.175   5.167 -0.9024 -2.4423  2.7365
 6029SOL    HW229724   4.231   3.071   5.112  0.6278 -0.5507  1.1319
 6030SOL     OW29725   3.652   1.280   7.175 -0.4228 -0.8188 -0.2899
 6030SOL    HW129726   3.672   1.352   7.235  0.4007 -0.8658 -0.5016
 6030SOL    HW229727   3.580   1.233   7.218  0.0527 -1.5909 -0.3299
 6031SOL     OW29728   3.900   1.697  14.847  0.6270 -0.0465  0.1572
 6031SOL    HW129729   3.872   1.620  14.896  1.7993 -0.3390  0.3790
 6031SOL    HW229730   3.856   1.769  14.893 -0.4173  0.7586 -2.1184
 6032SOL     OW29731   0.801   3.489   9.053  0.1802 -0.1729 -0.4967
 6032SOL    HW129732   0.796   3.405   9.008  1.4757 -0.0960 -0.7889
 6032SOL    HW229733   0.709   3.507   9.034  0.5055  0.5832 -1.3336
 6033SOL     OW29734   3.996   1.391   2.174  0.6055  0.3856 -0.3273
 6033SOL    HW129735   3.930   1.325   2.197 -1.5550  2.9178  0.6832
 6033SOL    HW229736   4.083   1.351   2.174  0.7535  0.7045 -0.1603
 6034SOL     OW29737   0.452   0.128  17.444 -0.0257  0.0076  0.0004
 6034SOL    HW129738   0.425   0.205  17.494 -1.4832  1.1561 -2.5665
 6034SOL    HW229739   0.533   0.103  17.488  0.2564 -3.2489 -2.3544
 6035SOL     OW29740   1.869   4.684  15.721 -0.1468  0.6418 -0.0662
 6035SOL    HW129741   1.803   4.615  15.719  1.7562 -1.2743  3.5976
 6035SOL    HW229742   1.830   0.008  15.661  3.3067  1.2699 -1.6524
 6036SOL     OW29743   0.254   4.607  17.569  0.1794 -0.1580  0.3445
 6036SOL    HW129744   0.182   4.563  17.525 -0.6646  1.0125  0.5732
 6036SOL    HW229745   0.221   4.697  17.565  1.3578  0.2808  0.3192
 6037SOL     OW29746   2.247   0.183  16.378 -0.4492 -0.2383 -0.1224
 6037SOL    HW129747   2.169   0.128  16.374 -0.5787  0.0806 -2.0456
 6037SOL    HW229748   2.314   0.158  16.314 -0.1060  0.5489 -0.0768
 6038SOL     OW29749   4.551   0.559   4.876  0.0247  0.3047  0.0470
 6038SOL    HW129750   4.501   0.607   4.811  1.5705  0.0529 -1.3278
 6038SOL    HW229751   4.599   0.632   4.917 -1.0722 -0.3814  2.5882
 6039SOL     OW29752   0.868   4.143  15.030 -0.2550  0.1102  0.0303
 6039SOL    HW129753   0.834   4.132  14.941  2.5513 -0.6429 -0.9526
 6039SOL    HW229754   0.814   4.086  15.084 -0.0435 -0.1780 -0.0627
 6040SOL     OW29755   1.506   0.395   4.461 -0.1533  0.5889 -0.5154
 6040SOL    HW129756   1.517   0.307   4.424 -2.1454 -0.8109  2.2716
 6040SOL    HW229757   1.598   0.418   4.443 -0.0757 -0.4690 -1.4891
 6041SOL     OW29758   0.725   0.183   5.857  0.3977  0.1245  0.3443
 6041SOL    HW129759   0.744   0.132   5.936  1.4600 -0.2186 -0.1278
 6041SOL    HW229760   0.681   0.117   5.803  2.1927  0.3949 -1.4642
 6042SOL     OW29761   1.185   3.635  11.277 -0.2380  0.0942 -0.3363
 6042SOL    HW129762   1.101   3.676  11.257  0.1035  0.1561 -1.6171
 6042SOL    HW229763   1.244   3.703  11.310  1.1442 -2.0739  1.6790
 6043SOL     OW29764   1.139   0.195   6.700 -0.3956  0.0496  0.3074
 6043SOL    HW129765   1.126   0.261   6.769  3.4399  0.7219  0.3712
 6043SOL    HW229766   1.048   0.184   6.672 -0.3061 -1.6768  0.7158
 6044SOL     OW29767   4.052   0.865   7.860  0.3051  0.0771  0.4468
 6044SOL    HW129768   3.986   0.926   7.827 -0.2655 -0.4995  0.5287
 6044SOL    HW229769   4.121   0.876   7.795 -0.2132 -0.4412 -0.1907
 6045SOL     OW29770   4.677   0.577   2.373 -0.3976  0.1488 -0.5171
 6045SOL    HW129771   4.715   0.665   2.375  1.1780 -0.5560  1.6260
 6045SOL    HW229772   0.013   0.526   2.403 -0.4338  0.0957 -0.5160
 6046SOL     OW29773   0.270   1.050   2.485 -0.0896 -0.1970 -0.3736
 6046SOL    HW129774   0.307   1.078   2.569 -3.3286  1.0598  0.6415
 6046SOL    HW229775   0.203   0.985   2.505 -0.4222  0.3275  0.2090
 6047SOL     OW29776   4.109   2.356   5.419 -0.3025  0.1405 -0.1491
 6047SOL    HW129777   4.024   2.339   5.378 -0.4055 -1.7338  0.8156
 6047SOL    HW229778   4.086   2.400   5.500  0.9026  1.0141 -0.2867
 6048SOL     OW29779   3.575   1.625   4.321 -0.7667 -0.1152  0.4253
 6048SOL    HW129780   3.636   1.552   4.334 -0.4834  0.3639  1.8440
 6048SOL    HW229781   3.512   1.618   4.393 -1.2545  2.0420  0.2323
 6049SOL     OW29782   2.617   3.280   4.388  0.3098  0.5609 -0.0718
 6049SOL    HW129783   2.649   3.346   4.450  2.7095 -1.0446  0.3887
 6049SOL    HW229784   2.544   3.320   4.341  0.3351  0.6414 -0.0433
 6050SOL     OW29785   4.550   1.323   5.050  0.1500 -0.0163  0.2676
 6050SOL    HW129786   4.615   1.261   5.084 -0.9278 -1.7703 -0.8862
 6050SOL    HW229787   4.590   1.399   5.093 -1.7631  1.6024 -0.8305
 6051SOL     OW29788   1.073   3.476   1.674  0.2131 -0.9259 -0.2389
 6051SOL    HW129789   1.011   3.530   1.723  0.9736 -2.2403  2.1823
 6051SOL    HW229790   1.012   3.470   1.600 -0.1632  0.2130 -0.0119
 6052SOL     OW29791   2.734   2.810   3.060 -0.4786  0.0955 -0.0409
 6052SOL    HW129792   2.797   2.770   3.000  2.4825  2.5562  1.4396
 6052SOL    HW229793   2.735   2.763   3.143 -2.6100  1.6616  0.8754
 6053SOL     OW29794   3.112   2.746   9.222 -0.0216  0.7705  0.3010
 6053SOL    HW129795   3.175   2.804   9.180 -0.3785 -0.6281 -2.1719
 6053SOL    HW229796   3.057   2.740   9.144  0.5869 -0.5822 -0.0172
 6054SOL     OW29797   1.480   3.564  13.565 -0.2788 -0.0540 -0.7262
 6054SOL    HW129798   1.414   3.534  13.628  1.9509 -0.0212  1.6400
 6054SOL    HW229799   1.518   3.482  13.536  2.5755  0.5260  1.4414
 6055SOL     OW29800   1.370   3.002  17.432  0.2558 -0.2273  0.1423
 6055SOL    HW129801   1.424   2.958  17.366  0.7668  0.0616  0.3724
 6055SOL    HW229802   1.293   3.021  17.378  0.2845  1.5265  0.7160
 6056SOL     OW29803   3.673   2.652   4.292  0.1266  0.1182 -0.0305
 6056SOL    HW129804   3.605   2.711   4.261  1.2781 -0.7714 -4.2410
 6056SOL    HW229805   3.623   2.583   4.334 -1.7366  2.9302  2.3725
 6057SOL     OW29806   2.432   4.647   3.447  0.7540 -0.1120  0.4822
 6057SOL    HW129807   2.512   4.699   3.445  0.3672  0.4503 -0.8723
 6057SOL    HW229808   2.373   4.703   3.395  2.4408  0.8409 -0.4126
 6058SOL     OW29809   1.642   0.957  16.054 -0.5201 -0.1654 -0.2148
 6058SOL    HW129810   1.569   0.951  15.992 -1.0937  2.0589  0.2252
 6058SOL    HW229811   1.708   0.907  16.008  1.4089  1.3124  0.9641
 6059SOL     OW29812   1.683   1.578   7.338 -0.0331  0.8676 -0.1804
 6059SOL    HW129813   1.623   1.650   7.355  1.7437  1.7716  2.2671
 6059SOL    HW229814   1.632   1.497   7.347  0.6038  0.7228  2.1311
 6060SOL     OW29815   1.255   4.604  11.982  0.3802  0.1787 -0.1938
 6060SOL    HW129816   1.166   4.578  12.006  0.3071 -1.2195 -2.0043
 6060SOL    HW229817   1.262   4.676  12.045  0.3637 -0.1775  0.2120
 6061SOL     OW29818   3.931   0.467   2.415  0.0721  0.5259 -0.8636
 6061SOL    HW129819   3.900   0.493   2.328 -2.0840  1.3067  0.1140
 6061SOL    HW229820   3.902   0.543   2.465  3.0951  0.9475  0.2297
 6062SOL     OW29821   1.200   1.440   7.567  0.0903 -0.2577 -1.0228
 6062SOL    HW129822   1.254   1.371   7.607  0.7605  0.0908 -1.3316
 6062SOL    HW229823   1.111   1.410   7.582 -0.0452  0.9579  0.5665
 6063SOL     OW29824   4.221   0.842  14.869  0.4710  0.2822  0.1944
 6063SOL    HW129825   4.266   0.763  14.901 -0.1530 -0.3515 -0.4856
 6063SOL    HW229826   4.246   0.907  14.934 -1.4801 -0.8886  2.0776
 6064SOL     OW29827   1.094   3.276   2.744 -0.5393  0.1699  0.4227
 6064SOL    HW129828   1.143   3.350   2.710  0.1050 -0.4852 -0.0496
 6064SOL    HW229829   1.113   3.286   2.838  0.4610 -0.9200  0.3264
 6065SOL     OW29830   1.607   1.576   3.532  0.2927 -0.4120  0.1188
 6065SOL    HW129831   1.556   1.594   3.611 -1.1994  1.7430 -1.3371
 6065SOL    HW229832   1.590   1.483   3.522  0.5342 -0.5114  0.7006
 6066SOL     OW29833   1.739   2.740   4.417 -0.0212 -0.6045 -0.5122
 6066SOL    HW129834   1.793   2.667   4.386  0.6624 -0.4074  0.1910
 6066SOL    HW229835   1.792   2.815   4.390 -2.2929  0.2052 -2.6863
 6067SOL     OW29836   3.802   3.294   4.838  0.2139  0.2264 -0.8071
 6067SOL    HW129837   3.807   3.380   4.881 -0.8605 -0.3211  0.4030
 6067SOL    HW229838   3.812   3.316   4.745 -0.1378 -1.0253 -1.1370
 6068SOL     OW29839   2.618   2.058   7.642  0.9177 -0.2361  0.3452
 6068SOL    HW129840   2.613   2.044   7.736 -1.3989 -1.1096  0.0878
 6068SOL    HW229841   2.592   2.150   7.645 -2.6628 -1.2653  1.0893
 6069SOL     OW29842   2.618   0.470   4.921 -1.1938 -0.0207 -0.5090
 6069SOL    HW129843   2.711   0.479   4.898 -0.8527 -1.0337  0.5093
 6069SOL    HW229844   2.612   0.384   4.962  0.8828  0.2574  0.4124
 6070SOL     OW29845   1.849   4.403   1.852  0.2023  0.0153  0.0039
 6070SOL    HW129846   1.938   4.369   1.843  0.6859  1.2892 -0.0327
 6070SOL    HW229847   1.798   4.357   1.785 -0.7402 -0.0379  0.7494
 6071SOL     OW29848   3.733   2.532   4.913  0.6085  0.0608  0.1050
 6071SOL    HW129849   3.751   2.611   4.964 -0.3633 -0.7197  1.6953
 6071SOL    HW229850   3.667   2.490   4.968  1.3793 -1.1951  0.0711
 6072SOL     OW29851   2.997   1.349   2.425 -0.1288 -0.1190  0.7062
 6072SOL    HW129852   3.037   1.436   2.424  1.2985 -0.7784  0.4562
 6072SOL    HW229853   3.007   1.323   2.333 -1.7387 -1.1980  0.8385
 6073SOL     OW29854   4.513   0.381   5.112 -0.0650  0.2527 -0.2009
 6073SOL    HW129855   4.494   0.417   5.026  0.5117  0.4682 -0.2356
 6073SOL    HW229856   4.451   0.308   5.107 -1.1438  1.2388 -1.1267
 6074SOL     OW29857   2.101   0.566   2.939  0.1866 -0.2064 -0.0871
 6074SOL    HW129858   2.105   0.574   3.035 -1.3244  1.1378 -0.1404
 6074SOL    HW229859   2.158   0.490   2.922  0.8452  0.7194 -1.9552
 6075SOL     OW29860   2.786   4.470   6.458  0.0866 -0.0329  0.0004
 6075SOL    HW129861   2.823   4.469   6.369  1.2584 -0.4435  0.4793
 6075SOL    HW229862   2.842   4.401   6.494 -0.9571 -3.0022 -3.9579
 6076SOL     OW29863   3.459   4.675  11.428  0.1154  0.8197 -0.1910
 6076SOL    HW129864   3.519   4.637  11.364  0.1911  0.8411 -0.1330
 6076SOL    HW229865   3.522   4.678  11.499 -3.1174  1.4548  2.6777
 6077SOL     OW29866   0.894   0.599   1.976 -0.0677  0.0970 -0.6022
 6077SOL    HW129867   0.807   0.626   1.946 -0.7050  0.4379  1.5714
 6077SOL    HW229868   0.889   0.647   2.058 -1.0446 -2.6542  0.9448
 6078SOL     OW29869   2.031   4.447   4.495 -0.6101  0.3789 -0.2427
 6078SOL    HW129870   2.090   4.397   4.439 -0.3747  2.6209 -1.9893
 6078SOL    HW229871   1.993   4.378   4.549  0.9758 -0.4716 -0.2294
 6079SOL     OW29872   0.670   3.669   2.217  0.2363 -0.2015 -0.5275
 6079SOL    HW129873   0.707   3.615   2.146 -1.5148  0.9669 -2.3346
 6079SOL    HW229874   0.613   3.611   2.266 -0.3147 -1.0821 -2.1943
 6080SOL     OW29875   1.098   0.738   1.846 -0.0551 -0.1974 -0.1268
 6080SOL    HW129876   1.049   0.804   1.796  2.4465  0.9268 -1.0633
 6080SOL    HW229877   1.026   0.694   1.892 -0.9201  1.6247  0.3004
 6081SOL     OW29878   4.700   1.604   2.511 -0.9922  0.4167 -0.2841
 6081SOL    HW129879   4.690   1.633   2.602 -2.5712  1.1871 -0.7036
 6081SOL    HW229880   0.045   1.645   2.499  0.3719 -2.3753 -0.2282
 6082SOL     OW29881   2.300   4.274   6.218 -0.0251 -0.0500 -0.0164
 6082SOL    HW129882   2.319   4.356   6.264  2.3764 -0.6058 -0.0357
 6082SOL    HW229883   2.257   4.314   6.142 -4.1480 -2.6828  0.9633
 6083SOL     OW29884   3.052   3.752  16.784  0.6495  0.4922 -0.0682
 6083SOL    HW129885   2.986   3.801  16.736  0.5977  1.3601  0.8944
 6083SOL    HW229886   3.009   3.750  16.870 -1.3570 -1.7476 -1.1167
 6084SOL     OW29887   2.671   2.749   6.342 -0.3399 -0.6933  0.0955
 6084SOL    HW129888   2.673   2.770   6.249  0.4614 -0.1255  0.2332
 6084SOL    HW229889   2.746   2.796   6.379 -0.8852 -1.4499  2.1406
 6085SOL     OW29890   3.807   1.600   3.415 -0.4006 -0.6164  0.2550
 6085SOL    HW129891   3.716   1.609   3.389 -0.5460 -3.1016 -0.1235
 6085SOL    HW229892   3.809   1.641   3.501  0.3847 -0.7426  0.3011
 6086SOL     OW29893   4.160   3.888   6.980  0.2277  0.2310  0.6037
 6086SOL    HW129894   4.163   3.799   7.016  2.3518 -0.4415 -1.1828
 6086SOL    HW229895   4.158   3.874   6.885 -3.5033  1.7626  0.4621
 6087SOL     OW29896   0.697   3.141   5.083 -0.1015  0.7419  0.5107
 6087SOL    HW129897   0.677   3.170   5.172  1.3881 -0.4909  1.2428
 6087SOL    HW229898   0.619   3.090   5.062 -0.1747  0.5053  1.3523
 6088SOL     OW29899   1.421   2.639   4.127 -0.2583  0.0016 -0.3073
 6088SOL    HW129900   1.338   2.618   4.085 -1.4634 -2.1599  3.1806
 6088SOL    HW229901   1.402   2.728   4.157  1.0033 -1.1209  3.7412
 6089SOL     OW29902   1.875   4.138   6.562 -0.3420  0.0124  0.6617
 6089SOL    HW129903   1.965   4.167   6.543  0.8432 -2.8304  1.9590
 6089SOL    HW229904   1.835   4.138   6.475 -2.3807  2.8785  1.6063
 6090SOL     OW29905   0.254   0.348   0.585 -0.0434  0.4857 -0.2018
 6090SOL    HW129906   0.273   0.277   0.524  2.5183  0.4585  0.6222
 6090SOL    HW229907   0.273   0.419   0.523  0.6367  0.7018  0.2497
 6091SOL     OW29908   0.105   3.883   8.404 -0.2133 -0.7277 -0.0116
 6091SOL    HW129909   0.078   3.800   8.443 -0.4546 -1.1216 -1.0020
 6091SOL    HW229910   0.045   3.894   8.330 -0.2514  1.0676  0.2772
 6092SOL     OW29911   2.929   1.733  10.192 -0.0006  0.1135 -0.5120
 6092SOL    HW129912   2.923   1.827  10.209  1.0102 -0.0187  0.5590
 6092SOL    HW229913   2.841   1.717  10.156  0.3308  0.7882 -1.6211
 6093SOL     OW29914   1.072   4.114   9.361 -0.0215 -0.4479 -0.7225
 6093SOL    HW129915   1.153   4.144   9.320  0.5603 -0.2020  0.5890
 6093SOL    HW229916   1.096   4.127   9.453  0.2388  0.7091 -0.9614
 6094SOL     OW29917   0.649   1.929   2.622 -0.1488 -0.0594 -0.6639
 6094SOL    HW129918   0.572   1.963   2.668  0.5460  1.5163 -0.6924
 6094SOL    HW229919   0.628   1.836   2.606  2.1101 -0.8823  1.1845
 6095SOL     OW29920   1.669   1.622  11.977  0.0859  0.4017 -0.4523
 6095SOL    HW129921   1.644   1.674  11.900 -0.5796  2.0589  0.8853
 6095SOL    HW229922   1.745   1.574  11.944  0.0812  0.5260 -0.6465
 6096SOL     OW29923   3.107   3.158   8.564 -0.4351  0.2054  0.6916
 6096SOL    HW129924   3.086   3.217   8.636 -1.5511 -1.8080  2.0030
 6096SOL    HW229925   3.187   3.196   8.527 -0.8072 -0.2831 -0.6103
 6097SOL     OW29926   3.017   2.118   3.075  0.0048  0.7821 -0.3670
 6097SOL    HW129927   3.036   2.209   3.049 -0.6794  1.2781  0.8974
 6097SOL    HW229928   2.951   2.102   3.007 -0.9634  3.1566  0.0157
 6098SOL     OW29929   4.142   4.244   5.295 -0.0108  0.4271 -0.1297
 6098SOL    HW129930   4.050   4.260   5.314  0.2246 -0.7916  2.0831
 6098SOL    HW229931   4.136   4.178   5.226 -2.2068  0.2529  0.2217
 6099SOL     OW29932   2.011   1.979   5.498  0.1349 -0.5166 -0.4910
 6099SOL    HW129933   1.966   1.915   5.442  0.4826  0.7564 -2.2296
 6099SOL    HW229934   2.082   2.004   5.439 -1.4720  2.9621 -0.9326
 6100SOL     OW29935   0.916   2.055   4.424  0.2299 -0.0935 -0.4213
 6100SOL    HW129936   0.936   1.961   4.425  0.2327 -0.0984 -0.8993
 6100SOL    HW229937   0.935   2.081   4.334  0.5694  0.8123 -0.0905
 6101SOL     OW29938   0.430   3.759   1.984 -0.2770 -0.0138 -0.5701
 6101SOL    HW129939   0.433   3.793   2.074  1.7378  0.3266 -0.7732
 6101SOL    HW229940   0.343   3.719   1.983 -0.2188 -0.1312 -0.9067
 6102SOL     OW29941   2.587   0.367   1.926 -0.5365  0.7254 -0.5382
 6102SOL    HW129942   2.580   0.382   1.832  0.2388  0.0733 -0.7010
 6102SOL    HW229943   2.502   0.392   1.963 -0.9503 -0.3813 -0.7468
 6103SOL     OW29944   0.842   1.902   8.786  0.0384 -0.0378  0.2193
 6103SOL    HW129945   0.771   1.885   8.848 -0.2820  1.1523  0.1692
 6103SOL    HW229946   0.807   1.847   8.716  0.5129 -0.7561  0.5526
 6104SOL     OW29947   1.625   3.248   2.486  0.1959  0.1938 -0.0365
 6104SOL    HW129948   1.675   3.288   2.557  0.6976  3.1321 -2.0275
 6104SOL    HW229949   1.659   3.159   2.491  1.8279  0.6835 -2.2064
 6105SOL     OW29950   2.068   3.997   4.451  0.4014  0.3005 -0.3624
 6105SOL    HW129951   2.162   4.017   4.451  0.0219  2.0576  0.8128
 6105SOL    HW229952   2.043   4.022   4.362 -0.3325 -1.9574 -0.7854
 6106SOL     OW29953   3.484   2.119   7.652  0.1123  0.1800 -0.0878
 6106SOL    HW129954   3.567   2.164   7.638  1.7116 -2.4296  0.9305
 6106SOL    HW229955   3.420   2.164   7.598  0.5486 -0.2520 -0.9537
 6107SOL     OW29956   0.170   4.464   5.195  0.4412 -0.5133 -0.0526
 6107SOL    HW129957   0.130   4.520   5.262  0.5853  0.9428 -1.2004
 6107SOL    HW229958   0.111   4.388   5.192 -0.4778  0.1554  1.0191
 6108SOL     OW29959   2.897   2.147   7.000 -0.0077 -0.5251 -0.1405
 6108SOL    HW129960   2.866   2.066   6.960 -1.0274 -0.1862 -0.0513
 6108SOL    HW229961   2.985   2.118   7.022 -0.8738 -2.2658  1.0649
 6109SOL     OW29962   0.969   4.460   9.727  0.3643  0.0704  0.3893
 6109SOL    HW129963   0.932   4.479   9.813 -1.0654  0.1277 -0.2447
 6109SOL    HW229964   1.014   4.378   9.748  2.2609  1.2745  1.0232
 6110SOL     OW29965   0.291   1.364   7.410 -0.7590  0.8072 -0.3540
 6110SOL    HW129966   0.268   1.457   7.401  1.5513  1.4103  0.1343
 6110SOL    HW229967   0.245   1.325   7.336 -0.4611 -2.2300  1.0712
 6111SOL     OW29968   3.557   2.048   4.522 -0.1505  0.6297 -0.5056
 6111SOL    HW129969   3.646   2.070   4.551  0.2082  1.4887 -2.2615
 6111SOL    HW229970   3.570   2.005   4.437  0.1222 -0.8097  0.2692
 6112SOL     OW29971   1.922   2.132   5.172 -0.0252  0.0970  0.6145
 6112SOL    HW129972   1.946   2.080   5.095 -1.9569 -1.3162  0.9617
 6112SOL    HW229973   2.006   2.125   5.217  0.0978  0.9848  0.5309
 6113SOL     OW29974   2.757   0.605   0.394  0.2883  0.4297  0.2372
 6113SOL    HW129975   2.777   0.692   0.359  0.7394 -1.1431 -3.3375
 6113SOL    HW229976   2.666   0.592   0.367  0.1013 -0.9442  1.5234
 6114SOL     OW29977   1.796   1.775   7.714  0.0312  0.6620  0.0754
 6114SOL    HW129978   1.787   1.763   7.619 -0.5334 -1.6980  0.4338
 6114SOL    HW229979   1.722   1.833   7.730 -0.3062  0.3530 -0.3584
 6115SOL     OW29980   0.514   1.469   5.298  0.1637 -0.3061 -0.0137
 6115SOL    HW129981   0.574   1.477   5.224  1.3694 -2.0833  0.7883
 6115SOL    HW229982   0.486   1.378   5.290 -2.7677  0.3893  2.3263
 6116SOL     OW29983   2.049   2.684   7.947 -0.2930 -0.8957  0.6158
 6116SOL    HW129984   2.031   2.597   7.982  1.8377 -2.2155 -1.5778
 6116SOL    HW229985   2.066   2.662   7.856 -0.0705 -0.2248  0.4944
 6117SOL     OW29986   4.187   4.109  17.236  0.2574  0.2251  0.2580
 6117SOL    HW129987   4.125   4.157  17.291 -0.8051  0.1351 -0.8823
 6117SOL    HW229988   4.183   4.144  17.147 -1.5197 -1.4194 -0.2894
 6118SOL     OW29989   3.974   0.670   3.333 -0.0645  0.0187 -0.2993
 6118SOL    HW129990   4.019   0.586   3.343  0.7273  0.4838  0.0139
 6118SOL    HW229991   4.016   0.700   3.253  0.4870  3.6719  1.3281
 6119SOL     OW29992   0.082   3.712   1.055 -0.0373 -0.2050 -0.3812
 6119SOL    HW129993   0.045   3.646   0.996 -0.1870  0.8116 -1.4395
 6119SOL    HW229994   0.132   3.662   1.119  1.1463  0.8811 -0.4442
 6120SOL     OW29995   4.558   3.058   8.740  0.6262  0.2738  0.1915
 6120SOL    HW129996   4.584   3.003   8.666  0.2064 -0.4634  0.5882
 6120SOL    HW229997   4.479   3.008   8.762 -0.7031  1.5362 -1.7738
 6121SOL     OW29998   0.790   3.028   2.857  0.0063 -0.2191  0.1051
 6121SOL    HW129999   0.833   3.059   2.936 -1.6530  3.4830 -0.4503
 6121SOL    HW230000   0.842   2.963   2.811 -0.0628 -0.7539  0.7821
 6122SOL     OW30001   0.145   1.983  14.333  0.4893  0.4926 -0.1235
 6122SOL    HW130002   0.232   2.000  14.368  0.6362 -1.3007  0.3871
 6122SOL    HW230003   0.098   1.967  14.415  0.4503 -0.7565 -0.3863
 6123SOL     OW30004   0.448   1.945   4.462 -0.3409  0.6056 -0.2425
 6123SOL    HW130005   0.388   1.986   4.399 -0.6008 -1.1558 -1.1227
 6123SOL    HW230006   0.512   2.016   4.461  0.9546 -0.5407  1.8787
 6124SOL     OW30007   4.626   1.659   7.956 -0.0853 -0.6199 -0.2542
 6124SOL    HW130008   4.552   1.716   7.938  1.0614  0.7504 -0.6225
 6124SOL    HW230009   4.622   1.591   7.888 -0.4072  1.7989 -2.6480
 6125SOL     OW30010   4.292   3.025   4.203 -0.1201 -0.2178  0.2030
 6125SOL    HW130011   4.221   3.069   4.249 -1.4042 -0.8166 -1.2168
 6125SOL    HW230012   4.362   3.045   4.266  1.6454  0.0548 -1.8604
 6126SOL     OW30013   2.603   1.804   9.367  0.1473 -0.3508  0.0323
 6126SOL    HW130014   2.686   1.812   9.320  1.0249 -0.8473  1.5044
 6126SOL    HW230015   2.535   1.815   9.300 -0.1374  0.6952  0.4963
 6127SOL     OW30016   0.349   2.295   5.422 -0.0584  0.0455 -0.4274
 6127SOL    HW130017   0.271   2.250   5.390  1.0911 -2.0798 -0.2131
 6127SOL    HW230018   0.407   2.271   5.350  1.3814  1.5845  0.2024
 6128SOL     OW30019   3.880   2.886  17.588 -0.3619  0.1870  0.1605
 6128SOL    HW130020   3.837   2.845  17.663 -1.7768  0.5935 -0.4157
 6128SOL    HW230021   3.882   2.979  17.610 -1.2851 -0.1324  1.6084
 6129SOL     OW30022   1.023   3.851  16.255 -0.1123  0.4979 -0.4794
 6129SOL    HW130023   1.006   3.938  16.291  0.3168  1.4086 -2.4868
 6129SOL    HW230024   1.015   3.871  16.162  0.2618  1.7344 -0.2445
 6130SOL     OW30025   0.744   3.755   6.364  0.3480 -0.1946 -0.6789
 6130SOL    HW130026   0.816   3.794   6.314  0.6995 -2.2680 -1.8395
 6130SOL    HW230027   0.787   3.693   6.422 -2.3092  0.0444  1.5402
 6131SOL     OW30028   0.581   2.532   3.411  0.0901  0.5263 -0.4203
 6131SOL    HW130029   0.580   2.533   3.316  3.2891 -1.3526 -0.4558
 6131SOL    HW230030   0.492   2.540   3.447 -0.7098  1.6675 -2.6936
 6132SOL     OW30031   3.760   3.536  11.651  0.1055  0.4808  0.5139
 6132SOL    HW130032   3.836   3.487  11.622 -1.0950 -0.8894 -0.3354
 6132SOL    HW230033   3.795   3.623  11.631 -2.5254  1.6481  0.9374
 6133SOL     OW30034   2.970   2.485   5.187 -1.0462 -0.0827  0.4520
 6133SOL    HW130035   3.016   2.487   5.271  0.4591  0.7163 -0.3978
 6133SOL    HW230036   2.914   2.563   5.196 -0.5767  0.4973 -1.5454
 6134SOL     OW30037   0.015   1.016  17.149  0.2215 -0.0195 -0.0051
 6134SOL    HW130038   0.011   1.067  17.230  1.7164  1.1361 -0.6630
 6134SOL    HW230039   0.043   1.082  17.086  0.6147  0.4731  0.6859
 6135SOL     OW30040   3.607   3.645   4.199  0.3899  0.2831  0.3368
 6135SOL    HW130041   3.679   3.640   4.262  1.0583  1.0915 -0.3796
 6135SOL    HW230042   3.626   3.572   4.140 -2.0919 -1.7700  2.0299
 6136SOL     OW30043   1.649   3.256   5.406  0.2231 -0.4855  0.3928
 6136SOL    HW130044   1.620   3.275   5.317 -0.1645 -0.8950  0.4285
 6136SOL    HW230045   1.675   3.164   5.403 -1.6212 -0.8928 -2.6876
 6137SOL     OW30046   1.663   1.728   2.844  0.4494 -0.0318  0.3141
 6137SOL    HW130047   1.602   1.721   2.919  0.6190 -0.5677  0.4068
 6137SOL    HW230048   1.658   1.649   2.790  0.7691 -1.7666  2.7767
 6138SOL     OW30049   3.514   3.447  10.640 -0.1510  0.3141 -0.3149
 6138SOL    HW130050   3.567   3.460  10.719 -1.4174 -0.2051  0.6227
 6138SOL    HW230051   3.428   3.418  10.669  0.1339  0.9995  1.2005
 6139SOL     OW30052   3.709   2.000   5.769 -0.2037  0.0299 -0.2507
 6139SOL    HW130053   3.759   1.938   5.717 -0.1407 -0.3270  0.2301
 6139SOL    HW230054   3.747   1.985   5.856 -0.9853 -1.1032 -0.1026
 6140SOL     OW30055   4.064   1.050  13.127 -0.2574  0.0569 -0.6492
 6140SOL    HW130056   3.985   1.043  13.180 -0.1789  1.4589 -0.3625
 6140SOL    HW230057   4.046   0.997  13.049 -1.4479  0.5207 -0.6857
 6141SOL     OW30058   3.002   0.040   4.126 -0.1070 -0.5173 -0.2577
 6141SOL    HW130059   3.068   0.056   4.059 -1.6272  3.4727 -0.7870
 6141SOL    HW230060   2.969   0.129   4.138 -0.0921 -0.5114 -0.2601
 6142SOL     OW30061   0.751   0.266  17.560 -0.0195 -0.2766 -0.4526
 6142SOL    HW130062   0.743   0.172  17.576  0.1211 -0.3126 -0.5976
 6142SOL    HW230063   0.675   0.293  17.612 -0.9654 -1.1912 -1.3465
 6143SOL     OW30064   1.120   4.431   5.287 -0.4926  0.0913 -0.2572
 6143SOL    HW130065   1.196   4.375   5.270  0.8931  1.6549  0.8860
 6143SOL    HW230066   1.110   4.407   5.379 -1.4814  0.7617 -0.1977
 6144SOL     OW30067   1.161   0.651  14.786  0.6594  0.6772 -0.0699
 6144SOL    HW130068   1.156   0.632  14.880  1.6935 -0.2599 -0.2144
 6144SOL    HW230069   1.128   0.741  14.783  1.5424  1.0555  1.3452
 6145SOL     OW30070   4.580   1.729   4.334  0.0126 -0.7192 -0.5030
 6145SOL    HW130071   4.587   1.715   4.428 -1.6079  0.8166 -0.1666
 6145SOL    HW230072   4.672   1.753   4.326  0.4700 -1.8805  1.3391
 6146SOL     OW30073   4.212   1.715   6.277  0.3365  0.5106  0.0694
 6146SOL    HW130074   4.268   1.643   6.307 -0.3035 -0.5862 -1.3862
 6146SOL    HW230075   4.271   1.791   6.281 -0.9398  1.4988  0.3891
 6147SOL     OW30076   3.700   0.232  14.378  0.4186 -0.1149  0.3114
 6147SOL    HW130077   3.675   0.315  14.419 -0.1948  0.0992 -0.4969
 6147SOL    HW230078   3.774   0.258  14.323 -0.1895 -1.3847 -1.0999
 6148SOL     OW30079   2.973   2.714   2.774 -0.5563  0.1073 -0.9165
 6148SOL    HW130080   3.028   2.679   2.844 -2.4613  1.3399  1.1716
 6148SOL    HW230081   3.043   2.765   2.732  2.8271 -3.8440 -0.0133
 6149SOL     OW30082   3.820   0.165   8.714 -0.3495  0.1185  0.1075
 6149SOL    HW130083   3.759   0.116   8.658 -0.3984  0.2433  0.0523
 6149SOL    HW230084   3.782   0.253   8.713  0.5826  0.5276  0.6426
 6150SOL     OW30085   2.692   3.989   2.237  0.2707 -0.1916  0.4978
 6150SOL    HW130086   2.679   3.894   2.234 -2.2719  0.1519  0.3644
 6150SOL    HW230087   2.606   4.020   2.208  0.4127  0.0429  0.3336
 6151SOL     OW30088   2.610   2.557   5.533 -0.1655  0.1895 -0.1445
 6151SOL    HW130089   2.661   2.634   5.507  2.4500 -1.0768  1.2273
 6151SOL    HW230090   2.528   2.601   5.557 -1.6856 -2.0944 -1.1271
 6152SOL     OW30091   3.898   2.718  11.221  0.1699 -0.5144 -0.1681
 6152SOL    HW130092   3.902   2.812  11.233  0.6281 -0.4003 -1.1451
 6152SOL    HW230093   3.904   2.714  11.125  0.3505 -3.0507 -0.0586
 6153SOL     OW30094   3.604   1.667   8.338 -0.0292 -0.0515 -0.0032
 6153SOL    HW130095   3.573   1.578   8.325  0.2193 -0.2128  0.4983
 6153SOL    HW230096   3.586   1.709   8.254  2.9634  1.0455 -0.1243
 6154SOL     OW30097   0.848   1.581   1.275 -0.1620 -0.0804 -0.0375
 6154SOL    HW130098   0.793   1.626   1.211  1.4968  0.4082 -1.1327
 6154SOL    HW230099   0.866   1.649   1.341 -0.0494 -0.2699  0.1263
 6155SOL     OW30100   0.215   1.564   4.665  0.8791  0.2885 -0.1276
 6155SOL    HW130101   0.262   1.595   4.587 -1.2431 -2.3786 -2.4910
 6155SOL    HW230102   0.216   1.646   4.714 -1.7611 -0.0845  0.5437
 6156SOL     OW30103   0.788   3.760   4.041 -0.1052 -0.1710  0.2331
 6156SOL    HW130104   0.779   3.855   4.044  0.6022 -0.1122  0.3488
 6156SOL    HW230105   0.882   3.756   4.056 -0.1274  1.2084  0.7039
 6157SOL     OW30106   1.103   4.387   6.030  0.4136 -0.1212 -0.0553
 6157SOL    HW130107   1.134   4.297   6.032 -0.4539 -0.5078 -3.5424
 6157SOL    HW230108   1.182   4.438   6.044  1.2513 -1.7030  0.9602
 6158SOL     OW30109   2.099   0.999  10.422 -0.2679  0.3407 -0.0099
 6158SOL    HW130110   2.177   0.965  10.379  0.6119  0.6492  1.3644
 6158SOL    HW230111   2.041   0.923  10.429 -0.0796  0.2665  0.7713
 6159SOL     OW30112   1.543   1.925   7.804 -0.2108 -0.2250 -0.0215
 6159SOL    HW130113   1.515   2.005   7.850  1.0235  0.6147 -0.7391
 6159SOL    HW230114   1.554   1.868   7.880  1.7887  1.2380  0.7835
 6160SOL     OW30115   4.117   2.671   9.507 -0.8664 -0.8288 -0.1832
 6160SOL    HW130116   4.134   2.592   9.558 -0.8320 -0.3099  0.6125
 6160SOL    HW230117   4.032   2.651   9.468 -2.2472 -2.7994  3.7387
 6161SOL     OW30118   1.170   3.309  10.712 -0.6725 -0.3536 -0.3069
 6161SOL    HW130119   1.136   3.393  10.680 -0.3114 -0.4873 -1.0364
 6161SOL    HW230120   1.192   3.257  10.634  0.4680  0.5266 -0.5659
 6162SOL     OW30121   2.533   0.982   6.701 -1.0161 -0.2587  0.3464
 6162SOL    HW130122   2.453   1.031   6.681  0.3710  2.2536  1.0739
 6162SOL    HW230123   2.557   0.948   6.615 -0.3331  1.4554 -0.1413
 6163SOL     OW30124   1.238   4.586   8.024  0.0023 -0.3437 -0.4231
 6163SOL    HW130125   1.241   4.607   7.930 -1.6328 -0.2151 -0.4478
 6163SOL    HW230126   1.190   4.504   8.011 -2.1392  0.6868  0.9451
 6164SOL     OW30127   0.466   4.476   3.590  0.3916 -0.4102 -0.5703
 6164SOL    HW130128   0.490   4.450   3.679 -2.3834  0.6925  0.4974
 6164SOL    HW230129   0.386   4.519   3.620  1.2817  2.5651 -2.4814
 6165SOL     OW30130   3.347   0.647   6.420 -0.0315  0.3326  0.3381
 6165SOL    HW130131   3.272   0.655   6.363  1.9472  1.3935 -2.1045
 6165SOL    HW230132   3.396   0.729   6.418  1.0195 -0.2963 -0.0158
 6166SOL     OW30133   1.710   2.402   4.605  0.4322  0.2629 -0.1286
 6166SOL    HW130134   1.753   2.339   4.663  2.3411 -0.1202 -1.9682
 6166SOL    HW230135   1.727   2.489   4.641 -1.1751  0.5323  0.0041
 6167SOL     OW30136   3.713   3.518  16.084  0.0093  0.3327  0.0313
 6167SOL    HW130137   3.765   3.556  16.014 -0.8612 -0.6706 -1.1800
 6167SOL    HW230138   3.660   3.595  16.103  1.0484  1.3824 -1.4151
 6168SOL     OW30139   2.429   1.839  14.173  0.1866  0.1959 -0.5433
 6168SOL    HW130140   2.500   1.846  14.109  0.5754 -0.8234 -0.2303
 6168SOL    HW230141   2.476   1.840  14.257  0.3183  1.8755 -0.6312
 6169SOL     OW30142   1.424   2.797  12.749 -0.1089  0.1642 -0.3416
 6169SOL    HW130143   1.446   2.725  12.690 -0.6040 -0.1010 -0.2102
 6169SOL    HW230144   1.344   2.829  12.708  0.1030  2.1275  0.8080
 6170SOL     OW30145   2.339   3.366   4.657  0.1756 -0.5007  0.0226
 6170SOL    HW130146   2.416   3.389   4.605 -0.1653 -1.6514 -0.9609
 6170SOL    HW230147   2.363   3.408   4.740  0.7675  0.0423 -0.4199
 6171SOL     OW30148   0.987   4.704   5.784  0.1971 -0.4439 -0.8210
 6171SOL    HW130149   0.913   4.646   5.770 -2.0578  1.8588  1.6646
 6171SOL    HW230150   0.944   0.049   5.781 -0.7751 -0.9443 -0.9805
 6172SOL     OW30151   1.547   1.693  13.257  0.0088  0.0927 -0.0682
 6172SOL    HW130152   1.586   1.766  13.305  0.4790  0.8769 -1.6233
 6172SOL    HW230153   1.456   1.720  13.248 -0.5122 -1.5685  0.3650
 6173SOL     OW30154   0.060   0.478   9.398 -0.0166 -0.0388  0.1903
 6173SOL    HW130155   0.144   0.512   9.369  0.4282 -1.9790 -0.8075
 6173SOL    HW230156   0.066   0.393   9.354  1.1578  0.3699 -0.4355
 6174SOL     OW30157   3.649   0.765   5.786  0.0889  0.4844 -0.2311
 6174SOL    HW130158   3.679   0.676   5.767 -0.9595  0.3141 -1.0822
 6174SOL    HW230159   3.656   0.788   5.693  0.9294 -0.5355 -0.4238
 6175SOL     OW30160   4.415   4.194  11.062 -0.3563  0.3049 -0.0499
 6175SOL    HW130161   4.322   4.173  11.067 -0.0573 -0.4618  2.2873
 6175SOL    HW230162   4.440   4.174  11.152 -2.7070 -0.5006  0.4213
 6176SOL     OW30163   1.293   4.652   8.478 -0.1693 -0.2032 -0.3681
 6176SOL    HW130164   1.297   4.725   8.540  3.7894 -1.4138  0.8084
 6176SOL    HW230165   1.386   4.649   8.455  0.3974  1.5502  1.6212
 6177SOL     OW30166   1.937   3.166   6.139 -0.5191 -0.2724 -0.3499
 6177SOL    HW130167   2.022   3.126   6.154 -0.3398  0.8660  1.5138
 6177SOL    HW230168   1.891   3.084   6.118 -1.8217  0.6345 -1.0805
 6178SOL     OW30169   2.639   3.463   8.430  0.3975 -0.1795 -0.0678
 6178SOL    HW130170   2.725   3.426   8.447  0.3539  0.1265  0.8269
 6178SOL    HW230171   2.597   3.465   8.517  4.1980  1.0599  1.7293
 6179SOL     OW30172   4.558   4.447   2.329  0.4806 -0.6187  0.5025
 6179SOL    HW130173   4.483   4.495   2.365  1.6097  2.7637 -1.6485
 6179SOL    HW230174   4.518   4.381   2.272 -2.7494  0.4972  1.4738
 6180SOL     OW30175   3.172   1.358  11.497  0.0800  0.1201  0.0363
 6180SOL    HW130176   3.190   1.448  11.524 -0.3212  0.1586  0.1682
 6180SOL    HW230177   3.109   1.364  11.425  1.2003 -0.6870 -1.0215
 6181SOL     OW30178   2.884   3.382   5.665  0.3733 -0.3720 -0.2168
 6181SOL    HW130179   2.931   3.460   5.636  0.6625  0.4339  2.4379
 6181SOL    HW230180   2.797   3.404   5.630  0.4012 -1.8823 -1.2356
 6182SOL     OW30181   1.969   3.762   8.094  0.0467  0.1638  0.2547
 6182SOL    HW130182   1.878   3.779   8.073  0.6894  2.2944 -0.7261
 6182SOL    HW230183   1.977   3.673   8.059 -2.1707 -0.8062  2.2000
 6183SOL     OW30184   3.966   0.638  11.095 -0.7117 -0.1113  0.3776
 6183SOL    HW130185   3.884   0.629  11.144 -0.8381 -1.1425 -0.0343
 6183SOL    HW230186   3.935   0.680  11.015  2.0646  1.7082  0.2893
 6184SOL     OW30187   2.009   3.582   8.379 -0.4001  0.2626  0.0448
 6184SOL    HW130188   1.999   3.496   8.340 -1.5084  0.3512  0.1243
 6184SOL    HW230189   1.957   3.579   8.459 -0.5331 -3.0896 -0.1909
 6185SOL     OW30190   0.070   1.727  12.331 -0.5051 -0.2573 -0.5435
 6185SOL    HW130191   0.131   1.763  12.266  0.5584  0.0306  0.6033
 6185SOL    HW230192   0.109   1.642  12.352 -1.0459 -0.4607 -0.3754
 6186SOL     OW30193   1.257   2.024   8.056  0.0265  0.5803  0.7226
 6186SOL    HW130194   1.226   1.946   8.010  1.9503  0.4729 -0.3823
 6186SOL    HW230195   1.174   2.063   8.082 -1.0681 -1.3882  0.2164
 6187SOL     OW30196   3.364   2.503  10.248  0.0233 -0.7232 -0.8757
 6187SOL    HW130197   3.434   2.440  10.265  2.1348  1.5085 -1.1345
 6187SOL    HW230198   3.380   2.533  10.159  0.9243  1.0115 -0.1373
 6188SOL     OW30199   4.728   0.208  17.280 -0.7525  0.0284  0.2492
 6188SOL    HW130200   4.732   0.302  17.300  1.2635 -0.1566  0.7906
 6188SOL    HW230201   4.646   0.178  17.319  0.4075 -1.3236  1.6470
 6189SOL     OW30202   2.653   1.533   1.729 -0.3108  0.4798 -0.4453
 6189SOL    HW130203   2.620   1.601   1.788 -0.4329  0.8258 -0.9091
 6189SOL    HW230204   2.704   1.593   1.675  0.3833  0.9278  0.6988
 6190SOL     OW30205   1.640   2.519   2.443 -0.0522 -0.1523 -0.7381
 6190SOL    HW130206   1.591   2.457   2.388  0.1840  0.8482 -2.0661
 6190SOL    HW230207   1.706   2.467   2.489  0.2103 -0.1419 -1.1111
 6191SOL     OW30208   1.875   4.291  14.649 -0.2563  0.2477 -0.3249
 6191SOL    HW130209   1.963   4.325  14.634 -0.6316  0.9993 -0.8060
 6191SOL    HW230210   1.861   4.322  14.738  0.4060  0.5186 -0.3188
 6192SOL     OW30211   0.795   3.294   9.333  0.2822 -0.6380  0.2162
 6192SOL    HW130212   0.854   3.302   9.258 -1.1338  2.2858 -0.5948
 6192SOL    HW230213   0.773   3.201   9.323 -1.4434 -0.0854 -1.2351
 6193SOL     OW30214   1.503   1.341   7.388 -0.1934 -0.6717  0.0955
 6193SOL    HW130215   1.456   1.421   7.412 -0.6294 -0.5397 -1.1807
 6193SOL    HW230216   1.429   1.282   7.376 -1.4270  0.9878 -0.5636
 6194SOL     OW30217   1.828   2.941   6.053 -0.1731 -0.2845 -0.1589
 6194SOL    HW130218   1.734   2.949   6.035  0.0923  0.6256 -1.1484
 6194SOL    HW230219   1.857   2.872   5.994  0.5707  0.4032 -0.6000
 6195SOL     OW30220   0.579   3.742   3.121 -0.1260 -0.3584  0.6383
 6195SOL    HW130221   0.646   3.800   3.158 -0.2209 -0.8382  1.5549
 6195SOL    HW230222   0.510   3.808   3.109 -0.4441 -0.5023  1.6955
 6196SOL     OW30223   1.556   0.869   5.672 -0.3101 -0.2603  0.2464
 6196SOL    HW130224   1.484   0.928   5.692 -0.5125 -0.7356  0.9547
 6196SOL    HW230225   1.613   0.924   5.619 -0.2349  0.9601  1.5779
 6197SOL     OW30226   1.886   0.265   8.704  0.3569  0.0578 -0.4858
 6197SOL    HW130227   1.843   0.225   8.779 -0.7060  1.2806 -0.4465
 6197SOL    HW230228   1.942   0.192   8.676  2.4867 -0.0280  3.9378
 6198SOL     OW30229   2.876   0.086   7.058  0.3918 -0.0177 -0.1346
 6198SOL    HW130230   2.955   0.038   7.034 -0.0954 -1.0833  0.3785
 6198SOL    HW230231   2.853   0.110   6.968  1.6816 -1.2392 -0.7832
 6199SOL     OW30232   1.775   4.073   8.177 -0.1558 -0.0185  0.0841
 6199SOL    HW130233   1.744   4.028   8.256 -1.9279  0.8969 -0.0913
 6199SOL    HW230234   1.707   4.141   8.174 -1.2536 -1.0167  1.9835
 6200SOL     OW30235   2.637   0.959   4.779 -0.2323  0.1126 -0.4219
 6200SOL    HW130236   2.715   1.001   4.742  0.0590 -0.1776 -0.1414
 6200SOL    HW230237   2.601   1.036   4.822 -0.9138 -0.4138 -0.0490
 6201SOL     OW30238   2.006   1.309  17.030  0.0751  0.1973 -0.0412
 6201SOL    HW130239   1.996   1.363  17.109 -0.9868 -0.6851  0.4357
 6201SOL    HW230240   1.937   1.333  16.968  2.1229  2.2701 -1.4893
 6202SOL     OW30241   1.073   1.377   4.285 -0.1291 -0.0455  0.6878
 6202SOL    HW130242   1.094   1.421   4.367  0.3928 -0.7023  0.9030
 6202SOL    HW230243   1.012   1.308   4.311 -1.0114  0.1106 -0.9672
 6203SOL     OW30244   3.422   3.479  13.588 -0.2958 -0.1764  0.0882
 6203SOL    HW130245   3.417   3.503  13.495  1.1497  2.1897  0.6296
 6203SOL    HW230246   3.389   3.390  13.585  1.5261 -0.7956 -1.6802
 6204SOL     OW30247   0.962   2.943   0.485  0.1694  0.5234 -0.0643
 6204SOL    HW130248   0.892   2.956   0.549 -1.4878 -1.7560 -1.4365
 6204SOL    HW230249   0.920   2.907   0.408 -0.4636 -0.3914  0.7189
 6205SOL     OW30250   1.339   2.201   6.159  0.2618  0.1076  0.2641
 6205SOL    HW130251   1.250   2.185   6.129 -0.0884  2.4083  0.1038
 6205SOL    HW230252   1.330   2.260   6.234 -0.5056 -1.3140  1.2940
 6206SOL     OW30253   2.390   1.599   8.419 -1.0847 -0.1886  0.4335
 6206SOL    HW130254   2.362   1.510   8.441  0.1134 -1.6513 -4.0018
 6206SOL    HW230255   2.481   1.579   8.395 -1.0666  3.2879 -2.3759
 6207SOL     OW30256   1.223   3.765   4.535  0.2228 -0.2351 -0.3543
 6207SOL    HW130257   1.239   3.823   4.460  1.0866  0.6498  0.5211
 6207SOL    HW230258   1.226   3.822   4.611  2.4207  1.1163 -1.4596
 6208SOL     OW30259   4.497   0.680   9.153 -0.3144 -0.1336 -0.3149
 6208SOL    HW130260   4.481   0.587   9.171  1.1704  0.1807  2.4955
 6208SOL    HW230261   4.555   0.714   9.220  2.7040 -2.8078 -1.5740
 6209SOL     OW30262   1.613   3.352   8.889 -0.6068  0.3899  0.0533
 6209SOL    HW130263   1.688   3.302   8.922  0.6717  0.0893 -3.2830
 6209SOL    HW230264   1.579   3.304   8.813  0.1110  0.4087 -0.2817
 6210SOL     OW30265   3.405   0.791   7.908 -0.1396  0.0880 -0.4687
 6210SOL    HW130266   3.420   0.878   7.945  0.7917  0.3448 -1.4526
 6210SOL    HW230267   3.357   0.754   7.983 -3.4295  0.1909 -2.5292
 6211SOL     OW30268   0.274   0.995  12.473 -0.3396 -0.3285 -0.3995
 6211SOL    HW130269   0.206   0.938  12.509 -0.4675  1.2943  1.8792
 6211SOL    HW230270   0.359   0.953  12.488 -0.3786 -0.5651 -0.8459
 6212SOL     OW30271   2.773   0.427   9.344 -0.2869 -0.5631  0.0447
 6212SOL    HW130272   2.721   0.377   9.406 -1.8647  1.7479  0.5946
 6212SOL    HW230273   2.856   0.422   9.390 -0.4012 -0.3254  0.2731
 6213SOL     OW30274   3.477   3.885   8.301  0.3579 -0.6633  0.0536
 6213SOL    HW130275   3.544   3.940   8.343  0.3302 -0.8714  0.3735
 6213SOL    HW230276   3.417   3.956   8.277  2.0886  0.6882 -0.3275
 6214SOL     OW30277   1.506   3.486   8.005 -0.6720  0.5364  0.7660
 6214SOL    HW130278   1.572   3.448   8.063 -0.9323  1.5373  1.7082
 6214SOL    HW230279   1.566   3.525   7.940 -0.9518  0.1190  0.2561
 6215SOL     OW30280   1.193   1.135   4.128 -0.1522  0.4718 -0.0756
 6215SOL    HW130281   1.150   1.067   4.180  0.3686 -0.1744 -0.4869
 6215SOL    HW230282   1.128   1.203   4.145  1.9325  2.3842  0.1822
 6216SOL     OW30283   3.623   1.159   2.633  0.6158  0.2686  0.4245
 6216SOL    HW130284   3.532   1.140   2.612  0.5083  0.0172  1.1200
 6216SOL    HW230285   3.608   1.214   2.710  0.9151 -0.0367  0.7030
 6217SOL     OW30286   0.795   2.358   6.943 -0.3538 -0.3384  0.0478
 6217SOL    HW130287   0.800   2.416   7.019 -2.0120  2.3282 -1.8761
 6217SOL    HW230288   0.702   2.370   6.923 -1.0650 -1.6417  2.5054
 6218SOL     OW30289   0.601   1.905   6.302  0.1424 -0.3435 -0.1895
 6218SOL    HW130290   0.541   1.878   6.232 -0.3591 -2.0480  0.9025
 6218SOL    HW230291   0.551   1.962   6.361  2.8169  0.5935  1.1702
 6219SOL     OW30292   4.391   2.153   6.930  0.5357  0.4384  0.0437
 6219SOL    HW130293   4.418   2.153   7.022 -4.3738  1.8313  1.4926
 6219SOL    HW230294   4.297   2.170   6.936  0.4473  0.0555 -0.2458
 6220SOL     OW30295   3.481   3.994   6.298  0.2707  0.3415 -0.9529
 6220SOL    HW130296   3.399   4.028   6.335  1.1126  0.9072  0.3892
 6220SOL    HW230297   3.461   3.912   6.254  0.1816 -0.5819  0.7950
 6221SOL     OW30298   1.459   1.080   3.358  0.1259  0.0194 -0.1953
 6221SOL    HW130299   1.399   1.059   3.286 -1.3721  0.8782  0.7838
 6221SOL    HW230300   1.459   1.003   3.414 -0.5966 -0.1300 -0.4009
 6222SOL     OW30301   3.809   4.196   6.354 -0.3355 -0.1784  0.3439
 6222SOL    HW130302   3.797   4.179   6.260 -0.7190  0.8432  0.2148
 6222SOL    HW230303   3.744   4.265   6.365  1.6335  1.6752  0.4218
 6223SOL     OW30304   0.655   4.679  14.575  0.1612  0.0651 -0.3124
 6223SOL    HW130305   0.564   4.649  14.581  0.8940 -1.9669  0.7526
 6223SOL    HW230306   0.688   4.609  14.519  0.3566 -0.6837  0.7342
 6224SOL     OW30307   0.134   3.903   6.903  0.5147 -0.0079 -0.0791
 6224SOL    HW130308   0.103   3.851   6.829 -3.6013  1.3497  0.7399
 6224SOL    HW230309   0.058   3.953   6.932 -0.7566 -1.5967 -0.6647
 6225SOL     OW30310   0.740   1.126   7.560  0.0813  0.4056 -0.0866
 6225SOL    HW130311   0.758   1.052   7.617  0.1463  1.5088  1.3456
 6225SOL    HW230312   0.766   1.096   7.474  0.2475  1.6384 -0.4749
 6226SOL     OW30313   4.178   0.491   5.504 -0.1275  0.0172 -0.5539
 6226SOL    HW130314   4.241   0.420   5.512 -0.4423 -0.1314  0.5580
 6226SOL    HW230315   4.222   0.567   5.542 -1.0157  0.2297  0.0678
 6227SOL     OW30316   0.114   0.978   8.241 -0.2408  0.1475 -0.1843
 6227SOL    HW130317   0.131   0.884   8.250 -1.3845  0.1777  2.3138
 6227SOL    HW230318   0.149   1.017   8.320  0.4866  2.0231 -1.4223
 6228SOL     OW30319   2.759   0.540   5.160 -0.0770  0.4024  0.5614
 6228SOL    HW130320   2.688   0.519   5.221  0.3864  0.3744  1.0891
 6228SOL    HW230321   2.710   0.589   5.095 -0.9158 -1.1632 -0.0050
 6229SOL     OW30322   4.215   1.716   1.822  0.4394 -0.1707  0.1631
 6229SOL    HW130323   4.143   1.697   1.882  1.5275  1.2353  1.9227
 6229SOL    HW230324   4.219   1.811   1.833 -0.9130 -0.1742  0.7074
 6230SOL     OW30325   4.667   0.820   6.060 -0.1640  0.0118 -0.6317
 6230SOL    HW130326   4.669   0.746   6.000 -2.5673 -0.9848  0.5206
 6230SOL    HW230327   0.020   0.833   6.077 -0.5250  2.0922 -0.2541
 6231SOL     OW30328   0.995   3.636   5.278  0.1284  0.5479  0.3156
 6231SOL    HW130329   1.014   3.700   5.346  1.6155  0.2740  0.1462
 6231SOL    HW230330   0.901   3.650   5.267 -0.1242 -1.3000  0.0691
 6232SOL     OW30331   2.055   0.626   7.272  0.1203  0.0080 -0.5282
 6232SOL    HW130332   2.027   0.538   7.298  0.2199 -0.0779 -0.7135
 6232SOL    HW230333   1.990   0.653   7.208  1.2733 -0.6365 -1.9544
 6233SOL     OW30334   2.189   0.938  11.627 -0.4670  0.4160 -0.4332
 6233SOL    HW130335   2.277   0.905  11.607  0.8909  4.4954 -1.4109
 6233SOL    HW230336   2.174   0.881  11.702  1.0982  0.7032  0.1031
 6234SOL     OW30337   2.426   3.286   2.499  0.1106  0.0776  0.2135
 6234SOL    HW130338   2.422   3.239   2.582  1.0626 -1.8682 -0.8504
 6234SOL    HW230339   2.417   3.376   2.530  1.3280  0.6920 -1.1992
 6235SOL     OW30340   1.363   3.597   0.631 -0.1270 -0.1511 -0.5622
 6235SOL    HW130341   1.366   3.619   0.538  1.1348 -0.5607 -0.6152
 6235SOL    HW230342   1.414   3.516   0.627 -1.1179 -0.8246  0.4305
 6236SOL     OW30343   1.725   2.360   2.919  1.0301  0.6240 -0.5512
 6236SOL    HW130344   1.716   2.284   2.862  1.2333  1.1923 -1.3345
 6236SOL    HW230345   1.782   2.319   2.985 -0.6262 -0.6538  0.0737
 6237SOL     OW30346   4.537   2.506   6.030  0.4346 -0.3098  0.0970
 6237SOL    HW130347   4.571   2.427   6.072 -0.3955 -0.0067  1.3335
 6237SOL    HW230348   4.610   2.550   5.987  0.2939 -0.8213 -0.6628
 6238SOL     OW30349   3.384   2.663   5.970 -0.0107  0.4822  0.4224
 6238SOL    HW130350   3.302   2.628   6.005 -0.8072  0.7252 -1.2001
 6238SOL    HW230351   3.451   2.625   6.026 -0.4410 -1.7005 -0.5667
 6239SOL     OW30352   1.176   2.514   1.501 -0.5976 -0.5803 -0.0921
 6239SOL    HW130353   1.126   2.541   1.424 -0.3276  0.9449  0.2582
 6239SOL    HW230354   1.101   2.479   1.549 -1.8811 -0.2210 -1.7950
 6240SOL     OW30355   3.473   0.952   9.092 -0.2207 -0.3507  0.7763
 6240SOL    HW130356   3.496   1.037   9.054 -2.3401  0.1729  0.6627
 6240SOL    HW230357   3.497   0.966   9.183  1.4455  3.0820 -0.1989
 6241SOL     OW30358   0.648   3.487   6.284 -0.0847 -0.0385  0.4157
 6241SOL    HW130359   0.657   3.582   6.291  1.0009 -0.0223 -1.2319
 6241SOL    HW230360   0.633   3.480   6.189 -0.6639  1.1578  0.4204
 6242SOL     OW30361   3.889   2.968   8.925 -0.7598 -0.2892 -0.7913
 6242SOL    HW130362   3.796   2.967   8.901 -0.7787 -1.4228 -0.6640
 6242SOL    HW230363   3.895   2.889   8.979  1.1826 -0.0460 -0.6491
 6243SOL     OW30364   0.839   0.198   1.295 -0.3018  0.5435 -0.1944
 6243SOL    HW130365   0.882   0.173   1.214 -0.1231  0.6569 -0.1326
 6243SOL    HW230366   0.761   0.143   1.292  0.9353 -1.1840 -0.5196
 6244SOL     OW30367   1.428   4.084   7.939 -0.0718  0.6799 -0.6966
 6244SOL    HW130368   1.418   4.038   8.022 -1.7864  0.8209 -0.8145
 6244SOL    HW230369   1.401   4.013   7.880  0.5195 -0.9790  1.0401
 6245SOL     OW30370   2.798   2.481   2.977  0.5762  0.0056 -0.7135
 6245SOL    HW130371   2.743   2.511   3.049 -0.7004  0.2060 -1.7788
 6245SOL    HW230372   2.850   2.410   3.014 -0.4599 -0.8277 -0.8758
 6246SOL     OW30373   2.153   0.354   8.107 -0.1961  0.4426 -0.1585
 6246SOL    HW130374   2.203   0.395   8.036 -0.6767 -0.9596 -1.3174
 6246SOL    HW230375   2.087   0.420   8.127  0.8134  0.7481  2.1146
 6247SOL     OW30376   4.472   4.632   1.493 -0.2287 -0.1873 -0.2655
 6247SOL    HW130377   4.393   4.579   1.484 -0.2411 -0.0976 -0.6670
 6247SOL    HW230378   4.510   4.588   1.569 -1.6150 -0.5311  0.2335
 6248SOL     OW30379   3.857   0.038  10.765  0.1841  0.3602  0.0724
 6248SOL    HW130380   3.764   0.018  10.777  0.0364  0.5538 -0.7326
 6248SOL    HW230381   3.892   4.695  10.795  1.0190  0.5190 -0.4404
 6249SOL     OW30382   2.302   3.672  15.677 -0.1136  0.2861 -0.1363
 6249SOL    HW130383   2.366   3.622  15.627 -0.5155 -1.0049  0.6295
 6249SOL    HW230384   2.355   3.684  15.756  0.2456 -0.8938 -0.1986
 6250SOL     OW30385   4.443   0.968   4.842  0.5161  0.5490 -0.0429
 6250SOL    HW130386   4.518   0.919   4.809  0.2329 -0.5368  0.9407
 6250SOL    HW230387   4.451   0.956   4.936 -1.1222 -1.6585 -0.1939
 6251SOL     OW30388   1.133   1.185  17.486 -0.2670 -0.1909 -0.3839
 6251SOL    HW130389   1.041   1.211  17.494 -0.1139  0.6030 -1.1334
 6251SOL    HW230390   1.137   1.168  17.391 -0.0392 -2.5061  0.0511
 6252SOL     OW30391   0.993   1.706   7.572  0.1479  0.7660 -0.1264
 6252SOL    HW130392   0.914   1.677   7.617  0.3288 -0.0066 -0.3120
 6252SOL    HW230393   0.974   1.681   7.482 -0.9541  1.7173 -0.1543
 6253SOL     OW30394   0.694   3.960   7.617 -0.1510  0.1808  0.3803
 6253SOL    HW130395   0.778   3.924   7.589 -0.3977  1.6141 -2.1697
 6253SOL    HW230396   0.720   4.052   7.623  2.6112 -0.5890 -0.0524
 6254SOL     OW30397   2.284   1.168  16.576 -0.0248 -0.2426  0.1922
 6254SOL    HW130398   2.353   1.135  16.634 -0.1272  2.0273  1.6378
 6254SOL    HW230399   2.214   1.188  16.638  1.8010  0.4897  2.0396
 6255SOL     OW30400   2.257   2.200   0.182 -0.1910  0.7613 -0.2306
 6255SOL    HW130401   2.230   2.267   0.119 -1.7391  0.2759 -0.0924
 6255SOL    HW230402   2.282   2.121   0.135 -0.9207  0.1322  0.4161
 6256SOL     OW30403   1.768   0.039  16.164 -0.2124  0.2820 -0.0549
 6256SOL    HW130404   1.829   0.027  16.092 -2.8876  1.3964 -2.4763
 6256SOL    HW230405   1.703   4.710  16.149  1.1520 -0.9448 -0.2422
 6257SOL     OW30406   3.929   3.648   6.757  0.0435  0.0314 -0.4091
 6257SOL    HW130407   3.969   3.719   6.807  0.4368 -0.3255 -0.2206
 6257SOL    HW230408   3.954   3.675   6.669 -1.7190 -0.2737 -1.0052
 6258SOL     OW30409   1.864   1.511   8.018  0.6409 -0.0104  0.5359
 6258SOL    HW130410   1.936   1.533   7.959 -0.7840  0.8408 -0.8881
 6258SOL    HW230411   1.872   1.581   8.083  0.7302  0.8906 -0.4494
 6259SOL     OW30412   1.063   0.161  10.138 -0.7201  0.8931  0.2505
 6259SOL    HW130413   1.129   0.120  10.081 -1.1221 -1.6746  1.6177
 6259SOL    HW230414   1.116   0.236  10.166 -0.4549  1.3884 -1.5821
 6260SOL     OW30415   2.732   4.386   7.089 -0.2424  0.2195  0.2284
 6260SOL    HW130416   2.708   4.357   7.177  0.2119  2.2871  1.0397
 6260SOL    HW230417   2.823   4.404   7.111 -0.8146  2.1707  0.9755
 6261SOL     OW30418   3.711   2.783   2.332  0.0538  0.0005  0.1275
 6261SOL    HW130419   3.712   2.727   2.410 -0.4721 -0.8508 -0.4804
 6261SOL    HW230420   3.731   2.866   2.376  0.0039 -1.0269  2.0894
 6262SOL     OW30421   2.947   0.799   1.953  0.4169 -0.1146 -0.4075
 6262SOL    HW130422   2.966   0.817   1.861  0.2724  0.8065 -0.2501
 6262SOL    HW230423   2.851   0.799   1.960  0.3895 -1.3692 -0.7057
 6263SOL     OW30424   1.969   0.381   7.329 -0.3910  0.0395  0.1268
 6263SOL    HW130425   1.969   0.325   7.406 -1.0529 -0.4955 -0.2571
 6263SOL    HW230426   2.010   0.317   7.271 -1.3201 -1.3402  0.9889
 6264SOL     OW30427   2.050   0.864   3.207  0.1556 -0.0675 -0.5124
 6264SOL    HW130428   2.042   0.769   3.216  0.1915 -0.0135  0.0849
 6264SOL    HW230429   1.967   0.882   3.251  0.7140  3.0610 -0.7395
 6265SOL     OW30430   4.349   2.146   1.071 -0.3219 -0.4957 -0.1203
 6265SOL    HW130431   4.306   2.205   1.133 -0.9216 -1.3234  0.2432
 6265SOL    HW230432   4.275   2.110   1.022  0.6065 -0.3010 -1.6912
 6266SOL     OW30433   4.089   0.517   0.559 -0.2251  0.7939  0.4072
 6266SOL    HW130434   4.184   0.521   0.570 -0.3072  0.1388  1.2719
 6266SOL    HW230435   4.074   0.576   0.485 -2.2122 -1.1201 -0.7060
 6267SOL     OW30436   3.344   2.973   7.288 -0.3624  0.0456 -0.1893
 6267SOL    HW130437   3.431   2.955   7.253 -0.3657 -0.1077 -0.1148
 6267SOL    HW230438   3.350   3.069   7.284  0.2357 -0.0740 -2.4473
 6268SOL     OW30439   1.630   0.771   6.328  0.4081 -0.1689 -0.0525
 6268SOL    HW130440   1.671   0.769   6.242  1.7114  3.5733  0.4978
 6268SOL    HW230441   1.633   0.864   6.350  1.2063  0.1578 -1.5815
 6269SOL     OW30442   2.826   0.965   8.431  0.2349  0.1938  0.4402
 6269SOL    HW130443   2.889   1.006   8.372 -1.1746  1.0941 -0.4532
 6269SOL    HW230444   2.755   0.954   8.368 -0.1072 -2.8113  1.3888
 6270SOL     OW30445   0.108   4.587   4.250  0.1916  0.0959 -0.4956
 6270SOL    HW130446   0.123   4.496   4.225  0.6209 -0.2809  1.1460
 6270SOL    HW230447   0.105   4.591   4.345 -2.6256  1.1062 -0.6416
 6271SOL     OW30448   0.497   0.465   4.147  0.4681 -0.1321 -0.2624
 6271SOL    HW130449   0.428   0.498   4.204 -1.8285 -4.1738 -0.7161
 6271SOL    HW230450   0.521   0.380   4.184  0.6785  0.2483  0.4661
 6272SOL     OW30451   4.540   0.001   3.553  0.5526 -0.5392  0.4919
 6272SOL    HW130452   4.497   0.021   3.469  0.5714  0.7483  0.7873
 6272SOL    HW230453   4.541   4.646   3.558  2.0578 -0.6280 -1.4812
 6273SOL     OW30454   3.766   0.111   6.408  0.5783  0.3852  0.0851
 6273SOL    HW130455   3.819   0.112   6.328 -0.5932  2.9672 -0.6439
 6273SOL    HW230456   3.825   0.064   6.467 -1.8098 -2.1335  0.5170
 6274SOL     OW30457   2.576   4.318   2.830  0.1731  0.0364 -0.4026
 6274SOL    HW130458   2.562   4.413   2.827  0.8247  0.2079  1.6831
 6274SOL    HW230459   2.546   4.286   2.745  0.3837  0.8638 -0.7840
 6275SOL     OW30460   0.598   2.883  16.903  0.3046 -0.0256 -0.0775
 6275SOL    HW130461   0.596   2.931  16.985 -0.4292  0.8498 -0.6018
 6275SOL    HW230462   0.512   2.842  16.908  1.2456 -1.7148  2.1633
 6276SOL     OW30463   1.665   3.490   9.319 -0.3011 -0.0958 -0.0445
 6276SOL    HW130464   1.626   3.521   9.401 -0.9056  2.8356 -1.4511
 6276SOL    HW230465   1.752   3.456   9.341 -0.7200 -1.9540 -1.2178
 6277SOL     OW30466   4.406   0.965   5.109  0.5353  0.0608  0.3087
 6277SOL    HW130467   4.477   0.975   5.172 -0.2515  0.2752  1.1615
 6277SOL    HW230468   4.329   1.010   5.144  0.0472  0.4237 -1.2449
 6278SOL     OW30469   3.791   1.814   4.060 -0.4207 -0.0708  0.1273
 6278SOL    HW130470   3.833   1.793   4.143  3.3325 -0.8468 -1.9873
 6278SOL    HW230471   3.784   1.727   4.022  0.1106  0.2268 -0.6674
 6279SOL     OW30472   3.562   3.034   4.202 -0.1786 -0.1314 -0.8511
 6279SOL    HW130473   3.548   2.991   4.286  2.8983 -0.2871 -0.4343
 6279SOL    HW230474   3.655   3.053   4.212 -0.5035  0.2169  1.3753
 6280SOL     OW30475   0.186   1.947  15.384  0.4700 -0.1885 -0.2783
 6280SOL    HW130476   0.274   1.922  15.413  0.0171 -2.2889 -0.7001
 6280SOL    HW230477   0.154   1.976  15.469 -1.3505  3.7797 -2.3362
 6281SOL     OW30478   2.457   2.786   8.836  0.1751  0.1313 -0.4126
 6281SOL    HW130479   2.470   2.693   8.858 -0.0705 -0.0323 -0.9605
 6281SOL    HW230480   2.538   2.816   8.876  0.3259 -1.9859  0.9344
 6282SOL     OW30481   0.816   4.411  10.400  0.0172 -0.1099 -0.0473
 6282SOL    HW130482   0.852   4.498  10.384  1.1337 -0.6657 -0.5920
 6282SOL    HW230483   0.895   4.362  10.422  1.0876  2.7561  2.5079
 6283SOL     OW30484   3.382   4.697   7.295 -0.1483 -0.2564 -0.0479
 6283SOL    HW130485   3.403   0.029   7.355  0.3873 -0.3341 -0.1378
 6283SOL    HW230486   3.312   0.003   7.251 -0.8158  1.1415  2.5019
 6284SOL     OW30487   3.524   2.799  16.326  0.2697 -0.1966 -0.4408
 6284SOL    HW130488   3.547   2.801  16.233  1.2513  1.5703 -0.1573
 6284SOL    HW230489   3.433   2.828  16.326 -0.5063 -2.5932  2.5850
 6285SOL     OW30490   3.243   4.452   4.131 -0.1285 -0.4277 -0.0857
 6285SOL    HW130491   3.294   4.390   4.183 -0.0124 -1.5177 -1.4991
 6285SOL    HW230492   3.314   4.486   4.077 -1.8585 -1.4739 -2.9990
 6286SOL     OW30493   2.623   1.225   3.304  0.0542  0.1822  0.5586
 6286SOL    HW130494   2.678   1.302   3.322  1.0934 -0.5232  0.3669
 6286SOL    HW230495   2.583   1.263   3.226 -1.5398  0.8967  1.7147
 6287SOL     OW30496   2.268   3.040   5.806 -0.4359  0.7274  0.4692
 6287SOL    HW130497   2.318   3.024   5.725  1.1916 -0.9767  1.8229
 6287SOL    HW230498   2.182   3.004   5.785  0.0278  0.5096 -1.0741
 6288SOL     OW30499   4.702   2.182  12.120  0.1015 -0.0855  0.8011
 6288SOL    HW130500   4.703   2.098  12.167 -0.1210 -1.0599 -0.9125
 6288SOL    HW230501   4.700   2.241  12.195 -0.0871  0.6369  0.2220
 6289SOL     OW30502   1.191   2.218   4.772 -0.1038 -0.4708 -0.1421
 6289SOL    HW130503   1.125   2.206   4.841 -0.3569 -0.0146 -0.3069
 6289SOL    HW230504   1.139   2.217   4.692 -0.5342  1.8155  0.1099
 6290SOL     OW30505   0.805   3.819  15.155 -0.1400  0.0048  0.5452
 6290SOL    HW130506   0.824   3.816  15.061  0.4801  0.7272  0.6522
 6290SOL    HW230507   0.785   3.725  15.154  1.5113 -0.3789  3.4097
 6291SOL     OW30508   3.901   1.624   1.042  0.2717 -0.0441  0.6466
 6291SOL    HW130509   3.918   1.538   1.004  3.1155  0.6876  0.2276
 6291SOL    HW230510   3.830   1.599   1.101 -0.8332  2.0197  0.1803
 6292SOL     OW30511   4.262   4.242   3.464  0.0840 -0.4623  0.0990
 6292SOL    HW130512   4.187   4.289   3.428  0.6625  0.7974  0.5473
 6292SOL    HW230513   4.332   4.263   3.403 -0.2785  2.7346  0.7618
 6293SOL     OW30514   3.731   2.103   3.089  0.4860 -0.2619 -0.2161
 6293SOL    HW130515   3.801   2.125   3.028 -0.1071  2.3098  0.0066
 6293SOL    HW230516   3.700   2.019   3.056 -0.5487 -0.7785  2.0126
 6294SOL     OW30517   0.128   2.653   9.711  0.4500  0.5444 -0.1501
 6294SOL    HW130518   0.146   2.577   9.765  2.2973  0.0978 -1.3868
 6294SOL    HW230519   0.141   2.728   9.769  1.0651 -0.5186  1.0545
 6295SOL     OW30520   2.016   3.511   7.982  0.6758  0.2608  0.2839
 6295SOL    HW130521   2.100   3.511   7.936  0.2931  1.8957 -0.4252
 6295SOL    HW230522   1.960   3.470   7.916 -0.0541  1.6397  0.0467
 6296SOL     OW30523   3.103   0.942   4.658  0.6751  0.0778  0.5692
 6296SOL    HW130524   3.173   0.897   4.704 -0.7998 -2.2976  0.4938
 6296SOL    HW230525   3.155   0.986   4.591 -0.2013 -0.7098 -0.6261
 6297SOL     OW30526   1.097   0.020   7.046  0.0469  0.6764 -0.2326
 6297SOL    HW130527   1.063   0.081   7.112 -0.5669  0.4726 -0.3620
 6297SOL    HW230528   1.166   0.072   7.005  2.3370 -2.6139 -0.5071
 6298SOL     OW30529   3.220   4.152  13.169  0.3090  0.2281 -0.2560
 6298SOL    HW130530   3.232   4.072  13.219 -2.1133  0.5586  0.8677
 6298SOL    HW230531   3.213   4.215  13.240 -0.0797 -0.5717  0.4108
 6299SOL     OW30532   1.942   4.191   0.447 -0.2241 -0.1975  0.1159
 6299SOL    HW130533   1.981   4.276   0.426  1.3702 -0.5680  1.6308
 6299SOL    HW230534   2.014   4.135   0.418 -0.9891 -1.1700  0.0875
 6300SOL     OW30535   1.201   1.869   5.263  0.0364  0.5120  0.7143
 6300SOL    HW130536   1.224   1.879   5.170 -1.0645 -1.8638  0.1637
 6300SOL    HW230537   1.129   1.806   5.259 -0.9154  1.5630  1.2435
 6301SOL     OW30538   0.064   3.326   4.759  0.5216 -0.2074  0.2621
 6301SOL    HW130539   4.711   3.310   4.774  0.3980 -0.0386 -0.3058
 6301SOL    HW230540   0.093   3.354   4.846  0.9403 -2.1464  0.7591
 6302SOL     OW30541   3.809   1.662   0.553  0.8074  0.1745 -0.8850
 6302SOL    HW130542   3.839   1.685   0.641  2.1727 -0.6431 -1.1327
 6302SOL    HW230543   3.877   1.600   0.527  0.5847 -0.8064  0.8843
 6303SOL     OW30544   1.570   2.230   5.176 -0.0041 -0.2256  0.4052
 6303SOL    HW130545   1.654   2.274   5.161  0.8717 -1.9233  0.3810
 6303SOL    HW230546   1.574   2.154   5.118  0.5413  1.7349 -2.1169
 6304SOL     OW30547   2.291   0.139   5.608 -0.3182  0.6657  0.4251
 6304SOL    HW130548   2.335   0.131   5.523  0.8990  0.7854  1.0485
 6304SOL    HW230549   2.354   0.089   5.659 -3.5736 -3.8574  0.0515
 6305SOL     OW30550   3.151   3.842   5.372 -0.2241  0.0491 -0.0794
 6305SOL    HW130551   3.085   3.834   5.441 -0.0640  1.8956  0.2832
 6305SOL    HW230552   3.121   3.781   5.304  0.7461 -1.9292  1.2686
 6306SOL     OW30553   0.315   2.950  14.588  0.4491  0.2962 -0.0384
 6306SOL    HW130554   0.409   2.933  14.595  0.3719 -0.3669 -0.6740
 6306SOL    HW230555   0.292   2.890  14.518 -1.2294  1.5942 -0.6104
 6307SOL     OW30556   3.995   2.465   4.754 -0.4751 -0.0021 -0.2121
 6307SOL    HW130557   4.009   2.549   4.710 -0.0386 -0.7093 -1.4534
 6307SOL    HW230558   3.928   2.473   4.822 -1.8402  0.2667 -1.5610
 6308SOL     OW30559   1.577   0.599   7.255  0.1130 -0.4977 -0.3842
 6308SOL    HW130560   1.520   0.523   7.254  0.1977 -0.6266  3.8732
 6308SOL    HW230561   1.635   0.568   7.325 -0.1586 -2.9184 -1.2492
 6309SOL     OW30562   1.782   0.308   2.693 -0.1855  0.1883 -0.6047
 6309SOL    HW130563   1.878   0.305   2.693 -0.2160 -0.6734  0.8235
 6309SOL    HW230564   1.766   0.220   2.659 -0.6863 -0.4291  1.2356
 6310SOL     OW30565   0.307   4.673   3.735  0.6039 -0.0506  0.3532
 6310SOL    HW130566   0.217   4.654   3.761  0.4528  2.1671  1.4160
 6310SOL    HW230567   0.354   4.665   3.817  2.1918 -0.5478 -0.5999
 6311SOL     OW30568   3.934   1.113  15.016 -0.6915  0.5736 -0.3152
 6311SOL    HW130569   3.918   1.149  14.928 -0.8233 -0.8697 -0.8874
 6311SOL    HW230570   4.027   1.132  15.021 -0.6241 -0.6236  2.7763
 6312SOL     OW30571   2.125   2.047  13.128 -0.3702 -0.0146 -0.2294
 6312SOL    HW130572   2.132   2.124  13.070  2.5951 -1.2049 -1.4351
 6312SOL    HW230573   2.155   1.978  13.069 -2.5600 -3.4391  2.7253
 6313SOL     OW30574   0.320   1.535   7.648 -0.1158  0.3829 -0.0984
 6313SOL    HW130575   0.309   1.579   7.563  2.0617  0.2264 -0.4857
 6313SOL    HW230576   0.290   1.445   7.638 -0.6662  0.3993  1.4540
 6314SOL     OW30577   2.316   2.564   3.317  0.6239  0.5634 -0.6615
 6314SOL    HW130578   2.358   2.566   3.231 -0.3156 -2.2032 -1.1960
 6314SOL    HW230579   2.387   2.525   3.368  0.8204  1.0781 -0.5356
 6315SOL     OW30580   3.892   3.407  16.529 -0.2792  0.1351 -0.2556
 6315SOL    HW130581   3.953   3.481  16.539  1.6455 -1.2434 -1.8542
 6315SOL    HW230582   3.945   3.349  16.475  1.2489 -0.7483  2.1995
 6316SOL     OW30583   3.929   3.646   5.603 -0.2131 -0.0827 -0.0927
 6316SOL    HW130584   4.011   3.674   5.562  0.0956 -0.2040  0.4447
 6316SOL    HW230585   3.904   3.567   5.556 -1.1036 -0.1079  0.4277
 6317SOL     OW30586   4.228   2.358   7.792  0.5742 -0.0492  0.1075
 6317SOL    HW130587   4.217   2.310   7.874  0.7984  0.6264  0.5320
 6317SOL    HW230588   4.198   2.443   7.825  0.5538 -0.3910  0.9734
 6318SOL     OW30589   0.471   2.323   4.705 -0.0754 -0.1574 -0.3855
 6318SOL    HW130590   0.404   2.367   4.653 -1.2576 -0.9185  0.4842
 6318SOL    HW230591   0.533   2.395   4.696 -1.1545  0.5172 -2.5007
 6319SOL     OW30592   1.252   2.297   6.677 -0.1125  0.0632  0.1061
 6319SOL    HW130593   1.193   2.265   6.745  1.8084  2.8771  3.0937
 6319SOL    HW230594   1.338   2.273   6.712 -0.3543 -0.3937  0.3950
 6320SOL     OW30595   1.108   0.814   3.904  0.6579  0.0668 -0.2169
 6320SOL    HW130596   1.070   0.841   3.988 -0.2106 -1.6907 -0.0439
 6320SOL    HW230597   1.114   0.719   3.903 -1.3153 -0.0846  1.2094
 6321SOL     OW30598   0.248   0.634  15.071 -0.6164  0.3445 -0.0755
 6321SOL    HW130599   0.203   0.686  15.138  1.1686  0.4114  1.0843
 6321SOL    HW230600   0.205   0.674  14.995 -1.3223 -0.8553 -0.3024
 6322SOL     OW30601   0.486   3.890  16.009  0.1935  0.4307  0.4551
 6322SOL    HW130602   0.507   3.797  16.001  0.8951  0.5973  0.3876
 6322SOL    HW230603   0.544   3.932  15.947  0.8823  0.5172  1.1528
 6323SOL     OW30604   3.499   4.736   3.505 -0.9026  0.2262  0.5476
 6323SOL    HW130605   3.441   0.072   3.504 -0.1904  0.7442 -1.7168
 6323SOL    HW230606   3.431   4.670   3.491 -0.2309 -0.1823 -0.8185
 6324SOL     OW30607   3.753   2.420   3.748 -0.1398 -0.3727 -0.1780
 6324SOL    HW130608   3.683   2.477   3.715  0.4904  0.9204  0.6894
 6324SOL    HW230609   3.793   2.486   3.805 -1.0506  0.3363 -0.3604
 6325SOL     OW30610   3.370   1.425   3.981 -0.1701 -0.0811  0.1411
 6325SOL    HW130611   3.446   1.387   3.937 -0.2067  0.3750 -0.3153
 6325SOL    HW230612   3.385   1.411   4.075 -0.9328  0.1597  0.2948
 6326SOL     OW30613   2.039   0.141   3.754  0.8237  0.2798  0.1523
 6326SOL    HW130614   2.071   0.180   3.835  1.9227  1.6846 -0.9789
 6326SOL    HW230615   2.047   0.048   3.778 -2.4532  0.5197  2.2595
 6327SOL     OW30616   0.640   3.847   5.886  0.0613  0.2720 -0.3599
 6327SOL    HW130617   0.661   3.826   5.977 -1.4190 -2.8606 -0.7421
 6327SOL    HW230618   0.721   3.820   5.844 -0.7463 -1.2700 -0.9420
 6328SOL     OW30619   0.252   1.028  14.442  0.4264 -0.1110 -0.7783
 6328SOL    HW130620   0.187   1.086  14.483  1.6865  0.8647 -0.1806
 6328SOL    HW230621   0.221   1.032  14.352  1.2598 -0.4417 -1.0795
 6329SOL     OW30622   4.465   0.211   2.000 -0.3514  0.3062  0.4064
 6329SOL    HW130623   4.531   0.160   2.047  0.0380 -0.6858 -1.2165
 6329SOL    HW230624   4.389   0.200   2.057 -1.3221  0.4341 -0.8706
 6330SOL     OW30625   0.840   3.915   3.049  0.0117 -0.3547 -0.1749
 6330SOL    HW130626   0.925   3.897   3.009  0.4949  2.5318 -0.4272
 6330SOL    HW230627   0.795   3.953   2.974 -0.7509 -0.4430  0.2333
 6331SOL     OW30628   1.942   3.515   5.057 -0.0977 -0.0857 -0.1177
 6331SOL    HW130629   1.980   3.598   5.085  0.4673 -0.2105 -0.5149
 6331SOL    HW230630   1.918   3.470   5.139 -0.3401  1.0055  0.4082
 6332SOL     OW30631   4.476   0.134   4.163  0.2945  0.1852 -0.4129
 6332SOL    HW130632   4.481   0.060   4.223 -0.3153  1.8064  1.6311
 6332SOL    HW230633   4.501   0.096   4.079 -1.2559  1.1759 -1.3290
 6333SOL     OW30634   1.237   0.129   7.383 -0.4280 -0.3156 -0.0329
 6333SOL    HW130635   1.303   0.198   7.390 -1.0864  0.4727 -1.6780
 6333SOL    HW230636   1.167   0.178   7.340 -0.3622  0.1150  0.3466
 6334SOL     OW30637   1.009   4.193   4.052  0.4538  0.0306  0.2504
 6334SOL    HW130638   0.973   4.162   4.135 -2.3998  3.2045  0.1563
 6334SOL    HW230639   1.103   4.211   4.060  0.6185 -1.1785  1.1657
 6335SOL     OW30640   3.452   3.016   8.329  0.3927  0.0815  0.1009
 6335SOL    HW130641   3.506   2.987   8.256  0.5864  0.6953 -0.0009
 6335SOL    HW230642   3.371   3.047   8.288  2.2832  0.4742 -3.3719
 6336SOL     OW30643   1.485   2.002  12.176 -0.3864 -0.5351 -0.0663
 6336SOL    HW130644   1.468   1.917  12.216  1.3658 -0.0855  1.6183
 6336SOL    HW230645   1.416   2.006  12.110  0.1611  0.0508 -0.6055
 6337SOL     OW30646   3.836   0.493  15.301  0.6739  0.0586 -0.7816
 6337SOL    HW130647   3.901   0.430  15.332  0.0251  0.3065  1.1092
 6337SOL    HW230648   3.753   0.459  15.336  0.2509  3.3786  1.4875
 6338SOL     OW30649   2.997   2.461   9.261 -0.0173 -0.4009 -0.4974
 6338SOL    HW130650   3.007   2.491   9.352 -0.9583  0.4656 -0.6832
 6338SOL    HW230651   3.070   2.514   9.228  0.7141 -2.1455 -1.6835
 6339SOL     OW30652   2.403   3.947   7.016 -0.1562 -0.0935 -0.0580
 6339SOL    HW130653   2.499   3.939   7.017 -0.1495 -0.0932 -2.0814
 6339SOL    HW230654   2.392   4.002   7.094  0.7786 -0.2252  0.1661
 6340SOL     OW30655   1.897   0.626   4.395  0.6675 -0.0911  0.4854
 6340SOL    HW130656   1.942   0.613   4.479 -0.6551  1.3853  1.4231
 6340SOL    HW230657   1.861   0.537   4.387  1.1666 -0.3097  0.6304
 6341SOL     OW30658   2.682   4.026   5.230 -0.2101  0.2275  0.3278
 6341SOL    HW130659   2.651   4.105   5.275 -0.7065 -0.4686  1.1947
 6341SOL    HW230660   2.773   4.015   5.258  0.9007  1.5298 -2.7490
 6342SOL     OW30661   2.015   2.045   9.209  0.2958  0.3819  0.2341
 6342SOL    HW130662   2.094   2.053   9.263  0.2837  0.8484  0.1860
 6342SOL    HW230663   2.013   2.126   9.158 -0.3929 -0.2884 -0.8118
 6343SOL     OW30664   3.831   0.697   8.942 -0.0364 -0.3533 -0.4962
 6343SOL    HW130665   3.780   0.648   9.006  0.5193 -0.1880  0.0829
 6343SOL    HW230666   3.910   0.717   8.993  0.5935 -1.2384 -1.1332
 6344SOL     OW30667   0.547   3.640   4.451  0.5889  0.4937  0.1447
 6344SOL    HW130668   0.497   3.612   4.374  0.8611 -1.9163  0.8499
 6344SOL    HW230669   0.485   3.712   4.467 -0.4717 -0.0057 -1.6481
 6345SOL     OW30670   2.076   4.646   3.560 -0.0162 -0.2877 -0.5591
 6345SOL    HW130671   2.014   4.660   3.488  0.6341 -1.8816 -1.4416
 6345SOL    HW230672   2.140   4.711   3.530 -1.4505  0.9535 -0.9266
 6346SOL     OW30673   2.390   1.836   9.179 -0.2288 -0.3448  0.1130
 6346SOL    HW130674   2.412   1.919   9.138  0.1541  0.4934  2.0298
 6346SOL    HW230675   2.367   1.778   9.106 -1.2335 -0.3156  0.4038
 6347SOL     OW30676   4.676   4.042   3.210 -0.6418  0.3524  0.3293
 6347SOL    HW130677   0.012   4.083   3.170 -1.1042  1.3458  0.4454
 6347SOL    HW230678   4.622   4.121   3.220 -0.1819  0.6398  0.5128
 6348SOL     OW30679   0.718   2.702   8.688 -0.5742  0.5129 -0.0116
 6348SOL    HW130680   0.768   2.742   8.759 -1.2753  1.6974 -0.2036
 6348SOL    HW230681   0.678   2.783   8.660  1.6882  1.0364 -1.7188
 6349SOL     OW30682   2.021   0.600   5.777 -0.6062  0.1044  0.4899
 6349SOL    HW130683   2.084   0.578   5.846  1.3709  0.2468 -1.2905
 6349SOL    HW230684   1.962   0.525   5.783 -3.3217  2.1252 -0.8201
 6350SOL     OW30685   0.315   3.970   6.241  1.0264  0.2420 -0.0182
 6350SOL    HW130686   0.232   3.990   6.198  1.3104 -2.3307 -1.8218
 6350SOL    HW230687   0.316   3.874   6.252 -1.3495  0.1680 -0.3198
 6351SOL     OW30688   0.320   1.339   8.893  0.0259 -0.0174 -0.1619
 6351SOL    HW130689   0.304   1.315   8.984 -0.6731  0.9580 -0.0268
 6351SOL    HW230690   0.394   1.398   8.894 -0.2564  0.3138  0.9084
 6352SOL     OW30691   1.553   3.520  17.634 -0.0059  0.7491 -0.5257
 6352SOL    HW130692   1.525   3.446  17.688  0.3072 -1.1495 -2.9288
 6352SOL    HW230693   1.478   3.578  17.648 -1.5963 -1.2034 -1.0224
 6353SOL     OW30694   4.323   1.328  12.762  0.1714 -0.0219  0.2286
 6353SOL    HW130695   4.394   1.369  12.712 -0.3326  0.5352 -0.0291
 6353SOL    HW230696   4.315   1.384  12.839 -1.0848 -1.2924  1.0243
 6354SOL     OW30697   0.174   0.241  12.730  0.8765 -0.4123 -0.1655
 6354SOL    HW130698   0.180   0.235  12.825 -0.9523  0.4736  0.0112
 6354SOL    HW230699   0.083   0.267  12.718  0.9570 -0.9753 -1.9973
 6355SOL     OW30700   3.551   4.241   9.878 -0.3387  0.0908 -0.5441
 6355SOL    HW130701   3.516   4.256   9.790 -0.3630 -1.7787 -0.8536
 6355SOL    HW230702   3.463   4.233   9.914 -0.0617  2.3346  0.6135
 6356SOL     OW30703   2.456   2.210  15.121 -0.1988  0.2497 -0.1467
 6356SOL    HW130704   2.477   2.274  15.054 -1.3004  0.4014 -0.3450
 6356SOL    HW230705   2.507   2.136  15.089  0.2655  0.5311 -0.0503
 6357SOL     OW30706   3.800   0.763   2.864  0.0044  0.1476 -0.2225
 6357SOL    HW130707   3.876   0.821   2.859 -0.6634  1.1398  1.0296
 6357SOL    HW230708   3.808   0.766   2.960  0.4489  0.5541 -0.2740
 6358SOL     OW30709   1.485   0.768   4.935 -0.6234 -0.4487  0.1949
 6358SOL    HW130710   1.521   0.813   5.011  1.0641  1.0466 -1.5098
 6358SOL    HW230711   1.536   0.802   4.862 -2.3161 -0.2067 -0.8851
 6359SOL     OW30712   0.253   0.749   7.990  0.5260 -0.4051 -0.2977
 6359SOL    HW130713   0.196   0.808   7.939  0.2652 -0.9098 -0.5966
 6359SOL    HW230714   0.192   0.698   8.043  2.9824 -0.2833  2.6515
 6360SOL     OW30715   2.198   1.853   5.969  0.1165  0.1772  0.0545
 6360SOL    HW130716   2.209   1.930   5.913 -1.2776 -0.7699 -1.4988
 6360SOL    HW230717   2.286   1.816   5.957 -1.4621 -3.0767 -1.1613
 6361SOL     OW30718   3.005   1.213  13.884 -0.2430  0.2862 -0.1572
 6361SOL    HW130719   2.951   1.218  13.962 -0.0699  1.0753 -0.0974
 6361SOL    HW230720   3.090   1.182  13.916 -0.6866  0.6583  1.3377
 6362SOL     OW30721   4.096   1.939  16.298 -0.4363 -0.4593 -0.2707
 6362SOL    HW130722   4.026   1.874  16.298  1.3045 -2.3369  0.8178
 6362SOL    HW230723   4.121   1.939  16.206  2.1409  1.3197  0.4168
 6363SOL     OW30724   3.357   0.808   2.123 -0.5052  0.3225  0.3100
 6363SOL    HW130725   3.425   0.741   2.111  0.3454  1.2149  0.2011
 6363SOL    HW230726   3.278   0.764   2.092 -1.1749  0.9019  1.2106
 6364SOL     OW30727   2.208   3.257   9.163 -0.3081  0.1841 -0.0538
 6364SOL    HW130728   2.243   3.341   9.134 -0.9661  0.4997  0.0750
 6364SOL    HW230729   2.251   3.205   9.094  0.5063  1.7605 -0.7408
 6365SOL     OW30730   2.242   1.303   7.562  0.0818 -0.5477  0.0421
 6365SOL    HW130731   2.158   1.258   7.551 -1.3379  2.2862 -0.6750
 6365SOL    HW230732   2.251   1.295   7.657  0.4835 -1.4922 -0.0791
 6366SOL     OW30733   2.286   1.511   6.712  0.0664  0.1886  0.0636
 6366SOL    HW130734   2.317   1.491   6.624  0.6756 -1.0305  0.5645
 6366SOL    HW230735   2.296   1.606   6.713 -4.0148  0.6143  0.5270
 6367SOL     OW30736   2.743   3.939  15.301 -0.1833 -0.2145 -0.3205
 6367SOL    HW130737   2.754   3.990  15.221 -0.6864  2.6113  1.3750
 6367SOL    HW230738   2.647   3.943  15.296 -0.0429  2.1681 -1.3668
 6368SOL     OW30739   0.123   3.520   9.071  0.0679  0.3157  0.4586
 6368SOL    HW130740   0.119   3.614   9.086  3.7416  0.3828  1.0633
 6368SOL    HW230741   0.217   3.505   9.063 -0.1350 -1.7916  2.0373
 6369SOL     OW30742   1.880   2.704  10.154  0.0905  0.4002 -0.1901
 6369SOL    HW130743   1.809   2.753  10.195  0.1750  2.6627 -2.7082
 6369SOL    HW230744   1.960   2.756  10.151  1.7153 -1.9569  2.6001
 6370SOL     OW30745   4.543   0.773   2.746 -0.1542  0.9682  0.4434
 6370SOL    HW130746   4.491   0.695   2.727  2.4210 -0.8291  0.6601
 6370SOL    HW230747   4.533   0.829   2.669  1.0770 -0.4253 -0.7348
 6371SOL     OW30748   3.668   1.496   7.379  0.1894  0.7421  0.6398
 6371SOL    HW130749   3.674   1.588   7.355  1.1717  0.6402  0.4794
 6371SOL    HW230750   3.593   1.504   7.438  0.1953  0.2213  0.7203
 6372SOL     OW30751   2.893   4.572   4.976 -0.1718 -0.0739  0.0612
 6372SOL    HW130752   2.927   4.484   4.991  1.7089  0.0929 -3.1112
 6372SOL    HW230753   2.957   4.626   5.022 -0.7337 -0.4751  1.2891
 6373SOL     OW30754   2.114   1.385   1.886  0.1551  0.5931 -0.3647
 6373SOL    HW130755   2.137   1.450   1.820 -0.7044  0.4971 -0.7612
 6373SOL    HW230756   2.137   1.441   1.960 -1.7552  0.3065  0.4574
 6374SOL     OW30757   3.540   3.727   3.328 -0.1187 -0.6762 -0.0806
 6374SOL    HW130758   3.587   3.696   3.251  1.8034 -2.7729  1.9458
 6374SOL    HW230759   3.577   3.659   3.384  1.9859  0.3182 -0.2594
 6375SOL     OW30760   3.289   4.527   5.294 -0.4901 -0.0939 -0.1839
 6375SOL    HW130761   3.256   4.607   5.336 -0.4099 -0.1788  0.0405
 6375SOL    HW230762   3.384   4.535   5.283 -0.4657 -1.5858 -1.0012
 6376SOL     OW30763   2.233   0.940  16.065  0.3982 -0.1429 -0.2519
 6376SOL    HW130764   2.214   0.849  16.044 -0.0105  0.1964 -1.3121
 6376SOL    HW230765   2.169   0.964  16.132  2.0560  2.8681  0.2871
 6377SOL     OW30766   2.815   1.354   1.242  0.2971  1.1151 -0.1602
 6377SOL    HW130767   2.781   1.356   1.331  1.6980 -0.0520  0.3782
 6377SOL    HW230768   2.732   1.322   1.207  0.6935  1.6958 -1.6551
 6378SOL     OW30769   3.305   4.285   3.071  0.0820  1.1992  0.1400
 6378SOL    HW130770   3.302   4.349   3.001  0.8050  1.9803  0.8289
 6378SOL    HW230771   3.321   4.206   3.019  1.2959  1.0951  0.6766
 6379SOL     OW30772   0.500   3.643   2.880 -0.4191 -0.0039  0.1870
 6379SOL    HW130773   0.442   3.715   2.856 -1.0503 -0.6203 -0.1381
 6379SOL    HW230774   0.547   3.684   2.953  1.8801 -0.5521 -0.9803
 6380SOL     OW30775   1.784   2.008   3.079  0.0983  1.1734  0.3376
 6380SOL    HW130776   1.820   2.090   3.047  0.2130  0.2506 -1.8568
 6380SOL    HW230777   1.868   1.965   3.094 -0.3494 -0.2330 -1.1745
 6381SOL     OW30778   1.680   3.361   1.750 -0.4157 -0.5201  0.7211
 6381SOL    HW130779   1.742   3.374   1.822  0.5724 -2.5316  0.2392
 6381SOL    HW230780   1.630   3.442   1.752  0.1742 -0.1533  0.5581
 6382SOL     OW30781   1.475   2.103   9.893  0.0162 -0.1314 -0.2539
 6382SOL    HW130782   1.468   2.193   9.859 -0.6750  0.1655  0.6977
 6382SOL    HW230783   1.428   2.048   9.831 -0.7438 -1.3541  1.4079
 6383SOL     OW30784   2.045   3.761   1.404 -0.4033  0.8079 -0.1902
 6383SOL    HW130785   2.053   3.704   1.481 -0.1625  0.7889 -0.2291
 6383SOL    HW230786   2.134   3.797   1.404 -0.5435  1.1545 -0.8217
 6384SOL     OW30787   2.995   1.219   1.650 -0.0325  0.3131 -0.4409
 6384SOL    HW130788   2.906   1.241   1.679  0.8933  0.7136  2.0045
 6384SOL    HW230789   3.035   1.306   1.647  0.5844  0.0816  1.7543
 6385SOL     OW30790   3.798   1.955   0.912  0.4876 -0.7668 -0.0999
 6385SOL    HW130791   3.794   2.029   0.972 -0.7830  0.7296 -2.0308
 6385SOL    HW230792   3.709   1.953   0.878  0.4792  1.5276 -0.2371
 6386SOL     OW30793   4.071   0.099   8.682  0.0148 -0.1459  0.0630
 6386SOL    HW130794   4.063   0.111   8.587 -3.2455 -1.0097  0.2064
 6386SOL    HW230795   3.987   0.145   8.693  0.8023  0.3958  3.5957
 6387SOL     OW30796   4.512   3.714   1.996 -0.6112 -0.5332 -0.1468
 6387SOL    HW130797   4.538   3.764   1.919  0.3439  0.4197  0.7951
 6387SOL    HW230798   4.565   3.767   2.056  0.8057 -3.2451  0.9879
 6388SOL     OW30799   3.526   3.995   1.522  0.2510  0.4582  0.1195
 6388SOL    HW130800   3.435   3.979   1.497  0.5948  0.7080 -1.3062
 6388SOL    HW230801   3.523   3.930   1.592 -0.5261  1.8851  1.3805
 6389SOL     OW30802   1.817   2.281   8.174  0.4180  0.0009 -0.3778
 6389SOL    HW130803   1.735   2.234   8.157 -0.3452  0.9797  0.5888
 6389SOL    HW230804   1.815   2.273   8.270  1.2715  0.9907 -0.2817
 6390SOL     OW30805   3.385   0.089   7.835 -0.7665  0.2477 -0.0847
 6390SOL    HW130806   3.292   0.093   7.813 -0.5959  1.1911 -0.6483
 6390SOL    HW230807   3.422   0.081   7.747  2.5344 -0.8124  1.4098
 6391SOL     OW30808   1.535   2.620   6.012  0.3809  0.3922 -0.0672
 6391SOL    HW130809   1.451   2.579   5.990 -1.3892  3.4083  1.0651
 6391SOL    HW230810   1.510   2.713   6.012 -1.2065 -0.0283  0.6534
 6392SOL     OW30811   1.756   3.626   4.640 -0.5964  0.4919 -0.0724
 6392SOL    HW130812   1.756   3.700   4.701  0.7306 -0.3269  0.9088
 6392SOL    HW230813   1.738   3.562   4.709 -0.0773  1.2571  0.7739
 6393SOL     OW30814   2.744   2.398   2.098 -0.3717 -0.9200  0.5003
 6393SOL    HW130815   2.735   2.472   2.158  2.5758  1.9901 -2.6338
 6393SOL    HW230816   2.817   2.356   2.143  0.3868  0.6906  0.7752
 6394SOL     OW30817   4.276   3.917   9.068 -0.1605  0.6622 -0.6171
 6394SOL    HW130818   4.191   3.891   9.033  0.1360 -1.1561 -0.0387
 6394SOL    HW230819   4.332   3.862   9.014  0.3871  2.8881 -2.2990
 6395SOL     OW30820   4.717   4.524  10.791  0.2322 -0.1886  0.3280
 6395SOL    HW130821   0.054   4.469  10.779 -0.1685 -1.4634  3.6742
 6395SOL    HW230822   4.650   4.459  10.809 -0.7330  0.4184 -1.1243
 6396SOL     OW30823   0.480   2.703   1.215 -0.3286 -0.2699 -0.5705
 6396SOL    HW130824   0.487   2.788   1.171 -1.6383 -1.5723 -3.3056
 6396SOL    HW230825   0.513   2.736   1.298  0.1607  0.5727 -1.1077
 6397SOL     OW30826   2.109   4.144  17.360  0.5295 -0.6359  0.1363
 6397SOL    HW130827   2.181   4.081  17.353 -1.4334 -2.6960 -1.3736
 6397SOL    HW230828   2.038   4.080  17.355 -0.7023  0.8434 -1.3795
 6398SOL     OW30829   4.362   0.283  10.194  0.1571 -0.1563  0.4564
 6398SOL    HW130830   4.339   0.374  10.214  1.7220  0.2345  0.4484
 6398SOL    HW230831   4.295   0.254  10.132 -0.6271  1.8579  0.3523
 6399SOL     OW30832   4.656   3.047   4.199 -0.6023 -0.2736  0.0799
 6399SOL    HW130833   4.683   3.023   4.110 -0.1945  1.7712 -0.3480
 6399SOL    HW230834   4.719   3.118   4.216 -1.0863 -0.0434  0.9330
 6400SOL     OW30835   2.755   3.344   1.362 -0.2107  0.2828  0.0069
 6400SOL    HW130836   2.731   3.387   1.444 -3.2984  1.1189 -1.3492
 6400SOL    HW230837   2.710   3.263   1.385  1.4489 -1.0424 -1.3892
 6401SOL     OW30838   3.358   3.507   8.846  0.2118  0.4502 -0.2789
 6401SOL    HW130839   3.396   3.581   8.894  0.8117  0.0990 -0.2134
 6401SOL    HW230840   3.285   3.551   8.802 -0.9223 -0.8166  0.3471
 6402SOL     OW30841   3.254   1.512   6.546  0.1520  0.3605 -0.4814
 6402SOL    HW130842   3.269   1.481   6.457 -1.6810  2.0264 -1.3821
 6402SOL    HW230843   3.180   1.571   6.526 -0.6936 -0.8422 -0.8937
 6403SOL     OW30844   2.941   0.362  17.618 -0.3761  0.1585  0.3690
 6403SOL    HW130845   2.979   0.356  17.530 -1.6709 -2.6753  0.0163
 6403SOL    HW230846   2.864   0.414  17.597 -0.8524  0.6141  3.1898
 6404SOL     OW30847   3.799   3.670   2.039 -0.0640 -0.2220  0.9057
 6404SOL    HW130848   3.710   3.664   2.005  0.1824  1.1078  0.0183
 6404SOL    HW230849   3.834   3.739   1.982 -2.1109  1.4741  1.7011
 6405SOL     OW30850   0.904   4.370  16.925 -0.3494 -0.0194 -0.0470
 6405SOL    HW130851   0.877   4.418  16.846  1.0909 -1.4004 -1.3853
 6405SOL    HW230852   0.978   4.424  16.954  0.5517 -0.9899 -0.5257
 6406SOL     OW30853   1.403   1.925   3.257 -0.0313  0.2677 -0.6747
 6406SOL    HW130854   1.495   1.923   3.282 -0.2514  0.5097  0.1653
 6406SOL    HW230855   1.364   1.980   3.325  1.1878 -0.3345  0.5111
 6407SOL     OW30856   1.413   3.461   3.721  0.4855  0.7251 -0.2358
 6407SOL    HW130857   1.455   3.412   3.792  0.7602 -0.2000 -1.0257
 6407SOL    HW230858   1.486   3.459   3.658  1.4268  0.2832  0.8724
 6408SOL     OW30859   4.352   0.443   2.292 -0.3166  0.6158  0.2881
 6408SOL    HW130860   4.309   0.489   2.219  1.5163  2.9260  0.6485
 6408SOL    HW230861   4.282   0.399   2.340  0.8406 -1.3439  0.1495
 6409SOL     OW30862   4.381   2.061   4.771 -0.0605 -0.2640 -0.2572
 6409SOL    HW130863   4.390   2.073   4.866 -0.9907  0.2089 -0.2336
 6409SOL    HW230864   4.462   2.012   4.754  0.6576  1.0845 -0.7221
 6410SOL     OW30865   1.371   1.103   9.517 -0.1643  0.1958 -0.5197
 6410SOL    HW130866   1.385   1.130   9.608 -0.1023  0.6858 -0.6761
 6410SOL    HW230867   1.410   1.175   9.468  0.0842 -0.4723 -1.3111
 6411SOL     OW30868   0.840   4.146   9.219  0.4426 -0.2940 -0.5079
 6411SOL    HW130869   0.910   4.122   9.279  0.3835 -1.1720 -0.7816
 6411SOL    HW230870   0.865   4.235   9.195  1.2604 -0.7158 -1.2296
 6412SOL     OW30871   0.562   3.059   6.808 -0.3299 -0.0772 -0.1154
 6412SOL    HW130872   0.476   3.098   6.796 -1.0363 -1.0932  1.6103
 6412SOL    HW230873   0.621   3.135   6.809  0.0351 -0.3539 -0.2622
 6413SOL     OW30874   0.939   3.248   2.213 -0.0264  0.0243 -0.2754
 6413SOL    HW130875   1.026   3.281   2.234 -0.7591  2.0125 -0.4193
 6413SOL    HW230876   0.942   3.157   2.243 -1.0687 -0.8837 -2.9370
 6414SOL     OW30877   3.029   4.643   7.929  0.3661  0.5195 -0.0134
 6414SOL    HW130878   3.063   4.727   7.899  3.4367 -0.4189  0.7544
 6414SOL    HW230879   2.997   4.608   7.845  2.1431  1.2616 -1.0151
 6415SOL     OW30880   3.332   3.649   7.775  0.0409 -0.8279 -0.1970
 6415SOL    HW130881   3.399   3.699   7.728  0.2602 -0.0801  0.9145
 6415SOL    HW230882   3.390   3.597   7.831 -1.5880 -1.2872  1.0352
 6416SOL     OW30883   3.570   0.697  12.632  0.4669  0.1245  0.3380
 6416SOL    HW130884   3.560   0.605  12.655  1.3585  0.0028  0.2462
 6416SOL    HW230885   3.480   0.723  12.611  0.9048  0.6096 -0.9852
 6417SOL     OW30886   1.973   3.637  10.098 -0.3385  0.3348  0.1957
 6417SOL    HW130887   2.030   3.708  10.068 -1.0273  1.3159  1.2243
 6417SOL    HW230888   1.918   3.623  10.022  1.3276 -1.0242 -0.7567
 6418SOL     OW30889   2.794   3.166   3.436 -0.6488  0.1654  0.1387
 6418SOL    HW130890   2.857   3.238   3.443  0.5639 -0.7738 -1.0260
 6418SOL    HW230891   2.838   3.103   3.378  0.7476  0.8835  0.3987
 6419SOL     OW30892   3.539   3.496   7.884 -0.4885  0.1755  0.0623
 6419SOL    HW130893   3.605   3.493   7.815 -3.2738  0.1344 -2.6051
 6419SOL    HW230894   3.592   3.511   7.962  0.4652  2.1314 -0.9639
 6420SOL     OW30895   4.714   1.696   5.642  0.3305 -0.5465  0.2189
 6420SOL    HW130896   0.036   1.735   5.580 -0.9414  1.7768  0.4077
 6420SOL    HW230897   4.631   1.715   5.596  1.9356  1.5100 -1.8256
 6421SOL     OW30898   4.260   2.979   0.665  0.1729 -0.2524  0.3008
 6421SOL    HW130899   4.238   2.888   0.684 -0.3057 -0.0181  0.8701
 6421SOL    HW230900   4.175   3.016   0.689 -0.3603 -1.8221  0.8104
 6422SOL     OW30901   0.226   2.820   9.950  0.1270 -0.0563  0.0954
 6422SOL    HW130902   0.294   2.756   9.972 -0.1351 -0.3870 -0.0466
 6422SOL    HW230903   0.152   2.777   9.993 -1.5383 -1.7107 -4.3640
 6423SOL     OW30904   3.293   0.797   3.664  0.1275  0.1512 -0.0020
 6423SOL    HW130905   3.238   0.849   3.724 -0.3560 -1.9828  1.3897
 6423SOL    HW230906   3.312   0.722   3.719  0.0999  0.2720  0.1717
 6424SOL     OW30907   3.769   3.656   1.132  0.0097 -0.4527  0.1906
 6424SOL    HW130908   3.863   3.663   1.145  0.1897  0.4900 -1.6779
 6424SOL    HW230909   3.741   3.692   1.216  1.3300 -1.3749  1.0221
 6425SOL     OW30910   1.041   1.981  15.875  0.1660  0.0653  0.4562
 6425SOL    HW130911   1.017   2.073  15.886 -0.0314  0.0110  0.4880
 6425SOL    HW230912   1.037   1.977  15.779  1.3494  0.3088  0.3937
 6426SOL     OW30913   3.182   3.426  10.658  0.3240 -0.1265 -0.0100
 6426SOL    HW130914   3.095   3.416  10.619  1.6797 -1.4254 -2.6679
 6426SOL    HW230915   3.171   3.374  10.737 -2.0244 -0.5409 -0.6132
 6427SOL     OW30916   0.720   4.500  14.402 -0.1856  0.6595  0.3679
 6427SOL    HW130917   0.788   4.433  14.397 -0.0737  0.8592 -0.8929
 6427SOL    HW230918   0.642   4.445  14.392  0.7700 -0.5392 -0.4431
 6428SOL     OW30919   3.833   0.679  17.674  0.6663 -0.2130 -0.2638
 6428SOL    HW130920   3.850   0.653   0.005  1.1180 -1.0703 -0.5972
 6428SOL    HW230921   3.751   0.632  17.662  1.0800 -1.1691  0.6771
 6429SOL     OW30922   4.080   4.299  15.318 -0.5431  0.0486  0.3176
 6429SOL    HW130923   3.985   4.297  15.306 -0.4282 -0.5069 -0.5021
 6429SOL    HW230924   4.089   4.292  15.413  1.1324  1.1283  0.2447
 6430SOL     OW30925   0.262   0.808   7.366  0.1634  0.1754  0.0610
 6430SOL    HW130926   0.172   0.830   7.340  0.1332 -0.4934 -0.3955
 6430SOL    HW230927   0.263   0.853   7.451 -3.6726 -0.3022  0.3788
 6431SOL     OW30928   1.269   0.036   8.963  0.7245  0.0742  0.2546
 6431SOL    HW130929   1.180   0.047   8.996 -0.4195  0.2745 -2.9020
 6431SOL    HW230930   1.275   4.694   8.915  1.4496 -1.7469  3.4938
 6432SOL     OW30931   3.524   1.898  13.630 -0.2258  0.3643 -0.1285
 6432SOL    HW130932   3.493   1.811  13.654 -1.8975  1.0372  0.1408
 6432SOL    HW230933   3.492   1.903  13.540  0.4118  0.0486 -0.3665
 6433SOL     OW30934   0.902   3.952   3.685  0.1522  0.0564 -0.4530
 6433SOL    HW130935   0.949   3.998   3.615  2.2865  0.8760  1.5023
 6433SOL    HW230936   0.811   3.975   3.669  0.1364 -0.7571 -1.4917
 6434SOL     OW30937   3.911   1.376   5.312  0.0706  0.1557  0.1488
 6434SOL    HW130938   3.888   1.466   5.289 -0.5717 -0.3372 -1.1829
 6434SOL    HW230939   3.949   1.382   5.399 -0.2213  2.6802  0.0941
 6435SOL     OW30940   0.166   4.238   6.726  0.3619  0.1768  0.5624
 6435SOL    HW130941   0.249   4.193   6.745  1.2686  1.1265 -1.0944
 6435SOL    HW230942   0.187   4.326   6.755 -0.9552  1.0219 -1.0587
 6436SOL     OW30943   1.196   1.169   2.244 -0.2687 -0.1006  0.2329
 6436SOL    HW130944   1.235   1.178   2.330 -1.2745 -2.5825  0.9497
 6436SOL    HW230945   1.109   1.144   2.277  0.5166 -1.7405  1.0573
 6437SOL     OW30946   0.574   0.557   9.496 -0.3803  0.3414  0.2449
 6437SOL    HW130947   0.484   0.524   9.486 -0.4909 -0.1067  2.8887
 6437SOL    HW230948   0.564   0.635   9.441  1.1466  1.9172  2.1969
 6438SOL     OW30949   1.174   0.682   2.544  0.4668 -0.6490  0.2197
 6438SOL    HW130950   1.244   0.624   2.513 -2.0806 -2.3369 -2.3840
 6438SOL    HW230951   1.190   0.673   2.638  1.3992 -0.3350  0.0912
 6439SOL     OW30952   1.737   3.034   1.994 -0.0969  0.5654 -0.0969
 6439SOL    HW130953   1.715   3.047   2.087  0.9759 -0.3481  0.2867
 6439SOL    HW230954   1.664   3.077   1.950  0.1125  0.3780 -0.6289
 6440SOL     OW30955   4.333   0.216   4.978  0.0220 -0.4358 -0.1467
 6440SOL    HW130956   4.311   0.287   4.919 -2.5016  0.1407  1.4921
 6440SOL    HW230957   4.253   0.214   5.031 -0.4074 -1.2053 -0.8082
 6441SOL     OW30958   4.099   4.097   4.474 -0.2886  0.2233  0.3220
 6441SOL    HW130959   4.140   4.062   4.554 -2.2430  1.9568  2.0783
 6441SOL    HW230960   4.167   4.091   4.407  0.3012 -2.5666  1.1399
 6442SOL     OW30961   1.164   1.510  13.367 -0.3540  0.2255 -0.0653
 6442SOL    HW130962   1.084   1.562  13.362 -1.1923 -0.9965  0.5943
 6442SOL    HW230963   1.162   1.459  13.286 -1.7752  1.7518 -0.9985
 6443SOL     OW30964   2.670   4.485   2.217 -0.3266  0.7762 -0.1030
 6443SOL    HW130965   2.734   4.458   2.150 -1.0594 -0.5011 -0.2961
 6443SOL    HW230966   2.591   4.481   2.163 -0.0007 -0.7719 -0.4732
 6444SOL     OW30967   3.960   1.212   6.748  0.5150 -0.2847  0.5838
 6444SOL    HW130968   3.921   1.126   6.735  0.3548 -0.2108  0.5840
 6444SOL    HW230969   3.973   1.245   6.658  0.1526  0.3764  0.7722
 6445SOL     OW30970   2.269   3.972   8.390  0.3739  0.1273 -0.1690
 6445SOL    HW130971   2.174   3.971   8.380  0.3355 -0.9851  0.2640
 6445SOL    HW230972   2.288   3.880   8.410 -0.2391 -0.2274 -1.1892
 6446SOL     OW30973   1.496   0.597   5.723 -0.1326 -0.0533  0.4001
 6446SOL    HW130974   1.530   0.686   5.727  1.8226 -0.8250  1.2803
 6446SOL    HW230975   1.428   0.595   5.656  0.6487 -1.0225 -0.3744
 6447SOL     OW30976   3.797   2.347   5.367 -0.1071 -0.0989 -0.6387
 6447SOL    HW130977   3.758   2.416   5.314  0.0841  1.6442  1.5057
 6447SOL    HW230978   3.811   2.384   5.454 -1.3067  0.7680 -0.8207
 6448SOL     OW30979   3.447   0.733  15.036  0.1349  0.0987 -0.0790
 6448SOL    HW130980   3.507   0.702  15.103  0.0400 -0.0457 -0.0583
 6448SOL    HW230981   3.425   0.656  14.983 -1.0253 -0.3514  1.0532
 6449SOL     OW30982   1.795   3.096  15.113  0.3649 -0.7968 -0.1359
 6449SOL    HW130983   1.833   3.148  15.184  2.4886 -0.2218 -1.6797
 6449SOL    HW230984   1.745   3.036  15.168 -2.1276  0.0422 -1.5353
 6450SOL     OW30985   1.334   4.550   0.231  0.6586 -0.2494 -0.6814
 6450SOL    HW130986   1.264   4.529   0.169 -0.8417  1.1077  0.5554
 6450SOL    HW230987   1.388   4.472   0.217  3.5880  1.0032  3.4646
 6451SOL     OW30988   3.097   2.023   5.148  0.2602  0.3415  0.4465
 6451SOL    HW130989   3.015   1.982   5.120  0.6470  0.7850 -1.2749
 6451SOL    HW230990   3.164   1.962   5.117 -1.0641  0.4399 -2.6018
 6452SOL     OW30991   3.368   2.964   2.379 -0.4377 -0.0878  0.7192
 6452SOL    HW130992   3.317   3.045   2.373 -0.6712 -0.2696  0.2890
 6452SOL    HW230993   3.455   3.002   2.397 -0.1796 -0.6565  0.6569
 6453SOL     OW30994   2.468   4.724   1.663 -0.4202  0.2424 -0.2779
 6453SOL    HW130995   2.525   4.701   1.736 -2.4517 -1.0099  0.9280
 6453SOL    HW230996   2.519   0.041   1.606 -1.9926 -0.9323 -2.8570
 6454SOL     OW30997   3.068   4.112  14.078 -0.5872 -0.4177  0.5262
 6454SOL    HW130998   3.030   4.193  14.043 -2.2436 -1.6359 -0.4527
 6454SOL    HW230999   2.996   4.060  14.114 -1.9985  1.2828  0.1436
 6455SOL     OW31000   2.043   0.961   6.502  0.5396 -0.2086 -0.4382
 6455SOL    HW131001   2.093   1.040   6.482 -1.0678  1.0631  0.5972
 6455SOL    HW231002   2.053   0.948   6.596 -0.4041  1.0131 -0.1789
 6456SOL     OW31003   4.072   2.345   4.506 -0.4930  0.2724  0.0388
 6456SOL    HW131004   3.999   2.291   4.475 -0.9718  0.9542 -0.0267
 6456SOL    HW231005   4.030   2.394   4.577 -3.1422  0.9547 -1.9889
 6457SOL     OW31006   1.310   0.400  11.396  0.4915  0.2530 -0.0560
 6457SOL    HW131007   1.354   0.323  11.359  1.6800  0.9513 -0.1087
 6457SOL    HW231008   1.235   0.402  11.337 -1.0794 -1.8405  1.8797
 6458SOL     OW31009   4.670   2.216   4.815 -0.0324 -0.2173 -0.8285
 6458SOL    HW131010   4.709   2.141   4.770 -0.5826 -0.9813 -0.0447
 6458SOL    HW231011   4.736   2.277   4.785 -1.5971  2.4952  1.2810
 6459SOL     OW31012   0.889   3.796   4.890  0.1366 -0.0033 -0.4829
 6459SOL    HW131013   0.961   3.835   4.940  0.1278  1.2762 -1.4670
 6459SOL    HW231014   0.930   3.725   4.840  0.8265 -1.5904  2.3273
 6460SOL     OW31015   2.437   4.725  12.590  0.0757 -0.2098  0.1434
 6460SOL    HW131016   2.411   4.733  12.499  1.4093 -1.2405 -0.3226
 6460SOL    HW231017   2.350   4.733  12.629  0.9271  1.7946  1.6230
 6461SOL     OW31018   0.196   1.495   7.918 -0.0901 -0.4555  0.1494
 6461SOL    HW131019   0.180   1.420   7.975 -2.1942  2.1363  2.9680
 6461SOL    HW231020   0.222   1.454   7.836 -0.5485 -2.3849  0.9724
 6462SOL     OW31021   0.510   2.650   7.927  0.4995 -0.3666 -0.3757
 6462SOL    HW131022   0.451   2.584   7.963 -2.1510  2.2279  0.0741
 6462SOL    HW231023   0.465   2.700   7.859 -2.0671 -1.1357  0.7436
 6463SOL     OW31024   0.633   1.192   2.647 -0.5097  1.0723 -0.0659
 6463SOL    HW131025   0.607   1.107   2.682  2.4188 -0.3765 -1.4687
 6463SOL    HW231026   0.544   1.226   2.655 -0.0988  2.4813 -1.6217
 6464SOL     OW31027   3.394   1.758   3.060 -0.4743  0.1166 -0.1913
 6464SOL    HW131028   3.348   1.801   3.133 -0.5568 -0.3478  0.0299
 6464SOL    HW231029   3.326   1.747   2.993  1.4097  2.2642 -2.4110
 6465SOL     OW31030   1.078   0.134   5.432 -0.7111 -0.0638  0.1195
 6465SOL    HW131031   1.156   0.157   5.383 -1.3490  2.4438  0.2920
 6465SOL    HW231032   1.098   0.174   5.516  0.9539  0.2137 -0.4098
 6466SOL     OW31033   1.198   1.250  12.375 -0.4279  0.3072  0.0001
 6466SOL    HW131034   1.247   1.168  12.379  0.6274  0.9498 -0.0662
 6466SOL    HW231035   1.106   1.221  12.378  0.1613 -1.4508  1.4643
 6467SOL     OW31036   1.119   2.652   4.044 -0.2132  0.6211  0.4066
 6467SOL    HW131037   1.139   2.672   4.135  0.2940  1.0805  0.1941
 6467SOL    HW231038   1.023   2.648   4.049 -0.2992  0.5998 -1.1952
 6468SOL     OW31039   3.659   3.753   9.237 -0.0141  0.4210  0.1136
 6468SOL    HW131040   3.678   3.685   9.172 -0.9414 -1.6181  1.9683
 6468SOL    HW231041   3.565   3.744   9.248 -0.0360 -0.0439 -0.4573
 6469SOL     OW31042   4.599   3.292   1.341 -0.1626  0.5731  0.4015
 6469SOL    HW131043   4.647   3.282   1.259 -0.0381  1.0088  0.4205
 6469SOL    HW231044   4.648   3.230   1.394 -0.1328 -0.5762 -0.9714
 6470SOL     OW31045   1.758   0.881   7.349 -0.3821 -0.0417  0.7415
 6470SOL    HW131046   1.748   0.976   7.344 -1.2852 -0.0347  2.5716
 6470SOL    HW231047   1.842   0.868   7.393 -0.1719 -0.3429  0.2443
 6471SOL     OW31048   2.548   0.707   2.384  0.1011 -0.0100  0.2451
 6471SOL    HW131049   2.600   0.727   2.462  0.3994  2.0871 -0.4891
 6471SOL    HW231050   2.616   0.662   2.335  0.5768  0.0139  0.8855
 6472SOL     OW31051   4.248   3.982   5.844 -0.2270  0.4653 -0.1452
 6472SOL    HW131052   4.330   4.007   5.886 -1.1087  1.4412  0.9923
 6472SOL    HW231053   4.253   4.023   5.757  1.3699 -1.7193 -1.0941
 6473SOL     OW31054   1.227   3.657  14.873  0.3576  0.3156  0.6777
 6473SOL    HW131055   1.170   3.721  14.831  1.1513  0.5129 -0.0891
 6473SOL    HW231056   1.172   3.597  14.923 -2.2190  2.5829  0.5367
 6474SOL     OW31057   2.021   3.850   8.367 -0.1399  0.2764  0.0871
 6474SOL    HW131058   2.020   3.759   8.396  1.5082 -0.0648 -0.9597
 6474SOL    HW231059   2.003   3.835   8.275 -2.2306 -0.4032  0.6164
 6475SOL     OW31060   2.035   2.315   9.046 -0.3636  0.0512  0.2009
 6475SOL    HW131061   1.957   2.288   8.999  1.0419 -3.7967  0.0902
 6475SOL    HW231062   2.058   2.398   9.003 -1.1620 -0.9047 -2.0244
 6476SOL     OW31063   3.542   0.440   7.895  0.0495  0.0751  0.6398
 6476SOL    HW131064   3.586   0.512   7.942  0.9830 -0.6683  0.9078
 6476SOL    HW231065   3.450   0.465   7.908 -0.5936 -2.9873  1.8539
 6477SOL     OW31066   0.232   0.278   3.579 -0.4608  0.5296  0.4426
 6477SOL    HW131067   0.317   0.238   3.600 -1.6862 -1.1368  2.3532
 6477SOL    HW231068   0.189   0.208   3.530  0.1977  1.1574 -1.0221
 6478SOL     OW31069   1.011   2.041  13.359  0.5814  0.2437 -0.0675
 6478SOL    HW131070   1.099   2.072  13.339  0.8811 -1.4926 -1.4333
 6478SOL    HW231071   1.017   1.956  13.316  2.8842  0.4776 -0.1868
 6479SOL     OW31072   2.323   1.544  13.836  0.4609  0.2459  0.2491
 6479SOL    HW131073   2.398   1.574  13.783  0.9779 -1.0161  0.2706
 6479SOL    HW231074   2.289   1.613  13.893 -2.0392 -1.1507  0.4368
 6480SOL     OW31075   2.523   1.091  16.180 -0.0431  0.6250 -0.3374
 6480SOL    HW131076   2.525   1.121  16.089  1.6551 -0.0234 -0.5224
 6480SOL    HW231077   2.428   1.079  16.185 -0.1395  1.5699 -0.0301
 6481SOL     OW31078   2.179   2.263   6.375 -0.0162 -0.2029  0.1136
 6481SOL    HW131079   2.250   2.308   6.421  1.7905 -0.7584 -2.1764
 6481SOL    HW231080   2.103   2.307   6.414  0.2298 -0.1282  0.5097
 6482SOL     OW31081   1.444   3.723   9.123  0.0707 -0.3083  0.3302
 6482SOL    HW131082   1.535   3.714   9.096  0.0257  1.5629 -0.4890
 6482SOL    HW231083   1.401   3.776   9.056 -0.8977 -0.8678  0.5060
 6483SOL     OW31084   1.651   0.110   7.294  0.2144  0.0648 -0.3680
 6483SOL    HW131085   1.731   0.112   7.242 -0.5626  0.4440 -1.5426
 6483SOL    HW231086   1.613   0.028   7.261  1.1042  0.3080 -1.9935
 6484SOL     OW31087   2.776   2.201   5.487  0.1011 -0.5871 -0.2624
 6484SOL    HW131088   2.798   2.138   5.556  1.4050 -0.1284 -0.2700
 6484SOL    HW231089   2.864   2.237   5.475  0.0235 -0.8805 -1.7569
 6485SOL     OW31090   1.952   4.107   9.820 -0.2092 -0.1854 -0.0345
 6485SOL    HW131091   1.938   4.182   9.877 -0.5415  0.1380 -0.5437
 6485SOL    HW231092   1.865   4.110   9.780  0.1904  3.1863 -0.6604
 6486SOL     OW31093   3.448   1.145  17.283 -0.3209 -0.2624  0.0489
 6486SOL    HW131094   3.535   1.139  17.245  0.8665  0.4862  2.6586
 6486SOL    HW231095   3.461   1.222  17.338 -0.0469 -0.7968  0.7352
 6487SOL     OW31096   0.828   1.836   3.421 -0.2986  0.4360  0.3110
 6487SOL    HW131097   0.753   1.848   3.480 -1.2986 -1.1992 -0.6272
 6487SOL    HW231098   0.793   1.863   3.336 -0.5022  0.0364  0.2693
 6488SOL     OW31099   1.516   1.742   7.463 -0.0361 -0.1423 -0.3141
 6488SOL    HW131100   1.429   1.704   7.450  0.4318 -1.1570 -0.4821
 6488SOL    HW231101   1.504   1.822   7.513  0.5592  0.0941 -0.5449
 6489SOL     OW31102   1.339   2.884   4.171 -0.3085  0.1725  0.3816
 6489SOL    HW131103   1.306   2.962   4.128 -1.3080 -0.4297  0.0591
 6489SOL    HW231104   1.410   2.930   4.217 -0.0808 -0.4162  0.6199
 6490SOL     OW31105   2.883   2.785   5.775  0.5594 -0.3132 -0.1481
 6490SOL    HW131106   2.915   2.710   5.824 -0.4456  1.2768  2.9661
 6490SOL    HW231107   2.848   2.843   5.843  0.0347 -1.6732  0.7240
 6491SOL     OW31108   3.035   3.286   8.790  0.8450  0.4754 -0.8939
 6491SOL    HW131109   3.010   3.357   8.849 -3.4287  0.1781 -2.3037
 6491SOL    HW231110   3.082   3.242   8.860  1.0933  0.9090 -0.7863
 6492SOL     OW31111   1.448   2.319  12.767  0.0918  1.2105  0.1662
 6492SOL    HW131112   1.460   2.408  12.734  0.7885  0.3773 -1.8158
 6492SOL    HW231113   1.417   2.339  12.855  0.2501 -0.3431  0.5720
 6493SOL     OW31114   2.641   3.686   8.690  0.1164 -0.0574 -0.3569
 6493SOL    HW131115   2.548   3.702   8.706 -0.9945 -2.8319 -4.0412
 6493SOL    HW231116   2.683   3.708   8.774  0.1831  0.1299 -0.4395
 6494SOL     OW31117   1.053   3.972   2.462  0.3486 -0.0096  0.6353
 6494SOL    HW131118   1.073   3.879   2.454 -1.8765 -0.3876 -0.3738
 6494SOL    HW231119   1.094   3.997   2.546  0.0534 -0.5196  0.9310
 6495SOL     OW31120   0.937   4.373   5.778  0.0241  0.5532 -0.6981
 6495SOL    HW131121   0.848   4.340   5.790  0.1547  0.9803  1.5642
 6495SOL    HW231122   0.986   4.364   5.860  0.5930  2.0439 -0.8772
 6496SOL     OW31123   0.229   2.175  17.481 -0.1160 -0.3533  0.0815
 6496SOL    HW131124   0.153   2.121  17.504 -0.3019  0.9238  2.4889
 6496SOL    HW231125   0.193   2.253  17.440  0.5160  0.5021  1.1441
 6497SOL     OW31126   1.558   2.539  11.117 -0.2965  0.2318  0.5280
 6497SOL    HW131127   1.472   2.498  11.130 -0.1465 -0.0675  0.5585
 6497SOL    HW231128   1.592   2.546  11.206 -1.0208 -2.4438  1.0120
 6498SOL     OW31129   0.861   0.124   6.663  0.6627  0.0116  0.7724
 6498SOL    HW131130   0.814   0.207   6.657  0.4148 -0.1399  0.6325
 6498SOL    HW231131   0.847   0.087   6.750 -1.0149  0.8118  0.8353
 6499SOL     OW31132   1.751   1.080   4.915 -0.4672 -0.5453  0.0007
 6499SOL    HW131133   1.718   1.157   4.961 -1.3496 -1.0944  0.2777
 6499SOL    HW231134   1.847   1.083   4.916 -0.4381 -1.9251  2.0937
 6500SOL     OW31135   3.138   1.275   3.231 -0.3972 -0.3632  0.0161
 6500SOL    HW131136   3.172   1.273   3.320 -1.9365  4.2089  0.7304
 6500SOL    HW231137   3.044   1.284   3.246 -0.4737  0.4204 -0.8620
 6501SOL     OW31138   2.603   3.670   5.349 -0.1472  0.0527 -0.6872
 6501SOL    HW131139   2.543   3.598   5.331 -0.0158 -1.1752  3.7415
 6501SOL    HW231140   2.587   3.732   5.278 -1.7718 -0.5718 -0.8627
 6502SOL     OW31141   2.849   1.069   4.678 -0.1241  0.1822 -0.0547
 6502SOL    HW131142   2.875   1.153   4.640 -2.3790  1.1839  0.6121
 6502SOL    HW231143   2.936   1.028   4.671 -1.0684 -2.4092  3.2654
 6503SOL     OW31144   3.087   2.092   5.979  0.5980 -0.3334  0.2487
 6503SOL    HW131145   3.146   2.162   6.005 -0.0322  0.2440  0.1241
 6503SOL    HW231146   3.087   2.107   5.885  0.7936 -0.4992  0.2213
 6504SOL     OW31147   1.756   4.598  15.401 -0.3146 -1.0682  0.0500
 6504SOL    HW131148   1.749   4.627  15.492  1.0136 -1.8833  0.4122
 6504SOL    HW231149   1.696   4.661  15.362 -1.0026 -1.8466 -0.1527
 6505SOL     OW31150   0.171   2.002   2.854  0.2347  0.4563 -0.3892
 6505SOL    HW131151   0.180   1.921   2.904 -0.5277  0.8415  0.3852
 6505SOL    HW231152   0.088   1.987   2.811 -1.4869  0.2367  2.9982
 6506SOL     OW31153   3.555   1.861  17.326 -0.2823  0.1325  0.4621
 6506SOL    HW131154   3.636   1.819  17.297 -0.9029 -0.2639 -0.7118
 6506SOL    HW231155   3.516   1.884  17.242 -0.3086  1.1738  0.7702
 6507SOL     OW31156   1.242   0.153   6.098 -0.3400 -0.1447 -0.4535
 6507SOL    HW131157   1.279   0.156   6.186  2.0654  0.1150 -1.4614
 6507SOL    HW231158   1.191   0.072   6.092 -0.2207 -0.1973 -0.7902
 6508SOL     OW31159   2.335   0.426   5.215 -0.0481  0.3571  0.2067
 6508SOL    HW131160   2.330   0.435   5.120 -0.0292 -1.1768  0.0559
 6508SOL    HW231161   2.403   0.491   5.234 -0.1303  0.4496  0.1799
 6509SOL     OW31162   4.189   2.968  12.297  0.3713  0.3666  0.8208
 6509SOL    HW131163   4.148   3.044  12.256 -0.1327  0.2148  1.0382
 6509SOL    HW231164   4.144   2.895  12.254 -1.5276  2.4359 -0.7482
 6510SOL     OW31165   1.986   1.786   5.700  0.7089 -0.0256 -0.7629
 6510SOL    HW131166   1.940   1.840   5.634 -0.0812  3.3456  2.5362
 6510SOL    HW231167   2.071   1.830   5.707  0.6702 -0.2465  1.0687
 6511SOL     OW31168   2.453   3.937   0.519 -0.2709  0.1934 -0.1911
 6511SOL    HW131169   2.461   3.973   0.431  0.4549  1.0535  0.2166
 6511SOL    HW231170   2.360   3.949   0.537 -0.8653 -5.0889  0.0317
 6512SOL     OW31171   3.451   3.214  15.826 -0.6989 -0.4372  0.1868
 6512SOL    HW131172   3.467   3.308  15.824  0.7682 -0.7146 -1.4345
 6512SOL    HW231173   3.378   3.207  15.888 -0.0323 -0.4133  0.9830
 6513SOL     OW31174   0.207   2.902   8.757 -0.6341 -0.3402 -0.2960
 6513SOL    HW131175   0.240   2.823   8.715  2.7626 -0.6179  2.8844
 6513SOL    HW231176   0.146   2.934   8.690 -1.5316 -0.4066  0.5050
 6514SOL     OW31177   3.000   2.738   4.668 -0.2744  0.5620 -0.0228
 6514SOL    HW131178   2.944   2.771   4.737  1.1027 -1.4362  2.0744
 6514SOL    HW231179   2.938   2.698   4.606 -0.2302 -0.1279  0.3776
 6515SOL     OW31180   0.935   3.396   9.742 -0.3254  0.1899 -0.4050
 6515SOL    HW131181   0.849   3.403   9.783 -1.4703 -0.5451 -2.6862
 6515SOL    HW231182   0.932   3.469   9.680 -1.9309 -0.6971 -1.3781
 6516SOL     OW31183   4.259   3.062   8.810 -0.2281 -0.9602  0.0346
 6516SOL    HW131184   4.211   3.086   8.889  2.4228  0.5466  1.2180
 6516SOL    HW231185   4.259   2.969   8.829 -1.9170 -0.7258  1.1542
 6517SOL     OW31186   1.008   3.237   3.281 -0.3065 -0.3671 -0.8610
 6517SOL    HW131187   1.097   3.269   3.266  0.5520 -2.1997  0.3393
 6517SOL    HW231188   0.955   3.316   3.295  1.4378  0.4119  1.2519
 6518SOL     OW31189   2.778   3.750  17.507  0.2050  0.3927  0.0426
 6518SOL    HW131190   2.859   3.775  17.461 -0.2934  2.2919  0.2087
 6518SOL    HW231191   2.814   3.769  17.593  1.0557  0.4013 -0.3110
 6519SOL     OW31192   2.919   1.052   7.472  0.3777  0.0875  0.2399
 6519SOL    HW131193   2.913   0.990   7.399 -4.0388  1.3020 -0.4386
 6519SOL    HW231194   2.841   1.105   7.460  0.9231  1.2513  1.8816
 6520SOL     OW31195   4.171   0.581   2.681 -0.1084  0.6426  0.3725
 6520SOL    HW131196   4.099   0.630   2.641  1.5555  1.8464 -1.1424
 6520SOL    HW231197   4.209   0.534   2.607 -0.7329  1.6694 -0.6033
 6521SOL     OW31198   4.410   1.819  13.301  0.2217  0.2099 -0.4489
 6521SOL    HW131199   4.469   1.781  13.235 -0.6030 -1.3382 -0.2696
 6521SOL    HW231200   4.444   1.908  13.311  3.2374 -0.7176 -2.3780
 6522SOL     OW31201   3.803   2.960  14.300  0.0292  0.2562 -0.1213
 6522SOL    HW131202   3.791   2.874  14.340 -1.0369  0.8215  0.7748
 6522SOL    HW231203   3.712   2.990  14.288 -0.5083 -1.4771 -0.4221
 6523SOL     OW31204   0.111   1.933   2.440 -0.1325 -0.2804 -0.1133
 6523SOL    HW131205   0.058   1.980   2.504  0.0468 -1.0676  0.6160
 6523SOL    HW231206   0.116   2.001   2.373 -0.1480 -0.0552  0.1147
 6524SOL     OW31207   2.878   0.898   4.186 -0.2238 -0.2921 -0.6109
 6524SOL    HW131208   2.873   0.974   4.244  2.4159  0.3059 -1.1679
 6524SOL    HW231209   2.830   0.927   4.108 -1.8398 -0.1777  0.4266
 6525SOL     OW31210   0.050   2.793   3.606  0.0081  0.3482  0.0902
 6525SOL    HW131211   0.088   2.791   3.519 -0.7644 -0.5852 -0.2311
 6525SOL    HW231212   4.706   2.749   3.593  1.0041 -2.0429  1.7115
 6526SOL     OW31213   3.094   2.103   2.637 -0.1991  0.0295 -0.3469
 6526SOL    HW131214   3.159   2.103   2.707 -1.7076  2.8807  1.0459
 6526SOL    HW231215   3.030   2.168   2.664 -0.9230  0.4163 -2.9297
 6527SOL     OW31216   2.158   0.196   3.533  0.0651 -0.3082 -0.4651
 6527SOL    HW131217   2.082   0.199   3.591  0.1307 -0.0726 -0.3903
 6527SOL    HW231218   2.230   0.248   3.568 -0.1846 -0.0805 -0.2892
 6528SOL     OW31219   0.815   1.350   4.856  0.2729 -0.0125 -0.2723
 6528SOL    HW131220   0.836   1.257   4.856 -0.7262 -0.2356  0.2877
 6528SOL    HW231221   0.894   1.363   4.804  0.3625 -4.3081 -1.2106
 6529SOL     OW31222   3.086   1.491   2.843  0.0315 -0.0375 -0.5478
 6529SOL    HW131223   3.129   1.413   2.881 -1.3027 -0.6520 -0.3097
 6529SOL    HW231224   2.997   1.470   2.869 -0.7093  0.9702 -2.2887
 6530SOL     OW31225   0.049   3.451   0.879  0.2569  0.0053  0.5386
 6530SOL    HW131226   0.073   3.429   0.970 -0.1308  0.0523  0.6526
 6530SOL    HW231227   0.005   3.371   0.850  0.1124 -0.5192  2.1620
 6531SOL     OW31228   2.131   3.866   3.577  0.8376  0.0314  0.2607
 6531SOL    HW131229   2.133   3.814   3.497 -1.5800  1.4008 -0.6832
 6531SOL    HW231230   2.225   3.864   3.594  0.5071  1.3319  2.2566
 6532SOL     OW31231   2.490   2.331   1.032 -0.5806  0.4717  0.8332
 6532SOL    HW131232   2.536   2.370   1.107  1.1793 -1.6837  0.8805
 6532SOL    HW231233   2.521   2.241   1.036  3.0483  1.7019  1.3768
 6533SOL     OW31234   4.158   1.733   7.738  0.1401  0.0976  0.2716
 6533SOL    HW131235   4.102   1.655   7.727  0.6553 -0.1565 -0.5763
 6533SOL    HW231236   4.104   1.802   7.776 -0.6496 -0.5466  0.3191
 6534SOL     OW31237   2.839   2.835   1.500  0.5465 -0.2799  0.2841
 6534SOL    HW131238   2.743   2.832   1.508  0.6490  1.8949  2.0341
 6534SOL    HW231239   2.852   2.885   1.419 -1.9365  1.2569  0.8286
 6535SOL     OW31240   3.378   1.438   7.442  0.3321 -0.2150 -0.1405
 6535SOL    HW131241   3.283   1.448   7.450  0.0970 -1.1244 -1.7394
 6535SOL    HW231242   3.375   1.353   7.397 -2.1500 -0.5803  0.7250
 6536SOL     OW31243   2.145   2.523  14.018  0.2514  0.0717 -0.1359
 6536SOL    HW131244   2.218   2.573  13.982  0.9884 -0.6836  0.3162
 6536SOL    HW231245   2.095   2.513  13.936  0.0717  1.4220 -0.1824
 6537SOL     OW31246   2.912   0.801   3.059 -0.1732  0.3418  0.1674
 6537SOL    HW131247   2.956   0.868   3.007  0.9022  0.1358  0.8184
 6537SOL    HW231248   2.830   0.845   3.082 -1.2822 -0.1374 -2.8619
 6538SOL     OW31249   0.779   0.377   6.698 -0.1138 -0.1074  0.1022
 6538SOL    HW131250   0.833   0.424   6.634  1.6496 -0.0124  1.6647
 6538SOL    HW231251   0.700   0.431   6.705 -0.0561 -0.0430  0.2684
 6539SOL     OW31252   1.118   3.954   0.798  0.5768 -0.0070 -0.2913
 6539SOL    HW131253   1.023   3.952   0.793  0.4441  2.9911  0.7431
 6539SOL    HW231254   1.127   3.874   0.849  1.7112  1.0877  1.2266
 6540SOL     OW31255   0.003   3.972   5.260  0.1038  0.5707  0.1540
 6540SOL    HW131256   0.088   3.946   5.295 -0.0880 -0.5767 -0.2263
 6540SOL    HW231257   0.005   3.930   5.174  0.5983  2.0520 -0.5505
 6541SOL     OW31258   2.701   2.370   8.549 -0.2172 -0.8191 -0.0343
 6541SOL    HW131259   2.652   2.289   8.533 -0.5843  0.0570 -3.4141
 6541SOL    HW231260   2.631   2.428   8.518  1.1551  0.1493 -1.3413
 6542SOL     OW31261   1.690   2.113   5.688 -0.6032  0.4387 -0.1064
 6542SOL    HW131262   1.727   2.064   5.615  1.5378 -0.0796  1.2985
 6542SOL    HW231263   1.599   2.084   5.686  0.2429 -2.2451  0.0636
 6543SOL     OW31264   2.386   1.757   4.141  0.0977  0.7959 -0.5915
 6543SOL    HW131265   2.362   1.773   4.232  0.8317 -1.8676  0.0621
 6543SOL    HW231266   2.466   1.811   4.139 -0.8031  2.1971  0.8315
 6544SOL     OW31267   1.262   4.612   7.760  0.5711 -0.0100  0.8167
 6544SOL    HW131268   1.336   4.649   7.712 -0.0636  1.9575  1.3913
 6544SOL    HW231269   1.251   4.529   7.712 -2.9028  1.2411 -0.5066
 6545SOL     OW31270   3.354   1.166   7.250  0.0267  0.4442  0.7478
 6545SOL    HW131271   3.354   1.155   7.155  0.2131  1.3857  0.6390
 6545SOL    HW231272   3.259   1.161   7.262 -0.0153 -0.4597  0.0435
 6546SOL     OW31273   3.808   4.464   1.045 -0.5718 -0.2180  0.0887
 6546SOL    HW131274   3.722   4.443   1.010 -1.2665  2.0171  0.4557
 6546SOL    HW231275   3.824   4.552   1.012  1.5652  0.7503  3.6402
 6547SOL     OW31276   4.062   3.129   4.337 -0.3333  0.0053  0.2674
 6547SOL    HW131277   4.058   3.186   4.414 -1.1096 -0.8118  0.8200
 6547SOL    HW231278   4.033   3.053   4.387 -1.7057  0.9376  0.8776
 6548SOL     OW31279   0.935   1.546   6.592 -0.1022 -0.3026 -0.3289
 6548SOL    HW131280   1.018   1.498   6.590  0.8665  1.2624  1.8927
 6548SOL    HW231281   0.912   1.546   6.499 -0.5411  1.8281 -0.2312
 6549SOL     OW31282   3.760   2.836   4.774  0.0535 -0.4248  0.6692
 6549SOL    HW131283   3.766   2.759   4.718  0.9106 -0.9248  1.4511
 6549SOL    HW231284   3.670   2.831   4.808 -0.0816  0.7750  0.4712
 6550SOL     OW31285   1.702   4.580   8.151 -0.3213 -0.0622  1.2554
 6550SOL    HW131286   1.762   4.631   8.097 -1.2594  0.3533  0.5848
 6550SOL    HW231287   1.648   4.556   8.075  1.1954  0.8749 -0.1212
 6551SOL     OW31288   3.619   1.458   5.492  0.1913  0.0367  0.1850
 6551SOL    HW131289   3.697   1.496   5.533  0.3926  0.6655 -0.7652
 6551SOL    HW231290   3.623   1.365   5.516  1.6595 -0.2143 -0.9848
 6552SOL     OW31291   2.333   2.704   5.013  0.5861 -0.0860  0.1507
 6552SOL    HW131292   2.275   2.749   4.951 -0.5280 -1.4867  0.1813
 6552SOL    HW231293   2.342   2.772   5.080 -1.4120 -0.3838  0.7260
 6553SOL     OW31294   0.064   1.918  14.081  0.1348  0.0704 -0.1567
 6553SOL    HW131295   0.084   1.950  14.169  1.9509  0.7947 -0.8105
 6553SOL    HW231296   4.711   1.940  14.080  0.0488 -0.3702 -1.3449
 6554SOL     OW31297   1.364   0.873   5.350  0.2495  0.1152  0.2860
 6554SOL    HW131298   1.381   0.851   5.442 -1.7437 -0.2132  0.5622
 6554SOL    HW231299   1.287   0.822   5.326 -1.1795  2.3047  0.1893
 6555SOL     OW31300   0.598   0.428   7.983  0.0328 -0.0927 -0.7778
 6555SOL    HW131301   0.614   0.462   8.071 -3.7299  0.7938 -0.4023
 6555SOL    HW231302   0.560   0.503   7.938  0.0679  0.2573 -0.2239
 6556SOL     OW31303   0.102   0.558  11.237  0.2668 -0.0848 -0.0210
 6556SOL    HW131304   0.050   0.501  11.294 -1.8768  1.4918 -0.4024
 6556SOL    HW231305   0.070   0.538  11.149 -0.7656  2.5128 -0.2403
 6557SOL     OW31306   4.211   3.942   1.427  0.0860 -0.1796 -0.2705
 6557SOL    HW131307   4.154   3.921   1.502 -1.2425  2.2466 -0.6277
 6557SOL    HW231308   4.174   4.023   1.394  2.2140  0.2367 -1.6134
 6558SOL     OW31309   2.125   0.660   8.004  0.0971 -0.2066 -0.1829
 6558SOL    HW131310   2.160   0.665   8.093  0.4661 -0.2426 -0.3260
 6558SOL    HW231311   2.184   0.729   7.974 -0.7531  0.9024  0.7233
 6559SOL     OW31312   1.503   2.852  11.416 -0.0924  0.1973 -0.3174
 6559SOL    HW131313   1.426   2.893  11.455  0.0866 -0.7269  1.0438
 6559SOL    HW231314   1.563   2.926  11.425 -0.1283 -0.0776  2.3843
 6560SOL     OW31315   2.266   2.205   8.925 -0.0245 -0.7829 -0.6593
 6560SOL    HW131316   2.199   2.253   8.974  0.3639 -1.0946  0.1589
 6560SOL    HW231317   2.209   2.155   8.866 -0.7904 -0.5898 -0.0904
 6561SOL     OW31318   1.177   2.841  13.102 -0.2447 -0.5911 -0.1626
 6561SOL    HW131319   1.148   2.783  13.173 -1.2439 -0.0208 -0.1067
 6561SOL    HW231320   1.175   2.916  13.162 -1.3969 -0.3140 -0.5578
 6562SOL     OW31321   4.052   2.231   1.125 -0.4311  0.2173 -0.3454
 6562SOL    HW131322   4.105   2.203   1.199 -1.0484 -1.6392 -0.5898
 6562SOL    HW231323   4.038   2.147   1.080  1.5936  0.0896 -0.7740
 6563SOL     OW31324   4.331   4.707  15.376 -0.1342  0.0447  0.1163
 6563SOL    HW131325   4.377   0.046  15.403 -2.4228  1.0344  1.1441
 6563SOL    HW231326   4.406   4.649  15.383  0.7564  1.4257  1.9007
 6564SOL     OW31327   3.708   1.188  17.167  0.4409 -0.2653  0.8709
 6564SOL    HW131328   3.660   1.165  17.087 -0.5206 -2.9522  2.2481
 6564SOL    HW231329   3.799   1.173  17.143  0.3756 -0.3389  0.6656
 6565SOL     OW31330   4.480   3.219   3.212 -0.1701  0.9022  0.6198
 6565SOL    HW131331   4.534   3.261   3.144 -0.0821  0.4154  0.3895
 6565SOL    HW231332   4.420   3.167   3.158 -1.1407 -0.6481  3.2307
 6566SOL     OW31333   1.084   2.160  13.028  0.5586 -0.1035 -0.3248
 6566SOL    HW131334   1.096   2.228  12.961 -3.5161  0.5826 -0.3628
 6566SOL    HW231335   1.042   2.094  12.973  1.5105 -1.4920  0.6318
 6567SOL     OW31336   3.504   4.587   7.880  0.1993  0.1238  0.9736
 6567SOL    HW131337   3.427   4.644   7.881  1.0872  1.3828 -1.6886
 6567SOL    HW231338   3.517   4.575   7.974  0.2405  0.5551  1.0228
 6568SOL     OW31339   0.894   0.265   2.493  0.4018 -0.3828 -0.2389
 6568SOL    HW131340   0.870   0.325   2.564 -0.5204  1.0452 -1.7517
 6568SOL    HW231341   0.876   0.178   2.527 -1.9028 -0.1627 -0.8834
 6569SOL     OW31342   1.055   4.048   1.213  1.0432  0.3508  0.1601
 6569SOL    HW131343   1.095   4.109   1.152 -0.6667  0.1757 -1.1352
 6569SOL    HW231344   1.091   3.961   1.196 -0.2803 -0.5032  1.6683
 6570SOL     OW31345   0.310   3.322   3.485  0.0714  0.1281 -0.1569
 6570SOL    HW131346   0.232   3.270   3.465  1.6011 -3.5938  3.6571
 6570SOL    HW231347   0.367   3.257   3.526 -1.4123 -1.7552 -1.0626
 6571SOL     OW31348   2.024   3.880   9.936  0.2018 -0.4669 -0.1136
 6571SOL    HW131349   2.115   3.906   9.949 -0.2938  0.8942  0.6635
 6571SOL    HW231350   2.000   3.948   9.874  1.7420  0.7654  0.6431
 6572SOL     OW31351   1.185   3.087   5.109 -0.7253 -0.1631  0.5807
 6572SOL    HW131352   1.204   3.156   5.046 -0.6494  0.6473  1.4933
 6572SOL    HW231353   1.261   3.094   5.167 -0.1273 -1.9746  0.0094
 6573SOL     OW31354   2.764   1.268   9.443  0.1189 -0.9550  0.1969
 6573SOL    HW131355   2.802   1.212   9.510 -0.2883  0.6111  1.7381
 6573SOL    HW231356   2.677   1.277   9.480  0.7441  0.1220  1.4161
 6574SOL     OW31357   0.178   3.556   2.703  0.4816 -0.0261 -0.1052
 6574SOL    HW131358   0.241   3.483   2.693 -0.3855 -0.7108 -0.5721
 6574SOL    HW231359   0.242   3.624   2.684  0.5238  0.0293  0.2464
 6575SOL     OW31360   2.817   1.073   3.989  0.0706 -0.1110  0.1800
 6575SOL    HW131361   2.763   1.091   3.912  0.5066 -2.3971 -0.6555
 6575SOL    HW231362   2.897   1.108   3.950 -0.8740  1.4805 -0.3445
 6576SOL     OW31363   0.591   3.197   3.137  0.0827  1.4306  0.0019
 6576SOL    HW131364   0.680   3.230   3.123  0.1118  2.4558  2.5214
 6576SOL    HW231365   0.557   3.188   3.048 -0.0768 -1.6812  0.3757
 6577SOL     OW31366   0.866   0.330   7.939 -0.1472 -0.2076 -0.8880
 6577SOL    HW131367   0.779   0.341   7.978 -0.3075  1.6847 -1.8041
 6577SOL    HW231368   0.909   0.410   7.969 -1.2973 -1.0211  2.8675
 6578SOL     OW31369   3.506   3.727  11.870  0.3078  0.4251  0.0097
 6578SOL    HW131370   3.565   3.787  11.826 -0.3649  0.0726 -1.3637
 6578SOL    HW231371   3.466   3.668  11.806  0.1157  0.3074  0.2381
 6579SOL     OW31372   2.152   3.436  15.040 -0.3896  0.2886  0.1100
 6579SOL    HW131373   2.180   3.347  15.019 -2.0988  0.1436 -1.5831
 6579SOL    HW231374   2.195   3.449  15.124  2.0852  2.0757 -1.4304
 6580SOL     OW31375   0.482   0.656   3.325 -0.4772 -0.1106  0.1020
 6580SOL    HW131376   0.565   0.612   3.305 -0.7887 -0.3140 -0.7487
 6580SOL    HW231377   0.504   0.674   3.416  0.1857 -0.4591  0.0051
 6581SOL     OW31378   4.615   0.196   2.853 -0.5143  0.0525  0.4802
 6581SOL    HW131379   4.663   0.151   2.923  0.5880 -1.3835 -1.1727
 6581SOL    HW231380   4.684   0.252   2.817 -0.2324 -1.2948 -1.0782
 6582SOL     OW31381   0.463   4.630   4.320 -0.0616 -0.5645 -0.3204
 6582SOL    HW131382   0.475   4.700   4.384  1.6594 -2.1494  1.0869
 6582SOL    HW231383   0.548   4.589   4.308  2.3041  4.6714 -1.5424
 6583SOL     OW31384   1.515   2.345   9.800 -0.2303 -0.0174  0.3329
 6583SOL    HW131385   1.543   2.324   9.712 -2.3850 -1.7769  0.0731
 6583SOL    HW231386   1.562   2.426   9.821  1.5119 -1.3387  1.5368
 6584SOL     OW31387   1.793   2.804   9.577  0.3050  0.1239  0.0289
 6584SOL    HW131388   1.796   2.893   9.613 -0.1011  0.3733 -0.5417
 6584SOL    HW231389   1.887   2.791   9.577  0.1792 -0.7017  1.6434
 6585SOL     OW31390   1.715   2.651   0.686  0.0889  0.6129  0.1533
 6585SOL    HW131391   1.713   2.582   0.753  0.8049  1.3310  0.9029
 6585SOL    HW231392   1.621   2.670   0.675 -0.0167 -0.7557 -1.2693
 6586SOL     OW31393   2.994   0.940   3.569  0.0870  0.5508 -0.0393
 6586SOL    HW131394   2.959   0.985   3.492  1.2564  0.5399 -0.5835
 6586SOL    HW231395   3.018   0.857   3.526  2.4207  1.4985 -0.5931
 6587SOL     OW31396   0.571   4.672   8.984  0.1103 -0.2326  0.5217
 6587SOL    HW131397   0.585   4.605   8.917  4.4398  0.7556  0.4401
 6587SOL    HW231398   0.477   4.656   8.996  0.3978 -2.3000 -0.1021
 6588SOL     OW31399   4.355   3.397   1.885  0.4257  0.0295 -0.2028
 6588SOL    HW131400   4.386   3.404   1.795 -0.7535  2.2140 -0.4385
 6588SOL    HW231401   4.319   3.309   1.897  0.0665 -0.1078 -2.2961
 6589SOL     OW31402   2.515   2.960   5.324  0.8710  0.2919 -0.3948
 6589SOL    HW131403   2.420   2.971   5.325  0.7076 -1.0977 -1.7498
 6589SOL    HW231404   2.527   2.910   5.405 -0.1259  0.9689  0.1818
 6590SOL     OW31405   2.976   2.254   1.374 -0.1166 -0.3067  0.1973
 6590SOL    HW131406   2.919   2.231   1.447  1.6897 -2.1987  1.0025
 6590SOL    HW231407   3.033   2.320   1.412 -0.2685 -0.3409  0.4807
 6591SOL     OW31408   0.487   2.093   9.345 -0.2044 -0.1172 -0.0247
 6591SOL    HW131409   0.454   2.130   9.427 -0.4473  1.4090 -0.8207
 6591SOL    HW231410   0.574   2.132   9.350 -0.8768  1.5164 -0.9951
 6592SOL     OW31411   4.592   4.239   8.970  0.0917 -0.7380 -0.4101
 6592SOL    HW131412   4.500   4.253   8.992  0.0910 -0.0151 -0.8802
 6592SOL    HW231413   4.592   4.196   8.885  2.5433 -4.1689  1.3241
 6593SOL     OW31414   1.561   0.476   8.901  0.0349 -0.0932  0.4659
 6593SOL    HW131415   1.503   0.408   8.935  0.5728 -0.3514  0.8698
 6593SOL    HW231416   1.566   0.540   8.973 -0.7930 -0.5301  0.9196
 6594SOL     OW31417   4.554   3.301  10.651  0.2034  0.3434  0.1757
 6594SOL    HW131418   4.531   3.297  10.558 -0.9126  1.1876  0.4141
 6594SOL    HW231419   4.485   3.354  10.691 -1.6627 -1.7934 -0.1656
 6595SOL     OW31420   0.149   1.743  10.722 -0.2818 -0.9012  0.6116
 6595SOL    HW131421   0.183   1.810  10.661  2.3703 -0.2582  2.7951
 6595SOL    HW231422   0.207   1.760  10.796 -0.4595  1.7479  0.1453
 6596SOL     OW31423   2.224   3.280   6.488 -0.3664  0.4938 -0.0979
 6596SOL    HW131424   2.239   3.364   6.446 -0.8458  1.0688  0.8803
 6596SOL    HW231425   2.139   3.267   6.445 -1.1284  3.8940  0.4048
 6597SOL     OW31426   1.978   2.445  13.801  0.4552  0.2576 -0.1666
 6597SOL    HW131427   1.986   2.445  13.706 -1.8440  0.5374 -0.3513
 6597SOL    HW231428   1.911   2.510  13.819 -1.0079 -1.1787 -0.3806
 6598SOL     OW31429   3.500   1.136   3.125  0.0029  0.1279 -0.1572
 6598SOL    HW131430   3.432   1.069   3.129  0.3456 -0.3427 -2.5956
 6598SOL    HW231431   3.465   1.195   3.192  1.1123  0.0594  0.4997
 6599SOL     OW31432   2.091   3.242   9.929  0.8136 -0.2407 -0.8164
 6599SOL    HW131433   2.008   3.268   9.888  1.4652  0.7991 -1.4828
 6599SOL    HW231434   2.110   3.158   9.887 -2.3299 -1.9273  1.1347
 6600SOL     OW31435   4.481   3.933   5.359  0.0319  0.7109  0.3449
 6600SOL    HW131436   4.553   3.956   5.300 -1.1209  1.1789 -0.8719
 6600SOL    HW231437   4.433   3.860   5.321  0.6997  0.2143  0.4380
 6601SOL     OW31438   1.423   0.715  14.230 -0.1096  0.3415 -0.5367
 6601SOL    HW131439   1.502   0.687  14.276 -0.6363 -1.2999 -0.6122
 6601SOL    HW231440   1.437   0.807  14.210 -0.4513  0.2051 -1.3881
 6602SOL     OW31441   3.207   3.702   1.255 -0.5104  0.3291 -0.1512
 6602SOL    HW131442   3.188   3.609   1.271 -0.8768  0.4883  0.3565
 6602SOL    HW231443   3.141   3.725   1.191 -0.9404  2.3667  1.0484
 6603SOL     OW31444   4.526   0.811   0.565  0.4646 -0.3220 -0.0218
 6603SOL    HW131445   4.589   0.811   0.638  0.4177 -1.1215  0.0189
 6603SOL    HW231446   4.563   0.735   0.522  1.7396 -1.0486  2.3464
 6604SOL     OW31447   3.441   1.551   1.530  1.0446  0.3970  0.4916
 6604SOL    HW131448   3.393   1.509   1.601 -0.3774  0.9677 -0.1407
 6604SOL    HW231449   3.514   1.592   1.577 -0.0452  0.5049  2.0883
 6605SOL     OW31450   4.691   2.239   7.332  0.1052  0.3552 -0.5992
 6605SOL    HW131451   0.013   2.182   7.379 -0.8494 -2.0658 -2.2884
 6605SOL    HW231452   4.668   2.303   7.399 -0.6242 -2.2257  1.6164
 6606SOL     OW31453   2.625   4.102   6.799  0.3489 -0.0960 -0.1778
 6606SOL    HW131454   2.720   4.094   6.806  0.2495 -1.8631 -0.9302
 6606SOL    HW231455   2.607   4.008   6.804  1.0240 -0.1855  0.5163
 6607SOL     OW31456   2.227   4.155  12.912  0.4345 -0.3697 -0.2914
 6607SOL    HW131457   2.151   4.138  12.968  0.7818 -1.7562 -0.2463
 6607SOL    HW231458   2.192   4.140  12.824 -1.4986 -0.2122  0.4699
 6608SOL     OW31459   4.247   0.267   8.160  0.5513 -0.6359 -0.1037
 6608SOL    HW131460   4.334   0.230   8.171  0.3740 -0.8161  0.6615
 6608SOL    HW231461   4.234   0.246   8.067 -2.0367  1.5795 -0.2623
 6609SOL     OW31462   4.513   3.660   2.636  0.0197 -0.5263 -0.1180
 6609SOL    HW131463   4.552   3.578   2.607  0.5552 -0.2558 -0.1763
 6609SOL    HW231464   4.581   3.724   2.614  0.2614  0.0170  2.2268
 6610SOL     OW31465   3.732   0.078  10.343 -0.1311  0.2618 -0.2319
 6610SOL    HW131466   3.742   0.158  10.395  2.6858 -0.3245  0.1197
 6610SOL    HW231467   3.794   0.019  10.386  0.4720 -0.0426 -1.5262
 6611SOL     OW31468   1.621   3.047   7.477  0.6816  0.4401 -0.1556
 6611SOL    HW131469   1.554   2.981   7.492  1.9685 -0.7661  0.2840
 6611SOL    HW231470   1.670   3.040   7.559 -3.2235  2.8839  2.3957
 6612SOL     OW31471   0.466   0.280   1.817  0.3658  0.5841  0.3088
 6612SOL    HW131472   0.538   0.339   1.842  0.2682  0.9761 -0.3127
 6612SOL    HW231473   0.446   0.241   1.902 -1.4053  1.5079  0.3161
 6613SOL     OW31474   1.999   0.501   4.070  0.0623 -0.3270  0.0059
 6613SOL    HW131475   2.060   0.526   4.140  0.8908  1.0152 -1.1896
 6613SOL    HW231476   1.975   0.587   4.038  0.2715 -0.4228 -0.4016
 6614SOL     OW31477   4.352   1.474   7.977  0.4588  0.4401  0.0802
 6614SOL    HW131478   4.356   1.380   7.959  0.0358  0.6421 -1.0699
 6614SOL    HW231479   4.382   1.509   7.893  1.7932 -1.4871 -0.2447
 6615SOL     OW31480   3.447   2.339  15.001  0.2599 -0.0478  0.6484
 6615SOL    HW131481   3.351   2.335  14.997  0.2881  0.1705 -0.1405
 6615SOL    HW231482   3.472   2.260  15.050  1.9698 -1.0645 -1.9141
 6616SOL     OW31483   2.290   3.633   8.390 -0.1987  0.4329  0.4695
 6616SOL    HW131484   2.206   3.607   8.354 -1.1571 -0.8014  3.6325
 6616SOL    HW231485   2.299   3.563   8.455 -1.8706  0.9718  1.2505
 6617SOL     OW31486   4.549   0.323   5.893  0.2159  0.3102 -0.0714
 6617SOL    HW131487   4.563   0.414   5.865  0.7238  0.5549  0.9763
 6617SOL    HW231488   4.524   0.342   5.983 -0.7126 -1.0335 -0.0605
 6618SOL     OW31489   3.444   1.574   5.041 -0.1842 -0.2214  0.0325
 6618SOL    HW131490   3.504   1.500   5.048 -1.0638 -1.3010 -3.9211
 6618SOL    HW231491   3.400   1.577   5.126  1.2691  0.0692  0.7651
 6619SOL     OW31492   4.714   2.828   0.595  0.2024  1.0176 -0.6421
 6619SOL    HW131493   4.690   2.838   0.688 -0.2375  0.2478 -0.6724
 6619SOL    HW231494   4.645   2.774   0.556 -1.4123  1.8925  1.0181
 6620SOL     OW31495   4.100   0.802   8.105  0.1871 -0.6707 -0.1457
 6620SOL    HW131496   4.108   0.894   8.131 -0.0746 -0.6160 -0.2510
 6620SOL    HW231497   4.074   0.818   8.014 -0.5907 -0.7497  0.0618
 6621SOL     OW31498   2.536   0.247   7.339 -1.1363  0.7452 -0.3323
 6621SOL    HW131499   2.575   0.229   7.253 -1.1524 -1.3516  0.0992
 6621SOL    HW231500   2.505   0.158   7.354  0.3700  0.3981  0.5771
 6622SOL     OW31501   0.578   2.138   6.025 -0.0893  0.2091  0.6335
 6622SOL    HW131502   0.556   2.231   6.018  0.2140  0.1829 -0.7211
 6622SOL    HW231503   0.491   2.107   6.000 -0.8718 -1.2220  5.1187
 6623SOL     OW31504   0.965   0.542   3.033  0.3511 -0.3963  0.4399
 6623SOL    HW131505   0.993   0.501   2.951  0.0606 -0.3129  0.3002
 6623SOL    HW231506   1.051   0.548   3.074  0.3630  0.9855  0.2425
 6624SOL     OW31507   4.366   4.408   8.745  0.3304  0.0346 -0.0496
 6624SOL    HW131508   4.286   4.449   8.778  0.8445  0.2227  0.9645
 6624SOL    HW231509   4.414   4.481   8.707 -2.2744  1.3067 -0.8795
 6625SOL     OW31510   4.523   1.119   0.078 -0.6611 -0.0809  0.5960
 6625SOL    HW131511   4.615   1.103   0.102 -0.9650  1.9748  3.2284
 6625SOL    HW231512   4.540   1.171  17.758 -3.7223  0.1958  0.1205
 6626SOL     OW31513   0.636   2.299   3.532  0.5361 -0.5142  0.0662
 6626SOL    HW131514   0.605   2.247   3.458  1.0030  0.0263 -0.5040
 6626SOL    HW231515   0.606   2.385   3.505  1.0727 -0.2040  0.4693
 6627SOL     OW31516   3.466   3.188   4.724 -0.0839 -0.4545 -0.2702
 6627SOL    HW131517   3.509   3.120   4.673 -1.5642  0.2855 -2.5097
 6627SOL    HW231518   3.527   3.262   4.722 -0.8090  0.0906 -1.9327
 6628SOL     OW31519   1.026   2.824   7.348 -0.2093 -0.2077 -0.2252
 6628SOL    HW131520   1.023   2.782   7.434  3.2280 -0.8471 -0.4137
 6628SOL    HW231521   1.048   2.748   7.295  1.9486 -0.7443  1.4431
 6629SOL     OW31522   2.465   2.830  11.369  0.2082 -0.0043  0.1699
 6629SOL    HW131523   2.513   2.867  11.294  0.5715 -0.3102  0.2491
 6629SOL    HW231524   2.430   2.913  11.401 -3.3630 -0.4139 -2.6635
 6630SOL     OW31525   3.076   3.465   6.121  0.0263 -0.4385 -0.2576
 6630SOL    HW131526   3.053   3.442   6.211  0.9292 -1.3326 -0.2538
 6630SOL    HW231527   3.014   3.410   6.075  1.1396 -3.2154  1.5678
 6631SOL     OW31528   4.033   0.475  16.902 -0.0405 -0.3270 -0.0406
 6631SOL    HW131529   3.954   0.488  16.849  0.7729 -1.8428 -1.6457
 6631SOL    HW231530   4.099   0.427  16.851 -1.0200  0.3550 -1.9594
 6632SOL     OW31531   3.599   0.259  15.759 -0.1953  0.1211  0.6341
 6632SOL    HW131532   3.551   0.225  15.683 -0.9599  1.2718  0.5877
 6632SOL    HW231533   3.678   0.295  15.719 -0.2424 -0.1718  0.2783
 6633SOL     OW31534   3.412   0.918   2.370 -0.1533  0.2564  0.4168
 6633SOL    HW131535   3.380   0.899   2.281 -0.5810 -2.4945  1.1418
 6633SOL    HW231536   3.329   0.903   2.415 -0.3840 -1.4962 -0.5813
 6634SOL     OW31537   1.843   0.536   5.312  0.3632 -0.0830 -0.6064
 6634SOL    HW131538   1.761   0.488   5.301  0.4132 -0.3252  0.0757
 6634SOL    HW231539   1.809   0.624   5.327  0.1676 -0.3981  0.8039
 6635SOL     OW31540   3.791   3.706   8.813 -0.3723 -0.0253 -1.0629
 6635SOL    HW131541   3.755   3.665   8.891  1.5999  0.0157 -0.1098
 6635SOL    HW231542   3.718   3.752   8.772 -1.1889  1.3988  2.0146
 6636SOL     OW31543   3.830   4.488   4.020  0.1855 -0.2640 -0.3424
 6636SOL    HW131544   3.803   4.396   4.019 -0.0262 -0.2699  4.3479
 6636SOL    HW231545   3.848   4.502   3.927 -1.7832  1.0541 -0.5325
 6637SOL     OW31546   4.206   3.906  16.228 -0.2330  0.1048 -0.0044
 6637SOL    HW131547   4.175   3.825  16.189  1.7492 -0.7294  0.1381
 6637SOL    HW231548   4.252   3.952  16.158 -0.1126 -0.3844 -0.2404
 6638SOL     OW31549   3.042   2.873   9.476 -0.3957 -0.0210  0.4582
 6638SOL    HW131550   3.021   2.847   9.387 -1.3176 -0.3068  0.7611
 6638SOL    HW231551   2.985   2.948   9.491 -0.5308 -0.2806  1.2254
 6639SOL     OW31552   0.001   3.904   4.960  0.2273  0.0790  0.4408
 6639SOL    HW131553   0.049   3.985   4.947  0.6870 -0.0805  1.1476
 6639SOL    HW231554   4.657   3.947   4.979 -0.5993 -1.7778  1.0412
 6640SOL     OW31555   0.646   4.013   9.331  0.2572  0.2906  0.3051
 6640SOL    HW131556   0.715   4.045   9.273 -0.0414  1.5851  0.6636
 6640SOL    HW231557   0.647   4.072   9.407  0.5239 -1.9235  2.0325
 6641SOL     OW31558   3.311   1.828   2.514 -0.1123  0.6806 -0.1237
 6641SOL    HW131559   3.388   1.832   2.572 -1.7042  0.1775  2.0252
 6641SOL    HW231560   3.251   1.773   2.564  0.8436 -0.4101 -0.1533
 6642SOL     OW31561   4.630   1.954   7.781  0.4721 -0.5862  0.0325
 6642SOL    HW131562   4.682   1.999   7.848  0.2867 -0.1776 -0.0989
 6642SOL    HW231563   4.677   1.871   7.767 -1.8126 -1.7230 -0.9402
 6643SOL     OW31564   1.207   2.226   1.355 -0.0636 -0.4995 -0.0842
 6643SOL    HW131565   1.280   2.249   1.297  0.1249 -0.0724  0.3230
 6643SOL    HW231566   1.220   2.286   1.428  0.5225 -1.1477  0.3280
 6644SOL     OW31567   0.113   0.872   1.709  0.3620  0.8486 -0.2298
 6644SOL    HW131568   0.052   0.802   1.686 -0.8233  1.6673  0.4108
 6644SOL    HW231569   0.189   0.849   1.656 -0.0159 -1.1616  0.1155
 6645SOL     OW31570   2.265   0.275  16.054  0.4510  0.3770  0.3145
 6645SOL    HW131571   2.210   0.237  15.986 -1.1071  0.8979  1.2933
 6645SOL    HW231572   2.307   0.196  16.089  0.4858 -0.7311 -2.2514
 6646SOL     OW31573   3.981   1.089  17.413 -0.0018 -0.9400  0.0824
 6646SOL    HW131574   3.916   1.140  17.364 -0.4395 -1.1961  0.4089
 6646SOL    HW231575   4.039   1.060  17.343  0.0000  1.3432 -0.8775
 6647SOL     OW31576   2.699   2.204   1.914  0.1506 -1.4975  0.1409
 6647SOL    HW131577   2.699   2.253   1.997  2.2501 -0.9306 -0.1839
 6647SOL    HW231578   2.739   2.121   1.940  0.8184 -1.0236  0.6329
 6648SOL     OW31579   1.102   3.389  15.141  0.6841 -0.0774  0.2521
 6648SOL    HW131580   1.069   3.479  15.148 -0.1172 -0.1961 -1.8313
 6648SOL    HW231581   1.194   3.395  15.166  0.4335  2.1857  0.6546
 6649SOL     OW31582   4.215   0.715   0.388  0.4188  0.7681  0.3927
 6649SOL    HW131583   4.198   0.759   0.471  1.3719  0.3051  0.8398
 6649SOL    HW231584   4.305   0.741   0.366  0.9630 -1.1792  0.2705
 6650SOL     OW31585   0.857   4.107   2.299  0.7498 -0.3171  0.3352
 6650SOL    HW131586   0.807   4.059   2.233  1.5835 -0.8378  0.0863
 6650SOL    HW231587   0.897   4.036   2.349  0.9853  0.1263  0.7825
 6651SOL     OW31588   1.339   3.609   3.100  0.8169  0.0516  0.5193
 6651SOL    HW131589   1.327   3.584   3.008  0.2324 -1.8989  1.1310
 6651SOL    HW231590   1.257   3.655   3.118  1.9582  1.9863  0.8128
 6652SOL     OW31591   2.566   4.092   3.216  0.2083 -0.2692 -0.3066
 6652SOL    HW131592   2.471   4.087   3.218  0.2769 -1.7709 -0.8058
 6652SOL    HW231593   2.583   4.185   3.228  1.0925 -0.7043  1.7621
 6653SOL     OW31594   1.422   3.083   8.172 -0.2828 -0.4277 -0.7376
 6653SOL    HW131595   1.403   3.164   8.219 -1.4174 -0.5809 -0.9364
 6653SOL    HW231596   1.360   3.018   8.205 -1.0280  1.2168  1.0695
 6654SOL     OW31597   3.369   1.969   3.294 -0.0938  0.3861  0.2405
 6654SOL    HW131598   3.409   2.049   3.327  0.1328  1.5499 -2.8683
 6654SOL    HW231599   3.440   1.916   3.329 -0.7485 -0.5671  0.1247
 6655SOL     OW31600   4.069   0.939   7.323  0.3542  0.0070  0.5138
 6655SOL    HW131601   4.029   0.873   7.266  2.1881  0.2498 -1.0551
 6655SOL    HW231602   4.152   0.900   7.350  0.2566 -0.2593  0.4306
 6656SOL     OW31603   4.324   3.545  13.058 -0.7763  0.0873 -0.0392
 6656SOL    HW131604   4.240   3.509  13.088  0.0076 -0.6229  1.3289
 6656SOL    HW231605   4.369   3.461  13.062 -1.4615 -0.2881 -0.2050
 6657SOL     OW31606   3.060   4.040   4.921  0.8165 -0.0291 -0.0395
 6657SOL    HW131607   3.105   3.963   4.888  0.2567 -0.7061  0.7678
 6657SOL    HW231608   3.007   4.008   4.994 -1.3911 -2.0981 -2.5572
 6658SOL     OW31609   3.595   2.939   1.601 -0.2514 -0.1212 -0.0694
 6658SOL    HW131610   3.575   2.846   1.591  3.6042 -0.7429 -2.3643
 6658SOL    HW231611   3.510   2.979   1.582  0.3453  0.3495 -1.7516
 6659SOL     OW31612   0.522   3.679  10.709 -0.1742  0.5675  0.3004
 6659SOL    HW131613   0.515   3.600  10.762  1.2661  1.3139  1.5708
 6659SOL    HW231614   0.475   3.742  10.764 -0.8335 -0.8981  1.3874
 6660SOL     OW31615   2.429   1.691   7.942  0.0994 -0.0300 -0.7215
 6660SOL    HW131616   2.496   1.724   7.883  1.0710  0.5434  0.6977
 6660SOL    HW231617   2.373   1.768   7.949  1.4135  0.9945 -1.5879
 6661SOL     OW31618   0.541   2.842   2.553  0.0226 -0.5642 -0.2895
 6661SOL    HW131619   0.456   2.860   2.513  0.9508  0.4100 -1.8063
 6661SOL    HW231620   0.525   2.757   2.595  2.6767 -1.0001 -0.1794
 6662SOL     OW31621   3.040   2.332   1.900 -0.3027  0.2116  0.1678
 6662SOL    HW131622   2.993   2.296   1.975  0.6758 -0.5391  0.4097
 6662SOL    HW231623   3.128   2.332   1.936  0.0356 -0.2921 -0.6707
 6663SOL     OW31624   1.659   3.194   6.349  0.1975  0.0265  0.1650
 6663SOL    HW131625   1.719   3.147   6.291 -1.3433 -1.3690 -0.2965
 6663SOL    HW231626   1.709   3.188   6.430 -1.6278  0.9082  1.3551
 6664SOL     OW31627   3.160   3.248  16.758  0.6326  0.1589  0.3376
 6664SOL    HW131628   3.147   3.337  16.726 -0.7594 -0.2007 -0.0763
 6664SOL    HW231629   3.256   3.243  16.762  0.4917 -1.1489  2.0378
 6665SOL     OW31630   3.187   0.954  11.318 -0.1167  0.8479 -0.4210
 6665SOL    HW131631   3.208   0.940  11.411  1.0173  1.1823 -0.6389
 6665SOL    HW231632   3.096   0.923  11.313  0.2768 -0.5374  0.9113
 6666SOL     OW31633   0.222   4.173   9.335 -0.5162 -0.0313  0.5872
 6666SOL    HW131634   0.147   4.229   9.317 -0.4626 -0.4407 -0.8590
 6666SOL    HW231635   0.257   4.223   9.410 -0.3111  0.5790  0.0826
 6667SOL     OW31636   1.567   3.622   7.163 -0.2788 -0.5309  0.5097
 6667SOL    HW131637   1.653   3.584   7.147 -0.3232 -1.2068  1.9348
 6667SOL    HW231638   1.502   3.559   7.131  2.0200 -2.1634 -0.9209
 6668SOL     OW31639   1.755   1.023   5.607  0.1021  0.2591 -0.4640
 6668SOL    HW131640   1.733   1.077   5.683  0.8346  0.4491 -0.3876
 6668SOL    HW231641   1.812   1.082   5.559  0.3976 -0.5737 -1.1488
 6669SOL     OW31642   4.375   3.431   1.603  0.6922 -0.3252 -0.0998
 6669SOL    HW131643   4.383   3.336   1.615  0.2276 -0.5152 -1.2455
 6669SOL    HW231644   4.418   3.435   1.517  0.6670 -1.0328 -0.1422
 6670SOL     OW31645   4.667   0.799   1.958 -0.1319 -0.2561 -0.2840
 6670SOL    HW131646   4.598   0.858   1.987  1.0894  1.5278 -0.9649
 6670SOL    HW231647   4.651   0.784   1.865 -3.2697  2.4380 -0.1620
 6671SOL     OW31648   1.213   0.373  10.231 -0.0113  0.1723 -0.2282
 6671SOL    HW131649   1.267   0.333  10.300  1.2171  0.6233 -0.9298
 6671SOL    HW231650   1.278   0.414  10.174 -2.8550  1.6064 -2.3923
 6672SOL     OW31651   3.189   2.957   6.140  0.6176 -0.2136  0.0540
 6672SOL    HW131652   3.271   2.919   6.172  2.5960  2.4521 -1.8383
 6672SOL    HW231653   3.197   2.942   6.046  2.8506  0.7850  0.0854
 6673SOL     OW31654   3.047   0.315   2.363  0.5117 -0.0167 -0.4954
 6673SOL    HW131655   3.125   0.348   2.318  0.7667 -0.1098 -0.1185
 6673SOL    HW231656   3.063   0.339   2.454  0.3189  1.5751 -0.8710
 6674SOL     OW31657   1.110   0.305   4.336 -0.4582 -0.4276 -0.0559
 6674SOL    HW131658   1.107   0.350   4.251  0.4840 -3.5983 -1.7621
 6674SOL    HW231659   1.129   0.376   4.397 -1.5941 -0.8577  0.7936
 6675SOL     OW31660   0.767   4.539   8.730  0.4167  0.6130  0.1642
 6675SOL    HW131661   0.683   4.519   8.769 -0.3245 -0.7794 -2.1249
 6675SOL    HW231662   0.789   4.451   8.700 -1.2445  0.3165 -0.1478
 6676SOL     OW31663   4.645   2.950   2.779  0.1249  0.1203  0.1422
 6676SOL    HW131664   4.711   3.015   2.754 -1.4753  1.0393 -1.7213
 6676SOL    HW231665   4.565   3.000   2.764  0.1131  0.4642  1.3775
 6677SOL     OW31666   3.755   0.164   8.212 -0.0763 -0.3281 -0.1649
 6677SOL    HW131667   3.700   0.140   8.138  3.2302 -3.2314 -1.6617
 6677SOL    HW231668   3.827   0.101   8.202 -1.0602 -1.8509  2.4063
 6678SOL     OW31669   3.002   1.530   6.811 -0.3604  0.2566  0.4724
 6678SOL    HW131670   3.054   1.601   6.773 -0.8185 -0.1817 -0.9790
 6678SOL    HW231671   2.915   1.561   6.836 -0.7054  0.5854 -1.1350
 6679SOL     OW31672   1.295   3.086   1.656  0.4269  0.8845  0.4488
 6679SOL    HW131673   1.222   3.074   1.718  0.4564 -1.9034 -0.0497
 6679SOL    HW231674   1.362   3.020   1.675  0.9950  1.0762 -0.9470
 6680SOL     OW31675   2.627   2.160  10.033  0.0894  0.0732 -0.1771
 6680SOL    HW131676   2.708   2.118  10.004  0.1263  1.0747 -1.4872
 6680SOL    HW231677   2.635   2.152  10.129  1.7631  0.5948 -0.2784
 6681SOL     OW31678   4.593   4.340   9.991 -0.5520  0.7718 -0.0867
 6681SOL    HW131679   4.592   4.253   9.952 -0.7293  0.6487  0.1979
 6681SOL    HW231680   4.603   4.309  10.081  0.0456  1.5221  0.1063
 6682SOL     OW31681   1.413   3.184   5.270  0.4841  0.5828  0.0348
 6682SOL    HW131682   1.365   3.249   5.322  0.1984 -0.1536  0.6795
 6682SOL    HW231683   1.417   3.117   5.338 -2.5602  0.9290  0.5596
 6683SOL     OW31684   0.772   0.922   6.972 -0.1012 -0.7700 -0.0392
 6683SOL    HW131685   0.822   0.848   6.938  2.3870  0.9974 -0.2227
 6683SOL    HW231686   0.703   0.929   6.906  0.2490  1.2390 -0.1921
 6684SOL     OW31687   3.763   2.198   1.021 -0.2663  0.3731  0.1232
 6684SOL    HW131688   3.690   2.243   1.064 -0.7156 -0.6477  0.4137
 6684SOL    HW231689   3.819   2.276   1.017  0.2397  0.0279  0.6137
 6685SOL     OW31690   2.016   2.737  13.607  0.7823 -0.3736 -0.3550
 6685SOL    HW131691   2.082   2.788  13.559  1.9165 -1.1491  0.3686
 6685SOL    HW231692   1.940   2.790  13.586  2.0839  1.6839  0.0986
 6686SOL     OW31693   4.524   2.563  10.691  0.2756 -0.1671 -0.0678
 6686SOL    HW131694   4.610   2.553  10.732 -1.0305 -2.4115  2.1645
 6686SOL    HW231695   4.481   2.483  10.723 -1.2169  1.2496  1.4996
 6687SOL     OW31696   0.183   1.643  17.187 -0.8593 -0.3953 -0.3919
 6687SOL    HW131697   0.214   1.724  17.145  0.4834 -0.4342  0.5434
 6687SOL    HW231698   0.256   1.620  17.244 -1.1516 -0.5202 -0.0737
 6688SOL     OW31699   3.259   4.332   0.867  0.1628 -0.1372  0.2780
 6688SOL    HW131700   3.189   4.378   0.914 -0.4614 -1.5070  0.7084
 6688SOL    HW231701   3.255   4.381   0.785  2.2919 -1.5692 -0.6811
 6689SOL     OW31702   1.550   1.321   3.471  0.5043  0.1502  0.1975
 6689SOL    HW131703   1.627   1.269   3.493 -0.7019 -1.0405  1.5529
 6689SOL    HW231704   1.499   1.250   3.433  0.6556 -1.0160  2.1953
 6690SOL     OW31705   3.779   4.253  14.848  0.6191  0.4960  0.1896
 6690SOL    HW131706   3.738   4.277  14.765  0.2923  0.7687  0.4326
 6690SOL    HW231707   3.855   4.203  14.816 -1.0144 -2.0387  0.2648
 6691SOL     OW31708   4.477   4.602   7.832  1.0582 -0.4914 -0.0873
 6691SOL    HW131709   4.398   4.573   7.788  0.0920  0.8422  0.7817
 6691SOL    HW231710   4.473   4.694   7.808  1.6039 -0.2130  0.8843
 6692SOL     OW31711   2.281   2.358   4.332  0.2274 -0.9506  0.1144
 6692SOL    HW131712   2.322   2.433   4.291 -1.7012  0.4585  0.7325
 6692SOL    HW231713   2.230   2.319   4.261  0.7441  0.6775 -1.1440
 6693SOL     OW31714   2.658   1.802   2.382  0.3729 -0.1046  0.0994
 6693SOL    HW131715   2.620   1.838   2.302 -0.1835  1.2351  0.9791
 6693SOL    HW231716   2.577   1.765   2.416 -0.2035  1.2149  0.1330
 6694SOL     OW31717   4.195   0.477   6.891 -0.0427 -0.3527  0.1184
 6694SOL    HW131718   4.132   0.475   6.819  0.4469  1.3562 -0.3433
 6694SOL    HW231719   4.143   0.435   6.959 -1.2109  0.0012 -0.5688
 6695SOL     OW31720   0.832   2.465   7.222 -0.4068  0.2113 -0.1682
 6695SOL    HW131721   0.796   2.460   7.311  3.5549  1.2348  1.4868
 6695SOL    HW231722   0.821   2.560   7.219  0.5452  0.4040  2.1587
 6696SOL     OW31723   4.208   0.925  13.744  0.3467  0.6794  0.3562
 6696SOL    HW131724   4.207   1.020  13.755  1.4200  0.5643  1.5241
 6696SOL    HW231725   4.289   0.910  13.794 -0.3381  2.6999  2.0455
 6697SOL     OW31726   0.149   0.091   8.089 -0.0780 -0.8005  0.1343
 6697SOL    HW131727   0.240   0.120   8.083  0.3769 -1.9359  1.4580
 6697SOL    HW231728   0.117   0.151   8.022 -1.5163  0.4009  1.9133
 6698SOL     OW31729   1.397   0.088   0.029 -0.3872 -0.2961  0.1902
 6698SOL    HW131730   1.347   0.067  17.708  1.9375  1.0018 -1.6058
 6698SOL    HW231731   1.479   0.039   0.021 -0.0642  0.3781 -0.6293
 6699SOL     OW31732   3.379   0.306   2.026 -0.4782 -0.4428 -0.2673
 6699SOL    HW131733   3.350   0.240   1.963 -1.2803 -0.1321 -0.2360
 6699SOL    HW231734   3.303   0.308   2.085  0.3318 -1.5370  0.8106
 6700SOL     OW31735   0.187   2.071  16.307  0.0111 -0.3613  0.0094
 6700SOL    HW131736   0.094   2.048  16.303  0.2812 -1.2285 -1.2421
 6700SOL    HW231737   0.219   1.987  16.275  1.8011  0.2193  0.2447
 6701SOL     OW31738   2.159   2.966  16.141  0.0440 -0.6421  0.0632
 6701SOL    HW131739   2.072   2.971  16.181  0.3335 -0.3914  0.6561
 6701SOL    HW231740   2.210   3.042  16.168 -2.4762  1.8213 -2.1344
 6702SOL     OW31741   2.646   0.464   3.808 -0.4735  0.0202 -0.4078
 6702SOL    HW131742   2.689   0.378   3.810  0.8139  0.6275 -1.8266
 6702SOL    HW231743   2.602   0.459   3.893  0.4127  0.1340  0.0578
 6703SOL     OW31744   3.877   1.129   1.633  0.0313 -0.0483  0.4478
 6703SOL    HW131745   3.854   1.214   1.671 -0.0147  0.4811 -0.7710
 6703SOL    HW231746   3.799   1.077   1.651 -0.3230  0.5188  0.5390
 6704SOL     OW31747   1.938   3.013   4.095 -0.1297 -0.1570 -0.9283
 6704SOL    HW131748   1.967   3.081   4.034 -4.0883  0.9351 -1.5881
 6704SOL    HW231749   1.984   2.935   4.061 -0.1138 -0.1051 -1.0255
 6705SOL     OW31750   3.633   2.245   1.544 -0.5211  0.1285 -0.9131
 6705SOL    HW131751   3.544   2.275   1.525 -0.4504 -0.0306 -1.4845
 6705SOL    HW231752   3.686   2.268   1.468  0.6208  0.2107 -0.0962
 6706SOL     OW31753   0.511   1.450   4.167 -1.1018 -0.0694  0.0039
 6706SOL    HW131754   0.544   1.411   4.247 -0.2295  1.7070  0.4955
 6706SOL    HW231755   0.426   1.491   4.184 -1.3542 -0.2603 -0.8065
 6707SOL     OW31756   1.034   0.388   9.087  0.0728  0.5272 -0.4939
 6707SOL    HW131757   1.009   0.305   9.048 -1.1259  1.2236 -1.2124
 6707SOL    HW231758   0.946   0.418   9.108  0.5291  1.2770  0.3793
 6708SOL     OW31759   4.014   1.674   4.631  0.3782  0.3426 -0.7037
 6708SOL    HW131760   4.091   1.706   4.583 -0.0184  0.2501 -1.3969
 6708SOL    HW231761   4.056   1.661   4.716 -2.4243 -0.9557  0.4700
 6709SOL     OW31762   2.767   0.513  13.470 -0.0266 -0.2217  0.1876
 6709SOL    HW131763   2.805   0.595  13.500  1.8267 -1.5161  1.4110
 6709SOL    HW231764   2.827   0.476  13.405 -0.1256  0.3810 -0.2409
 6710SOL     OW31765   4.733   2.860   8.927  0.5160 -0.7204 -0.4288
 6710SOL    HW131766   0.071   2.887   8.878  0.2646  1.5494  0.3953
 6710SOL    HW231767   4.667   2.901   8.871  1.1541 -0.8558 -1.2954
 6711SOL     OW31768   3.404   1.617   2.156 -0.7176  0.2508 -0.5594
 6711SOL    HW131769   3.342   1.641   2.225 -1.5877 -0.8863 -0.9513
 6711SOL    HW231770   3.385   1.525   2.139  1.5982 -0.1057 -1.2871
 6712SOL     OW31771   0.089   4.545   6.245  0.1364 -0.5718 -0.4350
 6712SOL    HW131772   0.028   4.585   6.184  0.1668  0.3944  0.1759
 6712SOL    HW231773   0.100   4.613   6.312  0.2883 -0.9529 -0.0653
 6713SOL     OW31774   3.590   4.548   2.453  0.1691  0.3416 -0.4434
 6713SOL    HW131775   3.573   4.480   2.518 -0.1861 -1.3044 -2.2593
 6713SOL    HW231776   3.516   4.608   2.462  1.9496  2.1966  1.7997
 6714SOL     OW31777   0.086   0.726   1.377 -0.2289  0.5221 -0.0702
 6714SOL    HW131778   0.026   0.658   1.406  0.8722 -1.5235 -2.5538
 6714SOL    HW231779   0.149   0.665   1.340 -0.2387  0.1165  0.5902
 6715SOL     OW31780   4.584   0.892  13.655 -0.6411  0.3881  0.1674
 6715SOL    HW131781   4.668   0.850  13.638 -0.1520  1.0334  0.9765
 6715SOL    HW231782   4.521   0.822  13.635 -0.8585  0.5436  0.3091
 6716SOL     OW31783   3.457   0.666   5.984 -0.3655  0.1652  0.7425
 6716SOL    HW131784   3.472   0.749   5.939  2.1274 -1.4904 -1.5367
 6716SOL    HW231785   3.447   0.609   5.908 -0.3658  0.9271  0.1754
 6717SOL     OW31786   4.165   2.581  16.734 -0.2616 -0.1107  0.8064
 6717SOL    HW131787   4.120   2.575  16.818  0.4233  0.2067  1.2000
 6717SOL    HW231788   4.250   2.547  16.762  0.4377  1.2452  0.3543
 6718SOL     OW31789   0.329   2.607   3.499  0.3409 -0.0519 -0.4391
 6718SOL    HW131790   0.286   2.691   3.484 -0.9757 -0.4664  1.0450
 6718SOL    HW231791   0.375   2.640   3.576 -0.2690  0.8815 -0.4768
 6719SOL     OW31792   1.275   3.738   8.440 -0.1068 -0.2569  0.0390
 6719SOL    HW131793   1.355   3.780   8.409 -0.7013  0.2734 -0.7775
 6719SOL    HW231794   1.238   3.812   8.487  2.0789  0.3896  0.7573
 6720SOL     OW31795   4.351   1.945  15.797 -0.4538  0.0122 -0.0601
 6720SOL    HW131796   4.441   1.935  15.766 -0.1605  0.0986  0.7485
 6720SOL    HW231797   4.322   1.853  15.796  0.1577 -0.1984  1.5677
 6721SOL     OW31798   2.294   3.891   4.766  0.0972  0.1248 -0.7682
 6721SOL    HW131799   2.329   3.913   4.852  0.8489  2.2579 -1.6080
 6721SOL    HW231800   2.202   3.875   4.785  0.3391 -1.8706 -1.3037
 6722SOL     OW31801   1.578   0.985   8.446  0.1388 -0.2643  0.3058
 6722SOL    HW131802   1.559   0.895   8.421  0.8213 -0.5997  0.9686
 6722SOL    HW231803   1.640   1.008   8.376 -1.3997 -4.3004 -2.3480
 6723SOL     OW31804   4.502   1.254   9.874 -0.1946  0.0526  0.2541
 6723SOL    HW131805   4.544   1.240   9.959 -1.1707 -0.5595  0.6349
 6723SOL    HW231806   4.543   1.179   9.831 -0.3793 -0.5355  1.0871
 6724SOL     OW31807   3.201   0.341   5.263 -0.5346  0.2899  0.2342
 6724SOL    HW131808   3.234   0.275   5.204 -0.5868  3.5017 -3.3999
 6724SOL    HW231809   3.148   0.404   5.214 -1.4475 -0.8889 -0.2950
 6725SOL     OW31810   4.085   4.171   8.594 -0.3659 -0.2858 -0.2459
 6725SOL    HW131811   4.122   4.100   8.540 -0.4661  0.0805 -0.7977
 6725SOL    HW231812   4.017   4.124   8.642 -0.9728  0.9537  0.1061
 6726SOL     OW31813   2.499   1.912  10.085  0.0651 -0.2387 -0.6980
 6726SOL    HW131814   2.473   1.927   9.994 -0.3214  0.1741 -0.5196
 6726SOL    HW231815   2.529   1.998  10.115  1.2693 -0.5668 -0.9675
 6727SOL     OW31816   3.031   2.468   7.267 -0.9663  0.1819 -0.0680
 6727SOL    HW131817   2.993   2.541   7.317 -2.7453  0.1728 -1.4127
 6727SOL    HW231818   2.968   2.396   7.276 -1.0280  0.4172  1.3823
 6728SOL     OW31819   1.312   2.018   3.511 -0.1377 -0.4171 -0.1680
 6728SOL    HW131820   1.223   2.015   3.475  1.1678 -1.4577 -3.3401
 6728SOL    HW231821   1.334   2.104   3.547  0.7018  0.4782 -2.7665
 6729SOL     OW31822   0.126   3.369   5.153 -1.0300  0.2077 -0.3218
 6729SOL    HW131823   0.121   3.455   5.112 -1.0986  1.4353  2.2844
 6729SOL    HW231824   0.086   3.380   5.239  0.2714 -0.3463  0.3512
 6730SOL     OW31825   2.144   3.017  12.554 -0.5527  0.2515 -0.1247
 6730SOL    HW131826   2.112   3.069  12.481 -0.5443 -0.1814 -0.4345
 6730SOL    HW231827   2.126   3.070  12.632  1.3855 -2.0656  1.9310
 6731SOL     OW31828   4.374   1.258  17.186  0.1502 -0.0480 -0.3303
 6731SOL    HW131829   4.333   1.213  17.113 -1.6868 -0.7193  1.1096
 6731SOL    HW231830   4.342   1.210  17.263 -0.0422  1.2262  0.3830
 6732SOL     OW31831   3.907   2.803   3.375 -0.5819  0.2659  0.5075
 6732SOL    HW131832   3.863   2.867   3.431  0.0832  1.1081  0.0460
 6732SOL    HW231833   3.998   2.818   3.398 -0.4255 -0.9480  0.7120
 6733SOL     OW31834   2.605   0.663   4.723 -0.5016 -0.4118 -0.1107
 6733SOL    HW131835   2.625   0.756   4.722 -1.1215 -0.2730  0.2349
 6733SOL    HW231836   2.658   0.618   4.657 -0.9357  0.7462 -1.2264
 6734SOL     OW31837   1.481   4.667   4.117  0.1437  0.1215 -0.1959
 6734SOL    HW131838   1.490   4.710   4.032  0.6251 -0.3713 -0.3935
 6734SOL    HW231839   1.560   4.701   4.160  0.3942  0.2475 -0.7569
 6735SOL     OW31840   1.812   2.881   0.293 -0.1342 -0.1704  0.8553
 6735SOL    HW131841   1.899   2.898   0.328  0.3554 -0.7082 -0.0836
 6735SOL    HW231842   1.803   2.789   0.319 -1.7696 -0.3500 -0.3316
 6736SOL     OW31843   2.390   3.423   0.494 -0.5305  0.0785  0.1907
 6736SOL    HW131844   2.400   3.378   0.410 -0.1316 -0.2789  0.4322
 6736SOL    HW231845   2.449   3.373   0.551 -0.7870 -1.2823 -0.7462
 6737SOL     OW31846   0.701   4.536   2.453 -0.2967 -0.3374 -0.7077
 6737SOL    HW131847   0.686   4.443   2.470  1.2983  0.2472  3.9368
 6737SOL    HW231848   0.701   4.539   2.357  2.5558  0.8980 -0.6701
 6738SOL     OW31849   3.864   4.025   3.331  0.5641 -0.1879  0.2191
 6738SOL    HW131850   3.885   4.111   3.366  0.5697 -0.2617  0.3996
 6738SOL    HW231851   3.871   3.969   3.409 -0.4856 -0.0686  0.3993
 6739SOL     OW31852   4.364   0.925   7.418  0.2667 -0.0053 -0.5982
 6739SOL    HW131853   4.415   0.854   7.458 -0.3325  0.0777  0.3138
 6739SOL    HW231854   4.420   1.003   7.411 -0.0314  0.1598 -1.1202
 6740SOL     OW31855   2.760   0.204   6.219  1.0885 -0.3516 -0.7503
 6740SOL    HW131856   2.680   0.257   6.218  0.5652 -1.0795  2.4026
 6740SOL    HW231857   2.733   0.127   6.269 -1.1220  0.7909 -0.1876
 6741SOL     OW31858   3.720   3.301  11.789  0.0369  0.1892 -0.3545
 6741SOL    HW131859   3.711   3.393  11.766 -2.8238  0.4903  2.0285
 6741SOL    HW231860   3.631   3.268  11.776  0.3382 -0.8856  0.3264
 6742SOL     OW31861   4.717   3.034   3.677 -0.3797  0.1592  0.2029
 6742SOL    HW131862   4.700   3.015   3.769 -0.1880  1.1587  0.4454
 6742SOL    HW231863   0.033   2.960   3.656 -0.3655  0.2864 -0.2144
 6743SOL     OW31864   4.638   0.321  17.549 -0.6805 -0.2395 -0.0475
 6743SOL    HW131865   4.669   0.387  17.611 -0.1384  0.1075 -0.6853
 6743SOL    HW231866   4.610   0.254  17.611 -0.8400 -1.1562 -1.0992
 6744SOL     OW31867   3.340   4.482   2.893  0.2602  0.3917  0.0305
 6744SOL    HW131868   3.260   4.525   2.863  0.0677 -1.2314 -1.7612
 6744SOL    HW231869   3.395   4.556   2.921  0.2520 -0.1892  1.5619
 6745SOL     OW31870   0.004   2.626   6.799 -0.5097  0.0895  0.9959
 6745SOL    HW131871   4.720   2.681   6.873 -0.7111  2.3652 -0.7726
 6745SOL    HW231872   4.669   2.572   6.773 -0.3027  0.0857  0.3979
 6746SOL     OW31873   2.635   0.959   5.914 -0.0649  0.0806 -0.6285
 6746SOL    HW131874   2.726   0.932   5.897  0.8057  1.9779  1.0133
 6746SOL    HW231875   2.614   0.995   5.828 -2.6885  1.5636  0.6291
 6747SOL     OW31876   1.805   3.285   2.712 -0.3004 -0.6220  0.2755
 6747SOL    HW131877   1.779   3.244   2.794  2.9568 -0.1770  1.5178
 6747SOL    HW231878   1.899   3.269   2.712 -0.4061 -1.2285  0.4497
 6748SOL     OW31879   3.889   1.134   5.767 -0.6653 -0.7748 -0.1641
 6748SOL    HW131880   3.950   1.062   5.750 -1.3042 -1.1907 -0.6558
 6748SOL    HW231881   3.941   1.198   5.717 -0.1905 -1.8945 -1.1010
 6749SOL     OW31882   0.991   0.665   8.806 -0.6132 -0.1746  0.1737
 6749SOL    HW131883   1.002   0.610   8.729  1.4461  0.1921  0.1999
 6749SOL    HW231884   1.083   0.692   8.801 -0.3233 -1.2898 -0.3818
 6750SOL     OW31885   1.628   2.470   3.837 -0.1621  0.5216  0.4915
 6750SOL    HW131886   1.579   2.412   3.895  0.9705  1.3322  2.2379
 6750SOL    HW231887   1.558   2.480   3.773  0.1726 -0.4343 -0.0250
 6751SOL     OW31888   0.684   2.852   1.956 -0.7497 -0.1551  0.2962
 6751SOL    HW131889   0.775   2.871   1.978 -0.3645  0.4676 -1.7395
 6751SOL    HW231890   0.647   2.818   2.037  1.1540 -0.4745  1.0237
 6752SOL     OW31891   2.878   2.809   4.906 -0.3586 -0.2737  0.0447
 6752SOL    HW131892   2.829   2.864   4.968 -0.8769 -1.5933  0.7931
 6752SOL    HW231893   2.958   2.777   4.948 -0.9839 -1.1875  0.5450
 6753SOL     OW31894   1.663   2.462   7.115  0.0471  0.1707  0.2936
 6753SOL    HW131895   1.700   2.493   7.032 -1.4969 -0.6782 -0.7178
 6753SOL    HW231896   1.610   2.540   7.131  0.6797  0.5157  0.6942
 6754SOL     OW31897   1.938   1.878   7.902  0.5232  0.7047  0.1991
 6754SOL    HW131898   1.900   1.831   7.976  1.1742 -0.5919 -0.2948
 6754SOL    HW231899   1.897   1.831   7.830 -2.0159 -0.9264  2.7424
 6755SOL     OW31900   3.765   1.282  11.492  0.2361  0.2623  0.3259
 6755SOL    HW131901   3.687   1.292  11.437  0.2942 -1.4262 -0.0522
 6755SOL    HW231902   3.786   1.189  11.494 -0.4416  0.1483  2.0725
 6756SOL     OW31903   1.936   0.944   9.681  0.0791  0.2706  0.0848
 6756SOL    HW131904   1.841   0.952   9.684  0.0464 -0.7946  2.0024
 6756SOL    HW231905   1.954   0.935   9.587  2.3097  0.6621  0.4679
 6757SOL     OW31906   1.019   4.079   8.525  0.1910  0.0912 -0.0954
 6757SOL    HW131907   0.964   4.063   8.601 -1.7397  0.6071 -1.3899
 6757SOL    HW231908   1.018   4.175   8.528  0.4997  0.1161 -0.8846
 6758SOL     OW31909   4.718   1.466   4.594  0.0915  0.3996 -0.2646
 6758SOL    HW131910   0.064   1.498   4.621  1.8906 -3.0177 -1.9110
 6758SOL    HW231911   4.671   1.547   4.577  1.1832  0.5864 -2.3630
 6759SOL     OW31912   0.459   1.272   6.958  0.5999  0.1649  0.1166
 6759SOL    HW131913   0.446   1.367   6.963  3.1595  0.5081  0.0146
 6759SOL    HW231914   0.451   1.230   7.043 -1.6549 -0.6727 -0.4882
 6760SOL     OW31915   2.441   3.883   7.919 -0.1295 -0.5832 -0.4513
 6760SOL    HW131916   2.463   3.946   7.987  0.2075 -1.1021 -0.0762
 6760SOL    HW231917   2.487   3.919   7.843  0.5932  1.2563  0.8497
 6761SOL     OW31918   1.824   4.665   1.823  0.1264  0.1243 -0.3345
 6761SOL    HW131919   1.851   4.708   1.904  1.3061  2.1527 -1.8044
 6761SOL    HW231920   1.814   4.573   1.848 -0.2981  0.2202 -0.1479
 6762SOL     OW31921   2.773   3.066   4.490  0.8363 -0.4676 -0.0087
 6762SOL    HW131922   2.829   3.112   4.553 -1.7444  0.5167  1.5843
 6762SOL    HW231923   2.721   3.127   4.439 -1.2101  0.1877  2.8386
 6763SOL     OW31924   0.832   3.307   6.387 -0.4235 -0.1573 -0.0893
 6763SOL    HW131925   0.854   3.352   6.468 -1.0557 -1.8811  1.0264
 6763SOL    HW231926   0.767   3.368   6.352  0.7466  1.0118 -0.2418
 6764SOL     OW31927   1.120   1.618   9.348 -0.6014  0.5455  0.4320
 6764SOL    HW131928   1.096   1.556   9.279 -2.1399  1.1681  0.3967
 6764SOL    HW231929   1.036   1.657   9.372 -2.0936 -2.0508 -0.4832
 6765SOL     OW31930   3.006   4.062   5.262 -0.5462  0.2373 -0.1505
 6765SOL    HW131931   3.038   3.980   5.301 -0.8537  2.1262  4.0869
 6765SOL    HW231932   3.083   4.117   5.247 -0.0639 -0.5050 -0.3962
 6766SOL     OW31933   3.629   4.506   4.183 -0.2051  0.0177 -0.4631
 6766SOL    HW131934   3.600   4.596   4.169 -1.4670  0.1765  3.2779
 6766SOL    HW231935   3.702   4.506   4.122 -0.2276  0.8503 -0.4877
 6767SOL     OW31936   3.844   1.315  10.869  0.1327 -0.4433 -0.5897
 6767SOL    HW131937   3.770   1.375  10.876  0.7227  0.2436 -0.2035
 6767SOL    HW231938   3.912   1.383  10.867  0.4846 -0.7804 -0.0926
 6768SOL     OW31939   3.119   1.738  15.138  0.0229  0.6552  0.0857
 6768SOL    HW131940   3.116   1.671  15.206  2.5841 -0.8501 -1.2697
 6768SOL    HW231941   3.162   1.689  15.068  0.9477 -0.4443  1.4413
 6769SOL     OW31942   3.731   2.279   5.852 -0.1293  0.0434 -0.2527
 6769SOL    HW131943   3.730   2.190   5.817 -1.0335 -0.8085  1.9597
 6769SOL    HW231944   3.816   2.316   5.830  0.5162 -0.9508  0.5647
 6770SOL     OW31945   2.810   4.635  15.470  0.1209  0.3558  0.4662
 6770SOL    HW131946   2.788   4.678  15.388 -1.1263  0.3876  0.8250
 6770SOL    HW231947   2.822   4.546  15.436 -3.4087  0.2423 -0.4469
 6771SOL     OW31948   1.389   4.663   9.764 -0.0295  0.2407  0.5703
 6771SOL    HW131949   1.327   4.672   9.836 -1.3157 -1.8808 -0.2658
 6771SOL    HW231950   1.327   4.638   9.695  1.9039  0.9761 -1.4441
 6772SOL     OW31951   4.587   0.799  17.372 -0.0651 -0.5735  0.4214
 6772SOL    HW131952   4.674   0.785  17.334 -0.3997 -1.9817  0.1830
 6772SOL    HW231953   4.565   0.717  17.415  1.6891 -1.6922 -0.8559
 6773SOL     OW31954   3.788   2.375   2.348 -0.0799 -0.7418 -0.6803
 6773SOL    HW131955   3.737   2.301   2.316  0.1467 -1.2555  0.1336
 6773SOL    HW231956   3.711   2.422   2.378  0.6935 -0.7384  1.3240
 6774SOL     OW31957   1.076   1.866   6.819 -0.0183  0.0294 -0.1591
 6774SOL    HW131958   1.056   1.938   6.879 -0.3021 -1.4080  1.4897
 6774SOL    HW231959   1.037   1.796   6.872  1.6989 -0.4582  0.4648
 6775SOL     OW31960   0.375   4.598   2.684  0.4316 -0.0909  0.2003
 6775SOL    HW131961   0.372   4.514   2.639 -1.7056 -0.5508  1.1663
 6775SOL    HW231962   0.416   4.648   2.613  2.4106 -0.0043  1.4225
 6776SOL     OW31963   3.733   3.859  12.124 -0.1470  0.3035  0.5221
 6776SOL    HW131964   3.713   3.904  12.042 -2.5346  2.1912  2.1392
 6776SOL    HW231965   3.677   3.783  12.110 -1.6298  1.0232  2.6180
 6777SOL     OW31966   0.378   1.289   8.251 -0.2492 -0.0730 -0.3619
 6777SOL    HW131967   0.389   1.382   8.268  1.6735 -0.3106 -0.2843
 6777SOL    HW231968   0.375   1.262   8.343 -1.8848 -1.2553 -0.7509
 6778SOL     OW31969   3.160   1.243   6.011  0.0656  0.3986 -0.2145
 6778SOL    HW131970   3.102   1.172   5.984  2.0025 -1.4671  0.4352
 6778SOL    HW231971   3.209   1.200   6.081  0.3000 -1.6520 -1.6247
 6779SOL     OW31972   2.336   2.742  16.271  0.1024  0.3921 -0.5164
 6779SOL    HW131973   2.317   2.672  16.208  0.3800  0.2161 -0.4026
 6779SOL    HW231974   2.254   2.790  16.261 -0.4143 -0.2269  0.7921
 6780SOL     OW31975   0.416   0.425  15.163  0.0258  0.4060  0.4037
 6780SOL    HW131976   0.394   0.516  15.142  0.7934  1.0150  2.2326
 6780SOL    HW231977   0.347   0.423  15.229 -0.9800  2.6502 -0.5647
 6781SOL     OW31978   1.406   0.232   1.614 -0.1749 -0.2420  0.0625
 6781SOL    HW131979   1.462   0.268   1.545  0.4360  0.4593  0.9235
 6781SOL    HW231980   1.472   0.202   1.677  0.0671  0.1713  0.0046
 6782SOL     OW31981   4.198   3.279   7.684  0.3198  0.2463  0.5988
 6782SOL    HW131982   4.265   3.256   7.749  1.8651  0.0210 -1.0784
 6782SOL    HW231983   4.241   3.225   7.617 -1.7546 -0.7808  0.1083
 6783SOL     OW31984   3.150   1.282   6.831 -0.2133  0.2489 -0.0782
 6783SOL    HW131985   3.079   1.329   6.786 -0.8635 -1.7410 -1.1058
 6783SOL    HW231986   3.101   1.206   6.861 -1.8413  0.9134 -1.0834
 6784SOL     OW31987   4.476   2.446   6.767  0.3829 -0.0346 -0.3690
 6784SOL    HW131988   4.465   2.471   6.675  0.3092  2.0330  0.2042
 6784SOL    HW231989   4.392   2.472   6.803  0.8928  0.0885  0.7182
 6785SOL     OW31990   2.273   0.689   1.057 -0.4262  0.0380  0.1910
 6785SOL    HW131991   2.285   0.655   0.968 -0.2473  0.5402  0.0219
 6785SOL    HW231992   2.246   0.777   1.033 -0.8030  0.0527  0.6898
 6786SOL     OW31993   2.887   3.012   3.240 -0.1793  0.2504 -0.1340
 6786SOL    HW131994   2.948   3.039   3.173  3.0822 -0.4055  2.5535
 6786SOL    HW231995   2.853   2.932   3.199 -1.6925  0.6489  0.3096
 6787SOL     OW31996   1.974   1.000   8.918 -0.1294  0.9832  0.0122
 6787SOL    HW131997   1.906   1.016   8.984  0.8529  2.9130  0.5551
 6787SOL    HW231998   1.939   0.917   8.886  0.0984  0.5577  0.8589
 6788SOL     OW31999   2.164   4.031   3.086 -0.3685  0.2284  0.1188
 6788SOL    HW132000   2.249   4.033   3.043 -0.8607 -1.5982 -0.9231
 6788SOL    HW232001   2.180   4.020   3.180 -0.0298 -0.9218 -0.0698
 6789SOL     OW32002   1.472   3.405   6.414 -0.1663  0.0226  0.5569
 6789SOL    HW132003   1.501   3.321   6.381 -2.6100  0.3690 -2.4773
 6789SOL    HW232004   1.523   3.423   6.493 -0.1677 -3.6482  1.3831
 6790SOL     OW32005   3.911   2.971   4.502  0.0159 -0.0142  0.5101
 6790SOL    HW132006   3.897   3.010   4.588  0.7523  1.0865  0.1262
 6790SOL    HW232007   3.944   2.884   4.525 -1.0932 -0.3940  0.6481
 6791SOL     OW32008   1.078   4.110   7.479 -0.4301 -0.0221  0.1053
 6791SOL    HW132009   1.112   4.056   7.407  0.1137  0.7121 -0.1917
 6791SOL    HW232010   1.007   4.054   7.511 -0.4806 -0.4466 -0.7392
 6792SOL     OW32011   1.003   1.053   2.544 -0.4734 -0.2024 -0.3347
 6792SOL    HW132012   0.942   1.033   2.614 -1.1923  1.6716 -0.4379
 6792SOL    HW232013   1.056   1.110   2.599  0.6715  1.1217 -2.8266
 6793SOL     OW32014   2.017   1.064   4.933  0.0947 -0.2268  0.2938
 6793SOL    HW132015   2.107   1.078   4.903 -0.0939 -2.6894 -1.4008
 6793SOL    HW232016   2.032   1.001   5.003  0.7317 -1.2949 -0.8151
 6794SOL     OW32017   3.048   3.721  13.003  0.7295  0.4774  0.6877
 6794SOL    HW132018   2.966   3.741  12.957  1.3169  3.3409  0.8645
 6794SOL    HW232019   3.118   3.722  12.938  0.5315  0.1244  0.4691
 6795SOL     OW32020   1.393   1.787   3.656 -0.4421 -0.0895 -0.0133
 6795SOL    HW132021   1.482   1.816   3.674 -0.2613 -0.8280  0.2787
 6795SOL    HW232022   1.371   1.852   3.589 -0.0985 -1.3304 -1.3039
 6796SOL     OW32023   3.963   1.636   2.345 -0.0194  0.7730 -0.2194
 6796SOL    HW132024   4.057   1.645   2.360  0.0274  2.9227 -1.8794
 6796SOL    HW232025   3.961   1.544   2.320  1.3111  0.4771  0.7374
 6797SOL     OW32026   4.395   1.580  17.609 -0.3713 -0.3492 -0.1527
 6797SOL    HW132027   4.436   1.514  17.553  2.1738 -0.4686  1.8837
 6797SOL    HW232028   4.333   1.615  17.544 -0.0857  1.9522  0.8122
 6798SOL     OW32029   0.054   2.803   5.007  0.4551 -0.0053  0.4667
 6798SOL    HW132030   0.023   2.817   4.918 -0.2576 -0.0911  0.6984
 6798SOL    HW232031   0.051   2.897   5.024 -1.2793 -0.1547  1.0703
 6799SOL     OW32032   3.048   1.259  17.640 -0.5132  0.2184  0.1133
 6799SOL    HW132033   2.958   1.246  17.612 -0.4084 -2.2889  0.8765
 6799SOL    HW232034   3.077   1.168  17.633 -1.4535 -0.1297  0.7647
 6800SOL     OW32035   2.234   1.286   0.315 -0.4113 -0.2231 -0.1063
 6800SOL    HW132036   2.236   1.349   0.388  1.2411  0.4389 -0.7163
 6800SOL    HW232037   2.196   1.334   0.242 -1.1959 -1.1340 -0.2916
 6801SOL     OW32038   4.089   1.225   1.248  0.2403 -0.1218 -0.2393
 6801SOL    HW132039   4.105   1.315   1.217 -1.3130  0.9111  2.0059
 6801SOL    HW232040   4.020   1.206   1.185 -1.8100  2.4348  1.2654
 6802SOL     OW32041   4.023   3.159   8.087 -0.1451 -0.7541 -0.0949
 6802SOL    HW132042   3.977   3.221   8.143  0.9041 -0.4283  0.4200
 6802SOL    HW232043   4.017   3.073   8.129 -0.0456 -0.7493 -0.0702
 6803SOL     OW32044   2.830   1.399   3.296  0.2141  0.3890  0.0887
 6803SOL    HW132045   2.772   1.475   3.307  0.7339  0.6706  0.8488
 6803SOL    HW232046   2.900   1.415   3.360  0.6734  0.6814 -0.4879
 6804SOL     OW32047   2.756   0.352   5.851  0.0165  0.2010 -0.0512
 6804SOL    HW132048   2.719   0.331   5.765  1.2730 -3.0521  0.2146
 6804SOL    HW232049   2.792   0.271   5.886  2.9641  1.7312  0.4540
 6805SOL     OW32050   0.178   3.276   7.682 -0.1536 -0.1727  0.4781
 6805SOL    HW132051   0.150   3.328   7.757  0.7618 -2.7844  2.6092
 6805SOL    HW232052   0.211   3.201   7.732  1.0695  0.5606  0.7726
 6806SOL     OW32053   1.114   3.985   8.245  0.0184  0.0894 -0.3503
 6806SOL    HW132054   1.037   3.985   8.302 -1.7241  1.8050 -2.7137
 6806SOL    HW232055   1.142   4.064   8.291 -0.1497 -0.2829  0.3930
 6807SOL     OW32056   2.855   2.250   1.618  0.0622 -0.2795  0.1361
 6807SOL    HW132057   2.788   2.236   1.685 -0.9416 -2.6691 -1.3692
 6807SOL    HW232058   2.915   2.184   1.651  0.6013 -0.7026 -1.6931
 6808SOL     OW32059   3.801   2.932  11.521  0.2177  0.2159  0.1818
 6808SOL    HW132060   3.822   3.018  11.559 -0.2976 -0.9938  3.1784
 6808SOL    HW232061   3.847   2.870  11.578  2.3043  0.0060 -1.7402
 6809SOL     OW32062   4.727   4.446   7.579 -0.3242 -0.1724  0.1331
 6809SOL    HW132063   4.684   4.363   7.559 -1.5265  0.6757 -0.7625
 6809SOL    HW232064   4.709   4.492   7.497 -1.0214 -1.2105 -0.2928
 6810SOL     OW32065   3.966   4.259   1.167 -0.5419  0.1291  0.0299
 6810SOL    HW132066   3.897   4.200   1.136  0.7336 -1.5153  0.3073
 6810SOL    HW232067   3.926   4.338   1.130  0.8267  0.1424 -1.4074
 6811SOL     OW32068   3.550   1.329  16.422  0.0771  0.4807  0.2430
 6811SOL    HW132069   3.462   1.303  16.450 -0.1165  2.5894  1.6136
 6811SOL    HW232070   3.592   1.338  16.507  0.8842  0.9011 -0.1986
 6812SOL     OW32071   1.276   0.559   2.154 -0.5753 -0.1493  0.0381
 6812SOL    HW132072   1.206   0.498   2.133  0.7529 -0.8818 -2.3248
 6812SOL    HW232073   1.234   0.645   2.147  2.8650  1.3104 -2.5961
 6813SOL     OW32074   1.184   2.582   9.208 -0.3589  0.3208 -0.0731
 6813SOL    HW132075   1.091   2.560   9.197 -0.4143  0.3333  0.3702
 6813SOL    HW232076   1.185   2.678   9.208 -0.0343  0.3099  0.9947
 6814SOL     OW32077   2.587   3.202  11.979 -0.0028  0.4049 -0.0452
 6814SOL    HW132078   2.589   3.137  11.910  0.3812  0.1471  0.2111
 6814SOL    HW232079   2.666   3.250  11.956 -0.4476  0.6561 -1.0505
 6815SOL     OW32080   0.404   3.067   3.275  0.4844 -0.0639  0.2669
 6815SOL    HW132081   0.448   3.010   3.212  1.3378 -2.4693  3.0548
 6815SOL    HW232082   0.450   3.142   3.238  0.0342  0.5757  1.0052
 6816SOL     OW32083   3.219   4.080   1.004  0.7938 -0.4279  0.1136
 6816SOL    HW132084   3.221   4.169   0.969  3.0070 -0.2928  0.5603
 6816SOL    HW232085   3.314   4.070   1.012  1.0475  1.1025 -1.0033
 6817SOL     OW32086   2.549   0.148  16.481  0.7277 -0.3897  0.1184
 6817SOL    HW132087   2.489   0.093  16.532  1.4487  0.3244  1.7359
 6817SOL    HW232088   2.634   0.117  16.513  0.6274 -0.4673  0.3130
 6818SOL     OW32089   4.532   3.909   4.079  0.4175  0.4328 -0.1150
 6818SOL    HW132090   4.578   3.967   4.019 -1.3902  0.2655 -1.6662
 6818SOL    HW232091   4.444   3.918   4.044  0.0055  0.1105  0.8493
 6819SOL     OW32092   2.549   1.761   1.827  0.2071  0.3561 -0.5529
 6819SOL    HW132093   2.567   1.855   1.832  0.1818  0.3243  0.1472
 6819SOL    HW232094   2.511   1.750   1.739 -0.9668 -0.6780  0.0750
 6820SOL     OW32095   4.064   1.919   8.269  0.2240 -0.6595 -0.0713
 6820SOL    HW132096   4.145   1.902   8.220  1.9900  0.5989  2.4266
 6820SOL    HW232097   4.044   1.832   8.305 -0.8019 -0.3682  0.0569
 6821SOL     OW32098   2.498   2.420  14.971 -0.0231 -0.3092 -0.0899
 6821SOL    HW132099   2.594   2.423  14.976 -0.1220  1.4521  1.0336
 6821SOL    HW232100   2.484   2.419  14.877 -2.2833 -0.4312  0.2602
 6822SOL     OW32101   2.164   1.061   2.833  0.4971 -0.2726  0.5474
 6822SOL    HW132102   2.081   1.031   2.794  0.3003  1.4454 -0.3696
 6822SOL    HW232103   2.138   1.136   2.886 -3.3972 -0.6322 -0.8199
 6823SOL     OW32104   0.293   0.862   7.663  0.2671  0.1129 -0.1701
 6823SOL    HW132105   0.273   0.768   7.669 -1.2634  0.5496  1.2721
 6823SOL    HW232106   0.206   0.899   7.674  0.1434 -0.5339  1.0244
 6824SOL     OW32107   3.937   0.098   7.124  0.8134 -0.0842  0.0432
 6824SOL    HW132108   3.925   0.043   7.047  0.2239 -2.4916  1.8426
 6824SOL    HW232109   3.948   0.035   7.196  0.1863  0.6424  0.7754
 6825SOL     OW32110   1.515   4.074   7.460 -0.2966 -0.3367 -0.4871
 6825SOL    HW132111   1.512   4.114   7.374 -1.3298  0.0311 -0.2854
 6825SOL    HW232112   1.555   3.989   7.443  2.7974  1.0447 -0.0557
 6826SOL     OW32113   4.536   0.840  10.926  0.0270  0.2246  0.2151
 6826SOL    HW132114   4.502   0.826  11.015  4.8135  0.4754  2.1197
 6826SOL    HW232115   4.622   0.875  10.950 -0.0401 -0.3934  1.3616
 6827SOL     OW32116   0.620   1.470   6.200 -0.3783  0.1894  0.5323
 6827SOL    HW132117   0.688   1.530   6.168  0.9055 -1.4440  0.2008
 6827SOL    HW232118   0.657   1.444   6.285 -0.7080  1.2753  1.0151
 6828SOL     OW32119   1.352   2.683  12.991  0.0952  0.2543 -0.2906
 6828SOL    HW132120   1.308   2.746  13.049  1.5446  0.3965  0.6789
 6828SOL    HW232121   1.408   2.739  12.937 -2.1786  0.1387 -2.7558
 6829SOL     OW32122   3.560   2.536   6.170 -0.3333  0.8806 -0.0319
 6829SOL    HW132123   3.601   2.611   6.213 -0.0950  0.2628  0.8000
 6829SOL    HW232124   3.499   2.505   6.237 -1.3044  2.3775 -0.2265
 6830SOL     OW32125   1.218   3.021   7.425  0.2109 -0.0996  0.6313
 6830SOL    HW132126   1.185   2.941   7.386  1.7687 -0.0572 -0.7558
 6830SOL    HW232127   1.224   2.992   7.516  1.2470 -2.3945 -0.1930
 6831SOL     OW32128   3.418   1.222   8.543 -0.2140  0.4371  0.2050
 6831SOL    HW132129   3.494   1.263   8.586 -1.6706  1.8453  1.4049
 6831SOL    HW232130   3.363   1.299   8.535  0.4654  1.1256  2.3998
 6832SOL     OW32131   2.672   0.417   4.341  0.6764 -0.3411 -0.7385
 6832SOL    HW132132   2.664   0.372   4.425 -0.0604 -1.3642 -1.3602
 6832SOL    HW232133   2.694   0.505   4.371  0.3264  0.3307 -2.4664
 6833SOL     OW32134   1.971   3.210   1.211  0.0582  0.2088  0.4300
 6833SOL    HW132135   1.976   3.161   1.293  0.2916  2.0809  1.5436
 6833SOL    HW232136   1.894   3.262   1.234  2.5065  4.0129  0.1516
 6834SOL     OW32137   2.642   3.245   9.130  1.1595  0.3345  0.4616
 6834SOL    HW132138   2.608   3.309   9.068  1.0462  1.7303  1.9674
 6834SOL    HW232139   2.737   3.253   9.132  1.2150 -0.6378  2.1678
 6835SOL     OW32140   2.520   0.030   4.911 -0.1626 -0.3224  0.3492
 6835SOL    HW132141   2.449   0.041   4.974  0.0449 -1.4383  0.7655
 6835SOL    HW232142   2.580   0.101   4.935 -1.6236  0.2741  2.2109
 6836SOL     OW32143   3.562   4.590   4.764 -1.1430 -0.3866  0.3598
 6836SOL    HW132144   3.592   4.567   4.675  1.0570  0.5098  0.8666
 6836SOL    HW232145   3.495   4.654   4.740 -0.6925 -0.1241 -0.2032
 6837SOL     OW32146   3.168   0.588  17.458 -0.1260  0.1172  0.1767
 6837SOL    HW132147   3.244   0.558  17.506  0.4900  1.0963 -0.1884
 6837SOL    HW232148   3.199   0.616  17.372  1.3260 -0.3719  0.5525
 6838SOL     OW32149   1.671   2.133   2.763 -0.0089  0.7590 -0.3798
 6838SOL    HW132150   1.725   2.059   2.738  0.1582  1.2021 -1.3252
 6838SOL    HW232151   1.648   2.167   2.677 -0.8548 -0.4133 -0.5997
 6839SOL     OW32152   4.716   3.060  12.017 -0.1212  0.1934  0.1179
 6839SOL    HW132153   4.622   3.082  12.021 -0.1792  0.4286 -2.3799
 6839SOL    HW232154   4.712   2.984  11.959  1.1541 -0.1007  0.4223
 6840SOL     OW32155   0.827   1.111  11.350 -0.5501  0.9968  0.0605
 6840SOL    HW132156   0.751   1.132  11.296 -1.0053 -0.3535  0.1677
 6840SOL    HW232157   0.868   1.042  11.298 -1.2571 -0.0366  0.8813
 6841SOL     OW32158   4.480   1.905   7.258  0.1578  0.2380 -0.1688
 6841SOL    HW132159   4.509   1.832   7.203 -3.5275 -0.3334 -1.3011
 6841SOL    HW232160   4.398   1.882   7.301 -0.6873  2.6771 -0.4793
 6842SOL     OW32161   2.390   0.041  16.146 -0.6915 -0.0970  0.0499
 6842SOL    HW132162   2.366   4.703  16.197 -0.4704 -1.3530 -1.7694
 6842SOL    HW232163   2.472   0.019  16.101 -1.1337  2.6696 -2.0971
 6843SOL     OW32164   2.045   4.260  10.175  0.6960 -0.0902  0.1040
 6843SOL    HW132165   2.020   4.167  10.170 -3.0951  0.8651  1.7286
 6843SOL    HW232166   1.995   4.286  10.252  1.4654  0.6237  0.3565
 6844SOL     OW32167   3.708   1.223   6.283  0.3269  0.0887 -0.2271
 6844SOL    HW132168   3.706   1.317   6.268 -0.1326 -0.0574 -1.0841
 6844SOL    HW232169   3.717   1.188   6.195 -0.0230 -0.0693 -0.2023
 6845SOL     OW32170   2.563   0.739   4.254 -0.5034 -0.3837  0.0203
 6845SOL    HW132171   2.496   0.807   4.259 -2.1493 -1.9249 -0.9339
 6845SOL    HW232172   2.629   0.787   4.205  1.1341 -1.9744  0.6473
 6846SOL     OW32173   4.027   3.455   5.204 -0.1595  0.6539 -0.0175
 6846SOL    HW132174   4.100   3.402   5.235 -0.4346  0.9091  1.0689
 6846SOL    HW232175   4.067   3.541   5.204  2.7650 -0.7230 -0.9670
 6847SOL     OW32176   1.081   1.137   1.481 -0.4110  0.0362 -0.0847
 6847SOL    HW132177   1.074   1.218   1.430  0.2072  1.9015  2.8248
 6847SOL    HW232178   1.078   1.072   1.411  3.1065  0.0685 -0.2467
 6848SOL     OW32179   0.165   4.146   5.568  0.2299 -0.1715 -0.3265
 6848SOL    HW132180   0.188   4.237   5.588 -0.2502  0.3408 -2.0683
 6848SOL    HW232181   0.226   4.133   5.495 -2.1407  1.1448 -2.5372
 6849SOL     OW32182   4.195   3.454   6.265  0.1080  0.1204 -0.5796
 6849SOL    HW132183   4.103   3.429   6.265  0.2784 -0.4808 -1.3983
 6849SOL    HW232184   4.178   3.546   6.248 -2.4170  0.1750  2.2130
 6850SOL     OW32185   4.497   3.391   9.706  0.0056  0.2209 -0.3449
 6850SOL    HW132186   4.448   3.412   9.627 -0.3202  1.1075  0.0938
 6850SOL    HW232187   4.442   3.429   9.775 -1.5308 -1.9452 -0.3693
 6851SOL     OW32188   2.500   1.328  12.831  0.1924  0.5162  0.0994
 6851SOL    HW132189   2.573   1.266  12.837 -0.2382  0.0081  0.1735
 6851SOL    HW232190   2.496   1.383  12.909 -0.8784 -0.0592  0.4527
 6852SOL     OW32191   1.435   2.423   8.938  0.0603  0.2123  0.3546
 6852SOL    HW132192   1.524   2.437   8.971  0.1440 -1.4655  0.8356
 6852SOL    HW232193   1.411   2.337   8.974 -0.6049 -0.1393 -0.9459
 6853SOL     OW32194   0.075   0.116   5.023  0.3220 -0.9151  0.3423
 6853SOL    HW132195   0.101   0.207   5.041  0.9360 -1.0696  0.2441
 6853SOL    HW232196   0.145   0.064   5.064 -0.7173 -1.1410  1.8287
 6854SOL     OW32197   1.523   1.999   3.988  0.3075  0.6342  0.5142
 6854SOL    HW132198   1.595   1.998   4.051  1.0083 -0.3283 -0.2874
 6854SOL    HW232199   1.582   1.983   3.914 -1.0976  3.0101 -1.1217
 6855SOL     OW32200   3.605   3.713   6.854 -0.0594  0.3589  0.2054
 6855SOL    HW132201   3.602   3.618   6.864  0.0260  0.3296 -0.0381
 6855SOL    HW232202   3.555   3.720   6.773  2.2214  2.7131 -1.0080
 6856SOL     OW32203   0.048   1.289   4.795 -0.0091 -0.2816  0.0162
 6856SOL    HW132204   4.739   1.341   4.858  1.5797 -0.9725  1.8534
 6856SOL    HW232205   0.026   1.328   4.710  1.5274  1.8881  0.6054
 6857SOL     OW32206   2.113   1.067   7.109 -0.5385 -0.1929  0.5664
 6857SOL    HW132207   2.082   1.129   7.174  1.7636  1.8305 -0.2778
 6857SOL    HW232208   2.035   1.030   7.067 -0.3127 -0.5407  0.4537
 6858SOL     OW32209   4.709   0.882   7.348 -0.1853  0.4399  0.4619
 6858SOL    HW132210   4.679   0.807   7.296 -0.8148  2.3004 -1.9079
 6858SOL    HW232211   4.664   0.954   7.304  0.2639  1.1746  1.1978
 6859SOL     OW32212   3.550   1.683  12.125 -0.5444 -0.1336 -0.4293
 6859SOL    HW132213   3.525   1.675  12.033 -1.1725  1.4891 -0.3981
 6859SOL    HW232214   3.588   1.595  12.134 -0.5616 -0.2707 -1.5805
 6860SOL     OW32215   4.564   3.235   8.074 -0.0469  0.0880  0.3610
 6860SOL    HW132216   4.652   3.197   8.086  0.0176  0.4208  0.9168
 6860SOL    HW232217   4.544   3.286   8.152 -0.6585 -0.0793  0.3114
 6861SOL     OW32218   2.361   1.507   7.230  0.0715  0.0101 -0.2689
 6861SOL    HW132219   2.445   1.466   7.249  1.6358  2.9260 -0.9075
 6861SOL    HW232220   2.362   1.484   7.137  3.2953 -0.9017  0.0132
 6862SOL     OW32221   1.086   2.375   7.565 -0.2233 -0.6746 -0.2496
 6862SOL    HW132222   1.120   2.292   7.530  3.2081  1.5338 -2.1937
 6862SOL    HW232223   0.993   2.377   7.543 -0.1478  1.3748 -0.3363
 6863SOL     OW32224   2.965   2.619   9.518 -0.4859 -0.0255  0.2645
 6863SOL    HW132225   2.992   2.711   9.527 -0.9145  0.0761  0.5394
 6863SOL    HW232226   2.940   2.582   9.603  1.6195 -0.7692  0.5568
 6864SOL     OW32227   3.308   3.385  10.414 -0.0993 -0.0587 -0.3976
 6864SOL    HW132228   3.279   3.409  10.502  1.1646 -1.5508  0.4141
 6864SOL    HW232229   3.236   3.326  10.392  0.4114 -1.0142  0.5276
 6865SOL     OW32230   1.127   3.816  11.542  0.8073  0.3752 -0.0757
 6865SOL    HW132231   1.064   3.776  11.482 -1.2393 -1.6508  3.4253
 6865SOL    HW232232   1.201   3.838  11.487 -0.1660 -1.1051 -1.9936
 6866SOL     OW32233   4.318   4.032   9.307  0.3589  0.1058 -0.2965
 6866SOL    HW132234   4.325   4.013   9.214 -0.2432 -1.3627 -0.0428
 6866SOL    HW232235   4.255   3.966   9.335 -1.5706  1.7771 -0.7014
 6867SOL     OW32236   0.485   3.483   7.046 -0.2805 -0.0124 -0.1546
 6867SOL    HW132237   0.487   3.442   7.132 -0.5791  1.4095  0.5285
 6867SOL    HW232238   0.394   3.501   7.022 -0.0911  2.7078  1.1372
 6868SOL     OW32239   4.655   1.915   4.790 -0.2553  0.6947  0.6561
 6868SOL    HW132240   4.640   1.945   4.879  0.6561 -1.6646  1.5999
 6868SOL    HW232241   4.739   1.872   4.804  0.3539  1.1939 -1.4719
 6869SOL     OW32242   2.614   1.096   2.783  0.0933  0.0749 -0.0543
 6869SOL    HW132243   2.670   1.134   2.714  2.7452 -0.2194  1.9304
 6869SOL    HW232244   2.528   1.125   2.752  1.0333  1.8221 -1.0707
 6870SOL     OW32245   4.100   4.019   5.136  0.1178  0.1629 -0.2211
 6870SOL    HW132246   4.019   4.068   5.152  1.0642  1.8004 -0.4962
 6870SOL    HW232247   4.099   4.027   5.041 -0.9871 -3.1221 -0.5088
 6871SOL     OW32248   1.457   3.177   6.677 -0.4889 -0.1211 -0.1081
 6871SOL    HW132249   1.450   3.267   6.644  1.4787 -0.2249 -0.7983
 6871SOL    HW232250   1.552   3.169   6.676 -0.5284 -0.4431 -0.8723
 6872SOL     OW32251   3.158   2.562   6.082  0.1500  0.1609  0.4332
 6872SOL    HW132252   3.147   2.546   6.175 -0.8282 -0.5577  0.1864
 6872SOL    HW232253   3.072   2.600   6.062  0.5713  1.0186  0.2459
 6873SOL     OW32254   2.958   4.490   0.482 -0.0086 -0.5301 -0.1161
 6873SOL    HW132255   2.966   4.555   0.552 -1.0610 -0.7281  0.1892
 6873SOL    HW232256   3.025   4.425   0.502  0.7954  0.5129  0.6056
 6874SOL     OW32257   2.089   4.675  17.645 -0.1319  0.7185  0.0843
 6874SOL    HW132258   2.096   0.030  17.646 -1.8299  0.8532  0.4418
 6874SOL    HW232259   2.151   4.642  17.580  0.6050  0.6477  0.8246
 6875SOL     OW32260   2.507   4.503  17.126 -0.6008  0.1395 -0.2974
 6875SOL    HW132261   2.522   4.512  17.220  0.7989 -1.5471 -0.3661
 6875SOL    HW232262   2.422   4.548  17.120 -0.6832  0.3640  2.7371
 6876SOL     OW32263   2.570   1.914   2.134  0.7204 -0.0752  0.0759
 6876SOL    HW132264   2.639   1.940   2.073 -0.8563  0.8855 -1.3185
 6876SOL    HW232265   2.525   1.995   2.156  1.5650  0.3556  0.1870
 6877SOL     OW32266   0.757   3.852   9.040 -0.9891 -0.8888 -0.3597
 6877SOL    HW132267   0.748   3.793   9.115  1.6514 -0.1751  0.5098
 6877SOL    HW232268   0.750   3.939   9.080 -0.6495  1.2495 -4.9794
 6878SOL     OW32269   3.003   3.137   6.999  0.8728  0.3853 -0.3190
 6878SOL    HW132270   3.092   3.127   6.966  0.1991 -1.2273 -1.6172
 6878SOL    HW232271   3.025   3.188   7.077 -1.0908  0.6056  0.0967
 6879SOL     OW32272   4.100   0.603   8.894 -0.1457  0.2436 -0.0314
 6879SOL    HW132273   4.053   0.542   8.838 -1.8010  1.9425 -0.5052
 6879SOL    HW232274   4.115   0.680   8.839 -0.1786 -1.0890 -1.9048
 6880SOL     OW32275   0.489   0.341   3.908 -0.4799 -0.0958 -0.2149
 6880SOL    HW132276   0.465   0.389   3.987 -0.4881 -1.0474  0.3692
 6880SOL    HW232277   0.420   0.274   3.909  1.1323 -1.7551  1.0372
 6881SOL     OW32278   1.360   0.549  14.645  0.0559 -0.4563 -0.2787
 6881SOL    HW132279   1.402   0.633  14.628 -0.2390 -0.4434 -0.9690
 6881SOL    HW232280   1.318   0.581  14.725 -0.0224  1.4098 -1.0558
 6882SOL     OW32281   1.464   2.540  10.078  0.4860  0.2098 -0.0610
 6882SOL    HW132282   1.491   2.563  10.167  1.3218 -1.8943  0.2224
 6882SOL    HW232283   1.496   2.620  10.035 -0.1649  0.9074  0.7439
 6883SOL     OW32284   1.728   3.025   4.592 -0.0994 -0.1238  0.0540
 6883SOL    HW132285   1.786   3.010   4.517  0.1072 -0.9990  0.3917
 6883SOL    HW232286   1.665   3.090   4.562 -1.3364 -1.2324  0.2351
 6884SOL     OW32287   2.431   4.052   0.952  0.0017  0.7505  0.1804
 6884SOL    HW132288   2.489   4.025   0.881  1.1639 -0.9017  1.7739
 6884SOL    HW232289   2.345   4.042   0.911  0.7821  1.1471 -1.5514
 6885SOL     OW32290   2.571   3.626  10.533 -0.2752 -0.7903 -0.0594
 6885SOL    HW132291   2.630   3.570  10.483 -0.0980  0.7807 -1.6308
 6885SOL    HW232292   2.640   3.687  10.560  0.9017 -1.0481 -2.4972
 6886SOL     OW32293   1.045   3.552   8.362 -0.4075  0.1291 -0.1793
 6886SOL    HW132294   1.001   3.621   8.313 -0.1307  0.7068  0.3742
 6886SOL    HW232295   1.126   3.595   8.392 -0.0933 -0.7710  0.2732
 6887SOL     OW32296   3.484   4.080   1.014 -0.2732  0.3707  0.3067
 6887SOL    HW132297   3.464   4.031   1.094  0.5162 -0.4647  0.0036
 6887SOL    HW232298   3.537   4.017   0.965  0.9106  0.0331  2.0325
 6888SOL     OW32299   4.598   4.450   2.850  0.2193 -0.5269 -0.5066
 6888SOL    HW132300   4.597   4.505   2.771 -0.7796 -0.3405 -0.3648
 6888SOL    HW232301   4.674   4.490   2.892  0.9187 -0.7220 -1.5943
 6889SOL     OW32302   1.939   2.091  12.248  0.0143 -0.1389 -0.0143
 6889SOL    HW132303   1.944   2.007  12.202 -0.8820 -0.5072  0.5584
 6889SOL    HW232304   1.922   2.151  12.175 -1.9444  0.5726  1.0242
 6890SOL     OW32305   1.580   1.689   5.721 -0.1311 -0.3106  0.5829
 6890SOL    HW132306   1.633   1.721   5.649 -0.4761 -0.3713  0.3032
 6890SOL    HW232307   1.594   1.760   5.783 -2.5203  1.0862 -0.4771
 6891SOL     OW32308   2.424   3.279  11.618 -0.6693  0.0063 -0.2574
 6891SOL    HW132309   2.470   3.358  11.644  1.5620 -0.5515 -2.4810
 6891SOL    HW232310   2.423   3.298  11.524 -1.3794 -2.1771 -0.6972
 6892SOL     OW32311   2.868   1.925   3.462 -0.1090  0.5632 -0.3602
 6892SOL    HW132312   2.885   2.011   3.424  1.2696  0.0769 -0.8419
 6892SOL    HW232313   2.906   1.939   3.549  0.2382  1.9312 -0.7286
 6893SOL     OW32314   2.717   3.947   8.653 -0.3417 -0.1046 -0.2559
 6893SOL    HW132315   2.811   3.953   8.636 -0.8377  2.8301 -1.9570
 6893SOL    HW232316   2.703   3.855   8.679 -0.3387 -0.0285  0.0184
 6894SOL     OW32317   2.326   1.038  13.968 -0.2986 -0.5780  0.3086
 6894SOL    HW132318   2.239   1.003  13.949  0.8513 -2.3335 -1.9351
 6894SOL    HW232319   2.332   1.129  13.942 -2.3720 -0.7441 -0.7077
 6895SOL     OW32320   2.241   1.693   5.221 -0.5255  0.0978  0.1177
 6895SOL    HW132321   2.336   1.695   5.224 -0.4544 -0.1226 -1.7416
 6895SOL    HW232322   2.234   1.634   5.145 -1.8886  1.7248 -1.0169
 6896SOL     OW32323   4.605   4.594   6.711  0.9086 -0.4691  0.4782
 6896SOL    HW132324   4.677   4.587   6.774  0.5926 -0.0578  0.8860
 6896SOL    HW232325   4.589   4.688   6.716 -1.4171 -0.6974 -2.8285
 6897SOL     OW32326   0.544   4.457   6.040 -1.1758 -0.0634  0.5900
 6897SOL    HW132327   0.614   4.414   6.089  0.5288  2.9158  0.7819
 6897SOL    HW232328   0.472   4.488   6.095  0.8778  0.6486  2.8647
 6898SOL     OW32329   3.290   4.312   7.976  1.1278 -0.2249  0.1094
 6898SOL    HW132330   3.246   4.396   7.987  1.2188 -0.3240  1.3008
 6898SOL    HW232331   3.255   4.275   7.895 -0.6050  0.3798  0.5913
 6899SOL     OW32332   1.296   0.220   5.288 -0.1475 -0.0929  0.2812
 6899SOL    HW132333   1.330   0.130   5.289  0.1255  0.0094  0.0379
 6899SOL    HW232334   1.364   0.265   5.238 -1.1715 -1.0053 -1.9248
 6900SOL     OW32335   0.500   4.553   2.179 -0.4329  0.3468 -0.4465
 6900SOL    HW132336   0.493   4.574   2.085 -1.4228  0.1614 -0.4132
 6900SOL    HW232337   0.570   4.488   2.171 -1.4277 -0.6546 -1.1028
 6901SOL     OW32338   1.807   3.090   5.099  0.0241  0.0203  0.0860
 6901SOL    HW132339   1.894   3.051   5.105 -0.2220 -0.8519 -2.0730
 6901SOL    HW232340   1.804   3.143   5.019  0.0481  0.5245  0.4209
 6902SOL     OW32341   2.318   1.489   5.701 -0.6824  0.5528  0.0643
 6902SOL    HW132342   2.295   1.570   5.655 -0.3066  1.8184  2.0981
 6902SOL    HW232343   2.324   1.424   5.631 -0.1235  0.6517  0.0236
 6903SOL     OW32344   1.880   3.169  12.657 -0.0192 -0.1476 -0.1268
 6903SOL    HW132345   1.946   3.201  12.596  1.8308 -1.8518  0.9906
 6903SOL    HW232346   1.842   3.092  12.615  1.4323 -0.3593 -1.0443
 6904SOL     OW32347   0.475   1.400  16.312  0.6638  0.6460 -0.0194
 6904SOL    HW132348   0.440   1.387  16.400 -2.2724 -0.2050 -1.3199
 6904SOL    HW232349   0.429   1.334  16.259  2.3343 -0.4288 -0.1628
 6905SOL     OW32350   1.252   4.504   5.737 -0.4715 -0.2769 -0.0791
 6905SOL    HW132351   1.259   4.505   5.832  1.6555  0.3495 -0.2526
 6905SOL    HW232352   1.308   4.427   5.730 -1.3386 -1.0329  1.3031
 6906SOL     OW32353   0.866   1.584   8.987  0.1915  0.4516  0.0515
 6906SOL    HW132354   0.940   1.642   9.005 -0.2491  0.6832  1.1339
 6906SOL    HW232355   0.884   1.536   8.906 -3.0026 -0.3318 -0.1620
 6907SOL     OW32356   3.358   2.943   3.300 -0.5671 -0.0061  0.1257
 6907SOL    HW132357   3.358   3.039   3.299 -0.1084 -0.0039 -0.0252
 6907SOL    HW232358   3.363   2.925   3.394  0.5086  0.3520  0.1391
 6908SOL     OW32359   0.304   0.756   5.441  0.3882  0.3387  0.0166
 6908SOL    HW132360   0.287   0.822   5.508  2.3149  0.0131  0.8223
 6908SOL    HW232361   0.220   0.725   5.407  0.2964 -1.3032  1.7902
 6909SOL     OW32362   2.844   0.364   7.139 -0.2214  0.4072  0.0571
 6909SOL    HW132363   2.838   0.283   7.088 -1.6186 -0.8169  2.2042
 6909SOL    HW232364   2.917   0.408   7.094 -0.0020 -0.7196 -0.7025
 6910SOL     OW32365   0.719   3.749   9.288 -0.1528  0.0287  0.6186
 6910SOL    HW132366   0.684   3.838   9.293  1.3270  0.7844 -2.4057
 6910SOL    HW232367   0.666   3.705   9.355  0.0956 -1.1014  0.0717
 6911SOL     OW32368   4.028   3.237   2.072 -0.3413 -0.0403 -0.5959
 6911SOL    HW132369   4.074   3.196   1.999  1.0191 -1.8310  1.2696
 6911SOL    HW232370   3.987   3.310   2.027  1.0781  1.3135  0.3233
 6912SOL     OW32371   4.667   3.224  14.721 -0.4535  0.3264 -0.3943
 6912SOL    HW132372   4.738   3.168  14.751 -0.5439 -0.2735 -1.3144
 6912SOL    HW232373   4.593   3.165  14.707 -0.2036  0.0930 -0.7407
 6913SOL     OW32374   2.560   0.887  15.882  0.0017 -0.1263 -0.0931
 6913SOL    HW132375   2.553   0.854  15.792  1.7360  0.0482 -0.2963
 6913SOL    HW232376   2.509   0.825  15.934  1.4652 -1.6662 -0.4900
 6914SOL     OW32377   1.563   4.504   7.928 -0.2177 -0.1121  0.7417
 6914SOL    HW132378   1.564   4.548   7.843  0.7573 -0.8064  0.4011
 6914SOL    HW232379   1.483   4.453   7.915 -1.5177  2.3796 -1.1131
 6915SOL     OW32380   1.830   1.934   4.768 -0.5832 -0.2126 -0.2214
 6915SOL    HW132381   1.854   1.966   4.681  1.4942  0.2532  0.5344
 6915SOL    HW232382   1.768   1.864   4.748 -0.9985 -0.0867  0.6396
 6916SOL     OW32383   3.235   2.620   5.609 -0.6505 -0.0307  0.1801
 6916SOL    HW132384   3.268   2.708   5.623 -1.0955  0.1649 -0.0229
 6916SOL    HW232385   3.319   2.576   5.595 -0.4554  0.7094 -0.9437
 6917SOL     OW32386   4.663   3.199  11.702  0.2079 -0.3503  0.3777
 6917SOL    HW132387   4.574   3.180  11.672  0.0263  1.3665 -0.1857
 6917SOL    HW232388   4.652   3.281  11.752 -3.2696 -1.8206  2.0322
 6918SOL     OW32389   3.381   3.676   1.489 -0.1055  0.0556 -0.2662
 6918SOL    HW132390   3.337   3.674   1.404  0.2485 -0.0596 -0.4470
 6918SOL    HW232391   3.336   3.747   1.534  0.4554 -1.6773  3.0028
 6919SOL     OW32392   4.433   1.189   2.497  0.3182  0.0335  0.5051
 6919SOL    HW132393   4.481   1.243   2.434 -1.3743  0.6500 -0.2481
 6919SOL    HW232394   4.483   1.198   2.578  0.0454  0.6242  0.6062
 6920SOL     OW32395   2.916   3.294   4.602 -0.0836 -0.4391 -0.2197
 6920SOL    HW132396   2.986   3.286   4.667  0.9370  2.2885 -0.9923
 6920SOL    HW232397   2.962   3.337   4.530  2.4620  1.5811  2.6249
 6921SOL     OW32398   3.940   1.932   7.440  1.2557  0.0556 -0.4709
 6921SOL    HW132399   3.988   1.988   7.501  0.1329  0.0321  0.4276
 6921SOL    HW232400   3.961   1.975   7.357 -1.4052  0.1523 -1.1131
 6922SOL     OW32401   1.660   0.371   5.649 -0.5255 -0.3282 -0.0982
 6922SOL    HW132402   1.577   0.402   5.686  1.3881  3.1714  1.2528
 6922SOL    HW232403   1.646   0.401   5.559 -1.5417  1.4303  0.6459
 6923SOL     OW32404   0.450   2.996   6.301  0.2982 -0.3349 -0.5030
 6923SOL    HW132405   0.433   3.090   6.295 -0.2604 -0.4651 -0.9054
 6923SOL    HW232406   0.544   2.988   6.285  0.3112  1.9308 -1.5206
 6924SOL     OW32407   4.332   2.225   5.324 -0.1555 -0.1624  0.0250
 6924SOL    HW132408   4.383   2.298   5.289 -2.8573  0.9326 -1.6252
 6924SOL    HW232409   4.250   2.262   5.356  0.2878  0.3966  0.4947
 6925SOL     OW32410   4.603   1.260   7.509  0.5958 -0.8220  0.5392
 6925SOL    HW132411   4.634   1.276   7.420 -0.4361 -2.1996 -0.0586
 6925SOL    HW232412   4.509   1.278   7.499  0.9797  0.2567 -1.2100
 6926SOL     OW32413   4.356   2.110   3.401 -0.4637  0.1286 -0.3939
 6926SOL    HW132414   4.311   2.170   3.341  0.3642  0.6991 -0.4332
 6926SOL    HW232415   4.302   2.129   3.477 -0.7861  0.2151 -0.6434
 6927SOL     OW32416   1.232   1.917   0.861  0.4485  0.7064  0.5051
 6927SOL    HW132417   1.194   1.921   0.774  2.8860  0.9540 -0.5527
 6927SOL    HW232418   1.154   1.915   0.916 -0.4245 -0.8598 -0.8124
 6928SOL     OW32419   2.575   1.636   2.121 -0.1325  0.2289  0.1977
 6928SOL    HW132420   2.634   1.649   2.046 -0.1268 -2.0575 -0.2135
 6928SOL    HW232421   2.543   1.725   2.132  0.7294  0.7554 -1.4374
 6929SOL     OW32422   1.599   1.143   1.957 -0.2121 -0.5246  0.5875
 6929SOL    HW132423   1.518   1.099   1.981 -0.0354 -0.4334  1.3646
 6929SOL    HW232424   1.657   1.074   1.989 -0.9384 -1.3501  0.1114
 6930SOL     OW32425   0.927   1.519   7.357  0.5961  0.1320 -0.0887
 6930SOL    HW132426   0.995   1.461   7.322  1.0209  1.6066 -1.6785
 6930SOL    HW232427   0.853   1.470   7.321 -1.0149  1.5276  1.3295
 6931SOL     OW32428   1.550   4.601   8.364  0.1917  0.9032  0.4680
 6931SOL    HW132429   1.558   4.588   8.270 -2.6109  1.0819  0.2062
 6931SOL    HW232430   1.630   4.652   8.374  0.6862  0.1779  0.1691
 6932SOL     OW32431   1.322   2.474  11.220  0.5747  0.4199  0.2506
 6932SOL    HW132432   1.268   2.397  11.206  0.3880  0.4543  0.7676
 6932SOL    HW232433   1.260   2.542  11.247  1.1394  1.0845 -0.1227
 6933SOL     OW32434   0.354   0.902   6.788 -0.6303  0.0632 -0.2584
 6933SOL    HW132435   0.332   0.920   6.879 -2.3456  0.4712 -0.7457
 6933SOL    HW232436   0.318   0.813   6.778  0.3447 -0.1326 -1.9532
 6934SOL     OW32437   3.978   1.292   8.145 -0.4376 -0.2805 -0.1462
 6934SOL    HW132438   4.002   1.348   8.070 -1.6331 -0.4333 -0.6327
 6934SOL    HW232439   3.940   1.357   8.204 -3.2257 -0.7110 -1.4995
 6935SOL     OW32440   0.735   0.179  15.508  0.2071 -0.2619  0.3549
 6935SOL    HW132441   0.769   0.268  15.515 -1.2367  0.3053  0.2273
 6935SOL    HW232442   0.790   0.120  15.560 -1.1037 -0.8539  1.0738
 6936SOL     OW32443   4.107   3.992   5.589  0.7628 -0.1850 -0.7532
 6936SOL    HW132444   4.150   4.076   5.578  1.6755 -0.7335 -1.3578
 6936SOL    HW232445   4.030   4.016   5.639  2.1781 -0.3026  1.4643
 6937SOL     OW32446   1.001   0.154   8.440  0.0418 -0.5056  1.1000
 6937SOL    HW132447   1.039   0.085   8.386 -0.1009  2.2418 -2.4916
 6937SOL    HW232448   1.015   0.226   8.379 -1.3588 -0.9716  0.2229
 6938SOL     OW32449   2.477   1.982   6.863 -0.2383  0.1384  0.1624
 6938SOL    HW132450   2.500   1.967   6.954  1.1467  0.2498 -0.1705
 6938SOL    HW232451   2.557   1.957   6.817 -0.3417 -1.6336  0.9383
 6939SOL     OW32452   0.825   0.275   1.931  1.0274  0.1031  0.2214
 6939SOL    HW132453   0.787   0.200   1.978  1.0002 -0.7087 -1.0883
 6939SOL    HW232454   0.766   0.342   1.964  1.0460  0.6221 -0.7958
 6940SOL     OW32455   4.161   2.436  10.616 -0.9236 -0.3059  0.5174
 6940SOL    HW132456   4.237   2.441  10.558 -1.5962 -2.0004 -0.5244
 6940SOL    HW232457   4.092   2.452  10.552  1.2814  0.0811 -1.7751
 6941SOL     OW32458   2.810   2.441   2.414 -0.1495 -0.2477 -0.4081
 6941SOL    HW132459   2.892   2.437   2.462 -0.2855  1.5780 -0.0280
 6941SOL    HW232460   2.767   2.501   2.475 -0.9191  0.4949 -1.6673
 6942SOL     OW32461   0.913   0.978   6.636  0.1983  0.7528  0.5670
 6942SOL    HW132462   0.979   1.024   6.584 -0.1551  0.0891 -0.4810
 6942SOL    HW232463   0.837   1.031   6.615 -1.1166 -0.6370  1.7917
 6943SOL     OW32464   2.649   0.181   3.974  0.3405 -0.0741  0.4365
 6943SOL    HW132465   2.727   0.215   4.018  0.9765 -1.2444  0.2292
 6943SOL    HW232466   2.580   0.173   4.039  0.2184  0.5263  0.3765
 6944SOL     OW32467   3.982   2.299   7.439  0.4596  0.2448 -0.1623
 6944SOL    HW132468   4.016   2.377   7.484  0.7070  0.0232  0.0337
 6944SOL    HW232469   4.001   2.230   7.502  1.7081 -1.7795 -2.7320
 6945SOL     OW32470   4.206   2.723   0.766  0.3928  0.5451  0.0099
 6945SOL    HW132471   4.220   2.637   0.726  1.3600  1.4012 -1.4873
 6945SOL    HW232472   4.123   2.713   0.814 -1.2731  1.0843 -2.7405
 6946SOL     OW32473   3.975   0.308   4.545  0.0054 -0.2335 -0.1284
 6946SOL    HW132474   4.053   0.280   4.497  1.1562  0.3928  1.3856
 6946SOL    HW232475   4.017   0.360   4.614  1.3902  1.0583 -1.9538
 6947SOL     OW32476   4.470   3.140   8.353 -0.0225  0.3855 -0.3843
 6947SOL    HW132477   4.410   3.212   8.330 -0.8373  0.4916  2.0479
 6947SOL    HW232478   4.439   3.124   8.443  1.1669  1.1791  0.1756
 6948SOL     OW32479   1.525   2.683   7.225 -0.3480  0.4171 -0.5360
 6948SOL    HW132480   1.473   2.646   7.295 -1.9208  0.3660 -1.7347
 6948SOL    HW232481   1.487   2.766   7.196 -0.1101 -0.0573 -2.2470
 6949SOL     OW32482   2.291   2.716   8.608 -0.3037  0.1896 -0.5628
 6949SOL    HW132483   2.346   2.752   8.678 -0.3830 -0.6125 -0.0880
 6949SOL    HW232484   2.269   2.796   8.560  2.4791 -0.0407 -2.2618
 6950SOL     OW32485   1.207   2.785   0.564 -0.2521 -0.0424 -0.2781
 6950SOL    HW132486   1.125   2.820   0.528  0.0530  1.3901  0.4023
 6950SOL    HW232487   1.269   2.841   0.517 -1.7795  0.7649 -1.3383
 6951SOL     OW32488   1.300   1.916   6.642 -0.1374 -0.0747  0.0320
 6951SOL    HW132489   1.329   1.975   6.712 -0.6228  2.3219 -1.8128
 6951SOL    HW232490   1.219   1.878   6.679  1.0132 -1.3487  1.2689
 6952SOL     OW32491   0.430   1.642   9.594  0.5247 -0.6778  0.4636
 6952SOL    HW132492   0.459   1.558   9.559  0.0001 -1.1490  1.1466
 6952SOL    HW232493   0.384   1.680   9.519  2.0118 -1.7742 -0.9958
 6953SOL     OW32494   1.152   4.524   6.495 -0.5929 -0.2152  0.1983
 6953SOL    HW132495   1.075   4.501   6.443  0.7197 -1.6849 -1.1148
 6953SOL    HW232496   1.221   4.466   6.462 -1.2975 -1.2476  0.5241
 6954SOL     OW32497   4.293   0.898   2.927  0.1734  0.0041  0.1123
 6954SOL    HW132498   4.384   0.915   2.951  0.5865  0.3692 -1.6535
 6954SOL    HW232499   4.301   0.813   2.883 -1.1200 -1.1693  2.1865
 6955SOL     OW32500   3.057   1.323   8.465  0.2421 -0.5216 -0.5686
 6955SOL    HW132501   3.072   1.236   8.504 -2.1437  0.6733  3.0162
 6955SOL    HW232502   3.109   1.345   8.388  1.3745 -1.1886  0.0135
 6956SOL     OW32503   4.405   2.360  13.232 -0.0258 -0.4505  0.2909
 6956SOL    HW132504   4.400   2.449  13.268 -1.2744 -1.5211  2.7500
 6956SOL    HW232505   4.312   2.337  13.240  0.4552 -2.5090 -0.2803
 6957SOL     OW32506   3.290   1.175   1.538 -0.0824  0.5336 -0.1308
 6957SOL    HW132507   3.228   1.186   1.466 -1.9188  0.5624  1.4324
 6957SOL    HW232508   3.330   1.089   1.523 -0.5556  0.4500 -0.9155
 6958SOL     OW32509   4.307   1.052  12.178 -0.3823 -0.0779 -1.0040
 6958SOL    HW132510   4.293   1.002  12.258  0.4538  0.3857 -0.5715
 6958SOL    HW232511   4.386   1.017  12.138 -0.5060 -2.4213  0.8267
 6959SOL     OW32512   0.929   0.259   7.087 -0.7006 -0.2943 -0.3309
 6959SOL    HW132513   0.848   0.256   7.139  1.3983 -1.6913  2.8792
 6959SOL    HW232514   0.969   0.322   7.147  0.6247  0.6974 -2.2266
 6960SOL     OW32515   2.423   0.829   7.377 -0.8003 -0.1484  0.0448
 6960SOL    HW132516   2.367   0.786   7.441  0.0180  1.8720  2.1630
 6960SOL    HW232517   2.410   0.764   7.308  1.1581  0.4760 -0.9330
 6961SOL     OW32518   3.388   2.166   2.565  0.2195 -0.0046 -0.3259
 6961SOL    HW132519   3.365   2.236   2.626 -2.1499 -0.0116 -1.1828
 6961SOL    HW232520   3.321   2.098   2.574 -1.4608  1.6750 -0.1420
 6962SOL     OW32521   3.627   4.384   7.122  0.0119 -0.2906  0.4456
 6962SOL    HW132522   3.543   4.376   7.166  1.2881 -0.3834  2.8680
 6962SOL    HW232523   3.639   4.476   7.145 -1.7884  0.0092  0.1873
 6963SOL     OW32524   3.294   2.580  14.935 -0.0453 -0.5667  0.2876
 6963SOL    HW132525   3.290   2.674  14.919  2.2823 -0.5761 -0.4016
 6963SOL    HW232526   3.218   2.572  14.992  0.6465 -1.4360  1.0721
 6964SOL     OW32527   1.892   2.567   3.797 -0.5332 -0.2437 -0.0832
 6964SOL    HW132528   1.898   2.544   3.890  0.5197 -0.5431 -0.2219
 6964SOL    HW232529   1.799   2.554   3.783 -1.0218  2.7198  0.4319
 6965SOL     OW32530   0.733   2.639  17.199  0.0676  0.3267  0.4360
 6965SOL    HW132531   0.816   2.686  17.188 -0.7508  2.0733  1.7283
 6965SOL    HW232532   0.732   2.640  17.294 -2.1370  0.3729  0.4131
 6966SOL     OW32533   2.758   4.099   1.071 -0.2053  0.1196 -0.0957
 6966SOL    HW132534   2.757   4.047   0.991 -0.3573  1.7113 -1.1079
 6966SOL    HW232535   2.851   4.122   1.074  0.2289 -1.5042 -1.4321
 6967SOL     OW32536   0.286   2.578   6.787  0.0451 -0.4488 -0.1397
 6967SOL    HW132537   0.320   2.644   6.847 -1.2470  0.2779 -0.2068
 6967SOL    HW232538   0.190   2.581   6.790  0.1054 -0.1744  1.3990
 6968SOL     OW32539   2.099   1.371  11.951 -0.1537 -0.7223 -0.7488
 6968SOL    HW132540   2.163   1.357  11.881  0.5715  3.2864 -0.8638
 6968SOL    HW232541   2.149   1.388  12.030 -1.5427  1.1997 -0.2889
 6969SOL     OW32542   2.125   0.915   8.448 -0.0965  0.3919 -0.1069
 6969SOL    HW132543   2.128   0.938   8.541  1.4523  2.7704 -0.7345
 6969SOL    HW232544   2.040   0.946   8.416 -0.1286  1.8951  1.4438
 6970SOL     OW32545   2.421   1.423   2.080  0.3221  0.1322  0.0363
 6970SOL    HW132546   2.478   1.500   2.081 -0.1617  0.5577 -3.0439
 6970SOL    HW232547   2.354   1.452   2.018 -0.2364  1.1717  1.1130
 6971SOL     OW32548   4.174   2.495   0.995 -0.4921  0.1988  0.0896
 6971SOL    HW132549   4.109   2.554   0.959 -2.4212 -1.1346  1.3989
 6971SOL    HW232550   4.127   2.426   1.043 -0.8972  0.8964  0.6896
 6972SOL     OW32551   0.012   1.807  11.716  0.4737 -0.0110 -0.5338
 6972SOL    HW132552   4.707   1.750  11.777 -1.9509  0.3885 -1.9801
 6972SOL    HW232553   0.064   1.855  11.781  0.3208 -2.5071  1.4099
 6973SOL     OW32554   1.195   2.944   8.290 -0.0400  0.0810 -0.4942
 6973SOL    HW132555   1.178   2.931   8.383  1.0455 -1.6777 -0.5295
 6973SOL    HW232556   1.123   3.003   8.267 -0.7065 -0.1853  0.9171
 6974SOL     OW32557   3.594   1.592   2.347  0.4601  0.0535 -0.2246
 6974SOL    HW132558   3.526   1.600   2.280 -0.0144  4.1363  0.7351
 6974SOL    HW232559   3.628   1.504   2.333  0.3307  0.2431 -1.6933
 6975SOL     OW32560   3.349   1.839   6.529 -0.2503 -0.6830  0.3456
 6975SOL    HW132561   3.340   1.934   6.521  0.5028 -0.3797  3.0722
 6975SOL    HW232562   3.385   1.819   6.442  0.5895 -0.3570  0.6196
 6976SOL     OW32563   2.584   3.139   0.885 -0.3898 -0.3737 -0.1018
 6976SOL    HW132564   2.665   3.091   0.898 -0.5794 -1.1216 -1.6422
 6976SOL    HW232565   2.573   3.175   0.973 -0.7737 -1.0770  0.1367
 6977SOL     OW32566   4.645   2.077   3.658 -0.6404  0.1950  0.1125
 6977SOL    HW132567   4.732   2.045   3.684 -0.4104  0.9300  0.2527
 6977SOL    HW232568   4.652   2.095   3.565 -1.2038 -0.5962 -0.0798
 6978SOL     OW32569   2.572   3.961  15.016 -1.0773 -0.1089  0.0887
 6978SOL    HW132570   2.521   3.888  14.979 -1.7878  0.4708 -0.0849
 6978SOL    HW232571   2.654   3.953  14.968 -0.8741 -1.0128  0.5778
 6979SOL     OW32572   1.709   3.589   6.050  0.6200  0.0847 -0.4591
 6979SOL    HW132573   1.626   3.595   6.096  1.2125  0.1332  0.6225
 6979SOL    HW232574   1.726   3.495   6.043 -0.2779 -0.2298  1.4533
 6980SOL     OW32575   2.278   0.915   5.787 -0.1509 -0.0788 -0.5427
 6980SOL    HW132576   2.211   0.973   5.822 -0.1112 -1.5359  1.9179
 6980SOL    HW232577   2.289   0.859   5.863  0.2121  3.0633  1.7100
 6981SOL     OW32578   2.744   0.122  15.628  0.1953  0.3856 -0.0790
 6981SOL    HW132579   2.771   0.077  15.709  0.0903 -0.0838 -0.3071
 6981SOL    HW232580   2.775   0.049  15.575 -2.2550  0.0324 -1.0046
 6982SOL     OW32581   4.328   3.930   1.750  0.1361 -0.2439 -0.1794
 6982SOL    HW132582   4.317   4.025   1.740 -0.3146 -0.4082 -1.2992
 6982SOL    HW232583   4.422   3.923   1.766 -0.1696 -2.6180  0.6455
 6983SOL     OW32584   1.688   0.176   4.641 -0.1190  0.2160 -0.3232
 6983SOL    HW132585   1.699   0.190   4.735  0.0492 -0.8375 -0.1902
 6983SOL    HW232586   1.641   0.094   4.636  0.7000 -0.1985 -1.2371
 6984SOL     OW32587   0.861   3.800   2.694  0.2491 -0.0602 -0.1989
 6984SOL    HW132588   0.838   3.801   2.601  2.1641 -0.5995 -0.6838
 6984SOL    HW232589   0.844   3.707   2.706  0.8422  0.0383  1.4181
 6985SOL     OW32590   2.806   3.558  15.379  0.7151  0.1626 -0.0709
 6985SOL    HW132591   2.891   3.543  15.338  2.2346 -1.8547  3.7691
 6985SOL    HW232592   2.829   3.645  15.412  0.1979  0.8651 -1.5632
 6986SOL     OW32593   3.602   3.372   5.734 -0.0001 -0.8159 -0.1001
 6986SOL    HW132594   3.683   3.323   5.748 -0.0002 -0.7469  0.1438
 6986SOL    HW232595   3.633   3.458   5.764  0.5745 -1.0424 -0.0497
 6987SOL     OW32596   2.585   1.846  15.288  0.0212 -0.6750 -0.6814
 6987SOL    HW132597   2.538   1.918  15.330 -2.2767 -0.7905 -3.0947
 6987SOL    HW232598   2.672   1.883  15.272  0.4402 -0.1796  2.7205
 6988SOL     OW32599   2.330   0.492  16.697  0.0140  0.1812  0.3774
 6988SOL    HW132600   2.377   0.452  16.624 -0.6420  1.1463 -0.5552
 6988SOL    HW232601   2.330   0.583  16.669 -0.5422 -0.2379 -0.9912
 6989SOL     OW32602   2.327   3.294   0.165 -0.1465  0.8143  0.2108
 6989SOL    HW132603   2.236   3.270   0.145  0.8049 -1.9362 -0.8306
 6989SOL    HW232604   2.342   3.325   0.075 -1.8564  0.0094 -0.3661
 6990SOL     OW32605   2.753   2.333   3.287 -0.1000  0.8571 -0.1194
 6990SOL    HW132606   2.720   2.275   3.218  2.2034 -1.7722  1.0328
 6990SOL    HW232607   2.702   2.412   3.268 -2.5634 -0.6854 -0.0298
 6991SOL     OW32608   3.244   1.461   6.278 -0.0257 -0.1204 -0.4364
 6991SOL    HW132609   3.268   1.551   6.261  0.2815 -0.2319 -0.5879
 6991SOL    HW232610   3.152   1.447   6.253 -0.2090  0.8106 -0.2663
 6992SOL     OW32611   2.029   4.707   5.091  0.3955  0.0322  0.7712
 6992SOL    HW132612   1.984   0.023   5.154  0.5796  1.1719 -0.1133
 6992SOL    HW232613   1.960   4.660   5.044  0.1803 -0.7331  1.8699
 6993SOL     OW32614   1.970   0.880  14.143  0.0773  0.3612  0.4359
 6993SOL    HW132615   1.890   0.835  14.115 -0.1671  1.2288 -0.2717
 6993SOL    HW232616   1.998   0.909  14.057  1.9459  0.3017  1.0210
 6994SOL     OW32617   2.285   3.338   5.982  0.5012 -0.6517 -0.6663
 6994SOL    HW132618   2.352   3.312   5.918 -0.6857 -1.1723 -1.6999
 6994SOL    HW232619   2.261   3.250   6.011 -0.0851 -0.2799 -0.0132
 6995SOL     OW32620   1.154   4.047   6.312 -0.0592  0.1219  0.0574
 6995SOL    HW132621   1.168   3.984   6.383  3.3373  0.8697  0.0716
 6995SOL    HW232622   1.200   4.123   6.348  0.8626  0.5062 -1.9124
 6996SOL     OW32623   1.930   0.397   6.500  0.3437  0.0753 -0.5918
 6996SOL    HW132624   1.978   0.458   6.556  1.7185  0.4817 -2.2235
 6996SOL    HW232625   1.844   0.440   6.498 -0.2342 -0.9470  1.6246
 6997SOL     OW32626   1.781   3.888   7.643  0.3240 -0.1752  0.1419
 6997SOL    HW132627   1.733   3.808   7.620 -0.4502 -0.4778  2.7940
 6997SOL    HW232628   1.773   3.881   7.738 -3.8697 -1.5757 -0.3483
 6998SOL     OW32629   3.182   3.093   5.483  0.2030  0.3340 -0.4355
 6998SOL    HW132630   3.175   3.143   5.565  0.6884  0.2997 -0.3736
 6998SOL    HW232631   3.174   3.168   5.424 -1.1796 -0.5492 -1.3617
 6999SOL     OW32632   3.626   4.064   8.753  0.1584  0.3176 -0.2379
 6999SOL    HW132633   3.584   4.150   8.746  0.2336  0.2421 -1.5636
 6999SOL    HW232634   3.713   4.093   8.781  0.5787 -1.1590 -0.0190
 7000SOL     OW32635   0.990   3.340   3.675 -0.4643 -0.3754 -0.3165
 7000SOL    HW132636   0.991   3.391   3.594  3.2327 -2.4719 -1.5447
 7000SOL    HW232637   0.971   3.251   3.643  0.2656 -0.4267 -0.5979
 7001SOL     OW32638   2.270   1.755  12.101 -0.1878  0.4187  0.2589
 7001SOL    HW132639   2.254   1.661  12.104 -0.9847  0.5503  0.2264
 7001SOL    HW232640   2.219   1.789  12.175  1.0063  1.0024  0.8179
 7002SOL     OW32641   4.536   2.660   4.715 -0.1155 -0.3265 -0.0857
 7002SOL    HW132642   4.513   2.723   4.783  1.9059 -0.4156  0.6988
 7002SOL    HW232643   4.497   2.583   4.755 -0.0911 -0.1615  0.2558
 7003SOL     OW32644   0.107   0.275   9.820  0.0723 -0.0356 -0.4377
 7003SOL    HW132645   0.114   0.369   9.804 -1.3050  0.0128 -0.8060
 7003SOL    HW232646   0.030   0.250   9.769  1.5526 -1.7956 -1.7810
 7004SOL     OW32647   0.727   3.937  12.431  0.1418  0.0602  0.5413
 7004SOL    HW132648   0.791   3.937  12.360 -0.7623 -0.0398 -0.2712
 7004SOL    HW232649   0.698   3.846  12.424 -0.8701  0.2958  1.7556
 7005SOL     OW32650   2.337   0.171   2.997 -0.3316 -0.0445  0.4810
 7005SOL    HW132651   2.419   0.126   3.020 -0.5098  0.2702  1.7394
 7005SOL    HW232652   2.314   0.197   3.086 -0.6069 -0.2420  0.4652
 7006SOL     OW32653   4.282   0.207   6.051  0.4247  0.7208 -0.4646
 7006SOL    HW132654   4.244   0.293   6.069 -0.5385  0.2250 -0.1272
 7006SOL    HW232655   4.348   0.205   6.120 -0.8571  3.4227  0.8600
 7007SOL     OW32656   2.491   1.095   5.683  0.2703 -0.0280  0.1538
 7007SOL    HW132657   2.412   1.041   5.691  0.8985 -1.1527 -1.4003
 7007SOL    HW232658   2.528   1.073   5.598  1.4424 -0.9411  0.8939
 7008SOL     OW32659   1.739   1.609   1.438  0.1732  0.0396 -0.5778
 7008SOL    HW132660   1.737   1.665   1.360  0.3510 -1.9766 -2.0129
 7008SOL    HW232661   1.645   1.591   1.447  0.8860 -3.1565  0.4308
 7009SOL     OW32662   0.744   1.358  13.522  0.2514 -0.2066  0.1669
 7009SOL    HW132663   0.726   1.299  13.595 -0.6367 -1.3394 -0.9605
 7009SOL    HW232664   0.675   1.424  13.531  1.4735  0.9926  0.8035
 7010SOL     OW32665   0.215   1.021   8.831 -0.0254  0.0104  0.4284
 7010SOL    HW132666   0.218   0.927   8.816  0.9857  0.1832 -0.4842
 7010SOL    HW232667   0.121   1.034   8.834 -0.4144 -2.2814 -1.4952
 7011SOL     OW32668   0.534   3.367   6.584  0.0626 -0.3131 -0.0936
 7011SOL    HW132669   0.539   3.458   6.612 -1.4165 -0.1881 -0.2516
 7011SOL    HW232670   0.612   3.330   6.627  0.1335 -3.0637 -2.5837
 7012SOL     OW32671   2.452   0.705   8.810 -0.1965  0.1316 -0.4892
 7012SOL    HW132672   2.417   0.732   8.725  0.4865  2.4483 -0.0436
 7012SOL    HW232673   2.535   0.752   8.805 -0.4390  0.8104  2.1291
 7013SOL     OW32674   0.617   0.900   6.734 -0.0932  0.1767  0.5416
 7013SOL    HW132675   0.526   0.926   6.741 -0.5300 -0.6838 -2.0435
 7013SOL    HW232676   0.634   0.874   6.644 -1.0161 -1.5308  0.8714
 7014SOL     OW32677   0.532   0.449   6.030 -0.7817 -0.2329  0.4191
 7014SOL    HW132678   0.523   0.497   6.112 -1.9216  0.4510 -0.1034
 7014SOL    HW232679   0.555   0.368   6.075 -1.3387  1.4418  3.7057
 7015SOL     OW32680   2.001   2.515   9.758  0.0200 -0.0373 -0.0089
 7015SOL    HW132681   1.954   2.505   9.841  1.2786 -0.7340  0.6254
 7015SOL    HW232682   2.093   2.522   9.785  0.7775 -2.4015 -1.9485
 7016SOL     OW32683   0.217   0.388   1.799  0.0783 -0.3211 -0.0024
 7016SOL    HW132684   0.305   0.350   1.801  0.3007  0.2528  1.0345
 7016SOL    HW232685   0.176   0.310   1.837  0.0805  0.0438  0.7526
 7017SOL     OW32686   1.528   2.408  14.581  0.0170  0.2826  0.1335
 7017SOL    HW132687   1.602   2.379  14.529  0.0463 -0.5246  0.6119
 7017SOL    HW232688   1.467   2.334  14.576 -0.4201  0.6603 -0.1707
 7018SOL     OW32689   1.531   0.250   9.897  0.1906 -0.0224  0.0613
 7018SOL    HW132690   1.471   0.263   9.824 -0.7805  0.8779  1.0084
 7018SOL    HW232691   1.506   0.330   9.943  0.2082  0.4531 -0.7583
 7019SOL     OW32692   3.022   2.728  12.174 -0.3675 -0.0893  0.1848
 7019SOL    HW132693   3.097   2.703  12.229 -0.9776 -1.4127  0.4167
 7019SOL    HW232694   3.053   2.715  12.085  1.9047  1.1277  0.8037
 7020SOL     OW32695   4.428   0.766   8.588  0.1022  0.2380  0.1792
 7020SOL    HW132696   4.449   0.860   8.586  0.9246  0.0775  0.8048
 7020SOL    HW232697   4.368   0.761   8.514 -0.3202 -1.7591  0.6662
 7021SOL     OW32698   1.705   3.107   8.206 -0.3567 -0.3067 -0.6158
 7021SOL    HW132699   1.610   3.113   8.215 -0.1380  1.0727  0.7823
 7021SOL    HW232700   1.726   3.016   8.226 -0.7583 -0.0742  0.8337
 7022SOL     OW32701   4.417   1.955   7.637  0.2669  0.1494  0.4288
 7022SOL    HW132702   4.377   2.040   7.616 -1.8909 -1.0742 -0.3566
 7022SOL    HW232703   4.501   1.972   7.680  1.0075  1.4825 -1.5190
 7023SOL     OW32704   2.513   1.511   6.182  0.5904 -0.0644  0.2320
 7023SOL    HW132705   2.504   1.503   6.088  1.2878  0.6581  0.1065
 7023SOL    HW232706   2.547   1.600   6.189 -0.4312  0.3623 -0.2045
 7024SOL     OW32707   0.639   0.226   0.420  0.3291 -0.0881 -0.4330
 7024SOL    HW132708   0.667   0.297   0.479 -1.3542 -1.0572  1.5212
 7024SOL    HW232709   0.662   0.147   0.469 -2.2076 -1.3913 -1.3702
 7025SOL     OW32710   3.536   0.334  14.740  0.2825  0.0947 -0.5385
 7025SOL    HW132711   3.537   0.426  14.765  3.1370  0.0675 -0.4991
 7025SOL    HW232712   3.622   0.340  14.699  1.0897  0.6692  1.2418
 7026SOL     OW32713   1.016   3.604   2.299 -0.4558  0.3290  0.7070
 7026SOL    HW132714   1.061   3.606   2.214 -3.5903  1.5543 -0.9353
 7026SOL    HW232715   0.962   3.528   2.281 -0.2529  0.1300  0.9422
 7027SOL     OW32716   0.467   1.640   2.556  0.3229  0.3059 -0.3221
 7027SOL    HW132717   0.527   1.651   2.483 -0.2080 -0.2083 -0.8306
 7027SOL    HW232718   0.523   1.579   2.605 -0.7689 -2.3487 -2.3798
 7028SOL     OW32719   0.624   1.054   4.271 -0.6428  0.0295  0.4106
 7028SOL    HW132720   0.556   0.996   4.237  0.3925 -0.0285 -1.5704
 7028SOL    HW232721   0.671   1.078   4.191  0.4259 -0.1047  0.9977
 7029SOL     OW32722   1.749   4.070  16.257 -0.3358  0.0161 -0.4192
 7029SOL    HW132723   1.832   4.118  16.254 -1.0989  1.2534 -1.2684
 7029SOL    HW232724   1.731   4.069  16.351 -0.3652  2.6561 -0.4168
 7030SOL     OW32725   1.228   3.838   6.496 -0.2585  0.2233 -0.2652
 7030SOL    HW132726   1.269   3.911   6.541  2.0441  0.2011 -2.3449
 7030SOL    HW232727   1.270   3.759   6.530 -0.0169 -0.5544 -2.3375
 7031SOL     OW32728   1.413   0.616  12.954 -0.2483  0.1849  0.4313
 7031SOL    HW132729   1.476   0.682  12.924  1.6274 -1.4828  0.6985
 7031SOL    HW232730   1.445   0.531  12.924  2.9770  1.3372  0.5722
 7032SOL     OW32731   3.759   0.526   5.362  0.5400  0.3606 -0.5097
 7032SOL    HW132732   3.729   0.587   5.295  1.7189  2.2471  0.6640
 7032SOL    HW232733   3.785   0.448   5.313  1.2192  0.3000 -0.0578
 7033SOL     OW32734   3.554   3.201  16.518 -0.4055 -0.0996  0.0371
 7033SOL    HW132735   3.571   3.263  16.448 -0.7004  1.5066  1.3877
 7033SOL    HW232736   3.628   3.142  16.505 -0.3936  0.0988 -0.7800
 7034SOL     OW32737   0.995   0.051   9.465  0.1582  0.3973 -0.3119
 7034SOL    HW132738   1.042   0.038   9.382 -2.0653 -2.7225 -1.0445
 7034SOL    HW232739   0.908   0.019   9.444  0.9138  0.6449 -3.8221
 7035SOL     OW32740   4.663   2.018   5.089 -0.1962  0.8132  0.0654
 7035SOL    HW132741   4.684   2.107   5.062  1.1151  1.0508  1.8089
 7035SOL    HW232742   4.650   2.038   5.182 -2.3947  0.7897 -0.2361
 7036SOL     OW32743   1.646   1.603  13.801  0.3713  0.0746  0.3295
 7036SOL    HW132744   1.610   1.633  13.717 -2.4483 -0.4138  1.3477
 7036SOL    HW232745   1.640   1.509  13.788  3.9089 -0.0907 -0.0466
 7037SOL     OW32746   1.004   1.343  15.040 -0.1712 -0.2010 -0.4253
 7037SOL    HW132747   1.089   1.368  15.077 -0.8110 -0.3382  1.1184
 7037SOL    HW232748   0.977   1.433  15.019  1.7751  0.7158  0.9513
 7038SOL     OW32749   2.311   4.391   9.058 -0.3326  0.0284  0.5939
 7038SOL    HW132750   2.224   4.419   9.086 -0.3278  0.9845 -0.3509
 7038SOL    HW232751   2.286   4.330   8.989  0.3129 -1.6182  1.8084
 7039SOL     OW32752   4.293   1.138   7.122 -0.0758 -0.0052  0.0726
 7039SOL    HW132753   4.299   1.137   7.026 -2.0067  0.9889 -0.0629
 7039SOL    HW232754   4.200   1.123   7.137  0.5406 -2.8726  0.9734
 7040SOL     OW32755   4.111   2.584   5.608 -0.0352  0.1844 -0.3928
 7040SOL    HW132756   4.057   2.653   5.646 -1.9007 -2.1922  1.2766
 7040SOL    HW232757   4.171   2.576   5.683 -1.8793 -2.0333  0.8492
 7041SOL     OW32758   3.266   4.061   6.478  0.4056 -0.1023  0.3667
 7041SOL    HW132759   3.302   4.020   6.556  1.6397  1.9925  0.9133
 7041SOL    HW232760   3.243   4.149   6.508 -2.9515 -1.0902  0.6905
 7042SOL     OW32761   0.953   3.025   6.688 -0.0520  0.5471 -0.3908
 7042SOL    HW132762   0.997   2.944   6.661  0.0170 -0.4880  2.9017
 7042SOL    HW232763   0.940   3.007   6.781 -1.5383  0.1511 -0.6703
 7043SOL     OW32764   3.182   1.910   0.289 -0.3673 -0.1771 -0.4665
 7043SOL    HW132765   3.187   1.884   0.197  1.9791 -0.4442 -0.2449
 7043SOL    HW232766   3.129   1.835   0.318 -0.7009 -0.2502 -1.2437
 7044SOL     OW32767   0.095   1.178   5.635  0.1930 -0.1900  0.0149
 7044SOL    HW132768   0.161   1.108   5.639 -0.8104 -1.1011  0.4640
 7044SOL    HW232769   0.038   1.145   5.703  0.2605 -1.2065 -0.4149
 7045SOL     OW32770   1.830   3.958   6.767 -0.4102  0.1756  0.1491
 7045SOL    HW132771   1.888   3.960   6.844  1.1186  3.1270 -1.0411
 7045SOL    HW232772   1.876   4.026   6.718 -1.0741  1.2573  1.0119
 7046SOL     OW32773   0.973   1.003   8.199 -0.5773  0.0255  0.2466
 7046SOL    HW132774   0.966   1.084   8.150  0.4589  1.0614  1.7933
 7046SOL    HW232775   0.894   0.994   8.253 -0.6932 -4.1783 -0.6451
 7047SOL     OW32776   4.430   0.387  13.660  0.1863  0.4461  0.5605
 7047SOL    HW132777   4.482   0.358  13.734  0.9631  0.8683  0.1843
 7047SOL    HW232778   4.350   0.342  13.687  1.5584 -0.3680  3.2545
 7048SOL     OW32779   1.386   3.436   7.095 -0.4008  0.0482  0.0609
 7048SOL    HW132780   1.407   3.343   7.094  0.2521  0.1863  1.2045
 7048SOL    HW232781   1.302   3.433   7.140 -1.0010 -1.9936 -1.2122
 7049SOL     OW32782   1.229   1.271   7.888  0.2608  0.0908  0.8364
 7049SOL    HW132783   1.225   1.360   7.851  0.6688 -0.2711 -0.0641
 7049SOL    HW232784   1.310   1.278   7.938 -1.1168 -0.2221  3.0896
 7050SOL     OW32785   2.319   1.750   3.791 -0.2205 -0.1220  0.7084
 7050SOL    HW132786   2.394   1.690   3.791  0.8671  1.2078 -1.5959
 7050SOL    HW232787   2.356   1.834   3.819 -1.3946  0.7081 -0.2159
 7051SOL     OW32788   1.337   1.964   2.549  0.0766 -0.2888 -0.3758
 7051SOL    HW132789   1.377   1.954   2.463  1.9801  3.5682  0.0505
 7051SOL    HW232790   1.361   2.055   2.568 -0.6084 -0.4227  1.0952
 7052SOL     OW32791   3.135   2.158   5.719 -0.3349  0.4524  0.0583
 7052SOL    HW132792   3.216   2.207   5.702 -0.3361  0.4515  0.0499
 7052SOL    HW232793   3.083   2.181   5.641 -0.8692  0.4167  0.4075
 7053SOL     OW32794   3.551   4.404  10.522  0.0816  0.1627 -0.2681
 7053SOL    HW132795   3.510   4.318  10.529  0.9320 -0.3514 -1.6415
 7053SOL    HW232796   3.639   4.379  10.550  0.4066 -1.4647 -2.8373
 7054SOL     OW32797   1.005   1.384   4.029 -0.3016  0.4461  0.2060
 7054SOL    HW132798   1.025   1.464   3.981  0.8278 -1.7849 -3.0365
 7054SOL    HW232799   1.029   1.404   4.120  1.6805  2.0073 -0.6462
 7055SOL     OW32800   0.064   1.839   7.390  0.1919  0.1885 -0.3942
 7055SOL    HW132801   0.070   1.930   7.418 -4.5161  0.6482 -0.8039
 7055SOL    HW232802   4.735   1.849   7.325  0.5982  3.0835 -0.3592
 7056SOL     OW32803   4.602   4.703   1.223  0.1405 -0.3445  0.2583
 7056SOL    HW132804   4.578   4.674   1.311  1.7893 -0.3253  0.7096
 7056SOL    HW232805   4.514   4.724   1.191  0.3963 -0.0767 -0.2490
 7057SOL     OW32806   3.049   2.328   4.140  0.7455 -0.5208  0.4399
 7057SOL    HW132807   3.022   2.312   4.049 -1.8963 -1.9793  1.4736
 7057SOL    HW232808   2.979   2.286   4.191 -0.0643  0.6336  0.2754
 7058SOL     OW32809   0.323   1.866   7.082  0.2578 -0.6085  0.3853
 7058SOL    HW132810   0.337   1.911   6.998  1.1716 -0.4019  0.6425
 7058SOL    HW232811   0.249   1.807   7.070  1.1030 -1.1918 -2.1562
 7059SOL     OW32812   2.339   3.483  17.205 -0.0449  0.0225  0.3287
 7059SOL    HW132813   2.296   3.401  17.179 -0.7148  0.3343  0.4354
 7059SOL    HW232814   2.268   3.529  17.250 -0.3092 -0.8181  0.7745
 7060SOL     OW32815   0.755   2.161   4.176  0.5404  0.2689  0.0559
 7060SOL    HW132816   0.782   2.070   4.183  0.1538  0.4590  3.9314
 7060SOL    HW232817   0.666   2.147   4.144  1.3369  0.6615 -2.3387
 7061SOL     OW32818   4.498   3.985  10.820 -0.1982  0.1605  0.3531
 7061SOL    HW132819   4.490   3.992  10.724  2.2588 -0.5037  0.0893
 7061SOL    HW232820   4.476   4.072  10.852 -1.8708 -0.2556  0.3161
 7062SOL     OW32821   2.876   3.267  12.392  0.2076 -0.2553 -0.0236
 7062SOL    HW132822   2.929   3.228  12.323 -0.7932 -1.5611 -0.0550
 7062SOL    HW232823   2.892   3.207  12.465 -0.4212 -1.8980 -1.2248
 7063SOL     OW32824   4.267   1.483   6.395 -0.2870  0.1721  0.3024
 7063SOL    HW132825   4.267   1.387   6.390 -0.0197  0.2786 -1.8607
 7063SOL    HW232826   4.360   1.508   6.395  0.0874 -1.2100 -1.9832
 7064SOL     OW32827   3.869   1.662   4.277  0.3306  0.2265 -0.0103
 7064SOL    HW132828   3.949   1.624   4.239  0.0735 -2.1162  1.8176
 7064SOL    HW232829   3.821   1.583   4.301 -1.0595  0.5926 -1.5438
 7065SOL     OW32830   3.885   1.066   8.685 -0.2598 -0.3961 -0.4430
 7065SOL    HW132831   3.879   1.105   8.772 -0.1402 -2.2703  0.4060
 7065SOL    HW232832   3.911   1.145   8.639 -0.6110 -1.0593 -1.7776
 7066SOL     OW32833   4.102   4.578  13.417  0.1480  0.1453  0.5812
 7066SOL    HW132834   4.136   4.614  13.499 -1.4247  2.5695  0.1907
 7066SOL    HW232835   4.021   4.546  13.456  0.1239 -1.1965 -0.5739
 7067SOL     OW32836   2.137   0.223  17.645  0.0095  0.0213  0.5260
 7067SOL    HW132837   2.210   0.221  17.708  1.2946  0.0767 -0.9458
 7067SOL    HW232838   2.068   0.247  17.707 -1.0668  1.0546 -1.0859
 7068SOL     OW32839   4.335   1.208   4.918  0.2903  0.7811  0.1049
 7068SOL    HW132840   4.375   1.130   4.879  1.0300  0.6374  1.1462
 7068SOL    HW232841   4.411   1.254   4.955  0.3773 -0.7270  1.7593
 7069SOL     OW32842   1.533   4.308  13.685  0.5720  0.0668 -0.0226
 7069SOL    HW132843   1.461   4.293  13.746  0.1361 -1.1017 -0.8161
 7069SOL    HW232844   1.608   4.287  13.740 -0.7101 -1.8172  0.9930
 7070SOL     OW32845   0.732   3.288   6.741 -0.8075 -0.0336  0.4999
 7070SOL    HW132846   0.753   3.365   6.793 -0.3441 -2.8601  4.4565
 7070SOL    HW232847   0.818   3.270   6.702 -0.9130  0.4629  0.0392
 7071SOL     OW32848   0.610   0.240   6.160  0.0715 -0.2216  1.0197
 7071SOL    HW132849   0.700   0.213   6.176  0.8726  0.0156 -3.0576
 7071SOL    HW232850   0.564   0.159   6.184  3.3582 -2.1196  0.8222
 7072SOL     OW32851   0.434   2.257   9.115 -0.3937  0.1548  0.0933
 7072SOL    HW132852   0.517   2.303   9.104  0.4973 -1.6920 -0.9457
 7072SOL    HW232853   0.453   2.179   9.168 -1.6982  0.6271  1.2285
 7073SOL     OW32854   3.744   1.899   8.969 -0.3240  0.0057 -0.1294
 7073SOL    HW132855   3.711   1.968   9.028  2.0658 -0.5299  1.8542
 7073SOL    HW232856   3.837   1.922   8.959 -0.4089  0.1888 -0.4847
 7074SOL     OW32857   1.604   2.548   3.125  0.2020  0.4597 -0.2389
 7074SOL    HW132858   1.536   2.488   3.096 -2.9785  3.1254  1.6563
 7074SOL    HW232859   1.688   2.519   3.091 -1.0333 -1.9333 -1.2711
 7075SOL     OW32860   2.892   0.827   4.983 -0.2200  0.1670  0.0478
 7075SOL    HW132861   2.932   0.910   4.957 -0.5858  1.1018  2.4275
 7075SOL    HW232862   2.803   0.853   4.961 -0.7564 -1.5566  0.1750
 7076SOL     OW32863   1.961   4.049   3.697 -0.0391  0.0339  0.0336
 7076SOL    HW132864   2.004   3.981   3.645  1.0166 -0.5836  1.7156
 7076SOL    HW232865   1.970   4.014   3.786  1.8008 -0.0758 -0.2063
 7077SOL     OW32866   4.226   0.479   6.112  0.3329  0.3968 -0.1870
 7077SOL    HW132867   4.146   0.478   6.164 -1.5794  1.0558 -3.1400
 7077SOL    HW232868   4.289   0.537   6.156  0.2103 -0.1780  0.7634
 7078SOL     OW32869   4.423   0.916   5.869 -0.4143  0.3812 -0.1966
 7078SOL    HW132870   4.460   0.929   5.957  0.7414 -5.2095  0.1261
 7078SOL    HW232871   4.415   1.009   5.851  1.3608  0.3843 -1.0044
 7079SOL     OW32872   3.905   4.358   5.420 -0.3224 -0.3259  0.0895
 7079SOL    HW132873   3.892   4.424   5.488  1.1918  0.5556 -0.4609
 7079SOL    HW232874   3.867   4.280   5.460 -1.8281  0.0299 -0.6487
 7080SOL     OW32875   2.498   3.259   5.671 -0.3701 -0.3781  0.0316
 7080SOL    HW132876   2.428   3.222   5.617  0.2071  0.8061 -1.5413
 7080SOL    HW232877   2.557   3.298   5.606  0.6353  1.0708  1.8191
 7081SOL     OW32878   4.212   3.644   5.809  0.6826 -0.5785  0.0166
 7081SOL    HW132879   4.174   3.713   5.864 -2.0081  1.7586 -4.7836
 7081SOL    HW232880   4.162   3.641   5.727  1.7812 -2.9755 -0.5587
 7082SOL     OW32881   1.665   0.236   7.556  0.6931 -0.7270 -0.5083
 7082SOL    HW132882   1.659   0.186   7.475  0.4206 -1.1124 -0.2492
 7082SOL    HW232883   1.635   0.173   7.621  0.3769 -0.8237 -0.7465
 7083SOL     OW32884   4.026   1.599  12.350  0.1620  0.1670  0.2272
 7083SOL    HW132885   3.947   1.634  12.390 -0.0011  1.9344 -1.6327
 7083SOL    HW232886   4.086   1.667  12.379  0.3156 -0.0497  0.4190
 7084SOL     OW32887   1.771   3.390   1.303  0.1786 -0.2461  0.4304
 7084SOL    HW132888   1.750   3.482   1.286 -0.1672 -0.1890  1.1542
 7084SOL    HW232889   1.711   3.377   1.376  1.0125 -0.8810  1.0087
 7085SOL     OW32890   1.470   2.266   3.950  0.0894 -0.5366  0.3971
 7085SOL    HW132891   1.381   2.269   3.915  1.5062 -0.1144 -3.1974
 7085SOL    HW232892   1.482   2.176   3.981 -0.8390 -1.0377 -0.7271
 7086SOL     OW32893   3.581   2.902  13.748 -0.1414  0.2567  0.7851
 7086SOL    HW132894   3.523   2.946  13.687  0.7561  1.8447  1.0547
 7086SOL    HW232895   3.548   2.942  13.829  0.1891  1.0293  0.5432
 7087SOL     OW32896   2.022   2.916   6.632 -0.0401 -0.0854 -0.3134
 7087SOL    HW132897   2.095   2.854   6.641 -0.2706 -0.1706  0.9432
 7087SOL    HW232898   2.052   2.975   6.562 -1.7458  0.7478 -0.3318
 7088SOL     OW32899   4.215   4.567   3.600 -0.5633 -0.2684  0.3691
 7088SOL    HW132900   4.174   4.485   3.573  1.3772 -0.2879 -2.5408
 7088SOL    HW232901   4.267   4.597   3.526 -2.1403 -1.5940 -1.2650
 7089SOL     OW32902   3.030   1.088   8.282  0.5250  0.3206 -0.0728
 7089SOL    HW132903   2.999   1.101   8.193 -0.7615  2.4628  0.6917
 7089SOL    HW232904   3.112   1.138   8.281  0.3861  0.5693  0.6023
 7090SOL     OW32905   1.404   1.229   4.411 -0.1978  0.0982  0.2474
 7090SOL    HW132906   1.430   1.240   4.502  1.0363 -1.0901  0.0317
 7090SOL    HW232907   1.376   1.319   4.392  0.9711  0.3016 -0.5786
 7091SOL     OW32908   3.434   4.405   5.932 -0.3223  0.0899  0.0501
 7091SOL    HW132909   3.506   4.451   5.889  1.2387 -0.6887  1.8481
 7091SOL    HW232910   3.372   4.398   5.859 -1.6372  0.3188  1.1511
 7092SOL     OW32911   0.521   4.364   4.645  0.3500  0.4250 -0.1858
 7092SOL    HW132912   0.573   4.325   4.716 -1.2236 -0.2261  0.6009
 7092SOL    HW232913   0.561   4.450   4.637 -0.5332  0.9747  1.3279
 7093SOL     OW32914   2.882   2.384   2.732 -0.1916  0.4149  0.4558
 7093SOL    HW132915   2.866   2.429   2.815 -0.7051 -1.7514  1.5278
 7093SOL    HW232916   2.799   2.338   2.723  0.2889 -0.2010 -0.7991
 7094SOL     OW32917   3.414   3.906   1.214  0.5523 -0.5352  0.0820
 7094SOL    HW132918   3.351   3.874   1.278  0.0626 -0.9628 -0.6018
 7094SOL    HW232919   3.387   3.843   1.146 -1.4730 -1.8046  2.0566
 7095SOL     OW32920   3.113   2.275  10.979 -0.2883  0.1755 -0.2313
 7095SOL    HW132921   3.021   2.250  10.986 -0.8287  1.8603 -1.3680
 7095SOL    HW232922   3.109   2.366  11.009  3.6710  0.0527  0.7333
 7096SOL     OW32923   4.168   0.204   0.439 -0.1398  0.9337  0.1173
 7096SOL    HW132924   4.256   0.170   0.457 -1.0117 -1.6813 -0.6821
 7096SOL    HW232925   4.181   0.290   0.481  0.6807  1.0675 -0.4062
 7097SOL     OW32926   1.823   2.777   6.767 -0.8547 -0.0069  0.2697
 7097SOL    HW132927   1.812   2.829   6.846  0.5386 -0.9373  1.0704
 7097SOL    HW232928   1.884   2.827   6.714 -0.0126 -1.4528 -0.1456
 7098SOL     OW32929   3.616   0.974   4.290  0.1169  0.4054  0.2905
 7098SOL    HW132930   3.611   0.879   4.295 -0.2858  0.2341 -2.9754
 7098SOL    HW232931   3.696   0.982   4.236  0.2037  0.7814  0.4776
 7099SOL     OW32932   4.371   0.615  14.943 -0.2833  0.2991  0.1365
 7099SOL    HW132933   4.428   0.626  15.019 -0.1993 -1.9282  0.4080
 7099SOL    HW232934   4.361   0.520  14.947  0.5164  0.3170  2.3975
 7100SOL     OW32935   2.170   0.717  13.333  0.1319  0.4167 -0.4599
 7100SOL    HW132936   2.199   0.800  13.372 -0.5587  0.2547  0.3881
 7100SOL    HW232937   2.155   0.756  13.247  0.4659  1.7737  0.0859
 7101SOL     OW32938   4.432   1.096   7.773  0.2510 -0.1581  0.2937
 7101SOL    HW132939   4.455   1.058   7.688  1.2365  0.8562  0.1064
 7101SOL    HW232940   4.519   1.128   7.798  0.2107 -0.1317  0.3986
 7102SOL     OW32941   1.977   3.995   0.207 -0.4103  0.6623 -0.2079
 7102SOL    HW132942   2.013   4.062   0.149  1.5979 -0.4469 -0.2480
 7102SOL    HW232943   2.048   3.983   0.269  0.2150 -1.5380 -1.3413
 7103SOL     OW32944   0.292   0.848   4.453  0.1504 -0.3150 -0.7951
 7103SOL    HW132945   0.342   0.817   4.378  0.4529 -0.8800 -0.3648
 7103SOL    HW232946   0.358   0.853   4.523 -0.5932 -1.8362  0.0224
 7104SOL     OW32947   0.026   1.728   5.374  0.1653 -0.2542  0.6401
 7104SOL    HW132948   4.721   1.811   5.362  3.1433  1.2055 -0.4877
 7104SOL    HW232949   0.114   1.749   5.343  0.0444 -2.8270 -1.4554
 7105SOL     OW32950   0.205   2.886   3.824 -0.0671  0.0733  0.1446
 7105SOL    HW132951   0.152   2.828   3.769 -0.5812  0.3293  0.3702
 7105SOL    HW232952   0.165   2.971   3.806 -3.4858 -1.7560 -0.9433
 7106SOL     OW32953   0.538   1.240   5.727 -0.1389 -0.3191 -0.3700
 7106SOL    HW132954   0.623   1.226   5.769  0.5676  1.5141 -1.1782
 7106SOL    HW232955   0.539   1.336   5.725 -0.8830 -0.3354 -1.5169
 7107SOL     OW32956   2.814   1.954  17.481  0.2994  0.9574  0.3966
 7107SOL    HW132957   2.799   2.042  17.449  0.9210  0.9971  0.2042
 7107SOL    HW232958   2.909   1.951  17.466 -0.1549  1.0399 -2.3823
 7108SOL     OW32959   2.320   1.134  17.263  0.0187  0.7428  0.1507
 7108SOL    HW132960   2.268   1.087  17.328  1.1041  0.4436  0.7895
 7108SOL    HW232961   2.272   1.158  17.183 -0.3117 -3.2903 -0.8914
 7109SOL     OW32962   1.421   2.096  15.334  0.5944  0.6658  0.3102
 7109SOL    HW132963   1.471   2.161  15.284 -0.4800  1.0657 -0.2428
 7109SOL    HW232964   1.344   2.094  15.277  0.1735 -0.1671  0.9121
 7110SOL     OW32965   3.267   2.297   6.029 -0.5445 -0.5069 -0.2194
 7110SOL    HW132966   3.254   2.387   6.057  1.4133 -0.0224 -0.8739
 7110SOL    HW232967   3.307   2.313   5.944  0.7978  0.9118  0.6627
 7111SOL     OW32968   1.344   2.188   0.896  0.4446  0.1576  0.6507
 7111SOL    HW132969   1.295   2.111   0.867  2.5718 -0.6162 -0.8265
 7111SOL    HW232970   1.408   2.198   0.826 -0.6726  1.1642 -0.2218
 7112SOL     OW32971   4.008   4.611   1.930 -0.5855  0.6266 -0.1237
 7112SOL    HW132972   3.924   4.624   1.887 -0.6359  1.4878  0.2346
 7112SOL    HW232973   3.974   4.646   2.013  1.6045  1.5964  0.3698
 7113SOL     OW32974   0.534   0.941  14.241 -0.0186 -0.1788 -0.2748
 7113SOL    HW132975   0.478   0.897  14.177  1.6138 -1.8955 -0.5153
 7113SOL    HW232976   0.549   1.030  14.207  0.2460  0.9138  2.6810
 7114SOL     OW32977   4.245   0.012   6.479  0.1438 -0.2900 -0.5713
 7114SOL    HW132978   4.320   4.698   6.457  0.3907 -0.0349 -0.3587
 7114SOL    HW232979   4.283   0.073   6.543 -0.7450 -0.0179 -0.3016
 7115SOL     OW32980   0.877   0.250   6.237  0.4890  0.3967  0.0656
 7115SOL    HW132981   0.962   0.281   6.207  0.5827 -1.1329 -1.1860
 7115SOL    HW232982   0.894   0.236   6.330  2.5646  2.2423 -0.0191
 7116SOL     OW32983   1.755   4.582   6.569 -0.4340  0.0191  0.2945
 7116SOL    HW132984   1.821   4.593   6.636  0.5204  1.8983 -0.9607
 7116SOL    HW232985   1.688   4.650   6.571  0.7027  1.1264  0.3166
 7117SOL     OW32986   3.728   1.781   7.305  0.3392  0.5311 -0.5800
 7117SOL    HW132987   3.659   1.845   7.321 -0.0054 -0.2657  1.0905
 7117SOL    HW232988   3.811   1.826   7.322  0.4785  0.8663 -2.1055
 7118SOL     OW32989   4.397   3.046   5.373  0.0733 -0.0213  0.3704
 7118SOL    HW132990   4.486   3.062   5.405  0.7280 -2.1830 -0.3103
 7118SOL    HW232991   4.350   3.029   5.455  1.3292  1.3947  1.3957
 7119SOL     OW32992   1.116   3.901   7.906 -0.5813 -0.9923 -0.2472
 7119SOL    HW132993   1.197   3.934   7.867 -0.9228 -1.2328 -1.1385
 7119SOL    HW232994   1.078   3.860   7.829  1.1966 -2.4639 -0.3353
 7120SOL     OW32995   1.217   3.333   0.262  0.3737  0.0550 -0.1673
 7120SOL    HW132996   1.165   3.403   0.303  0.3399 -0.5755  0.8618
 7120SOL    HW232997   1.151   3.265   0.269  0.9286 -0.4898 -0.2809
 7121SOL     OW32998   1.455   0.914   7.591  0.1712 -0.1902 -0.3707
 7121SOL    HW132999   1.385   0.859   7.557 -1.2955  1.0268  0.6782
 7121SOL    HW233000   1.532   0.858   7.601  0.9882  0.8258 -1.0390
 7122SOL     OW33001   2.486   4.017   8.182  0.2871  0.4489  0.0393
 7122SOL    HW133002   2.546   3.960   8.230  2.8677  1.1553 -2.2968
 7122SOL    HW233003   2.537   4.093   8.156 -0.2548  0.4775 -0.9397
 7123SOL     OW33004   4.665   0.336   1.734  0.6326  0.1843  0.2008
 7123SOL    HW133005   4.644   0.374   1.820 -1.1207 -1.0989  0.3467
 7123SOL    HW233006   0.004   0.287   1.755 -0.3386 -0.4002  2.6469
 7124SOL     OW33007   1.859   2.981   4.354  0.0058  0.1982  0.3381
 7124SOL    HW133008   1.890   2.980   4.264 -1.6978  2.7714 -0.2859
 7124SOL    HW233009   1.946   3.001   4.391 -1.0256  1.9536  1.8267
 7125SOL     OW33010   1.921   0.009   8.348 -0.2639  0.4882 -0.0507
 7125SOL    HW133011   2.015   0.018   8.362 -0.2641 -0.2303  0.4282
 7125SOL    HW233012   1.898   0.092   8.305  0.2448  0.5616 -0.1746
 7126SOL     OW33013   1.044   0.551   9.530  0.3769 -0.4195  0.6152
 7126SOL    HW133014   1.097   0.547   9.450 -0.8672  2.3645 -0.3700
 7126SOL    HW233015   0.960   0.536   9.486  1.0297  2.9743 -1.8305
 7127SOL     OW33016   3.032   4.214   1.399 -0.0203  0.2393  0.0095
 7127SOL    HW133017   3.020   4.128   1.359  0.3990  0.7071 -1.0963
 7127SOL    HW233018   3.102   4.246   1.343  1.0378 -1.7933  0.2018
 7128SOL     OW33019   2.809   2.338   5.927  0.0939 -0.1249  0.7347
 7128SOL    HW133020   2.714   2.346   5.911  0.4305  0.1439 -1.2035
 7128SOL    HW233021   2.843   2.389   5.853 -1.2361  2.0090  1.6173
 7129SOL     OW33022   0.917   2.214   6.464  0.9576 -0.1772  0.1796
 7129SOL    HW133023   0.934   2.220   6.558 -1.2424  2.8164  0.4075
 7129SOL    HW233024   0.991   2.162   6.435  1.1382 -0.1249  0.5508
 7130SOL     OW33025   4.383   4.417   2.650  0.4008 -0.0631  0.6964
 7130SOL    HW133026   4.305   4.424   2.705  0.6607 -1.8919  1.2982
 7130SOL    HW233027   4.343   4.458   2.574  1.0206 -0.4060  0.1856
 7131SOL     OW33028   4.577   4.725   3.915 -0.2359  0.4321  0.1894
 7131SOL    HW133029   4.497   0.001   3.866  0.6676  1.1269 -1.0597
 7131SOL    HW233030   4.647   0.012   3.856  0.0092  0.2332  0.3853
 7132SOL     OW33031   4.141   3.411   2.335  0.4024  0.0445 -0.4722
 7132SOL    HW133032   4.199   3.406   2.259 -1.5605 -2.9316 -1.7943
 7132SOL    HW233033   4.155   3.498   2.373  0.3526 -0.9170  1.7611
 7133SOL     OW33034   3.218   4.601  14.657  0.1358  0.2369 -0.0803
 7133SOL    HW133035   3.180   4.683  14.625 -0.3026 -0.2488 -0.8165
 7133SOL    HW233036   3.265   4.565  14.581  1.5797  1.9117  0.0174
 7134SOL     OW33037   2.529   0.113  10.587 -0.0378  0.1874 -0.3856
 7134SOL    HW133038   2.454   0.163  10.620  0.7203 -0.2627  2.0453
 7134SOL    HW233039   2.608   0.158  10.618  0.1382 -0.5733  0.2864
 7135SOL     OW33040   2.839   4.578   3.110  0.1046 -0.5362  0.0255
 7135SOL    HW133041   2.910   4.547   3.054 -1.2285  0.6278 -2.3328
 7135SOL    HW233042   2.788   4.634   3.052 -0.5873 -0.3970  0.7669
 7136SOL     OW33043   1.440   1.462  13.396 -0.8691 -0.3146  0.3413
 7136SOL    HW133044   1.470   1.541  13.351 -1.3623 -1.3506 -1.7977
 7136SOL    HW233045   1.345   1.466  13.400 -0.8777 -0.8391  0.7171
 7137SOL     OW33046   2.253   0.241  10.226  0.0794 -0.3858 -0.4778
 7137SOL    HW133047   2.318   0.254  10.157 -0.1818 -1.7990 -0.9945
 7137SOL    HW233048   2.173   0.245  10.173  0.1248  0.7369 -0.4492
 7138SOL     OW33049   2.179   2.011   5.249 -0.5859  0.1396 -0.0754
 7138SOL    HW133050   2.172   1.945   5.181 -2.1997 -1.4283  1.6054
 7138SOL    HW233051   2.267   2.001   5.286 -0.1567 -0.0618 -1.1553
 7139SOL     OW33052   1.349   2.771   6.656 -0.2149 -0.7327  0.6928
 7139SOL    HW133053   1.395   2.734   6.732  0.1657 -0.2006  0.7202
 7139SOL    HW233054   1.375   2.706   6.592 -2.8166 -0.7284 -0.3643
 7140SOL     OW33055   1.694   1.076   9.726  0.0356 -0.2050  0.3194
 7140SOL    HW133056   1.723   1.117   9.645  0.1001  1.5965  1.2429
 7140SOL    HW233057   1.617   1.130   9.747 -0.6122 -1.1633  0.4090
 7141SOL     OW33058   3.930   1.416  17.691 -0.0817  0.7108  0.3384
 7141SOL    HW133059   3.931   1.357   0.008 -0.1502  0.4783  0.1582
 7141SOL    HW233060   3.987   1.482  17.732  1.9532 -0.5939 -0.4249
 7142SOL     OW33061   3.082   2.995   1.338  0.4503  0.4152 -0.1193
 7142SOL    HW133062   2.990   3.020   1.345  0.2156 -0.3427 -0.4492
 7142SOL    HW233063   3.080   3.006   1.243  0.7085 -1.6330 -0.3766
 7143SOL     OW33064   2.961   0.205  10.871 -0.0594 -0.5066  0.1574
 7143SOL    HW133065   3.036   0.250  10.832 -0.1805 -2.5585 -2.4546
 7143SOL    HW233066   2.965   0.200  10.966  1.2724  0.4562  0.1464
 7144SOL     OW33067   4.107   0.017   3.970 -0.3716 -0.1621  0.1860
 7144SOL    HW133068   4.182   4.698   3.974  0.1409  0.5614  1.2417
 7144SOL    HW233069   4.061   4.732   4.051  0.8787  0.6255  1.1369
 7145SOL     OW33070   3.546   2.535   9.668 -0.8094  0.5898  0.1421
 7145SOL    HW133071   3.593   2.596   9.724  0.2254 -1.0072  0.9925
 7145SOL    HW233072   3.620   2.486   9.634 -1.6762  0.0166 -0.9349
 7146SOL     OW33073   2.181   4.029   6.642  0.4974  0.3679  0.4206
 7146SOL    HW133074   2.219   4.055   6.558  0.6360 -0.8301  0.1035
 7146SOL    HW233075   2.156   4.108   6.689 -0.9311  0.3000 -0.2075
 7147SOL     OW33076   1.281   1.462  14.628  0.1857  0.6824 -0.4501
 7147SOL    HW133077   1.357   1.520  14.635  0.8843 -0.1992 -0.7620
 7147SOL    HW233078   1.327   1.384  14.658 -1.7124  0.9780  3.2813
 7148SOL     OW33079   2.721   0.881   2.532  0.0648 -0.3729 -0.0694
 7148SOL    HW133080   2.696   0.969   2.506  1.4160  0.9256  3.0613
 7148SOL    HW233081   2.795   0.865   2.474  2.4412 -0.5855  2.9869
 7149SOL     OW33082   0.090   3.978   7.326  0.0650  0.7566  0.4447
 7149SOL    HW133083   0.087   3.997   7.420 -2.0809 -2.4326  1.0016
 7149SOL    HW233084   0.182   4.004   7.318  0.5529 -1.1816 -0.0758
 7150SOL     OW33085   2.824   4.372   4.731  0.4086  0.0166 -0.0990
 7150SOL    HW133086   2.781   4.405   4.652 -1.1642 -2.1937 -0.1390
 7150SOL    HW233087   2.854   4.457   4.763 -0.7532 -0.9721  3.6772
 7151SOL     OW33088   1.463   1.612   8.731 -0.3518  0.0030 -0.3376
 7151SOL    HW133089   1.445   1.584   8.821 -0.5991  0.5791 -0.2075
 7151SOL    HW233090   1.456   1.707   8.730 -0.0513 -0.0321 -3.0746
 7152SOL     OW33091   4.192   0.565   9.144  0.7583  0.2688 -0.3876
 7152SOL    HW133092   4.277   0.522   9.130  0.5077 -0.4186  0.2399
 7152SOL    HW233093   4.159   0.576   9.055  2.1637 -0.2040 -0.9720
 7153SOL     OW33094   2.192   0.698   7.515  0.1006 -0.3411  0.1977
 7153SOL    HW133095   2.114   0.674   7.566 -0.0523 -1.1643 -0.4382
 7153SOL    HW233096   2.160   0.686   7.426  0.8087  0.1838 -0.1241
 7154SOL     OW33097   1.238   3.562   3.541  0.1611  0.3349  0.3928
 7154SOL    HW133098   1.214   3.653   3.557 -0.3815 -0.1842  2.6171
 7154SOL    HW233099   1.305   3.548   3.608  0.0453  0.0612  0.4501
 7155SOL     OW33100   2.170   2.632   2.044  0.4845 -0.0283  0.4908
 7155SOL    HW133101   2.215   2.679   2.114  1.5182  0.8800 -0.7907
 7155SOL    HW233102   2.091   2.682   2.022  1.1636  0.8625  0.1256
 7156SOL     OW33103   1.090   1.512  11.554  0.0605  0.2269 -0.5560
 7156SOL    HW133104   1.004   1.476  11.532  0.3662 -1.2917  0.7057
 7156SOL    HW233105   1.151   1.439  11.566 -2.1674 -1.2667  1.6466
 7157SOL     OW33106   1.044   0.642   9.790  0.0648 -0.4096 -0.2934
 7157SOL    HW133107   1.074   0.616   9.703  0.0104 -2.3118  0.2539
 7157SOL    HW233108   1.104   0.704   9.831  0.1407 -0.7097  0.0486
 7158SOL     OW33109   1.723   4.414   7.363 -0.0349  0.0598  0.0436
 7158SOL    HW133110   1.768   4.482   7.414 -0.3444 -0.7143  1.3459
 7158SOL    HW233111   1.686   4.374   7.442  0.5874 -1.3845 -0.3954
 7159SOL     OW33112   0.681   4.266   2.472  0.2681 -0.7253  0.0694
 7159SOL    HW133113   0.609   4.207   2.496 -0.6412  0.2053 -0.3641
 7159SOL    HW233114   0.717   4.212   2.401 -1.6573 -2.1039  0.1394
 7160SOL     OW33115   0.964   2.932   3.857  0.1997 -0.0861  0.1679
 7160SOL    HW133116   0.987   2.891   3.774 -1.7549 -1.7216  0.4208
 7160SOL    HW233117   0.872   2.952   3.845 -0.0709 -0.7651  1.0625
 7161SOL     OW33118   3.065   2.069   0.496 -0.1530  0.0012 -0.6490
 7161SOL    HW133119   3.064   2.028   0.410 -0.6935 -1.5704  0.1004
 7161SOL    HW233120   3.060   1.995   0.557  2.8632  0.6349  0.3382
 7162SOL     OW33121   4.216   0.562   0.845  0.2879  0.4513 -0.2202
 7162SOL    HW133122   4.206   0.651   0.811  1.0913  1.1082  1.2874
 7162SOL    HW233123   4.195   0.516   0.763  0.5102 -2.2300  1.2279
 7163SOL     OW33124   2.615   4.484  15.589 -0.0408 -0.4649 -0.4648
 7163SOL    HW133125   2.555   4.537  15.641  2.3403 -0.1070  1.9150
 7163SOL    HW233126   2.667   4.556  15.554 -0.8693  0.5157  0.3183
 7164SOL     OW33127   2.338   2.077  13.320 -0.3684 -0.3806 -0.2493
 7164SOL    HW133128   2.310   2.139  13.387  0.6973 -0.7238  0.5004
 7164SOL    HW233129   2.271   2.079  13.252 -0.4062 -2.7270 -0.2644
 7165SOL     OW33130   1.108   3.807   5.473 -0.5031 -0.0620  0.3164
 7165SOL    HW133131   1.080   3.738   5.533 -1.5091  0.0727  0.0011
 7165SOL    HW233132   1.168   3.858   5.528 -0.2349 -0.1647  0.1185
 7166SOL     OW33133   0.903   2.094  12.619 -0.4644  0.3812 -0.6125
 7166SOL    HW133134   0.848   2.040  12.562  2.4547 -1.0477 -2.0486
 7166SOL    HW233135   0.835   2.159  12.639  0.5367  0.8733  1.1337
 7167SOL     OW33136   1.514   3.265   3.924 -0.0057 -0.1888  0.5260
 7167SOL    HW133137   1.603   3.259   3.888 -1.0126 -4.0998 -1.2890
 7167SOL    HW233138   1.469   3.189   3.889  0.1618  0.8167 -1.9010
 7168SOL     OW33139   0.738   4.085  14.501 -0.1183 -0.4745  0.0467
 7168SOL    HW133140   0.728   3.997  14.467 -0.7098 -0.9986  1.5802
 7168SOL    HW233141   0.728   4.149  14.430 -1.8863 -0.0126  0.7180
 7169SOL     OW33142   4.491   1.253  14.902 -0.1178 -0.4061  0.3806
 7169SOL    HW133143   4.506   1.327  14.843  0.5556 -0.6490  0.2504
 7169SOL    HW233144   4.545   1.265  14.980  0.0552  3.8020 -0.4063
 7170SOL     OW33145   3.427   1.520   7.717 -0.7553 -0.0558  0.0490
 7170SOL    HW133146   3.499   1.576   7.687  0.3368 -1.2963  0.3334
 7170SOL    HW233147   3.383   1.497   7.635  1.6305 -1.5870 -0.7879
 7171SOL     OW33148   4.727   0.668   3.155 -0.5615  0.4824  0.4871
 7171SOL    HW133149   4.736   0.597   3.218  1.1330 -1.6544 -2.1531
 7171SOL    HW233150   0.075   0.704   3.157 -0.5839  0.6716 -1.3544
 7172SOL     OW33151   1.490   0.486  15.094  0.5297 -0.1432  0.4815
 7172SOL    HW133152   1.422   0.422  15.115 -0.7116  0.2971 -2.2838
 7172SOL    HW233153   1.504   0.519  15.183 -3.5924 -1.9968  1.7872
 7173SOL     OW33154   1.945   3.713  14.781  0.7075 -0.0720 -0.3753
 7173SOL    HW133155   1.872   3.682  14.727  0.6066 -0.3952 -0.0548
 7173SOL    HW233156   1.905   3.706  14.868  1.3167 -1.6086 -0.2139
 7174SOL     OW33157   1.965   1.718   8.567  0.2946  0.2338  0.0215
 7174SOL    HW133158   2.005   1.665   8.498  1.0516 -1.5115  1.8001
 7174SOL    HW233159   1.921   1.652   8.621  0.8304 -1.2634 -1.3712
 7175SOL     OW33160   3.865   3.418   5.461  0.1304  0.1920 -0.4056
 7175SOL    HW133161   3.896   3.440   5.373 -1.6335  0.7821 -0.8837
 7175SOL    HW233162   3.801   3.348   5.447 -0.8815  0.9936  0.1638
 7176SOL     OW33163   1.119   4.265   1.387 -0.4098  0.5617  1.0693
 7176SOL    HW133164   1.070   4.338   1.348  0.4709  0.4935 -0.1528
 7176SOL    HW233165   1.080   4.186   1.352  0.4432  0.1136  1.1392
 7177SOL     OW33166   1.484   4.330  12.016  0.6065 -0.2112 -0.8217
 7177SOL    HW133167   1.481   4.417  11.977 -2.6528 -0.7096 -1.7412
 7177SOL    HW233168   1.441   4.287  11.942 -2.7157 -0.0264  0.9777
 7178SOL     OW33169   4.243   3.224  10.233  0.0096  0.3853  0.1374
 7178SOL    HW133170   4.225   3.187  10.147 -0.1205  0.5493  0.0946
 7178SOL    HW233171   4.213   3.154  10.292  1.2349 -0.9339 -0.8315
 7179SOL     OW33172   1.267   0.099   4.473  0.1586 -0.3763 -0.6429
 7179SOL    HW133173   1.353   0.104   4.431 -0.0067 -1.1835 -1.0957
 7179SOL    HW233174   1.221   0.159   4.414 -0.5750 -0.9419 -0.6517
 7180SOL     OW33175   2.629   1.912   4.249 -0.2817 -0.0969  0.1866
 7180SOL    HW133176   2.681   1.917   4.328 -0.3740 -2.3486  0.4008
 7180SOL    HW233177   2.616   2.006   4.240  0.5764  0.0163  0.1998
 7181SOL     OW33178   0.124   3.519   4.581  0.2219  0.3480  0.1927
 7181SOL    HW133179   0.098   3.581   4.649 -1.6040  0.7290 -0.8550
 7181SOL    HW233180   0.105   3.441   4.633 -1.2936 -0.5404 -1.6805
 7182SOL     OW33181   3.194   1.754   6.760 -0.3551 -0.8008 -1.1896
 7182SOL    HW133182   3.232   1.670   6.782 -1.1034 -0.3705  1.7006
 7182SOL    HW233183   3.242   1.776   6.680 -1.8745  1.3806 -1.4961
 7183SOL     OW33184   4.257   0.268   3.302  0.2255 -0.5127 -0.0049
 7183SOL    HW133185   4.244   0.221   3.219 -0.1572 -0.0021 -0.2329
 7183SOL    HW233186   4.349   0.296   3.296  0.3978 -1.1547 -0.4477
 7184SOL     OW33187   4.438   0.095   8.008 -0.1162 -0.2314 -0.0138
 7184SOL    HW133188   4.408   0.107   7.918  0.5138 -4.4008 -0.8152
 7184SOL    HW233189   4.393   0.016   8.038  2.5425 -1.1678  1.4959
 7185SOL     OW33190   2.593   0.785   4.976 -0.6661 -0.0191 -1.0985
 7185SOL    HW133191   2.589   0.710   4.916  1.3300 -0.8251 -0.1861
 7185SOL    HW233192   2.606   0.855   4.912 -0.8521  1.1469  0.1556
 7186SOL     OW33193   0.921   2.480  17.605 -0.0586  0.1067  0.2718
 7186SOL    HW133194   0.843   2.445  17.562 -1.5447  1.7228  1.6381
 7186SOL    HW233195   0.936   2.554  17.546 -2.0323  0.5418  0.3396
 7187SOL     OW33196   0.134   3.218   6.118  0.1599  0.4376  0.5443
 7187SOL    HW133197   0.107   3.310   6.118 -1.4743 -0.0212 -2.7623
 7187SOL    HW233198   0.077   3.180   6.184  0.5294 -0.9670  0.0492
 7188SOL     OW33199   2.384   0.074   2.265 -0.5272 -0.1204  0.0903
 7188SOL    HW133200   2.314   0.136   2.244 -0.5225  0.3776  1.5312
 7188SOL    HW233201   2.427   0.129   2.331  1.1037 -0.4668 -0.6775
 7189SOL     OW33202   3.953   3.386   0.476  0.5071 -0.4133  0.3963
 7189SOL    HW133203   3.883   3.450   0.465 -0.0029 -0.9712  0.4073
 7189SOL    HW233204   4.017   3.418   0.412 -2.3833  2.1011 -1.2503
 7190SOL     OW33205   0.755   2.841   6.168  0.3618 -0.0202  0.2491
 7190SOL    HW133206   0.793   2.904   6.228  0.0757 -0.7508  1.2027
 7190SOL    HW233207   0.826   2.778   6.159  0.9524  0.8277 -0.9888
 7191SOL     OW33208   4.627   0.953   5.231 -0.1173 -0.0263  0.1150
 7191SOL    HW133209   4.709   0.913   5.259 -0.8478 -0.8231  1.1034
 7191SOL    HW233210   4.609   1.013   5.303  0.1971 -0.9726  0.9758
 7192SOL     OW33211   1.502   3.546   3.305 -0.4142  0.1110 -0.5520
 7192SOL    HW133212   1.438   3.547   3.234 -1.1671 -2.2300  0.1121
 7192SOL    HW233213   1.525   3.638   3.324  1.1117 -0.0120 -1.7805
 7193SOL     OW33214   4.359   4.212   8.496  0.2800 -0.0539  0.3372
 7193SOL    HW133215   4.338   4.253   8.580  2.3613 -1.2808  1.4510
 7193SOL    HW233216   4.364   4.121   8.524  1.9273 -0.0413  0.1157
 7194SOL     OW33217   1.006   0.525  10.327 -0.0082  0.0280  0.2288
 7194SOL    HW133218   1.082   0.466  10.321 -0.2491 -0.2687  0.0828
 7194SOL    HW233219   0.984   0.539  10.235  0.9909 -1.8396 -0.3075
 7195SOL     OW33220   2.688   3.407   7.595 -0.5752 -0.2698  0.1480
 7195SOL    HW133221   2.711   3.452   7.676  0.3711 -0.0678 -0.2258
 7195SOL    HW233222   2.660   3.478   7.537  0.9969 -0.1218 -0.4264
 7196SOL     OW33223   1.134   3.814   9.101 -0.5605 -0.1398 -0.5916
 7196SOL    HW133224   1.078   3.754   9.152 -0.5107  0.8729  0.6657
 7196SOL    HW233225   1.123   3.793   9.009  0.0824  1.1672 -0.9526
 7197SOL     OW33226   0.678   4.004  15.332 -0.2175 -0.3446 -0.3229
 7197SOL    HW133227   0.719   3.984  15.416  3.2947 -0.1638 -2.0165
 7197SOL    HW233228   0.725   3.935  15.285 -1.2565 -0.9297 -0.5149
 7198SOL     OW33229   2.722   0.232  11.179 -0.5697 -0.0918 -0.4825
 7198SOL    HW133230   2.723   0.322  11.211  2.5390  0.1126 -1.0948
 7198SOL    HW233231   2.767   0.190  11.252  1.2731 -0.2837 -1.7096
 7199SOL     OW33232   1.171   4.733  11.364 -0.0252 -0.5783 -0.5779
 7199SOL    HW133233   1.091   4.681  11.356 -0.0421 -0.7724  0.9068
 7199SOL    HW233234   1.185   0.041  11.282  2.6978  0.3984  0.4622
 7200SOL     OW33235   2.254   1.197   6.896  0.0360  0.1966  0.4078
 7200SOL    HW133236   2.321   1.143   6.853  0.4878  0.1126  1.2306
 7200SOL    HW233237   2.223   1.149   6.972 -1.2911  3.7216  2.0685
 7201SOL     OW33238   2.549   2.392   2.736 -0.2050 -0.0655  0.5092
 7201SOL    HW133239   2.457   2.382   2.712  0.0568  1.9463 -1.3385
 7201SOL    HW233240   2.587   2.305   2.731  3.0256  1.3153  0.7731
 7202SOL     OW33241   3.091   0.711   5.724 -0.3262  0.3260  0.5315
 7202SOL    HW133242   3.144   0.791   5.725 -0.1612  0.2618 -3.2036
 7202SOL    HW233243   3.020   0.734   5.783  0.2191 -0.6149  1.5642
 7203SOL     OW33244   2.100   2.843   9.699 -0.7709  0.0981 -0.2412
 7203SOL    HW133245   2.186   2.885   9.696 -1.2331  0.9815 -1.1356
 7203SOL    HW233246   2.113   2.751   9.676 -0.1640  0.6358 -2.0991
 7204SOL     OW33247   3.650   1.168   5.617  0.5376  0.2396 -0.6174
 7204SOL    HW133248   3.704   1.158   5.696 -0.4423 -0.9032 -0.0803
 7204SOL    HW233249   3.679   1.087   5.575  1.8305  0.4210 -0.0758
 7205SOL     OW33250   3.059   4.320  10.582 -0.5509 -0.0249 -0.3628
 7205SOL    HW133251   3.105   4.332  10.665 -2.4335 -2.0334  0.9761
 7205SOL    HW233252   3.039   4.227  10.587 -1.0881  0.1422  0.7805
 7206SOL     OW33253   3.017   3.613   5.644 -0.0621  0.2592  0.1727
 7206SOL    HW133254   3.104   3.620   5.605 -0.3085 -2.9123 -0.9937
 7206SOL    HW233255   2.973   3.683   5.597 -2.6536 -1.3170  0.2528
 7207SOL     OW33256   4.432   1.855   5.227  0.2575  0.0738 -0.4245
 7207SOL    HW133257   4.454   1.767   5.196 -0.5118 -0.1920 -0.2210
 7207SOL    HW233258   4.455   1.901   5.146 -0.1799  1.6703  0.3633
 7208SOL     OW33259   4.293   0.700  11.671 -0.2915 -0.4214  0.1451
 7208SOL    HW133260   4.296   0.795  11.681  2.4370 -0.7590  2.5521
 7208SOL    HW233261   4.231   0.690  11.743 -0.3024  0.1791  0.2243
 7209SOL     OW33262   3.764   1.585   7.994 -0.2540  0.6439  0.0923
 7209SOL    HW133263   3.782   1.615   7.905  0.5917  0.4185  0.1855
 7209SOL    HW233264   3.769   1.670   8.038  0.3341  0.6223  0.0639
 7210SOL     OW33265   2.447   2.066   7.124 -0.3105 -0.0010  0.0953
 7210SOL    HW133266   2.476   2.148   7.084 -1.1352  0.6385  0.8134
 7210SOL    HW233267   2.518   2.052   7.187 -0.6242 -0.4499  0.3498
 7211SOL     OW33268   0.433   4.308   0.728  0.1229 -0.8135 -0.3123
 7211SOL    HW133269   0.414   4.313   0.634  0.8937  1.6110 -0.3218
 7211SOL    HW233270   0.352   4.271   0.764 -1.0886  1.9620 -0.2192
 7212SOL     OW33271   3.453   4.586  13.171  0.1519  0.2097  0.5189
 7212SOL    HW133272   3.504   4.630  13.238  1.9775 -1.4499  0.2070
 7212SOL    HW233273   3.369   4.631  13.165  0.6398  0.8996 -1.1013
 7213SOL     OW33274   4.603   0.006   7.403 -0.2518  0.2570  0.0138
 7213SOL    HW133275   4.613   4.665   7.354 -0.1823 -0.7462  1.6710
 7213SOL    HW233276   4.620   0.072   7.336 -3.4606  1.2731  0.1969
 7214SOL     OW33277   3.326   4.035   8.470  0.4188  0.1214  0.2503
 7214SOL    HW133278   3.392   4.054   8.537 -0.7794  0.9825  1.1850
 7214SOL    HW233279   3.304   3.946   8.499  0.5508  0.1506  0.4458
 7215SOL     OW33280   2.210   4.003   2.129 -0.0112  0.1904 -0.5105
 7215SOL    HW133281   2.234   4.049   2.049  0.9629  1.2087  0.3774
 7215SOL    HW233282   2.116   4.015   2.119 -0.2107  0.2312  1.4727
 7216SOL     OW33283   0.050   3.001   2.290  0.8454  0.1055  0.1947
 7216SOL    HW133284   0.003   3.025   2.370 -0.6019 -1.0790 -0.3178
 7216SOL    HW233285   4.732   2.935   2.254 -0.9249  2.2555 -0.9423
 7217SOL     OW33286   3.505   0.155   3.132  0.2893  0.1610  0.8356
 7217SOL    HW133287   3.435   0.218   3.151  1.3622  1.2813  1.0527
 7217SOL    HW233288   3.558   0.160   3.212 -0.7942  2.7261  1.3972
 7218SOL     OW33289   0.561   1.477   4.818 -0.0041 -0.3077 -0.6443
 7218SOL    HW133290   0.634   1.424   4.851  0.8721  0.1354 -1.8567
 7218SOL    HW233291   0.491   1.431   4.864 -1.2298  0.3029 -1.8854
 7219SOL     OW33292   3.806   2.267   7.155  0.0551  0.1316 -0.2196
 7219SOL    HW133293   3.769   2.332   7.096 -1.3493 -1.2733 -0.8959
 7219SOL    HW233294   3.738   2.273   7.222 -2.0242 -1.8296 -2.1569
 7220SOL     OW33295   3.416   3.739   5.387 -0.1649  0.5122 -0.1815
 7220SOL    HW133296   3.324   3.757   5.372 -0.6495  0.2736  2.5533
 7220SOL    HW233297   3.410   3.695   5.472  1.6266 -1.2349 -0.9466
 7221SOL     OW33298   3.879   4.527   5.678  0.6092 -0.1784 -0.4389
 7221SOL    HW133299   3.911   4.617   5.669  0.8865 -0.0802  1.4813
 7221SOL    HW233300   3.950   4.479   5.722  0.2134 -0.5257 -0.1793
 7222SOL     OW33301   0.140   4.538   8.411  0.3428  0.8133 -0.6645
 7222SOL    HW133302   0.107   4.556   8.323  2.3256  0.6601 -1.4380
 7222SOL    HW233303   0.180   4.451   8.403 -0.9201  0.3526 -2.0388
 7223SOL     OW33304   1.468   3.544  14.877  0.1035  0.5529  0.4305
 7223SOL    HW133305   1.387   3.596  14.874 -0.2187 -0.0227 -0.5182
 7223SOL    HW233306   1.509   3.573  14.960  0.1442  0.2133  0.5269
 7224SOL     OW33307   3.258   2.666   7.884  0.3728 -0.2521 -0.4679
 7224SOL    HW133308   3.250   2.630   7.796  1.9960  0.7115 -1.0086
 7224SOL    HW233309   3.260   2.760   7.865  0.5452 -0.4637 -1.4819
 7225SOL     OW33310   1.843   2.867   7.978 -0.6568  0.1659 -0.3054
 7225SOL    HW133311   1.905   2.798   7.956 -1.4391 -0.6281  0.0249
 7225SOL    HW233312   1.768   2.833   7.930 -0.4298  0.7480 -1.0778
 7226SOL     OW33313   0.219   1.813   6.812  0.3240  0.2059 -0.0649
 7226SOL    HW133314   0.269   1.881   6.767 -3.2737  3.4099  0.7546
 7226SOL    HW233315   0.227   1.734   6.758  1.6929  1.8283 -2.2453
 7227SOL     OW33316   0.822   3.155   1.679  0.1425 -0.6221 -0.5025
 7227SOL    HW133317   0.887   3.217   1.712 -1.5942  1.6248 -1.3439
 7227SOL    HW233318   0.784   3.218   1.618 -0.8828  0.3962  1.2168
 7228SOL     OW33319   0.228   1.894   9.351 -0.0347  0.3886 -0.1934
 7228SOL    HW133320   0.256   1.938   9.432 -0.3134  1.0266 -0.4412
 7228SOL    HW233321   0.175   1.821   9.383 -1.8179  1.7309 -0.0336
 7229SOL     OW33322   4.452   2.531  16.289  0.3983  0.5387 -0.1345
 7229SOL    HW133323   4.389   2.462  16.266 -0.0213  0.3365  1.6020
 7229SOL    HW233324   4.527   2.474  16.274  1.3849  1.2456  2.0722
 7230SOL     OW33325   1.133   1.596   3.200  0.4095  0.3336 -0.2521
 7230SOL    HW133326   1.148   1.566   3.110 -2.6062  0.7683 -0.9128
 7230SOL    HW233327   1.223   1.586   3.230  0.8787 -0.8102 -2.0260
 7231SOL     OW33328   3.888   2.807   6.713  0.3392  0.4413 -0.2149
 7231SOL    HW133329   3.855   2.757   6.787  0.8014 -1.5800 -1.3461
 7231SOL    HW233330   3.981   2.789   6.728  0.3411  1.3832  0.8665
 7232SOL     OW33331   2.970   3.775   1.723  0.1300  0.5976  0.3164
 7232SOL    HW133332   3.001   3.839   1.660 -1.4686  1.1909  0.1348
 7232SOL    HW233333   3.045   3.746   1.775 -0.2489 -0.8844  0.0382
 7233SOL     OW33334   2.569   4.538   8.989  0.6815 -0.1746 -0.3997
 7233SOL    HW133335   2.485   4.502   9.018  0.3163 -0.2232 -1.5067
 7233SOL    HW233336   2.610   4.545   9.075  0.5967 -0.9877 -0.2941
 7234SOL     OW33337   3.861   2.632   6.931  0.1122  0.1598 -0.2510
 7234SOL    HW133338   3.924   2.617   7.002 -1.0119  1.9840  1.1426
 7234SOL    HW233339   3.879   2.554   6.879 -1.1618  0.5741 -1.2965
 7235SOL     OW33340   1.478   0.533   9.397 -0.5192 -0.6416  0.3314
 7235SOL    HW133341   1.391   0.567   9.374 -0.3012 -1.5736 -1.9176
 7235SOL    HW233342   1.474   0.548   9.491  0.4469  0.6948  0.1561
 7236SOL     OW33343   0.900   4.103   1.647  0.3408  0.2732  0.0091
 7236SOL    HW133344   0.815   4.080   1.685  1.1197 -1.1841  0.8528
 7236SOL    HW233345   0.887   4.110   1.552  0.0240  2.9817  0.2620
 7237SOL     OW33346   3.124   0.587   2.040 -0.4670  0.0517  0.8128
 7237SOL    HW133347   3.044   0.636   2.024  0.4181  1.1161 -0.2814
 7237SOL    HW233348   3.107   0.524   1.970 -0.1205 -1.5515  2.1821
 7238SOL     OW33349   2.998   1.494   1.085 -0.2874  0.6630  0.3008
 7238SOL    HW133350   2.954   1.451   1.158  1.0995 -0.3113  0.5814
 7238SOL    HW233351   2.925   1.529   1.035  1.0657 -0.9410 -2.8022
 7239SOL     OW33352   4.350   3.103   7.193 -0.2640  0.9473 -0.2144
 7239SOL    HW133353   4.344   3.139   7.105 -4.7052 -1.4208 -0.9089
 7239SOL    HW233354   4.423   3.157   7.224 -0.1308  0.4469  0.3599
 7240SOL     OW33355   1.254   2.610   7.651  0.2816  0.6578 -0.1001
 7240SOL    HW133356   1.191   2.539   7.638  0.4541  0.5654 -0.4369
 7240SOL    HW233357   1.323   2.572   7.705 -0.1787 -0.8681 -0.6119
 7241SOL     OW33358   0.285   2.619   8.157  0.4002  0.6382 -0.1907
 7241SOL    HW133359   0.210   2.586   8.108  1.6568  0.3726 -1.9497
 7241SOL    HW233360   0.295   2.550   8.221 -0.3435  2.2881  1.7070
 7242SOL     OW33361   0.329   3.139   7.092 -0.3077 -0.0634 -0.0001
 7242SOL    HW133362   0.242   3.101   7.082  0.4391 -2.3022  1.9442
 7242SOL    HW233363   0.321   3.212   7.030  1.4383 -1.2113 -1.5775
 7243SOL     OW33364   0.083   2.087   4.536 -0.3122 -0.1387  0.3775
 7243SOL    HW133365   0.009   2.142   4.512 -1.4913 -1.0957  1.8316
 7243SOL    HW233366   0.132   2.124   4.609  2.2250 -0.1368 -1.2967
 7244SOL     OW33367   4.095   0.451   3.444  0.2681  0.0753 -0.2816
 7244SOL    HW133368   4.169   0.468   3.502  0.3498 -2.3507  0.3053
 7244SOL    HW233369   4.109   0.358   3.424 -1.8103 -0.3099  0.0700
 7245SOL     OW33370   0.705   3.155   8.060  0.0753 -0.5677 -0.4066
 7245SOL    HW133371   0.688   3.239   8.017  0.4489  0.1714  0.9118
 7245SOL    HW233372   0.696   3.178   8.152 -0.0995 -0.2390 -0.5070
 7246SOL     OW33373   2.557   0.311  12.661  0.3098  0.3237  0.2366
 7246SOL    HW133374   2.623   0.254  12.700 -0.5483  0.9846  2.6791
 7246SOL    HW233375   2.496   0.256  12.613  0.9477 -2.1774  2.2927
 7247SOL     OW33376   0.972   1.153   5.783 -0.4465  0.1000 -0.0666
 7247SOL    HW133377   0.953   1.069   5.742 -0.2822 -1.1680  2.4731
 7247SOL    HW233378   1.050   1.122   5.831  0.9950  2.1228 -1.0897
 7248SOL     OW33379   1.566   0.453   6.163  0.0496  0.2484  0.5313
 7248SOL    HW133380   1.541   0.450   6.256 -0.4674  0.4189  0.3947
 7248SOL    HW233381   1.590   0.545   6.150  1.2259  0.0353  1.1724
 7249SOL     OW33382   3.823   0.087   5.890  0.0686 -0.4836 -0.2915
 7249SOL    HW133383   3.857   0.172   5.921 -1.1807  0.2337 -0.9095
 7249SOL    HW233384   3.865   0.028   5.953  1.0176 -1.1934 -1.5997
 7250SOL     OW33385   1.431   1.179   3.989 -0.0964  0.0335 -0.1993
 7250SOL    HW133386   1.385   1.249   3.944 -0.7184 -1.1071 -1.3537
 7250SOL    HW233387   1.358   1.130   4.026 -0.4515 -0.2774 -1.3120
 7251SOL     OW33388   0.697   0.810   7.984  0.2587 -0.7080  0.0765
 7251SOL    HW133389   0.613   0.797   7.940 -1.8201  0.7951  3.5958
 7251SOL    HW233390   0.672   0.843   8.071  2.1458  1.3800 -0.1959
 7252SOL     OW33391   3.710   1.396  12.705 -0.5648 -0.2323  0.1568
 7252SOL    HW133392   3.773   1.425  12.639  1.1836  3.1265  3.3390
 7252SOL    HW233393   3.647   1.345  12.654  1.0176 -0.6840 -1.3563
 7253SOL     OW33394   0.605   1.032  12.383 -0.3544 -0.2665  0.0209
 7253SOL    HW133395   0.561   0.955  12.420 -1.7642 -0.1032 -1.2797
 7253SOL    HW233396   0.690   1.015  12.424  0.2619  1.1215 -0.6745
 7254SOL     OW33397   1.377   1.876   8.712  0.3864  0.4222  0.2890
 7254SOL    HW133398   1.424   1.957   8.733 -1.9742  1.5761  1.0595
 7254SOL    HW233399   1.296   1.888   8.762  0.5475 -1.7110  1.0841
 7255SOL     OW33400   1.021   2.078   0.461  0.4281 -0.0980  0.3184
 7255SOL    HW133401   1.070   2.148   0.505 -1.8011  1.4750  0.2730
 7255SOL    HW233402   0.976   2.035   0.533 -0.2853 -0.9452 -0.6383
 7256SOL     OW33403   3.971   1.174  17.108  1.0536 -0.5952 -0.1324
 7256SOL    HW133404   4.049   1.125  17.135  1.2969 -0.2730 -0.2463
 7256SOL    HW233405   4.013   1.247  17.063 -1.5848  0.7638 -0.3811
 7257SOL     OW33406   2.504   1.999   3.925 -0.0143  0.0896 -0.3814
 7257SOL    HW133407   2.523   2.021   3.834  2.5185 -0.3903  0.0206
 7257SOL    HW233408   2.593   1.973   3.949  0.4223  1.6848 -0.2922
 7258SOL     OW33409   2.443   3.624   1.413 -0.4206  0.3626  0.2512
 7258SOL    HW133410   2.422   3.717   1.406 -0.0677  0.3901 -0.4566
 7258SOL    HW233411   2.381   3.589   1.349 -0.2232 -1.7161  1.2094
 7259SOL     OW33412   2.640   2.729   9.649 -0.4389 -0.1795  0.0303
 7259SOL    HW133413   2.638   2.698   9.559 -1.3990 -0.6098  0.1948
 7259SOL    HW233414   2.692   2.661   9.692 -0.6189 -1.0147 -1.0833
 7260SOL     OW33415   2.833   4.560   1.088  0.0891 -0.0570  0.1439
 7260SOL    HW133416   2.771   4.574   1.017 -1.3411  0.0914  1.4387
 7260SOL    HW233417   2.780   4.589   1.161  0.6183 -1.3265  1.0297
 7261SOL     OW33418   3.362   3.732   8.092 -0.1621 -0.3174  0.3684
 7261SOL    HW133419   3.410   3.766   8.168 -0.2572  1.1889 -0.2440
 7261SOL    HW233420   3.284   3.698   8.135  1.2310 -1.4170  2.0701
 7262SOL     OW33421   0.858   2.908   4.172 -0.1202  0.1124 -0.7208
 7262SOL    HW133422   0.908   2.953   4.105  0.1433  2.4991  1.0466
 7262SOL    HW233423   0.846   2.821   4.136 -1.2630  1.2549 -3.0869
 7263SOL     OW33424   0.738   0.483   5.867  0.1062  0.1475 -0.4347
 7263SOL    HW133425   0.668   0.479   5.933  0.3872  2.5996 -0.0095
 7263SOL    HW233426   0.740   0.388   5.853 -0.3213  0.3794 -2.1231
 7264SOL     OW33427   4.136   3.863   8.039  0.4307 -0.6506  0.1783
 7264SOL    HW133428   4.163   3.930   8.101 -0.3269 -0.6779  0.5387
 7264SOL    HW233429   4.041   3.866   8.052  0.4343  0.8578 -0.2682
 7265SOL     OW33430   3.334   2.292  13.234 -0.1885  0.0945  0.4967
 7265SOL    HW133431   3.271   2.288  13.307  0.3281 -0.5905  0.9021
 7265SOL    HW233432   3.414   2.297  13.286  0.0648 -0.2344  0.1372
 7266SOL     OW33433   4.046   1.202   2.738 -0.9924  0.0180 -0.2921
 7266SOL    HW133434   4.126   1.254   2.731 -0.3803 -0.8105  0.4540
 7266SOL    HW233435   3.996   1.242   2.810 -1.2740 -0.6965 -0.0903
 7267SOL     OW33436   0.114   0.182  13.017  0.3253 -0.4617 -0.1521
 7267SOL    HW133437   0.078   0.099  12.988 -1.5037 -0.0045  0.8461
 7267SOL    HW233438   0.033   0.230  13.031 -1.5236 -2.9167 -2.4186
 7268SOL     OW33439   3.337   1.014   8.194 -0.1679  0.0833  0.1214
 7268SOL    HW133440   3.410   1.056   8.239  1.3476 -1.3485 -0.9976
 7268SOL    HW233441   3.274   1.085   8.200  0.7275  0.8522  0.4609
 7269SOL     OW33442   3.929   3.329   8.258 -0.4255 -0.2759  0.1976
 7269SOL    HW133443   3.950   3.349   8.349 -0.0484 -2.1668  0.5283
 7269SOL    HW233444   3.834   3.325   8.266 -0.3767 -0.0295  0.8724
 7270SOL     OW33445   0.232   2.538  16.864 -0.2978  0.1985 -0.2759
 7270SOL    HW133446   0.173   2.475  16.904 -0.6972  0.3244 -0.6634
 7270SOL    HW233447   0.262   2.481  16.793 -0.4954 -0.0500 -0.1568
 7271SOL     OW33448   3.935   3.875  11.887 -0.1120 -0.9489 -0.0567
 7271SOL    HW133449   3.952   3.916  11.972 -1.8715 -0.7552  0.1939
 7271SOL    HW233450   4.018   3.888  11.841 -0.1117 -0.0089  0.2141
 7272SOL     OW33451   2.771   2.044   2.446  0.0914  0.1662 -0.0127
 7272SOL    HW133452   2.737   1.963   2.407  2.5590 -1.0412  0.3863
 7272SOL    HW233453   2.858   2.051   2.407  0.4575  1.5996  1.0692
 7273SOL     OW33454   1.663   2.791  13.060 -0.2813 -0.0702 -0.4858
 7273SOL    HW133455   1.758   2.795  13.059 -0.2604 -0.7434 -1.5750
 7273SOL    HW233456   1.634   2.882  13.070  2.1634  0.7399 -0.9926
 7274SOL     OW33457   4.672   2.842  10.702  0.0362  0.7616 -0.5990
 7274SOL    HW133458   4.604   2.837  10.769 -0.4648  0.0285 -1.1630
 7274SOL    HW233459   0.005   2.834  10.762 -2.2905 -1.5224  1.9041
 7275SOL     OW33460   2.060   4.168   8.883 -0.1127 -0.7526  0.3690
 7275SOL    HW133461   2.110   4.168   8.801  0.2304  0.6960  0.5834
 7275SOL    HW233462   2.013   4.250   8.869  0.8221  0.1008  2.2419
 7276SOL     OW33463   4.266   2.605  13.819  0.3499 -0.1286  0.1285
 7276SOL    HW133464   4.193   2.550  13.846  1.5948 -1.8129  0.1256
 7276SOL    HW233465   4.341   2.548  13.839 -0.7645 -1.8850 -0.7346
 7277SOL     OW33466   1.168   2.953   3.372  0.2375 -0.0106 -0.0163
 7277SOL    HW133467   1.197   3.026   3.317  2.3304 -0.5886  0.3307
 7277SOL    HW233468   1.130   2.903   3.300 -2.7469  1.0082  0.8750
 7278SOL     OW33469   1.710   2.886   9.312 -0.5901  0.0564 -0.2131
 7278SOL    HW133470   1.738   2.853   9.397 -0.6071  0.3877 -0.0782
 7278SOL    HW233471   1.762   2.838   9.249  0.2841  4.3059 -2.7163
 7279SOL     OW33472   2.972   2.115   4.591  0.5253  0.2959  0.3456
 7279SOL    HW133473   3.021   2.033   4.595 -2.7230 -1.6838 -0.5201
 7279SOL    HW233474   3.008   2.166   4.664  3.1104 -0.2447 -0.5284
 7280SOL     OW33475   2.982   0.515   0.491  0.4521  0.2112  0.8062
 7280SOL    HW133476   2.967   0.503   0.585  1.4477  1.4558  1.1246
 7280SOL    HW233477   2.901   0.558   0.465  1.4849 -0.3111 -3.2291
 7281SOL     OW33478   0.086   2.383   4.667  0.2618 -0.4286 -0.2695
 7281SOL    HW133479   0.034   2.452   4.627 -0.1715 -0.2843  0.5541
 7281SOL    HW233480   0.166   2.386   4.615 -0.4434 -0.1535 -1.3333
 7282SOL     OW33481   3.006   2.888  14.921 -0.7715 -0.3043  0.1925
 7282SOL    HW133482   2.958   2.867  14.840  0.9640  1.1240 -1.2007
 7282SOL    HW233483   3.095   2.857  14.905 -0.5063 -1.1901  3.4555
 7283SOL     OW33484   2.035   0.643   8.589  0.6817 -0.0915  0.3822
 7283SOL    HW133485   2.093   0.656   8.664  1.6239  3.7390 -0.9970
 7283SOL    HW233486   1.993   0.728   8.572  0.0651 -0.5367 -0.3462
 7284SOL     OW33487   4.128   4.075   1.019 -0.2637  0.2480  0.4913
 7284SOL    HW133488   4.127   4.160   1.064 -2.3217  0.4225  0.1528
 7284SOL    HW233489   4.042   4.044   1.050  0.1197 -0.9394  0.3628
 7285SOL     OW33490   2.055   4.697   8.681 -0.7597  0.3466 -0.4357
 7285SOL    HW133491   2.128   0.005   8.721  1.7698 -1.1650 -3.2395
 7285SOL    HW233492   2.002   4.718   8.758 -0.9603 -0.3823 -0.3660
 7286SOL     OW33493   1.623   0.480   1.688 -0.2017  0.0396  0.0117
 7286SOL    HW133494   1.627   0.426   1.767 -2.1712 -1.1658 -0.6969
 7286SOL    HW233495   1.681   0.432   1.629 -0.7753 -0.4510 -0.1594
 7287SOL     OW33496   4.584   2.973   7.772  0.3410  0.5688 -0.2151
 7287SOL    HW133497   4.519   3.032   7.810  3.6219  1.6543  3.5878
 7287SOL    HW233498   4.622   3.026   7.702 -0.4545 -0.4554 -1.4357
 7288SOL     OW33499   3.020   1.294   6.524  0.1148  0.0775  0.2045
 7288SOL    HW133500   2.950   1.262   6.580  0.8285 -2.3247 -0.2756
 7288SOL    HW233501   3.036   1.373   6.575 -2.4465  1.2814 -0.8713
 7289SOL     OW33502   1.392   1.600   2.715  0.5062  0.6565  0.3153
 7289SOL    HW133503   1.470   1.645   2.682  1.2555 -1.1601 -0.3627
 7289SOL    HW233504   1.334   1.612   2.640  2.4102  0.5812 -1.1350
 7290SOL     OW33505   4.518   1.567  13.201  0.1014  0.0554  0.7916
 7290SOL    HW133506   4.456   1.536  13.266  0.6820 -3.2557 -0.2554
 7290SOL    HW233507   4.512   1.500  13.133  1.9764  1.6865 -0.9961
 7291SOL     OW33508   3.117   0.275   8.268  0.3730 -0.4838 -0.9855
 7291SOL    HW133509   3.100   0.234   8.353  2.0153  1.2154  0.1600
 7291SOL    HW233510   3.212   0.267   8.274  0.1490 -0.4465  2.8021
 7292SOL     OW33511   3.024   1.105   9.598  0.5108  0.1308 -0.0215
 7292SOL    HW133512   3.004   1.021   9.640  0.7780  0.6544  1.1390
 7292SOL    HW233513   2.968   1.162   9.651  1.4000  0.3752  0.6579
 7293SOL     OW33514   3.395   2.127   7.908 -0.5087  0.0641  0.7703
 7293SOL    HW133515   3.317   2.182   7.914 -3.1623 -3.5085 -1.2991
 7293SOL    HW233516   3.419   2.134   7.816 -0.3233  1.7831  0.9509
 7294SOL     OW33517   0.045   0.511   7.848 -0.1499  0.5256 -0.1204
 7294SOL    HW133518   4.722   0.570   7.889 -2.4244 -1.1212 -1.2513
 7294SOL    HW233519   0.021   0.426   7.884  1.4987 -0.6037 -1.6919
 7295SOL     OW33520   3.073   0.186   6.607  0.5555  0.2163 -0.1089
 7295SOL    HW133521   3.005   0.201   6.541  2.0004  1.3307 -1.3574
 7295SOL    HW233522   3.108   0.098   6.590 -0.2377 -0.0942 -0.1229
 7296SOL     OW33523   3.838   1.187   6.040  0.4547  0.6708  0.2748
 7296SOL    HW133524   3.837   1.199   5.945 -2.2986  0.7960  0.3234
 7296SOL    HW233525   3.825   1.093   6.048 -0.7559  0.8492  0.4236
 7297SOL     OW33526   4.193   3.366   5.754 -0.6767  0.3184  0.1215
 7297SOL    HW133527   4.229   3.454   5.766  3.5476 -1.4725  0.6900
 7297SOL    HW233528   4.235   3.323   5.829 -1.0180 -1.0478 -0.4575
 7298SOL     OW33529   3.669   3.651   8.120  0.0114 -0.0056  0.5013
 7298SOL    HW133530   3.575   3.660   8.103  0.1556  0.0543 -0.2619
 7298SOL    HW233531   3.657   3.640   8.214 -2.4248  2.7918  0.5112
 7299SOL     OW33532   1.441   0.696   1.226  0.2244  0.1823  0.2107
 7299SOL    HW133533   1.452   0.693   1.321  1.5194  1.3975  0.1030
 7299SOL    HW233534   1.527   0.656   1.207  0.4782  1.4217 -1.2565
 7300SOL     OW33535   0.745   0.749   5.172  0.0638 -0.0310  0.1640
 7300SOL    HW133536   0.681   0.686   5.138 -1.0579  0.4925  1.3116
 7300SOL    HW233537   0.697   0.797   5.240 -0.1003 -1.3298  0.9549
 7301SOL     OW33538   4.696   3.138   5.144  0.1917  0.1828 -0.2079
 7301SOL    HW133539   0.024   3.203   5.131 -0.0125  0.2736 -0.8167
 7301SOL    HW233540   4.735   3.095   5.220  1.4227 -0.9684 -1.4972
 7302SOL     OW33541   3.658   1.652   0.310  0.2856 -0.3331  0.1942
 7302SOL    HW133542   3.716   1.720   0.276  0.2156  0.4126  1.5787
 7302SOL    HW233543   3.705   1.627   0.389  2.8045 -3.1588 -2.2113
 7303SOL     OW33544   2.953   3.598   0.814  0.0412 -0.5692  0.5313
 7303SOL    HW133545   2.897   3.666   0.777  1.1815 -0.6267 -1.3076
 7303SOL    HW233546   2.888   3.536   0.847 -1.4746  0.3142 -0.7797
 7304SOL     OW33547   1.396   2.771   9.089  0.1855  0.4127 -1.0073
 7304SOL    HW133548   1.417   2.826   9.164 -1.0709 -0.9469  0.3523
 7304SOL    HW233549   1.425   2.687   9.126  0.2199  1.2261  0.8024
 7305SOL     OW33550   2.860   4.612  16.221 -0.1395  0.2486  0.8464
 7305SOL    HW133551   2.928   4.676  16.199  0.4007 -0.0661  1.6110
 7305SOL    HW233552   2.876   4.549  16.151  1.6724  1.6207  0.0606
 7306SOL     OW33553   3.215   1.443   4.678 -0.3437 -0.5100 -0.2880
 7306SOL    HW133554   3.122   1.452   4.656 -0.5194  0.5456  0.8822
 7306SOL    HW233555   3.209   1.406   4.766  0.1734 -0.1571 -0.1028
 7307SOL     OW33556   3.827   1.985   6.031  0.1789  0.1372  0.4424
 7307SOL    HW133557   3.860   1.956   6.116 -0.1258  0.4855  0.6793
 7307SOL    HW233558   3.911   1.995   5.985  0.7799  0.1641  1.5372
 7308SOL     OW33559   4.374   3.025   6.654  0.3020 -0.1290  0.6078
 7308SOL    HW133560   4.442   3.086   6.683 -0.1413  1.7160 -2.2800
 7308SOL    HW233561   4.346   3.052   6.567 -2.0774 -0.2919  1.3202
 7309SOL     OW33562   1.670   1.987   9.464  0.2653 -0.2416 -0.2846
 7309SOL    HW133563   1.747   2.039   9.484  1.2402 -0.5053 -3.4623
 7309SOL    HW233564   1.716   1.920   9.413  2.0872 -0.6928  1.9401
 7310SOL     OW33565   3.537   4.079   6.939  0.4002 -0.5749 -0.1379
 7310SOL    HW133566   3.619   4.052   6.898  0.6319  2.5415 -1.7137
 7310SOL    HW233567   3.583   4.101   7.020 -1.1630  0.8601  0.3590
 7311SOL     OW33568   1.211   1.312   0.327  0.1555 -0.3338  0.3702
 7311SOL    HW133569   1.190   1.219   0.318  1.3890 -0.6051  0.3008
 7311SOL    HW233570   1.127   1.355   0.343 -0.1765 -0.2116 -1.6511
 7312SOL     OW33571   3.410   3.950   4.937 -0.2095  0.1390 -0.2720
 7312SOL    HW133572   3.413   3.861   4.973 -0.6960  0.3360  0.2619
 7312SOL    HW233573   3.471   3.941   4.864  3.5891 -1.5772  3.1379
 7313SOL     OW33574   2.397   1.418   6.977 -0.5358  0.1563  0.3407
 7313SOL    HW133575   2.346   1.349   6.934  1.1154 -2.0731  1.9365
 7313SOL    HW233576   2.432   1.450   6.894 -0.2337  2.9232  1.5565
 7314SOL     OW33577   0.658   4.113   8.522  0.8265  0.6390 -0.2035
 7314SOL    HW133578   0.706   4.032   8.542 -1.5007  0.0599  3.1017
 7314SOL    HW233579   0.581   4.105   8.578  2.0382  1.1473  1.5143
 7315SOL     OW33580   3.560   2.604  17.473  0.5849  0.4713 -0.0763
 7315SOL    HW133581   3.605   2.687  17.490  0.2578  0.7669 -0.6325
 7315SOL    HW233582   3.484   2.604  17.532  0.8479 -0.2235  0.2520
 7316SOL     OW33583   0.723   3.151  10.897  0.0370  0.0392  0.2791
 7316SOL    HW133584   0.806   3.187  10.865  0.5495 -1.5885 -0.2101
 7316SOL    HW233585   0.697   3.229  10.947  2.1461  0.3091  0.9413
 7317SOL     OW33586   4.102   4.179   1.371  0.0787  0.1599  0.0376
 7317SOL    HW133587   4.053   4.224   1.302  2.5812  1.5707 -0.8042
 7317SOL    HW233588   4.179   4.235   1.364 -0.4914  0.6069 -2.4927
 7318SOL     OW33589   3.178   3.490   8.046  0.3775  0.5982 -0.0593
 7318SOL    HW133590   3.245   3.539   7.997  1.8494 -3.1933 -1.8438
 7318SOL    HW233591   3.131   3.568   8.077 -0.5569  1.1722 -2.8236
 7319SOL     OW33592   4.070   1.468   3.869  0.6789 -1.1135 -0.2432
 7319SOL    HW133593   4.140   1.533   3.867 -1.0584  0.8370  1.1507
 7319SOL    HW233594   4.050   1.463   3.963  1.3622 -0.3958 -0.0526
 7320SOL     OW33595   0.387   0.491   4.463  0.0774 -0.0006 -0.3782
 7320SOL    HW133596   0.387   0.410   4.514  2.8431 -0.3517 -0.9120
 7320SOL    HW233597   0.325   0.464   4.395 -0.0403 -0.2084 -0.1889
 7321SOL     OW33598   2.457   1.839   5.934  0.4519  0.4031  0.0868
 7321SOL    HW133599   2.489   1.929   5.946 -1.0998  1.2414 -1.8212
 7321SOL    HW233600   2.530   1.779   5.950  0.7886  0.7204 -0.2312
 7322SOL     OW33601   0.748   3.954   2.062 -0.2871  0.9630  0.6533
 7322SOL    HW133602   0.734   3.946   1.967  0.1194  0.9995  0.5895
 7322SOL    HW233603   0.796   3.872   2.072 -0.6960  0.4888 -1.2011
 7323SOL     OW33604   1.925   1.701   2.885 -0.0997 -0.1411 -0.2998
 7323SOL    HW133605   1.928   1.615   2.928 -0.9839 -0.3342 -0.6294
 7323SOL    HW233606   1.833   1.704   2.858 -0.7588 -2.7049  1.6115
 7324SOL     OW33607   0.287   4.132  16.787  0.3872 -0.2255  0.4417
 7324SOL    HW133608   0.212   4.184  16.818  0.8655 -0.2983  1.7500
 7324SOL    HW233609   0.265   4.046  16.822 -1.0928 -0.1622 -0.3139
 7325SOL     OW33610   1.851   2.915   2.876 -0.2458  0.1024  0.3768
 7325SOL    HW133611   1.798   2.961   2.941 -1.5160  0.4188 -0.8659
 7325SOL    HW233612   1.808   2.831   2.856 -0.0954  0.7621 -2.7179
 7326SOL     OW33613   0.220   4.411   5.549  0.3360 -0.0107 -0.0253
 7326SOL    HW133614   0.300   4.462   5.566  0.0268  0.1744  0.8652
 7326SOL    HW233615   0.181   4.473   5.487  0.6948  1.6698  1.4092
 7327SOL     OW33616   1.628   3.232   1.514  0.2239 -0.5508 -0.0958
 7327SOL    HW133617   1.648   3.286   1.591  0.4141  2.6096 -2.3793
 7327SOL    HW233618   1.534   3.236   1.528  0.1333 -1.7031 -0.3577
 7328SOL     OW33619   4.133   2.512   8.749 -0.0020  0.3267 -0.0867
 7328SOL    HW133620   4.137   2.483   8.840  2.6034  0.2526 -0.2135
 7328SOL    HW233621   4.055   2.568   8.751 -0.2858 -0.0896  0.8549
 7329SOL     OW33622   0.289   2.570   7.232 -0.3721 -0.2997 -0.7500
 7329SOL    HW133623   0.370   2.543   7.189  0.8915 -0.1723  1.5742
 7329SOL    HW233624   0.310   2.543   7.321 -1.2111  2.0642  0.1561
 7330SOL     OW33625   3.238   1.460  17.653 -0.0108 -0.2006  0.5258
 7330SOL    HW133626   3.278   1.447  17.567  2.3918 -0.5049  1.6745
 7330SOL    HW233627   3.168   1.397  17.641 -1.0957  1.4299 -1.7360
 7331SOL     OW33628   1.636   3.575   4.392 -0.0002 -0.1187  0.1805
 7331SOL    HW133629   1.686   3.607   4.467  1.6576 -0.1511 -0.9260
 7331SOL    HW233630   1.688   3.507   4.349 -2.8321 -0.4986 -2.6402
 7332SOL     OW33631   1.251   1.072  16.907 -0.5266  0.2448 -0.2562
 7332SOL    HW133632   1.320   1.114  16.959 -1.6506  3.3767 -1.3312
 7332SOL    HW233633   1.249   1.134  16.835  2.6055  1.5898  0.7800
 7333SOL     OW33634   2.598   0.531   5.492 -0.0319  0.3014 -0.5287
 7333SOL    HW133635   2.509   0.567   5.498  0.3831  1.1587  0.4460
 7333SOL    HW233636   2.640   0.588   5.556  0.3308  1.0752 -1.4434
 7334SOL     OW33637   1.121   2.723   5.563 -0.0847 -0.2076 -0.6433
 7334SOL    HW133638   1.189   2.786   5.588 -0.5550 -0.3741  1.0630
 7334SOL    HW233639   1.039   2.769   5.549  0.4892  0.3745 -2.0494
 7335SOL     OW33640   3.147   1.563   0.161 -0.1891 -0.2806  0.4944
 7335SOL    HW133641   3.101   1.480   0.149  2.3153 -1.9739  2.7343
 7335SOL    HW233642   3.211   1.564   0.089  0.6150  0.0712  1.2132
 7336SOL     OW33643   3.585   2.650  13.545  0.7018 -0.1371 -0.5794
 7336SOL    HW133644   3.604   2.723  13.604 -1.5963 -0.2359  0.2847
 7336SOL    HW233645   3.635   2.678  13.469  1.7672  1.3996  0.6850
 7337SOL     OW33646   2.773   1.990   4.473 -0.0931  0.1254 -0.1406
 7337SOL    HW133647   2.688   2.018   4.507 -0.4455 -1.7792  0.5302
 7337SOL    HW233648   2.841   2.042   4.516 -1.5700  1.8604  0.1060
 7338SOL     OW33649   4.739   0.877   2.946 -0.3028 -0.4624  0.2726
 7338SOL    HW133650   0.000   0.793   2.993 -1.9366  1.9259  4.5630
 7338SOL    HW233651   4.699   0.849   2.863  0.5424  0.4990 -0.4475
 7339SOL     OW33652   2.113   1.096  16.819 -0.0272  0.2239  1.0526
 7339SOL    HW133653   2.147   1.007  16.812  1.8968  1.0848 -0.4903
 7339SOL    HW233654   2.020   1.074  16.814 -0.0558  0.9507 -1.7937
 7340SOL     OW33655   1.913   0.841   8.099  0.2157 -0.0285 -0.4291
 7340SOL    HW133656   1.989   0.801   8.141  0.5317 -0.7376 -1.6814
 7340SOL    HW233657   1.953   0.910   8.045 -0.4743 -0.4659 -1.4994
 7341SOL     OW33658   1.732   3.227  17.102 -0.4093 -0.5180  0.4726
 7341SOL    HW133659   1.800   3.259  17.042 -1.4547  1.5804  0.3967
 7341SOL    HW233660   1.715   3.306  17.154 -1.6979 -0.1962 -0.4314
 7342SOL     OW33661   3.047   4.076   0.751  0.2737 -0.2977 -0.1991
 7342SOL    HW133662   3.121   4.064   0.810 -0.0687  0.2119  0.3306
 7342SOL    HW233663   2.978   4.030   0.799 -0.2198  0.1268 -0.4997
 7343SOL     OW33664   1.463   4.460  17.613 -0.1425  0.0043  0.3170
 7343SOL    HW133665   1.370   4.479  17.630 -0.3027 -0.1418 -0.4087
 7343SOL    HW233666   1.503   4.538  17.651 -0.0497 -0.0738  0.3785
 7344SOL     OW33667   4.427   2.911   3.586 -0.6249  0.6365  0.0324
 7344SOL    HW133668   4.462   2.947   3.668  1.2768 -2.9143  0.7687
 7344SOL    HW233669   4.442   2.819   3.607 -1.6274  0.7091  1.0628
 7345SOL     OW33670   2.219   3.193   1.791  0.3075 -0.6444  0.0059
 7345SOL    HW133671   2.275   3.212   1.866  1.4621  0.3891 -1.1289
 7345SOL    HW233672   2.215   3.098   1.802 -1.0623 -0.8123 -2.0835
 7346SOL     OW33673   4.385   0.571   8.776 -0.1131  0.0961  0.0535
 7346SOL    HW133674   4.308   0.539   8.730 -1.0595  2.9347 -0.3123
 7346SOL    HW233675   4.393   0.648   8.719  0.9749 -0.8169 -1.0304
 7347SOL     OW33676   4.313   2.736   7.097  0.1021  0.2031 -0.2476
 7347SOL    HW133677   4.401   2.769   7.114 -0.6782  2.9032 -1.3862
 7347SOL    HW233678   4.277   2.791   7.027 -1.0069 -0.9093 -0.5570
 7348SOL     OW33679   1.555   4.203   8.312  0.1682  0.2333 -0.2429
 7348SOL    HW133680   1.620   4.266   8.341 -1.1702 -0.3130  4.0217
 7348SOL    HW233681   1.510   4.248   8.241  0.3333 -3.2589 -2.5946
 7349SOL     OW33682   1.779   0.303   3.464  0.4970  0.7272  0.3416
 7349SOL    HW133683   1.815   0.245   3.531  0.8222  1.3072  0.6672
 7349SOL    HW233684   1.715   0.352   3.515 -0.3560  1.1565 -1.1409
 7350SOL     OW33685   2.878   4.156  14.655  0.2211  0.1398  0.0842
 7350SOL    HW133686   2.963   4.177  14.693  0.7854 -2.8357  0.5051
 7350SOL    HW233687   2.904   4.132  14.566  1.7138  0.1506  0.5217
 7351SOL     OW33688   4.667   2.053   8.052 -0.2234  0.3840  0.6901
 7351SOL    HW133689   4.585   2.051   8.101  0.4311 -0.2664  1.7499
 7351SOL    HW233690   4.695   2.145   8.060  0.2523  0.2990  0.0665
 7352SOL     OW33691   1.782   3.436   7.150 -0.1491 -0.0146  0.2229
 7352SOL    HW133692   1.872   3.423   7.118 -0.4429  2.3018 -1.5179
 7352SOL    HW233693   1.773   3.357   7.203  1.5324  0.6741  1.5490
 7353SOL     OW33694   4.208   0.825   5.257 -0.1722  0.0597 -0.5012
 7353SOL    HW133695   4.173   0.746   5.216 -0.6826  0.3243 -0.5793
 7353SOL    HW233696   4.296   0.799   5.283 -0.8514  0.8535  2.6987
 7354SOL     OW33697   2.824   2.538  10.522 -0.5906  0.2837  0.0726
 7354SOL    HW133698   2.857   2.551  10.611 -2.1001  0.6706  0.5724
 7354SOL    HW233699   2.741   2.497  10.545 -0.9281  1.0337  0.1879
 7355SOL     OW33700   3.338   2.803  11.266 -0.1198  0.9019 -0.7345
 7355SOL    HW133701   3.355   2.878  11.209 -0.9299  0.2624 -1.8147
 7355SOL    HW233702   3.404   2.812  11.335  0.2206  0.2746 -0.9799
 7356SOL     OW33703   3.897   0.233   2.873 -0.0751  0.1530  0.6030
 7356SOL    HW133704   3.838   0.287   2.925 -0.7149  0.6215 -0.6072
 7356SOL    HW233705   3.879   0.254   2.782  0.8142  1.7111  0.7943
 7357SOL     OW33706   0.548   3.473   2.425 -0.1057  0.5297  0.1024
 7357SOL    HW133707   0.459   3.506   2.412 -0.4689 -0.3536  0.3980
 7357SOL    HW233708   0.549   3.441   2.515 -1.9774 -1.3560 -0.5543
 7358SOL     OW33709   2.188   1.987   7.094  0.8676  0.2783 -0.0612
 7358SOL    HW133710   2.170   1.918   7.158 -0.3091  0.1421 -0.5515
 7358SOL    HW233711   2.284   1.992   7.096  1.0036 -2.3053 -1.1147
 7359SOL     OW33712   4.482   2.246   3.837  0.2589  0.1243 -0.7429
 7359SOL    HW133713   4.451   2.197   3.914  0.2466 -0.0460 -0.8572
 7359SOL    HW233714   4.513   2.180   3.776  1.6894 -0.1482  0.2699
 7360SOL     OW33715   3.683   1.322   1.736 -0.7961  0.0022  0.1231
 7360SOL    HW133716   3.636   1.279   1.665  0.2251  1.1043 -1.2179
 7360SOL    HW233717   3.673   1.413   1.710  0.1993  0.5807  1.7485
 7361SOL     OW33718   2.865   0.346   7.598  0.2008 -0.1006  0.0398
 7361SOL    HW133719   2.932   0.291   7.558  0.2905 -0.0313  0.0943
 7361SOL    HW233720   2.874   0.431   7.556  2.9492 -0.1639  0.5314
 7362SOL     OW33721   4.038   3.054   6.130  0.6032  0.0997 -0.2931
 7362SOL    HW133722   4.129   3.035   6.106  0.4238 -0.8890 -0.1679
 7362SOL    HW233723   4.011   2.971   6.170 -1.7957  1.9077  1.8299
 7363SOL     OW33724   4.196   2.393   4.930 -0.5186  0.0201 -0.6334
 7363SOL    HW133725   4.147   2.441   4.864 -3.5350  1.4625  2.7010
 7363SOL    HW233726   4.282   2.405   4.889  0.4466  1.6951  1.8357
 7364SOL     OW33727   4.626   0.922   1.386 -0.0195 -0.1818 -0.0790
 7364SOL    HW133728   4.555   0.868   1.353 -0.3002  0.0559  0.1384
 7364SOL    HW233729   4.690   0.851   1.381 -0.7230 -0.6323 -3.0655
 7365SOL     OW33730   4.315   0.297   1.137 -0.0284  0.1487  0.6609
 7365SOL    HW133731   4.371   0.316   1.061  0.1320 -0.1636  0.7023
 7365SOL    HW233732   4.240   0.348   1.106  1.3244  2.8734  1.9247
 7366SOL     OW33733   2.948   1.309   4.572 -0.0729  0.0383 -0.5248
 7366SOL    HW133734   2.903   1.378   4.621  2.2732 -0.8340  2.8287
 7366SOL    HW233735   2.884   1.276   4.509 -1.5349 -0.0212  0.9825
 7367SOL     OW33736   2.790   3.603   6.511 -0.1305 -0.6891 -0.4995
 7367SOL    HW133737   2.738   3.609   6.431 -1.2048 -2.6333  0.0629
 7367SOL    HW233738   2.776   3.510   6.530 -0.8258 -0.0633  2.1008
 7368SOL     OW33739   2.947   3.344   3.538  0.0051  0.3342 -0.2464
 7368SOL    HW133740   2.861   3.381   3.557  0.1013  0.4540 -0.0469
 7368SOL    HW233741   2.967   3.308   3.625  1.0384  2.1938  0.2939
 7369SOL     OW33742   0.416   0.062   8.701 -0.4501  0.6683 -0.2843
 7369SOL    HW133743   0.458   0.008   8.635 -1.0261  1.2635 -1.1296
 7369SOL    HW233744   0.431   0.017   8.784  1.7015 -0.8685 -1.5013
 7370SOL     OW33745   0.146   1.293  17.669 -0.5981 -0.0988 -0.8837
 7370SOL    HW133746   0.117   1.215  17.716 -2.0204  0.7084 -0.4306
 7370SOL    HW233747   0.098   1.360  17.717  2.3577  1.5890 -0.2752
 7371SOL     OW33748   1.128   0.237   2.322 -0.0117 -0.5061  0.3355
 7371SOL    HW133749   1.128   0.319   2.272 -0.1849 -1.5466 -1.3507
 7371SOL    HW233750   1.048   0.252   2.373  0.8955  0.6130  1.4205
 7372SOL     OW33751   0.921   3.526   6.546 -0.3241 -0.4673 -0.1852
 7372SOL    HW133752   0.883   3.562   6.625  1.5533  3.7937 -1.1885
 7372SOL    HW233753   0.975   3.456   6.583 -1.9840 -1.4851  0.2858
 7373SOL     OW33754   4.443   2.853   7.543  0.2721 -0.2149 -0.1126
 7373SOL    HW133755   4.497   2.868   7.621 -0.2265  3.2412 -0.4549
 7373SOL    HW233756   4.513   2.851   7.478  1.0823  0.1166  0.7539
 7374SOL     OW33757   2.626   2.703   7.494  0.1920  0.3706 -0.4844
 7374SOL    HW133758   2.662   2.745   7.416 -0.8436 -0.0676 -1.2054
 7374SOL    HW233759   2.653   2.611   7.487  1.9186  0.8469 -0.0317
 7375SOL     OW33760   3.172   4.313   3.350 -0.4473  0.1221 -0.1635
 7375SOL    HW133761   3.239   4.295   3.285 -0.2740 -3.4540  0.9839
 7375SOL    HW233762   3.091   4.302   3.301 -1.0993  0.1234  0.9134
 7376SOL     OW33763   3.058   4.217   5.852 -0.5155  0.1645  0.0865
 7376SOL    HW133764   3.126   4.268   5.807 -0.6063 -0.1374 -0.3930
 7376SOL    HW233765   2.996   4.287   5.869 -0.7541  0.2746 -1.2681
 7377SOL     OW33766   0.796   1.712   6.072  0.2961 -0.0351  0.0756
 7377SOL    HW133767   0.813   1.757   6.155 -1.5840  1.8188 -0.5466
 7377SOL    HW233768   0.884   1.716   6.033 -0.2868  1.3158 -1.0742
 7378SOL     OW33769   3.463   0.674   9.008 -0.0336  0.4315  0.1897
 7378SOL    HW133770   3.526   0.613   9.048  0.4174 -0.0510 -1.2060
 7378SOL    HW233771   3.497   0.762   9.022  0.1662  0.0280  2.1603
 7379SOL     OW33772   3.645   3.599  12.101 -0.4183  0.1806  0.1278
 7379SOL    HW133773   3.583   3.606  12.028 -2.3072 -1.3566  1.5900
 7379SOL    HW233774   3.726   3.604  12.052 -0.0883  0.4418  0.7021
 7380SOL     OW33775   2.143   4.354   7.191  0.0103 -0.5195 -0.5231
 7380SOL    HW133776   2.180   4.441   7.178  1.1166 -0.9517 -0.2744
 7380SOL    HW233777   2.115   4.359   7.282 -0.5645  1.1134 -0.7914
 7381SOL     OW33778   2.827   1.168   6.710 -0.0763  0.0546 -0.0177
 7381SOL    HW133779   2.783   1.144   6.791 -0.4558 -0.3784 -0.3530
 7381SOL    HW233780   2.845   1.080   6.679  0.4870  0.7542 -1.7153
 7382SOL     OW33781   4.513   1.854  15.209 -0.2877 -0.2456 -0.5203
 7382SOL    HW133782   4.584   1.911  15.179  0.5937  0.7206  3.4456
 7382SOL    HW233783   4.549   1.766  15.218  0.3279  0.1413  0.7247
 7383SOL     OW33784   4.199   0.488   3.973  0.3762 -0.0962  0.1832
 7383SOL    HW133785   4.274   0.446   3.931  0.9436  0.1767  0.9335
 7383SOL    HW233786   4.123   0.471   3.917  1.1880  1.9686 -1.5242
 7384SOL     OW33787   3.491   0.564   2.529  0.9246  0.2203 -0.1094
 7384SOL    HW133788   3.464   0.648   2.567  1.5346  0.3730 -0.0144
 7384SOL    HW233789   3.519   0.523   2.610  1.2600 -1.4613 -1.0783
 7385SOL     OW33790   3.062   2.589   4.953 -0.2478 -0.2478 -0.4319
 7385SOL    HW133791   3.139   2.617   5.003  0.1365 -0.8014 -0.7135
 7385SOL    HW233792   3.026   2.530   5.019  1.2953 -0.6936  0.0150
 7386SOL     OW33793   2.442   2.493   0.792  0.0720 -0.6520  0.1803
 7386SOL    HW133794   2.507   2.454   0.851 -1.5048 -0.2432  2.1536
 7386SOL    HW233795   2.485   2.511   0.708 -1.5457 -1.1703 -0.7438
 7387SOL     OW33796   3.593   2.529   7.809  0.2535  0.3448 -0.2575
 7387SOL    HW133797   3.667   2.588   7.800 -0.2042  0.7428 -1.3578
 7387SOL    HW233798   3.590   2.517   7.904 -1.3831 -0.5834 -0.4269
 7388SOL     OW33799   2.703   3.830  16.554  0.0277  0.1624 -0.1779
 7388SOL    HW133800   2.677   3.850  16.643  0.2520  0.2327 -0.1273
 7388SOL    HW233801   2.781   3.885  16.547  0.1923 -0.2075 -1.3129
 7389SOL     OW33802   1.360   1.012   2.068  0.4752 -0.2546  0.3033
 7389SOL    HW133803   1.391   0.937   2.118 -0.7036 -1.0553 -0.1614
 7389SOL    HW233804   1.325   1.076   2.130 -0.4884  0.8204 -1.3581
 7390SOL     OW33805   1.335   0.174   5.831 -0.0928  0.5189  0.4394
 7390SOL    HW133806   1.294   0.170   5.918 -2.1529 -1.4611 -0.6136
 7390SOL    HW233807   1.423   0.149   5.858  0.2199  0.2918 -0.8248
 7391SOL     OW33808   3.839   0.007  15.583  0.3899 -0.2671 -0.3247
 7391SOL    HW133809   3.859   0.100  15.592 -1.0127  0.1548 -1.5239
 7391SOL    HW233810   3.906   4.718  15.521 -0.5599  0.3603 -1.6289
 7392SOL     OW33811   0.290   3.914   2.431  0.3442 -0.6959  0.1883
 7392SOL    HW133812   0.237   3.987   2.463 -2.0644 -2.2386 -0.2926
 7392SOL    HW233813   0.253   3.903   2.344 -1.3333  2.8436  0.4476
 7393SOL     OW33814   3.316   1.058   4.481  0.3318  0.1338  0.1395
 7393SOL    HW133815   3.360   1.134   4.520  1.1513  0.5144 -1.5417
 7393SOL    HW233816   3.395   1.010   4.458 -0.5357 -1.9182  1.4991
 7394SOL     OW33817   4.320   4.599   8.077  0.0110  0.4722  0.6703
 7394SOL    HW133818   4.358   4.548   8.005 -1.5003  0.2285  0.0498
 7394SOL    HW233819   4.231   4.596   8.042  0.1299  0.7847  0.3289
 7395SOL     OW33820   3.495   4.379  11.571 -0.1168  0.1840 -0.0105
 7395SOL    HW133821   3.582   4.411  11.551 -0.6483  1.3806 -0.4044
 7395SOL    HW233822   3.462   4.385  11.481  0.7404  0.1383 -0.3242
 7396SOL     OW33823   1.126   3.317   9.947  0.0174  0.3496 -0.5536
 7396SOL    HW133824   1.055   3.356   9.895 -1.5699  1.5523  2.5249
 7396SOL    HW233825   1.190   3.301   9.878  1.3056  2.9042  0.0363
 7397SOL     OW33826   2.134   0.082   2.569 -0.7021  0.2483  0.0085
 7397SOL    HW133827   2.215   0.051   2.527 -1.4430 -1.4266 -0.1646
 7397SOL    HW233828   2.083   0.002   2.582 -2.2810  1.2321 -0.2201
 7398SOL     OW33829   4.542   3.189   1.956  0.2339 -0.9012  0.0927
 7398SOL    HW133830   4.518   3.202   1.865  0.3263  0.1598  0.2170
 7398SOL    HW233831   4.629   3.151   1.944  1.0126  0.9676 -0.2060
 7399SOL     OW33832   3.937   3.220   3.133  0.1717  0.5742  0.3038
 7399SOL    HW133833   3.877   3.152   3.165 -0.3883  0.5473 -0.8176
 7399SOL    HW233834   4.019   3.185   3.167  0.4543  0.9529  0.0086
 7400SOL     OW33835   2.786   0.906   9.414 -0.3612 -0.3419 -0.1682
 7400SOL    HW133836   2.851   0.933   9.349  1.8571 -0.3450  2.0560
 7400SOL    HW233837   2.717   0.970   9.396 -2.4058 -2.3840  0.3556
 7401SOL     OW33838   1.614   2.416   6.617 -0.2663  0.2019  0.4861
 7401SOL    HW133839   1.580   2.329   6.598  3.3102 -0.8087 -1.3468
 7401SOL    HW233840   1.567   2.479   6.562  1.0229  0.9262  0.1908
 7402SOL     OW33841   2.817   1.096   3.709 -0.4914 -0.1640  0.2090
 7402SOL    HW133842   2.895   1.061   3.667 -0.5027 -0.3526  0.3455
 7402SOL    HW233843   2.760   1.032   3.666  1.7437 -1.7106 -0.4197
 7403SOL     OW33844   0.103   3.517   1.618  0.1870  0.0989  0.6690
 7403SOL    HW133845   0.101   3.423   1.599 -1.6860  0.1429  0.6468
 7403SOL    HW233846   0.135   3.505   1.707  0.5724  0.2867  0.5566
 7404SOL     OW33847   1.265   3.173   7.870  0.5296  0.0903  0.6203
 7404SOL    HW133848   1.233   3.167   7.960 -0.7834 -0.6526  0.0975
 7404SOL    HW233849   1.356   3.145   7.885 -0.4066 -1.8374  2.7139
 7405SOL     OW33850   4.184   1.110   4.706  0.3072 -0.1477  0.7799
 7405SOL    HW133851   4.209   1.019   4.722  1.4550  0.3433  1.7922
 7405SOL    HW233852   4.258   1.156   4.745  0.3735  1.2340 -0.9681
 7406SOL     OW33853   4.358   0.297   0.168 -0.4743  0.1198  0.1630
 7406SOL    HW133854   4.342   0.316   0.260 -2.4168 -4.1432  0.7003
 7406SOL    HW233855   4.279   0.332   0.126 -0.7811 -1.4203 -0.5496
 7407SOL     OW33856   3.747   1.308   3.202 -0.2368  0.0488 -0.1431
 7407SOL    HW133857   3.720   1.219   3.179 -0.2175 -0.2195  0.9002
 7407SOL    HW233858   3.721   1.304   3.294 -0.2658  0.8736 -0.1124
 7408SOL     OW33859   3.183   2.921   8.062  0.3411  0.3340 -0.1407
 7408SOL    HW133860   3.091   2.900   8.050  0.4000  0.6500 -1.2189
 7408SOL    HW233861   3.210   2.840   8.105  0.0694  1.3689  1.9568
 7409SOL     OW33862   4.407   3.941  11.936  0.3314 -0.4982  0.3145
 7409SOL    HW133863   4.406   3.889  11.855  0.0785 -1.0364  0.6664
 7409SOL    HW233864   4.461   4.018  11.918 -0.2424 -0.1180  0.2132
 7410SOL     OW33865   3.594   2.429   8.045 -0.3185 -0.4387 -0.4945
 7410SOL    HW133866   3.658   2.440   8.114  0.4181 -2.9133 -0.7639
 7410SOL    HW233867   3.544   2.352   8.072  0.6869 -1.2647 -0.9978
 7411SOL     OW33868   1.871   2.395   9.547 -0.2722  0.7085  0.0882
 7411SOL    HW133869   1.847   2.461   9.482 -2.4164 -0.9722 -0.8493
 7411SOL    HW233870   1.915   2.448   9.613  2.6692 -1.0112 -0.4946
 7412SOL     OW33871   0.649   4.690   7.430 -0.1676 -0.7832  0.2323
 7412SOL    HW133872   0.625   0.042   7.421 -0.6780 -0.6324  3.3461
 7412SOL    HW233873   0.682   4.690   7.519  0.3292  0.4650  0.0516
 7413SOL     OW33874   3.234   2.207   4.778 -1.4110  0.1987 -0.6010
 7413SOL    HW133875   3.306   2.144   4.770 -3.5825 -2.4724  0.9915
 7413SOL    HW233876   3.277   2.280   4.733  1.7066 -0.5792  1.1026
 7414SOL     OW33877   0.176   4.687   6.438 -0.1286 -0.3812 -0.3058
 7414SOL    HW133878   0.245   0.013   6.440  1.1874 -1.7183 -1.4892
 7414SOL    HW233879   0.218   4.614   6.483 -1.0881  0.8884  2.6371
 7415SOL     OW33880   3.588   4.164   2.539 -0.0751 -0.3650 -0.3283
 7415SOL    HW133881   3.658   4.139   2.478 -0.5390 -0.8547 -0.6655
 7415SOL    HW233882   3.615   4.253   2.562 -0.0989 -0.7241  1.0964
 7416SOL     OW33883   2.947   0.521  16.146 -0.4977 -0.1704  0.3784
 7416SOL    HW133884   2.899   0.439  16.132  1.9061 -1.7962  1.8280
 7416SOL    HW233885   2.927   0.529  16.239 -0.2149 -0.5134  0.4686
 7417SOL     OW33886   0.637   0.108  15.259  0.3251 -0.3104  0.2424
 7417SOL    HW133887   0.665   0.193  15.226 -0.9133  0.0877  0.2279
 7417SOL    HW233888   0.684   0.114  15.342  0.0551  0.9266  0.2951
 7418SOL     OW33889   2.043   2.262  12.971 -0.2785 -0.0030  0.1821
 7418SOL    HW133890   2.015   2.261  12.880 -0.2667 -1.6872  0.1972
 7418SOL    HW233891   2.095   2.342  12.982 -0.3375  0.0351  0.1824
 7419SOL     OW33892   4.155   0.342  17.143  0.3026  0.4146  0.0623
 7419SOL    HW133893   4.220   0.316  17.078 -0.6208  0.5181 -0.8968
 7419SOL    HW233894   4.084   0.365  17.084  0.0033 -0.2684  0.1485
 7420SOL     OW33895   0.663   3.845   7.942 -0.1301  0.1082 -0.3297
 7420SOL    HW133896   0.689   3.897   7.867 -0.6302 -0.2686 -0.7656
 7420SOL    HW233897   0.714   3.764   7.939  0.8693  0.7686 -0.9824
 7421SOL     OW33898   1.061   2.682   4.586 -0.6174 -0.5728 -0.0099
 7421SOL    HW133899   1.114   2.724   4.518 -2.0943  0.6139 -0.4249
 7421SOL    HW233900   1.130   2.664   4.650  1.1968  0.9590 -1.5033
 7422SOL     OW33901   1.982   3.238   7.053  0.1074 -0.7623 -0.2135
 7422SOL    HW133902   2.056   3.270   7.002 -0.1409 -0.3098 -0.2885
 7422SOL    HW233903   1.968   3.156   7.006 -0.6613 -0.2586 -0.8485
 7423SOL     OW33904   1.597   3.137   7.044 -0.0556  0.3898  0.4150
 7423SOL    HW133905   1.659   3.170   7.109  2.1806 -0.1098 -1.4506
 7423SOL    HW233906   1.653   3.095   6.979  0.0918 -0.5702  1.1581
 7424SOL     OW33907   4.215   2.648   5.320 -0.8408 -0.0137  0.0038
 7424SOL    HW133908   4.231   2.578   5.383 -0.0466 -1.5899 -1.9730
 7424SOL    HW233909   4.232   2.595   5.243  0.4062  2.2664 -1.2945
 7425SOL     OW33910   2.575   2.049   8.206 -0.3363 -0.3369  0.3831
 7425SOL    HW133911   2.479   2.050   8.206 -0.3083  2.6097  0.7712
 7425SOL    HW233912   2.584   1.978   8.270  0.9004 -0.2471  0.3122
 7426SOL     OW33913   0.693   1.238   5.441 -0.3067  0.0365 -0.2915
 7426SOL    HW133914   0.753   1.168   5.467  1.5206  0.7984 -2.5112
 7426SOL    HW233915   0.750   1.314   5.445  0.3493 -0.4725 -0.0434
 7427SOL     OW33916   1.948   4.252   1.285  0.2724  0.1742 -0.4907
 7427SOL    HW133917   1.984   4.332   1.323 -0.7608 -0.3160  1.5530
 7427SOL    HW233918   1.925   4.191   1.356 -0.4588 -0.0252 -0.8978
 7428SOL     OW33919   0.636   1.695   4.986  0.0039  0.1405  0.2354
 7428SOL    HW133920   0.631   1.604   4.957 -0.7756 -0.5409  2.5477
 7428SOL    HW233921   0.649   1.740   4.902 -1.9199 -0.9679 -0.6581
 7429SOL     OW33922   4.167   3.001   3.906 -0.1548 -0.3439  0.1731
 7429SOL    HW133923   4.182   3.018   3.999 -1.6884  1.3543  0.1128
 7429SOL    HW233924   4.085   3.050   3.895 -0.5202 -1.3983 -1.8267
 7430SOL     OW33925   1.515   4.526  13.517  0.2513 -0.2821 -0.4443
 7430SOL    HW133926   1.503   4.452  13.576 -1.2393  1.1474  1.0443
 7430SOL    HW233927   1.445   4.585  13.546  0.1543  0.3685 -1.9955
 7431SOL     OW33928   3.989   3.279   9.163  0.4507  0.3258  0.0134
 7431SOL    HW133929   4.068   3.297   9.113  0.1052  0.2847 -0.5579
 7431SOL    HW233930   4.014   3.315   9.248  2.4505  1.3101 -0.9863
 7432SOL     OW33931   2.888   1.470   9.330  0.0414  0.0756  0.0828
 7432SOL    HW133932   2.948   1.416   9.279  0.5007 -0.0133  0.7112
 7432SOL    HW233933   2.836   1.403   9.375  0.0957 -0.2420 -0.3309
 7433SOL     OW33934   2.188   3.742   7.086  0.0074 -0.2439  0.0251
 7433SOL    HW133935   2.226   3.805   7.147 -1.3518 -0.9145  1.5585
 7433SOL    HW233936   2.220   3.788   7.008  3.3089 -1.6836  0.5804
 7434SOL     OW33937   3.259   1.764   1.871 -0.4460  0.6759 -0.8546
 7434SOL    HW133938   3.347   1.762   1.908 -0.4071 -0.2016 -1.0134
 7434SOL    HW233939   3.236   1.841   1.923  2.8918  1.2826 -0.2483
 7435SOL     OW33940   0.210   2.710  13.323  0.1258  0.5609 -0.7819
 7435SOL    HW133941   0.240   2.665  13.402 -1.9886  1.2028  0.4011
 7435SOL    HW233942   0.218   2.803  13.343  1.1541  0.2671  0.1656
 7436SOL     OW33943   1.330   3.606  13.176  0.0727 -0.6086  0.3810
 7436SOL    HW133944   1.404   3.641  13.127 -1.0384 -0.1950 -1.0004
 7436SOL    HW233945   1.374   3.526  13.205 -0.2905 -1.2712 -0.9016
 7437SOL     OW33946   0.984   3.782  15.502  0.1071 -0.7346  0.3654
 7437SOL    HW133947   1.018   3.697  15.530 -0.6625 -1.1490  0.0552
 7437SOL    HW233948   1.039   3.797  15.425 -0.9094 -2.2450 -0.6683
 7438SOL     OW33949   4.166   0.517   8.595  0.3519 -0.2937  0.5723
 7438SOL    HW133950   4.083   0.499   8.639 -0.5565  0.9483 -0.6359
 7438SOL    HW233951   4.151   0.488   8.504 -0.1717 -0.3187  0.6677
 7439SOL     OW33952   4.682   3.944   5.919 -0.0792  0.1999 -0.0812
 7439SOL    HW133953   4.618   3.929   5.850 -0.3024 -1.4101  0.4853
 7439SOL    HW233954   4.629   3.954   5.998 -0.6521  0.1483 -0.4561
 7440SOL     OW33955   1.782   3.436   4.857  0.3519 -0.3765  0.0904
 7440SOL    HW133956   1.830   3.461   4.936  1.4161 -0.7724 -0.4235
 7440SOL    HW233957   1.776   3.340   4.858 -0.6377 -0.2923  1.2832
 7441SOL     OW33958   1.483   0.802  14.592  0.1145  0.0097 -0.4927
 7441SOL    HW133959   1.521   0.833  14.510 -0.9909  0.4710 -0.8221
 7441SOL    HW233960   1.431   0.875  14.624  1.2010 -0.3321  2.0877
 7442SOL     OW33961   3.529   2.563  15.130  0.8581  0.0544  0.1037
 7442SOL    HW133962   3.597   2.496  15.122  0.9245 -0.0265  1.3266
 7442SOL    HW233963   3.477   2.548  15.051 -0.0767 -0.2848  0.7774
 7443SOL     OW33964   2.008   1.125   7.508 -0.0539  0.7147 -0.2135
 7443SOL    HW133965   1.995   1.039   7.548 -0.8883 -0.4760 -3.0456
 7443SOL    HW233966   1.924   1.141   7.467 -0.5475  0.8569  0.8525
 7444SOL     OW33967   2.268   4.146   2.772 -0.8286 -0.6637 -0.5202
 7444SOL    HW133968   2.353   4.111   2.743 -0.5359 -1.5822  1.4308
 7444SOL    HW233969   2.282   4.171   2.864 -3.1368 -1.4568  0.0559
 7445SOL     OW33970   2.977   2.716   6.505 -0.2320 -0.0031 -0.1562
 7445SOL    HW133971   2.920   2.793   6.514  1.2342  0.8041  2.0234
 7445SOL    HW233972   3.056   2.732   6.555  1.2850 -0.3598 -2.4437
 7446SOL     OW33973   3.675   3.925  15.725 -0.0036  0.1769 -0.0152
 7446SOL    HW133974   3.673   4.020  15.737  0.2857  0.2780 -0.7254
 7446SOL    HW233975   3.646   3.915  15.634 -0.2876 -0.1529  0.1117
 7447SOL     OW33976   3.586   4.350   8.155 -0.3917 -0.4435 -0.5198
 7447SOL    HW133977   3.525   4.424   8.154  2.6007  2.0258 -1.2976
 7447SOL    HW233978   3.551   4.296   8.226  0.2636 -0.1994 -0.0033
 7448SOL     OW33979   0.557   2.872   8.855 -0.7981 -1.1965 -0.5296
 7448SOL    HW133980   0.517   2.959   8.866 -0.9587 -1.3824  0.3971
 7448SOL    HW233981   0.616   2.867   8.930  0.0975 -0.5609 -1.1973
 7449SOL     OW33982   3.947   0.616   0.164 -0.0514  0.1702  0.0828
 7449SOL    HW133983   3.992   0.701   0.164  0.1451  0.0596  1.5012
 7449SOL    HW233984   3.897   0.617   0.245  0.9420 -1.1812  0.7075
 7450SOL     OW33985   1.519   0.941  17.581 -0.3873 -0.1725  0.0144
 7450SOL    HW133986   1.462   0.899  17.517  1.1408 -1.1448 -0.6940
 7450SOL    HW233987   1.458   1.007  17.613  0.3639  0.0737  0.9532
 7451SOL     OW33988   2.587   4.281   9.692 -0.0622  0.0562  0.2168
 7451SOL    HW133989   2.504   4.327   9.706 -1.3159 -1.8311 -0.9355
 7451SOL    HW233990   2.645   4.357   9.693  1.4350 -1.0953  0.1116
 7452SOL     OW33991   2.051   1.465   2.646 -0.1657  0.2575 -0.1541
 7452SOL    HW133992   2.084   1.477   2.735  0.4002 -1.3991 -0.1440
 7452SOL    HW233993   1.996   1.388   2.659 -0.2099  0.3458  0.1898
 7453SOL     OW33994   0.655   1.685   9.748 -0.7647 -0.9810  0.1828
 7453SOL    HW133995   0.577   1.675   9.694 -1.0630 -2.1111  0.8320
 7453SOL    HW233996   0.666   1.780   9.738  1.9290 -1.6307 -3.1989
 7454SOL     OW33997   3.665   2.723   1.930  0.1018  0.3062  0.1544
 7454SOL    HW133998   3.702   2.662   1.994  0.8251  0.3162 -0.2473
 7454SOL    HW233999   3.576   2.744   1.955  0.6645  1.4062  1.2061
 7455SOL     OW34000   0.358   3.043   5.089 -0.4389 -0.2540  0.0819
 7455SOL    HW134001   0.316   3.105   5.149 -0.0465 -0.4558  0.5635
 7455SOL    HW234002   0.400   2.979   5.146 -0.0931  0.4890  0.6556
 7456SOL     OW34003   1.698   3.637   7.516  0.3088  0.1582 -0.0448
 7456SOL    HW134004   1.610   3.654   7.482  0.8563 -0.4831 -1.7487
 7456SOL    HW234005   1.706   3.548   7.482 -1.6919 -0.1316  0.2533
 7457SOL     OW34006   4.417   0.502  11.914 -0.2412 -0.3996 -0.5490
 7457SOL    HW134007   4.432   0.592  11.945  0.6728 -1.1691  1.2616
 7457SOL    HW234008   4.385   0.461  11.995  1.2324 -1.4220 -0.4757
 7458SOL     OW34009   3.924   0.606  16.517 -0.0247 -0.4749  0.2324
 7458SOL    HW134010   3.977   0.612  16.437 -0.5555 -1.8993 -0.2291
 7458SOL    HW234011   3.857   0.545  16.487 -1.3485  1.4903 -0.7870
 7459SOL     OW34012   3.533   2.206   4.746  0.2239 -0.3265  0.0480
 7459SOL    HW134013   3.538   2.157   4.828  0.0551  1.7558  1.3062
 7459SOL    HW234014   3.542   2.136   4.681  2.0598  0.7860 -0.8998
 7460SOL     OW34015   4.583   2.569   1.720 -0.1169  0.4982  0.4693
 7460SOL    HW134016   4.517   2.625   1.758 -1.1469  0.2084 -0.8830
 7460SOL    HW234017   4.643   2.634   1.683 -2.9432  2.2783 -0.9279
 7461SOL     OW34018   4.117   2.932  15.524 -0.5842  0.1345  0.4648
 7461SOL    HW134019   4.046   2.942  15.460  0.1407  0.8306 -0.2363
 7461SOL    HW234020   4.110   2.838  15.540  1.0767 -0.2395 -0.9855
 7462SOL     OW34021   0.903   2.344   3.447  0.0160 -0.1685 -0.5824
 7462SOL    HW134022   0.903   2.434   3.480  0.4386 -0.4075  0.0660
 7462SOL    HW234023   0.825   2.319   3.496  0.2850  0.5840  0.2372
 7463SOL     OW34024   3.083   3.671   7.612  0.0554  0.2710 -0.8095
 7463SOL    HW134025   3.072   3.577   7.625  0.8169  0.3714  0.4966
 7463SOL    HW234026   3.154   3.690   7.673 -1.8357 -0.5720  1.6309
 7464SOL     OW34027   4.617   0.990  10.669 -0.1624 -0.1389  0.1743
 7464SOL    HW134028   4.664   1.072  10.678  1.0675 -0.7126 -1.0879
 7464SOL    HW234029   4.608   0.973  10.763  0.0475 -2.6544 -0.2593
 7465SOL     OW34030   4.698   2.051  17.540 -0.3061  0.2198 -0.0341
 7465SOL    HW134031   4.719   1.968  17.498  0.2130  1.3338 -1.9711
 7465SOL    HW234032   4.658   2.102  17.469 -2.1234  2.1005  2.3483
 7466SOL     OW34033   1.537   3.113   4.819 -0.1415  0.6285 -0.5801
 7466SOL    HW134034   1.450   3.150   4.806 -0.6506 -0.1471  0.6353
 7466SOL    HW234035   1.552   3.043   4.756 -1.7520  0.3587 -0.6481
 7467SOL     OW34036   2.406   4.599  16.356 -0.9264 -0.0113  0.0987
 7467SOL    HW134037   2.397   4.628  16.447 -1.6989  1.1686 -0.3553
 7467SOL    HW234038   2.501   4.590  16.358 -0.9647 -0.0485  1.8910
 7468SOL     OW34039   3.407   0.612   1.755  0.3880 -0.2434  0.2455
 7468SOL    HW134040   3.317   0.592   1.780 -0.8102  0.7135 -3.3213
 7468SOL    HW234041   3.454   0.533   1.781 -1.4362 -1.4853 -0.2157
 7469SOL     OW34042   3.378   2.142   5.444 -0.1147  0.2460 -0.0597
 7469SOL    HW134043   3.473   2.142   5.456 -0.3001  1.8136  1.2994
 7469SOL    HW234044   3.360   2.196   5.367  0.2263  0.6832  0.1695
 7470SOL     OW34045   3.925   3.395   5.948  0.2930 -0.2697  0.2421
 7470SOL    HW134046   4.017   3.394   5.921 -0.0597  2.7114 -1.0225
 7470SOL    HW234047   3.932   3.370   6.040  1.5304 -0.6492  0.0567
 7471SOL     OW34048   2.390   4.457   4.777  0.4044 -0.1146 -0.0561
 7471SOL    HW134049   2.429   4.502   4.703  2.6606 -0.4336  0.9328
 7471SOL    HW234050   2.301   4.489   4.761  0.7107  1.5581  1.4705
 7472SOL     OW34051   0.387   2.566   5.483 -0.4290 -0.1066  0.2359
 7472SOL    HW134052   0.292   2.560   5.492 -0.5692 -0.1528 -1.1876
 7472SOL    HW234053   0.395   2.475   5.452  2.3086 -0.1402  1.0436
 7473SOL     OW34054   1.168   3.015  13.298 -0.0048 -0.3758  0.1103
 7473SOL    HW134055   1.118   3.078  13.246 -0.7689 -0.5125  0.6848
 7473SOL    HW234056   1.144   3.044  13.386 -1.0699  1.0580 -0.6485
 7474SOL     OW34057   0.163   1.124   7.067  0.1860 -0.2497  0.0425
 7474SOL    HW134058   0.130   1.183   6.999 -3.7539 -3.0685 -0.5598
 7474SOL    HW234059   0.131   1.180   7.137 -0.0190  0.6571 -0.7807
 7475SOL     OW34060   2.622   0.236  10.932 -0.4933 -0.3955  0.2869
 7475SOL    HW134061   2.653   0.225  11.022  1.5076 -1.1754 -0.4918
 7475SOL    HW234062   2.530   0.259  10.942 -0.8791 -2.0956  0.7671
 7476SOL     OW34063   1.200   1.279   6.098  0.1045 -0.1462  0.5815
 7476SOL    HW134064   1.228   1.369   6.115  1.5040 -0.5844  0.5453
 7476SOL    HW234065   1.156   1.255   6.179  0.4142 -0.5703  0.6209
 7477SOL     OW34066   1.869   3.335   7.786  0.4784  0.3310 -0.5642
 7477SOL    HW134067   1.808   3.283   7.839  0.2081  0.2728 -0.9357
 7477SOL    HW234068   1.941   3.272   7.780 -0.1715 -0.6787  2.2935
 7478SOL     OW34069   3.575   3.809   8.723  0.3915  0.1115 -0.1677
 7478SOL    HW134070   3.532   3.795   8.807  0.1563 -0.8631 -0.4456
 7478SOL    HW234071   3.580   3.904   8.725 -0.0550  0.1049  0.9757
 7479SOL     OW34072   1.832   3.759   0.193 -0.6818 -0.4252 -0.2681
 7479SOL    HW134073   1.878   3.806   0.263 -1.1795  2.4628 -1.9026
 7479SOL    HW234074   1.839   3.821   0.121  0.6759  0.0143  0.2353
 7480SOL     OW34075   1.424   0.844   3.825  0.2596  0.2892  0.5701
 7480SOL    HW134076   1.338   0.855   3.866  0.2548  0.4370  0.5188
 7480SOL    HW234077   1.473   0.814   3.902 -1.6105  4.9832  3.5580
 7481SOL     OW34078   2.556   0.826   7.676 -0.2877  0.7380 -0.2880
 7481SOL    HW134079   2.553   0.731   7.690 -1.1391  0.9781  1.1619
 7481SOL    HW234080   2.608   0.848   7.754 -1.6758 -1.6358  1.3179
 7482SOL     OW34081   1.777   2.959   0.020 -0.0467 -0.0914 -0.0696
 7482SOL    HW134082   1.780   2.875  17.733 -0.0277  0.1105 -0.4478
 7482SOL    HW234083   1.780   2.927   0.110 -0.2356 -2.1122 -0.7780
 7483SOL     OW34084   2.000   3.921   5.519 -0.5250  0.0837 -0.7134
 7483SOL    HW134085   2.032   3.906   5.608  0.6103  0.2658 -1.0961
 7483SOL    HW234086   1.912   3.882   5.523  0.1117 -1.4552 -1.7816
 7484SOL     OW34087   1.902   2.126  16.528 -0.2070 -0.3274  0.5705
 7484SOL    HW134088   1.902   2.071  16.450  1.1431  0.7866 -0.1987
 7484SOL    HW234089   1.828   2.186  16.525  0.3977  0.4094  0.3926
 7485SOL     OW34090   2.217   0.200   1.849  0.1111 -0.0786  0.1943
 7485SOL    HW134091   2.279   0.130   1.871  0.9264  0.1379 -1.4310
 7485SOL    HW234092   2.239   0.224   1.759  0.6218 -1.6814 -0.1137
 7486SOL     OW34093   0.405   4.314  12.849 -0.8772  0.3506  0.5398
 7486SOL    HW134094   0.402   4.341  12.940 -0.3077  0.5786  0.4866
 7486SOL    HW234095   0.358   4.388  12.810 -1.1550  0.1652  0.5178
 7487SOL     OW34096   4.426   4.422   5.619 -0.1967  0.0342  0.3971
 7487SOL    HW134097   4.417   4.465   5.704 -2.4215  0.3187  0.0149
 7487SOL    HW234098   4.389   4.490   5.563 -0.3135  0.9013  1.5225
 7488SOL     OW34099   0.569   0.754  14.639  0.4883  0.4378 -0.1965
 7488SOL    HW134100   0.661   0.771  14.659  0.1756 -0.2317  1.8028
 7488SOL    HW234101   0.547   0.703  14.717 -1.5210 -1.2662 -1.8821
 7489SOL     OW34102   0.230   2.152   7.184 -0.0732  0.0533  0.0163
 7489SOL    HW134103   0.193   2.238   7.163 -0.2899 -0.1919 -0.5890
 7489SOL    HW234104   0.189   2.102   7.115  0.2201 -0.6683  0.3651
 7490SOL     OW34105   1.174   2.946   2.217 -0.2548  0.1263 -0.0671
 7490SOL    HW134106   1.131   2.862   2.205  0.0486  0.0326 -0.5013
 7490SOL    HW234107   1.107   2.972   2.279  0.2128  2.1901 -0.4065
 7491SOL     OW34108   0.016   0.963   2.304 -0.1618  0.4395 -0.5761
 7491SOL    HW134109   0.068   0.886   2.327 -0.7935  0.2099  0.0687
 7491SOL    HW234110   4.734   0.951   2.212  0.3502  0.5712 -0.7188
 7492SOL     OW34111   2.765   3.005   8.494  0.3041 -0.0369  0.2109
 7492SOL    HW134112   2.799   2.952   8.566 -1.5472  0.8958  1.7688
 7492SOL    HW234113   2.726   2.940   8.435 -1.6447  0.5269  0.8913
 7493SOL     OW34114   3.250   1.322   9.783  0.1577  0.1826 -0.0994
 7493SOL    HW134115   3.188   1.384   9.745  1.3322 -0.2998 -2.8534
 7493SOL    HW234116   3.191   1.284   9.847 -1.7357 -0.8878 -2.5098
 7494SOL     OW34117   3.384   4.344   7.626 -0.7889  0.3018 -0.6143
 7494SOL    HW134118   3.446   4.271   7.629  0.5999  1.5398  1.1937
 7494SOL    HW234119   3.298   4.320   7.659 -0.8492  1.9729  0.4586
 7495SOL     OW34120   0.658   2.491  14.807  0.0447 -0.0266  0.1836
 7495SOL    HW134121   0.587   2.438  14.842 -0.7338  0.7960 -0.1653
 7495SOL    HW234122   0.709   2.503  14.887 -0.2369 -1.1177  0.5328
 7496SOL     OW34123   2.649   1.652   7.081  0.2571 -0.2257  0.2267
 7496SOL    HW134124   2.635   1.587   7.150  4.6360 -1.7360 -0.3265
 7496SOL    HW234125   2.657   1.733   7.130 -1.5537  1.0534 -1.6064
 7497SOL     OW34126   4.535   3.637   9.146  0.2810 -0.6963 -0.1737
 7497SOL    HW134127   4.626   3.654   9.170  0.3578 -0.6009 -0.5426
 7497SOL    HW234128   4.527   3.687   9.065  0.0997 -1.9755 -0.9327
 7498SOL     OW34129   2.306   0.893   5.240 -0.1376 -0.8692 -0.7216
 7498SOL    HW134130   2.277   0.909   5.150 -1.5558 -1.2975 -0.3405
 7498SOL    HW234131   2.240   0.939   5.292  1.2110 -1.2290  1.2906
 7499SOL     OW34132   0.506   2.406   5.946 -0.2571 -0.4024 -0.1174
 7499SOL    HW134133   0.587   2.401   5.895  0.0025 -1.9266  0.4568
 7499SOL    HW234134   0.444   2.408   5.873 -1.6786 -1.9748  1.0603
 7500SOL     OW34135   3.372   3.258   3.808 -0.3786 -0.4431  0.2744
 7500SOL    HW134136   3.395   3.181   3.860 -1.7052 -0.6296  0.5672
 7500SOL    HW234137   3.281   3.277   3.831  1.3706  1.9079  5.0745
 7501SOL     OW34138   3.457   3.286   1.645  0.4369  0.5122 -0.3196
 7501SOL    HW134139   3.476   3.306   1.553 -0.6563  0.1848 -0.6194
 7501SOL    HW234140   3.399   3.213   1.626  1.9986 -0.4323 -1.5007
 7502SOL     OW34141   4.512   3.625   5.376 -0.4541  0.6300  0.1512
 7502SOL    HW134142   4.606   3.629   5.357 -0.6189 -1.1476 -1.0795
 7502SOL    HW234143   4.497   3.535   5.348 -1.8699  0.7348  0.5656
 7503SOL     OW34144   4.542   0.147   8.259  0.2789 -0.3598  0.1925
 7503SOL    HW134145   4.506   0.090   8.326  2.1191 -2.3655 -0.5144
 7503SOL    HW234146   4.522   0.107   8.174  0.3796  1.1936 -0.5630
 7504SOL     OW34147   4.066   4.475   2.280 -0.0515 -0.3058 -0.0778
 7504SOL    HW134148   4.010   4.441   2.349  0.2026 -0.3063  0.1294
 7504SOL    HW234149   4.059   4.408   2.212  2.4405 -1.1834  0.5170
 7505SOL     OW34150   4.680   3.517  12.039 -0.1002 -0.3850  0.6372
 7505SOL    HW134151   4.690   3.571  12.118 -2.2865  2.4362 -1.0757
 7505SOL    HW234152   0.027   3.477  12.043  1.1629  2.0729 -2.8344
 7506SOL     OW34153   3.979   0.996   1.968  0.2515 -0.0435 -0.2558
 7506SOL    HW134154   3.888   1.000   1.939  0.5446  2.1834 -0.9058
 7506SOL    HW234155   3.999   1.086   1.943 -0.9080  0.2268 -0.2103
 7507SOL     OW34156   3.374   4.432  17.641 -0.2049  0.5550 -0.0380
 7507SOL    HW134157   3.381   4.516  17.686  0.3535  0.4354  0.1030
 7507SOL    HW234158   3.380   4.370  17.714 -0.4889  0.9425  0.3119
 7508SOL     OW34159   1.793   2.242   6.763  0.1218  0.2970  0.3928
 7508SOL    HW134160   1.714   2.283   6.729  1.0058  0.4456 -1.4676
 7508SOL    HW234161   1.801   2.278   6.852 -0.1609  0.7930  0.2140
 7509SOL     OW34162   2.841   1.990  15.316 -0.4697  0.3326  0.0181
 7509SOL    HW134163   2.852   1.917  15.377 -0.1291  1.6776  1.5393
 7509SOL    HW234164   2.879   1.965  15.231  2.5848  2.3047  0.8421
 7510SOL     OW34165   1.225   1.474  17.746  0.6273 -0.3616 -0.3903
 7510SOL    HW134166   1.159   1.415   0.022 -0.6418 -0.7209 -3.4026
 7510SOL    HW234167   1.175   1.536  17.693  1.0919 -1.9559 -2.7190
 7511SOL     OW34168   0.956   3.710   3.445 -0.0342  0.2270  0.6459
 7511SOL    HW134169   1.037   3.740   3.487  0.7136 -0.5717 -0.2432
 7511SOL    HW234170   0.929   3.788   3.396  0.8476 -0.2776 -0.6254
 7512SOL     OW34171   1.998   3.387   3.082  0.5176 -0.4625 -0.0224
 7512SOL    HW134172   2.079   3.435   3.068  0.1423 -0.6562 -2.9653
 7512SOL    HW234173   1.933   3.447   3.042  2.6153  1.5493 -0.4083
 7513SOL     OW34174   0.389   2.103   6.900 -0.3461  0.3841 -0.1033
 7513SOL    HW134175   0.300   2.138   6.898 -0.2651  0.5843 -0.3368
 7513SOL    HW234176   0.441   2.179   6.874 -0.3440  1.3789  2.8167
 7514SOL     OW34177   4.244   0.770   5.999  0.3256  0.1636  0.9684
 7514SOL    HW134178   4.229   0.684   5.960 -1.2861  0.2629  1.3750
 7514SOL    HW234179   4.310   0.820   5.950 -0.7141  3.0904  2.5075
 7515SOL     OW34180   1.813   3.038   9.668  0.9883  0.0809 -0.4046
 7515SOL    HW134181   1.879   3.103   9.690 -0.4932  0.9302  1.5431
 7515SOL    HW234182   1.744   3.088   9.626  0.8449  1.7136  1.8112
 7516SOL     OW34183   0.872   1.136  11.640  0.5954  0.5298  0.4560
 7516SOL    HW134184   0.858   1.135  11.545  0.8815  0.2994  0.4146
 7516SOL    HW234185   0.966   1.155  11.651  1.1224 -1.0988 -1.1002
 7517SOL     OW34186   0.463   4.325   5.277  0.1639 -0.2308 -0.0134
 7517SOL    HW134187   0.538   4.279   5.240 -0.5867 -1.7235  0.3305
 7517SOL    HW234188   0.515   4.381   5.335 -2.4973  1.8215  0.3920
 7518SOL     OW34189   0.424   0.008   6.962  0.5549 -0.1770  0.2641
 7518SOL    HW134190   0.506   4.728   7.007  1.1472  1.2592 -0.1759
 7518SOL    HW234191   0.437   4.687   6.891  0.6289 -1.4885  1.4074
 7519SOL     OW34192   0.030   3.361   2.569  0.1022 -0.0955  0.0973
 7519SOL    HW134193   0.067   3.435   2.618  1.6089  0.2426 -1.5305
 7519SOL    HW234194   4.705   3.400   2.511  0.2023 -1.9291 -1.2423
 7520SOL     OW34195   3.395   1.873   7.718  0.2519  0.1393 -0.9192
 7520SOL    HW134196   3.448   1.952   7.707  0.9991 -0.1339  0.7337
 7520SOL    HW234197   3.309   1.899   7.684 -0.4720  0.0439  0.8189
 7521SOL     OW34198   2.870   1.493   9.972  0.4253 -0.3365 -0.0715
 7521SOL    HW134199   2.895   1.437  10.046 -2.0863 -1.4796 -0.0818
 7521SOL    HW234200   2.790   1.541   9.994 -0.5453 -1.2663 -1.5568
 7522SOL     OW34201   3.888   0.057   2.619 -0.0699  0.6481 -0.0068
 7522SOL    HW134202   3.875   0.053   2.525  0.5257 -1.2403 -0.0114
 7522SOL    HW234203   3.822   0.125   2.636 -0.1539  0.5059  0.2387
 7523SOL     OW34204   3.529   3.152  11.425 -0.5109 -0.3768 -0.1544
 7523SOL    HW134205   3.563   3.242  11.429  1.9892 -1.3889  1.3218
 7523SOL    HW234206   3.492   3.141  11.513  2.3849  0.0581  1.1228
 7524SOL     OW34207   3.314   1.334   9.049 -0.9196  0.2848 -0.2656
 7524SOL    HW134208   3.297   1.293   8.964 -0.6597  2.7305 -1.5113
 7524SOL    HW234209   3.260   1.292   9.116 -0.0685  3.4722  2.4151
 7525SOL     OW34210   3.884   2.552   6.355 -0.0401 -0.1366 -0.0438
 7525SOL    HW134211   3.968   2.564   6.399 -0.1621  1.1728 -0.1513
 7525SOL    HW234212   3.912   2.552   6.264 -1.8734  0.0837 -0.6119
 7526SOL     OW34213   0.460   0.352   6.377  0.0521  0.5682 -0.3171
 7526SOL    HW134214   0.551   0.328   6.362  0.1619 -0.0776  1.3865
 7526SOL    HW234215   0.444   0.383   6.288 -0.7214  0.2013 -0.3031
 7527SOL     OW34216   2.436   3.094   6.379 -0.0660 -0.0005 -0.3914
 7527SOL    HW134217   2.410   3.168   6.433  3.7804 -1.4541  3.4819
 7527SOL    HW234218   2.515   3.137   6.347 -0.2192  1.4180  1.1586
 7528SOL     OW34219   4.508   3.434   4.311 -0.6529  0.3176 -0.4179
 7528SOL    HW134220   4.579   3.461   4.254  1.8579 -1.3942  1.8917
 7528SOL    HW234221   4.524   3.482   4.392 -2.2797  1.0586 -0.5265
 7529SOL     OW34222   2.516   3.135   5.925 -0.5314  0.4748  0.2173
 7529SOL    HW134223   2.455   3.063   5.907  1.2784 -1.0129  0.0873
 7529SOL    HW234224   2.516   3.179   5.840 -0.8119 -2.2956 -1.2150
 7530SOL     OW34225   1.665   1.891  12.967 -0.6337  0.4420 -0.0586
 7530SOL    HW134226   1.574   1.884  12.938 -0.0631 -1.5076 -1.4065
 7530SOL    HW234227   1.655   1.966  13.025  2.5424 -1.6144  3.1343
 7531SOL     OW34228   2.738   1.082   2.257 -0.1038  0.1072 -0.1714
 7531SOL    HW134229   2.814   1.042   2.215  0.0342 -1.2315  1.3601
 7531SOL    HW234230   2.743   1.176   2.242  1.3536  0.1634  0.7506
 7532SOL     OW34231   0.969   4.579   8.960 -0.0321  0.5395  0.2730
 7532SOL    HW134232   0.904   4.550   8.895 -1.3964  0.5099  1.6462
 7532SOL    HW234233   0.931   4.539   9.038  2.2079 -0.5525  0.7857
 7533SOL     OW34234   3.079   4.260   4.710 -0.3990  0.0607  0.0124
 7533SOL    HW134235   3.059   4.192   4.774 -1.2019  0.2086 -0.0782
 7533SOL    HW234236   2.991   4.278   4.678 -0.5885 -2.2234 -0.7453
 7534SOL     OW34237   1.394   3.463   4.100  0.2386  0.3656  0.5235
 7534SOL    HW134238   1.406   3.429   4.188 -3.1922  1.4945  1.4207
 7534SOL    HW234239   1.424   3.385   4.054  0.0011  0.0256  0.9487
 7535SOL     OW34240   0.102   2.918   8.051 -0.2005 -0.7541 -0.9270
 7535SOL    HW134241   0.089   3.007   8.083  4.0210 -0.1565 -0.7915
 7535SOL    HW234242   0.121   2.868   8.131  2.1311  1.1311 -0.2979
 7536SOL     OW34243   2.168   4.472   3.923 -0.5999  0.4708 -0.1408
 7536SOL    HW134244   2.229   4.532   3.965  0.6370 -0.5796 -0.4683
 7536SOL    HW234245   2.177   4.401   3.986 -2.0578  1.1271  0.8224
 7537SOL     OW34246   1.822   0.653   2.158  0.3716 -0.5732 -0.0208
 7537SOL    HW134247   1.756   0.644   2.090  0.9530  1.0066 -0.8027
 7537SOL    HW234248   1.905   0.667   2.112  0.3483 -1.3931 -0.3165
 7538SOL     OW34249   3.805   1.964  12.116  0.2580 -0.2311  0.6639
 7538SOL    HW134250   3.844   1.880  12.092 -0.2359 -0.5664  1.0438
 7538SOL    HW234251   3.722   1.933  12.152 -0.3148  0.3183 -0.1951
 7539SOL     OW34252   3.905   2.225   8.476 -0.5845  0.1857 -0.1408
 7539SOL    HW134253   3.989   2.271   8.471 -0.6046  0.5758  3.1641
 7539SOL    HW234254   3.850   2.290   8.432 -0.9767 -1.1380 -1.6143
 7540SOL     OW34255   4.017   3.582   7.888 -0.0516  0.3363 -0.2478
 7540SOL    HW134256   4.040   3.661   7.839  0.5813  0.3042  0.0003
 7540SOL    HW234257   3.926   3.576   7.858  0.5925  3.3537 -2.8511
 7541SOL     OW34258   3.526   0.226  11.367  0.2251 -0.1885  0.4141
 7541SOL    HW134259   3.525   0.135  11.398  0.0143  0.3328  1.9586
 7541SOL    HW234260   3.573   0.276  11.434  2.6572 -2.5890  0.5163
 7542SOL     OW34261   2.223   2.093  11.648  0.1762 -0.3240  0.4307
 7542SOL    HW134262   2.257   2.023  11.704 -1.1268 -0.4958  1.0159
 7542SOL    HW234263   2.209   2.054  11.562 -1.0248  1.6161 -0.2508
 7543SOL     OW34264   0.203   3.421   6.432 -0.1297 -0.5555 -0.0988
 7543SOL    HW134265   0.229   3.506   6.468  1.6147 -1.5192  0.9359
 7543SOL    HW234266   0.213   3.368   6.512 -0.6519 -1.2681 -0.5075
 7544SOL     OW34267   1.222   0.725  13.735 -0.6863 -0.3640 -0.3547
 7544SOL    HW134268   1.282   0.778  13.683 -3.1092  1.4359 -1.3171
 7544SOL    HW234269   1.279   0.704  13.809 -0.6703  0.1872 -0.2140
 7545SOL     OW34270   3.049   3.759   4.495  0.0623 -0.2734 -0.4725
 7545SOL    HW134271   3.110   3.804   4.436  1.8486  0.8335  2.2011
 7545SOL    HW234272   3.048   3.667   4.466 -0.4831 -0.4188  0.0035
 7546SOL     OW34273   3.765   2.591   2.172  0.3558 -0.6034  0.3753
 7546SOL    HW134274   3.764   2.670   2.226 -0.6837 -0.0621 -0.4354
 7546SOL    HW234275   3.796   2.523   2.232  0.6335  0.3068  1.2737
 7547SOL     OW34276   0.479   4.129  11.136 -0.2704  0.3431 -0.1381
 7547SOL    HW134277   0.430   4.051  11.110 -1.4528  1.3637 -1.0002
 7547SOL    HW234278   0.406   4.191  11.135  0.9926  1.8273  0.5606
 7548SOL     OW34279   1.401   0.223  14.634  0.1378  0.2675  0.5530
 7548SOL    HW134280   1.308   0.245  14.640  0.8376  2.4033  3.7076
 7548SOL    HW234281   1.436   0.306  14.603  0.0756  0.5826  1.3239
 7549SOL     OW34282   3.223   2.799   6.624 -0.0426  0.1870  0.3234
 7549SOL    HW134283   3.229   2.825   6.716 -2.5474 -0.1076  0.5695
 7549SOL    HW234284   3.296   2.737   6.627 -0.7487 -0.6491  0.0943
 7550SOL     OW34285   2.691   2.779   8.971 -0.0789  0.2778  0.0953
 7550SOL    HW134286   2.726   2.867   8.982 -0.5677  0.4798  0.0138
 7550SOL    HW234287   2.747   2.719   9.020 -0.3924 -1.2212 -1.3714
 7551SOL     OW34288   0.329   1.563   2.239 -0.2081  0.1747  0.0028
 7551SOL    HW134289   0.350   1.652   2.210 -2.1046  0.5017 -0.3930
 7551SOL    HW234290   0.273   1.587   2.312 -0.5524 -1.0672  0.1441
 7552SOL     OW34291   0.496   1.864   9.188  0.3708  0.3016 -0.8766
 7552SOL    HW134292   0.435   1.906   9.127 -0.8055 -0.5365 -0.2634
 7552SOL    HW234293   0.489   1.922   9.264  2.2420 -1.6713  0.7990
 7553SOL     OW34294   2.669   1.829   8.303  0.3974  0.5223 -0.1532
 7553SOL    HW134295   2.682   1.734   8.311  1.7395  0.9082  2.4770
 7553SOL    HW234296   2.716   1.844   8.222  0.2528  0.4744 -0.2456
 7554SOL     OW34297   2.536   1.156   3.883 -0.4200  0.3487 -0.0736
 7554SOL    HW134298   2.540   1.213   3.960 -0.5154 -0.4818  0.5400
 7554SOL    HW234299   2.587   1.205   3.818  0.6810 -0.2535  0.3235
 7555SOL     OW34300   0.204   1.905  13.331  0.0169  0.8817  0.1149
 7555SOL    HW134301   0.139   1.944  13.273  0.5831  2.0172  0.2474
 7555SOL    HW234302   0.283   1.936  13.288 -1.3002 -0.6177 -3.4018
 7556SOL     OW34303   2.658   4.368   3.181  0.9429 -0.0987  0.0266
 7556SOL    HW134304   2.658   4.387   3.274  0.7535  0.3257 -0.0609
 7556SOL    HW234305   2.694   4.446   3.139 -0.2606  0.4324 -0.0177
 7557SOL     OW34306   2.527   0.023   5.682  0.2720 -0.3014  0.2112
 7557SOL    HW134307   2.520   4.734   5.773 -0.0676  0.1101  0.3158
 7557SOL    HW234308   2.612   4.727   5.655  0.6043  0.1446  0.6592
 7558SOL     OW34309   0.627   2.245   6.682  0.2573 -0.4496  0.4805
 7558SOL    HW134310   0.603   2.280   6.768 -0.5116  1.0822 -0.3361
 7558SOL    HW234311   0.621   2.329   6.636 -2.9915 -1.2075 -0.5034
 7559SOL     OW34312   1.706   3.264   5.678 -0.1834  0.2723 -0.1775
 7559SOL    HW134313   1.650   3.198   5.718  0.6604 -0.3497 -0.0311
 7559SOL    HW234314   1.674   3.273   5.588  0.4633  1.9449 -0.2415
 7560SOL     OW34315   3.153   1.000   5.345 -0.1573 -0.2029  0.1201
 7560SOL    HW134316   3.213   0.932   5.377 -1.4565 -1.2401  0.3480
 7560SOL    HW234317   3.200   1.031   5.268  0.3856 -1.3835 -0.0329
 7561SOL     OW34318   1.544   2.448   9.382  0.8516  0.3658 -0.4784
 7561SOL    HW134319   1.553   2.363   9.426  0.6521  0.7182  0.2455
 7561SOL    HW234320   1.565   2.510   9.451 -0.8290  1.5422 -1.0295
 7562SOL     OW34321   4.294   3.642   9.386  0.1308  0.3983  0.8594
 7562SOL    HW134322   4.231   3.714   9.385 -0.1454  0.1523  0.3219
 7562SOL    HW234323   4.352   3.668   9.457 -1.3185 -0.9911  2.5514
 7563SOL     OW34324   1.265   3.133   4.813  1.0274 -0.3532 -0.4247
 7563SOL    HW134325   1.257   3.049   4.858  0.4648 -0.0896 -0.0311
 7563SOL    HW234326   1.231   3.107   4.728  1.4272 -0.9682 -0.3899
 7564SOL     OW34327   2.982   2.256   4.899 -0.1565 -0.3779  0.2324
 7564SOL    HW134328   2.944   2.334   4.861  0.5835 -0.7177 -1.2035
 7564SOL    HW234329   3.061   2.252   4.845 -0.9671  1.0629 -1.0678
 7565SOL     OW34330   0.852   1.803   6.326  0.0182 -0.5686 -0.0545
 7565SOL    HW134331   0.769   1.851   6.333 -0.6944 -1.5137 -2.0101
 7565SOL    HW234332   0.906   1.839   6.396 -1.2475  1.7731 -0.2917
 7566SOL     OW34333   2.796   0.515  15.784 -0.2236 -0.0481 -0.1149
 7566SOL    HW134334   2.867   0.572  15.815 -0.7023  0.7644 -0.4919
 7566SOL    HW234335   2.841   0.433  15.803  1.9354  0.2966 -3.7798
 7567SOL     OW34336   3.803   2.890   3.989  0.1944 -0.1229  0.3839
 7567SOL    HW134337   3.803   2.931   4.075 -0.8330  0.3887  0.1311
 7567SOL    HW234338   3.806   2.971   3.937 -0.8729 -0.3788 -0.0711
 7568SOL     OW34339   0.208   2.974   9.307 -0.3041 -0.8673 -0.3868
 7568SOL    HW134340   0.116   2.994   9.290  0.2277  0.0291 -2.2536
 7568SOL    HW234341   0.241   2.968   9.218 -3.8644 -2.2069 -1.6094
 7569SOL     OW34342   2.310   0.764   4.087  0.1233  0.6006  0.0292
 7569SOL    HW134343   2.344   0.835   4.143 -0.3997  0.4364  0.5509
 7569SOL    HW234344   2.255   0.715   4.148  1.5080 -1.0926 -0.0794
 7570SOL     OW34345   1.382   0.377  14.389 -0.0375 -0.1399  0.2030
 7570SOL    HW134346   1.286   0.385  14.393  0.0855  1.4870  0.2207
 7570SOL    HW234347   1.395   0.292  14.349 -1.1435  0.1223 -0.7176
 7571SOL     OW34348   0.730   0.685  12.330  0.3866 -0.1530  0.1543
 7571SOL    HW134349   0.682   0.650  12.405 -0.1101 -0.8172 -0.4807
 7571SOL    HW234350   0.666   0.660  12.264  0.4568 -1.8716  0.7505
 7572SOL     OW34351   0.347   0.904  13.799  0.4583  0.0813 -0.4307
 7572SOL    HW134352   0.430   0.922  13.754  0.8020  0.0014  0.1689
 7572SOL    HW234353   0.308   0.857  13.726 -0.9073 -0.9155  0.9348
 7573SOL     OW34354   1.641   3.218  10.284  0.6440  0.4274 -0.2521
 7573SOL    HW134355   1.723   3.266  10.295 -1.2603  3.1331  2.3767
 7573SOL    HW234356   1.618   3.215  10.377  1.1257 -3.7670 -0.2841
 7574SOL     OW34357   1.467   2.113   9.260 -0.3714 -0.7079 -0.0541
 7574SOL    HW134358   1.547   2.101   9.209 -0.7117  1.0832 -1.0221
 7574SOL    HW234359   1.515   2.128   9.342 -0.0850 -0.7876 -0.2088
 7575SOL     OW34360   0.631   0.046   4.929 -0.4224  0.3596 -0.1526
 7575SOL    HW134361   0.704   0.012   4.981 -2.2959 -0.0451  2.1643
 7575SOL    HW234362   0.577   4.711   4.906  1.5137 -1.5416  1.5200
 7576SOL     OW34363   4.280   3.341  13.938 -0.1916  0.3337 -0.1540
 7576SOL    HW134364   4.218   3.376  13.874 -0.9030 -0.2287  0.2191
 7576SOL    HW234365   4.315   3.263  13.895  1.3350  0.1465  1.4706
 7577SOL     OW34366   3.713   3.922   3.096  0.1797  0.1095 -0.0258
 7577SOL    HW134367   3.768   3.851   3.062  1.0256 -0.3437  2.2784
 7577SOL    HW234368   3.736   3.937   3.188  4.3174 -1.4776 -0.8170
 7578SOL     OW34369   3.436   1.327   5.920  0.9765  0.0604 -0.0698
 7578SOL    HW134370   3.342   1.318   5.936  1.2882 -1.3934  0.9634
 7578SOL    HW234371   3.441   1.413   5.879 -0.2228  0.2794  0.2330
 7579SOL     OW34372   1.660   0.856  15.665 -0.1396 -0.3081 -0.0158
 7579SOL    HW134373   1.581   0.857  15.719 -0.3382  0.9221 -0.3261
 7579SOL    HW234374   1.709   0.784  15.706 -2.4403 -0.6537  2.1301
 7580SOL     OW34375   0.654   1.765   4.403  0.8239  0.2002  0.0390
 7580SOL    HW134376   0.714   1.716   4.460 -0.8995  0.3750  2.0096
 7580SOL    HW234377   0.599   1.817   4.462 -0.9050  0.4878 -1.8296
 7581SOL     OW34378   1.400   3.751   4.266 -0.3185 -0.1098 -0.0290
 7581SOL    HW134379   1.374   3.726   4.177 -0.3722 -1.7295  0.4264
 7581SOL    HW234380   1.460   3.678   4.284 -1.0588 -0.0857  2.4859
 7582SOL     OW34381   1.849   3.715   8.584 -0.0208 -0.6347 -0.3784
 7582SOL    HW134382   1.807   3.800   8.600 -0.1917 -0.9366  0.7639
 7582SOL    HW234383   1.774   3.659   8.605  1.6653 -2.8059 -0.2743
 7583SOL     OW34384   2.838   3.574   2.372  0.1636 -0.3120  0.9110
 7583SOL    HW134385   2.895   3.648   2.390 -0.0301 -0.0417  0.4291
 7583SOL    HW234386   2.797   3.543   2.453  0.9917  0.2467  1.5357
 7584SOL     OW34387   1.478   1.970   8.368  0.1907 -0.2971 -0.0461
 7584SOL    HW134388   1.405   2.023   8.402  0.2676  0.1358 -0.5579
 7584SOL    HW234389   1.551   1.993   8.425  0.1030  0.3575 -0.1896
 7585SOL     OW34390   0.641   2.855   3.743 -0.5407 -0.2297 -0.1100
 7585SOL    HW134391   0.662   2.889   3.656  1.5525 -3.2685 -0.7718
 7585SOL    HW234392   0.664   2.938   3.785  0.0463 -1.2146  1.4839
 7586SOL     OW34393   1.163   2.383   1.009  0.3772 -0.4789  0.2075
 7586SOL    HW134394   1.235   2.338   0.964 -1.6173 -1.9696 -1.5013
 7586SOL    HW234395   1.205   2.458   1.051 -2.4093  0.4135  1.3908
 7587SOL     OW34396   4.081   1.778  10.381  0.4234 -0.0403  0.0339
 7587SOL    HW134397   4.126   1.741  10.458  1.1103  0.8843  0.0875
 7587SOL    HW234398   4.139   1.851  10.357  0.2890 -0.4350 -1.4524
 7588SOL     OW34399   0.705   2.489   4.271 -0.9420 -0.0750 -0.0349
 7588SOL    HW134400   0.687   2.406   4.228 -0.8930 -0.3298  0.4387
 7588SOL    HW234401   0.623   2.510   4.316  0.5202  1.9203  1.6818
 7589SOL     OW34402   0.744   0.143   4.685  0.6431  0.1657  0.0050
 7589SOL    HW134403   0.829   0.111   4.714  1.2238  0.8151 -0.9602
 7589SOL    HW234404   0.699   0.136   4.769  1.8025 -0.1527  0.5989
 7590SOL     OW34405   3.328   1.967   8.487 -0.0799  0.1244 -0.5395
 7590SOL    HW134406   3.377   1.955   8.405  0.0470 -1.0057 -0.3054
 7590SOL    HW234407   3.399   2.007   8.538  0.8244 -4.3047  1.6795
 7591SOL     OW34408   2.019   2.995   4.925 -0.0794 -0.4596 -0.1071
 7591SOL    HW134409   2.111   2.970   4.931  0.7450  2.9256  1.1528
 7591SOL    HW234410   2.034   3.077   4.878 -0.0214 -0.2206  0.3275
 7592SOL     OW34411   0.070   2.104  15.616  0.2384  0.4960 -0.3857
 7592SOL    HW134412   0.019   2.185  15.610  0.8981  0.9937  0.6672
 7592SOL    HW234413   0.160   2.133  15.632  1.0452 -0.9289 -2.3034
 7593SOL     OW34414   1.816   0.984  14.846  0.0321 -0.6851 -0.0196
 7593SOL    HW134415   1.780   0.914  14.791 -0.1971 -1.2309  0.8208
 7593SOL    HW234416   1.900   0.986  14.801 -1.4002  0.2132 -2.6238
 7594SOL     OW34417   4.105   2.343   7.208  0.1299 -0.4644 -0.0200
 7594SOL    HW134418   4.065   2.348   7.295  2.7504 -1.6774  1.2402
 7594SOL    HW234419   4.028   2.317   7.157 -0.9473  2.7292 -0.0597
 7595SOL     OW34420   3.820   2.059   4.558 -0.5948  0.2822 -0.0963
 7595SOL    HW134421   3.825   1.964   4.564 -3.4451  0.2065  1.2265
 7595SOL    HW234422   3.891   2.090   4.501 -0.7510  0.1283 -0.3711
 7596SOL     OW34423   2.757   1.095  15.585 -0.5516 -0.0320  0.4627
 7596SOL    HW134424   2.712   1.013  15.604 -0.5732  0.5915  3.0776
 7596SOL    HW234425   2.789   1.118  15.672  0.7618  0.0433 -0.0317
 7597SOL     OW34426   2.198   2.115   1.859  0.1913  0.1643  0.2840
 7597SOL    HW134427   2.200   2.210   1.860 -4.2640  0.2475  3.3468
 7597SOL    HW234428   2.202   2.098   1.765  4.2244  0.0298  0.4968
 7598SOL     OW34429   1.714   1.457   5.849  0.5073 -0.5021 -0.1508
 7598SOL    HW134430   1.789   1.516   5.843 -0.9839  1.3296 -0.7059
 7598SOL    HW234431   1.646   1.524   5.851 -0.4943 -1.5613  1.9430
 7599SOL     OW34432   0.341   3.869   1.485 -0.0338  0.0695 -0.4482
 7599SOL    HW134433   0.363   3.859   1.392  0.5524 -3.5014  0.0568
 7599SOL    HW234434   0.296   3.953   1.489 -0.8045 -0.3446 -0.4214
 7600SOL     OW34435   4.440   2.523   3.820 -0.0292 -0.3259  0.7114
 7600SOL    HW134436   4.470   2.436   3.849  0.4904 -0.1649  0.6633
 7600SOL    HW234437   4.346   2.511   3.832 -0.0743  0.8442  1.5508
 7601SOL     OW34438   2.469   1.792  17.287  0.4386 -0.4520 -0.6974
 7601SOL    HW134439   2.405   1.741  17.337  0.5698 -0.8651 -0.9517
 7601SOL    HW234440   2.547   1.750  17.321 -0.0087 -1.0317 -0.3839
 7602SOL     OW34441   1.334   1.461   4.161  0.1001 -0.0145 -0.1035
 7602SOL    HW134442   1.246   1.428   4.179 -0.5466  1.1703 -1.0928
 7602SOL    HW234443   1.333   1.491   4.070 -1.8049  0.2133 -0.0031
 7603SOL     OW34444   2.672   0.854   1.956  0.4966 -0.2666  0.4432
 7603SOL    HW134445   2.677   0.949   1.972 -2.3302 -0.0482 -0.0155
 7603SOL    HW234446   2.582   0.838   1.928  0.7507 -0.3045 -0.3623
 7604SOL     OW34447   3.117   3.884   8.885  0.3016 -0.2071 -0.2171
 7604SOL    HW134448   3.093   3.866   8.794 -0.7523  0.6831 -0.1048
 7604SOL    HW234449   3.119   3.979   8.879  0.8501 -0.2059 -0.0241
 7605SOL     OW34450   0.775   3.245   4.843  0.2674 -0.0578 -0.6307
 7605SOL    HW134451   0.750   3.185   4.914 -0.4642 -0.9469 -1.6443
 7605SOL    HW234452   0.865   3.213   4.831  0.4452  0.7412 -1.4304
 7606SOL     OW34453   2.024   2.049   6.757  0.2395 -0.0786  0.3076
 7606SOL    HW134454   2.096   2.112   6.756  1.4297 -1.4221  1.1287
 7606SOL    HW234455   1.960   2.094   6.702  0.7018  0.3281  0.1075
 7607SOL     OW34456   0.383   3.916   4.057  0.1195  0.1339 -0.3839
 7607SOL    HW134457   0.415   3.827   4.077  2.8166  1.5630  1.7620
 7607SOL    HW234458   0.361   3.897   3.966 -0.4687  0.7256 -0.3648
 7608SOL     OW34459   1.405   1.518   5.881 -0.0877  0.2619 -0.5090
 7608SOL    HW134460   1.444   1.605   5.878 -0.6953  0.5650  0.4810
 7608SOL    HW234461   1.315   1.527   5.912  0.4271  4.0100 -0.1487
 7609SOL     OW34462   1.441   0.115   9.552  0.0868 -0.1082  0.2650
 7609SOL    HW134463   1.432   0.061   9.630  2.2415 -0.8951 -0.0102
 7609SOL    HW234464   1.472   0.049   9.490 -0.1402 -1.1630  1.2702
 7610SOL     OW34465   1.441   4.054   1.690  0.1321  0.3105  0.3413
 7610SOL    HW134466   1.365   4.065   1.634 -0.8075 -0.6832  1.4091
 7610SOL    HW234467   1.393   4.030   1.769  1.3523  1.0261  1.3086
 7611SOL     OW34468   4.059   4.089  15.911 -0.2811 -0.4421  0.0318
 7611SOL    HW134469   4.014   4.005  15.909 -0.8226 -0.1704  0.8623
 7611SOL    HW234470   3.986   4.149  15.925  0.7925  0.3549  2.2298
 7612SOL     OW34471   0.498   0.200   8.959 -0.1488 -0.5350 -0.5124
 7612SOL    HW134472   0.512   0.105   8.951 -0.0927 -0.4710 -1.1415
 7612SOL    HW234473   0.575   0.237   8.915  1.3214  0.6885  3.1075
 7613SOL     OW34474   4.160   2.112   4.232  0.5168  0.0304  0.1680
 7613SOL    HW134475   4.241   2.163   4.235  0.5307 -0.0031  0.3898
 7613SOL    HW234476   4.156   2.078   4.321 -2.8980  0.6852  0.2528
 7614SOL     OW34477   2.029   1.946   3.138  0.6581  0.4451  0.3008
 7614SOL    HW134478   2.024   1.872   3.198 -1.9101  0.2797 -0.0950
 7614SOL    HW234479   2.079   1.905   3.068 -0.0459 -0.0563  0.0884
 7615SOL     OW34480   0.568   1.718   5.920 -0.7659 -0.2050  0.0398
 7615SOL    HW134481   0.609   1.638   5.886 -1.2564  0.6690 -2.5754
 7615SOL    HW234482   0.644   1.763   5.957 -4.1373  1.9534  4.3918
 7616SOL     OW34483   1.162   3.808   6.880  0.1098 -0.4954  0.5088
 7616SOL    HW134484   1.082   3.858   6.895  0.1967  0.2614 -1.6337
 7616SOL    HW234485   1.185   3.826   6.789  2.5460 -3.8233  0.5010
 7617SOL     OW34486   2.892   0.271   8.057 -0.3979 -0.5140  0.2175
 7617SOL    HW134487   2.817   0.243   8.110 -1.0676 -0.6833 -0.8276
 7617SOL    HW234488   2.972   0.251   8.105 -0.5225  1.5908  1.2977
 7618SOL     OW34489   0.136   2.695  12.664 -0.3346  0.5230  0.1680
 7618SOL    HW134490   0.165   2.776  12.705  1.8949 -0.7060  1.0244
 7618SOL    HW234491   0.042   2.707  12.676 -0.7309 -0.8692 -1.5592
 7619SOL     OW34492   1.339   2.219  15.752  0.0632  0.0666 -0.0610
 7619SOL    HW134493   1.336   2.243  15.660 -2.0611 -0.4897 -0.1311
 7619SOL    HW234494   1.259   2.168  15.760 -0.5011  0.8551 -0.7155
 7620SOL     OW34495   3.808   3.326  10.282 -0.1306 -0.0588 -0.3383
 7620SOL    HW134496   3.763   3.362  10.358 -0.1926 -0.8146 -0.0159
 7620SOL    HW234497   3.797   3.231  10.291  1.1812 -0.1024  0.7084
 7621SOL     OW34498   0.737   4.394   8.489  0.9601  0.4576 -0.7675
 7621SOL    HW134499   0.718   4.301   8.483  1.9065  0.2287 -0.1427
 7621SOL    HW234500   0.833   4.394   8.484  0.9722  1.3287 -0.5652
 7622SOL     OW34501   4.355   1.029   8.962  0.4156  0.3383  0.4044
 7622SOL    HW134502   4.381   1.076   9.042 -0.8716 -0.2516  1.1717
 7622SOL    HW234503   4.408   0.949   8.975  1.6488  1.2018  0.7123
 7623SOL     OW34504   1.994   2.567  14.258 -0.7969  0.2171  0.1321
 7623SOL    HW134505   2.019   2.479  14.284 -1.0292 -0.1172 -0.7797
 7623SOL    HW234506   2.058   2.586  14.189 -0.4527  3.4960  1.3181
 7624SOL     OW34507   4.386   0.068   2.349  0.0373 -0.4580  0.7058
 7624SOL    HW134508   4.412   0.107   2.432 -0.3156 -0.0494  0.6263
 7624SOL    HW234509   4.302   0.109   2.328  0.8360 -0.2443 -2.0160
 7625SOL     OW34510   3.640   2.435   1.097  0.3433 -0.0433 -0.2184
 7625SOL    HW134511   3.554   2.470   1.076  0.3375 -0.3368 -0.6867
 7625SOL    HW234512   3.680   2.510   1.140 -1.1175 -0.8009  2.4296
 7626SOL     OW34513   0.126   1.071   0.080 -0.6605 -0.3669 -0.1035
 7626SOL    HW134514   0.121   1.003   0.013  0.6650 -1.0574  0.4885
 7626SOL    HW234515   0.217   1.055   0.106 -0.8099  0.5477  0.9514
 7627SOL     OW34516   3.680   1.455   6.165  0.3359  0.5173  0.6005
 7627SOL    HW134517   3.708   1.545   6.179 -1.2402  0.5203  3.7365
 7627SOL    HW234518   3.646   1.456   6.076  0.1675 -0.6834  0.6500
 7628SOL     OW34519   0.029   4.570   7.826  0.0863  0.2428  0.2224
 7628SOL    HW134520   4.676   4.579   7.846  0.6036  3.1940  1.3118
 7628SOL    HW234521   0.024   4.518   7.747 -0.0095 -0.8713  0.9612
 7629SOL     OW34522   2.341   1.398  17.406 -0.4808 -0.3243 -0.7279
 7629SOL    HW134523   2.316   1.321  17.355 -0.3803 -0.9146  0.1242
 7629SOL    HW234524   2.417   1.363  17.451  0.3795  1.0212 -1.1467
 7630SOL     OW34525   2.606   4.446   7.902 -0.2753  0.6212  0.0426
 7630SOL    HW134526   2.515   4.441   7.932 -1.0920  2.8488 -2.0656
 7630SOL    HW234527   2.604   4.531   7.858  1.6050  1.5815  1.8219
 7631SOL     OW34528   3.272   3.333   6.531 -0.5741 -0.0517 -0.7735
 7631SOL    HW134529   3.333   3.326   6.604  0.3240  1.4406 -1.3920
 7631SOL    HW234530   3.236   3.244   6.530  0.1233 -0.3658  1.0874
 7632SOL     OW34531   2.830   4.460   8.070 -0.3762  0.3441 -0.4882
 7632SOL    HW134532   2.748   4.492   8.031 -0.4035  1.4977  0.5257
 7632SOL    HW234533   2.883   4.534   8.041  0.6868  0.6424  2.2133
 7633SOL     OW34534   2.424   3.084   9.093 -0.3739 -0.3988 -0.1669
 7633SOL    HW134535   2.502   3.130   9.125  0.4615 -2.9690  1.5558
 7633SOL    HW234536   2.440   3.000   9.137 -1.5428  0.0234  1.0786
 7634SOL     OW34537   2.090   3.125   2.823  0.1108  0.5047  0.0015
 7634SOL    HW134538   2.037   3.078   2.759 -2.2226 -0.5744  2.7521
 7634SOL    HW234539   2.101   3.056   2.888  0.7386  0.1121 -0.5176
 7635SOL     OW34540   4.080   1.013  11.319  0.1772  0.0776  0.5483
 7635SOL    HW134541   4.082   1.014  11.223 -0.7821  1.6729  0.5494
 7635SOL    HW234542   4.079   0.917  11.329  0.2741  0.1424  1.1727
 7636SOL     OW34543   0.730   0.330  13.939 -0.1647  0.1907  0.3947
 7636SOL    HW134544   0.771   0.408  13.976 -3.1853  1.1000  1.8277
 7636SOL    HW234545   0.693   0.353  13.854  0.6331  0.3253  0.0827
 7637SOL     OW34546   4.692   1.186  13.894 -0.0314 -0.0223  0.4321
 7637SOL    HW134547   4.725   1.274  13.879 -2.6801  0.7374 -0.8795
 7637SOL    HW234548   0.032   1.133  13.902  1.5421  2.2280 -0.4958
 7638SOL     OW34549   2.741   1.158   4.300 -0.2678  0.6304 -0.3180
 7638SOL    HW134550   2.659   1.206   4.300 -1.5296 -1.5390 -0.0334
 7638SOL    HW234551   2.801   1.232   4.289 -1.5110  1.9677  2.0892
 7639SOL     OW34552   2.915   0.229   5.195  0.0079  0.1337  0.3512
 7639SOL    HW134553   2.842   0.268   5.244 -0.0678  0.6876 -0.2168
 7639SOL    HW234554   2.955   0.181   5.267  0.6587  0.3296  0.1126
 7640SOL     OW34555   3.614   2.676   8.775 -0.1085  0.5856 -0.0035
 7640SOL    HW134556   3.607   2.734   8.699 -0.5348 -0.8899 -1.0966
 7640SOL    HW234557   3.519   2.673   8.790 -0.0335  0.8104  0.5244
 7641SOL     OW34558   0.186   2.333   3.335  0.1636 -0.0494  0.4888
 7641SOL    HW134559   0.151   2.300   3.252  1.3213  1.6183 -0.6409
 7641SOL    HW234560   0.108   2.323   3.389 -1.7033  1.9093 -1.8520
 7642SOL     OW34561   2.858   3.906  13.164  0.0668  0.3245  0.4756
 7642SOL    HW134562   2.810   3.885  13.244  2.7971  0.3332  2.1039
 7642SOL    HW234563   2.908   3.826  13.149  1.3322  0.5845  3.1730
 7643SOL     OW34564   3.948   1.375   3.606  0.1663  0.0943  0.1086
 7643SOL    HW134565   3.904   1.314   3.664  1.4171  1.6558  2.6693
 7643SOL    HW234566   4.005   1.416   3.670 -0.1158 -0.5144  0.7494
 7644SOL     OW34567   0.924   2.986   1.995  0.4872  0.8710  0.4493
 7644SOL    HW134568   0.903   3.074   2.027 -0.4536  0.9501 -0.3778
 7644SOL    HW234569   1.018   2.989   2.012  0.9666 -1.9498 -1.7841
 7645SOL     OW34570   0.703   4.477   4.309 -0.4030 -0.4409 -0.4510
 7645SOL    HW134571   0.785   4.453   4.265  0.0867  0.1026  0.1671
 7645SOL    HW234572   0.733   4.493   4.399 -2.7826  1.1462  0.0614
 7646SOL     OW34573   2.609   2.615   4.974  0.2575 -0.4499  0.1145
 7646SOL    HW134574   2.517   2.635   4.994  0.2965 -0.8719  0.7086
 7646SOL    HW234575   2.646   2.591   5.058 -0.6063 -0.6627  0.4353
 7647SOL     OW34576   0.828   1.042   3.824  0.0272  0.3865  0.9891
 7647SOL    HW134577   0.849   0.972   3.762 -2.2844  0.1402  0.4744
 7647SOL    HW234578   0.907   1.094   3.813 -0.1584 -0.0974 -2.6157
 7648SOL     OW34579   2.125   2.707   4.789  0.3447  0.2650  0.1442
 7648SOL    HW134580   2.108   2.655   4.867 -1.1957  0.5044 -0.0408
 7648SOL    HW234581   2.042   2.685   4.746  0.5315  0.7431 -0.4697
 7649SOL     OW34582   3.868   2.100   5.131 -0.2261  0.3678 -0.6581
 7649SOL    HW134583   3.871   2.195   5.139 -1.4275  0.3426  0.1109
 7649SOL    HW234584   3.829   2.096   5.043 -0.1474  3.2525 -0.8106
 7650SOL     OW34585   0.575   0.218   2.751  0.3194 -0.4101  0.1542
 7650SOL    HW134586   0.638   0.282   2.717 -0.9526  1.0322  0.5052
 7650SOL    HW234587   0.611   0.148   2.697 -0.8900 -2.2762  1.7741
 7651SOL     OW34588   1.451   2.285   7.045 -0.2835 -0.7416 -0.3068
 7651SOL    HW134589   1.482   2.213   7.100  1.5880  0.6765  0.4982
 7651SOL    HW234590   1.528   2.341   7.048 -1.0353  0.3895 -1.8948
 7652SOL     OW34591   0.544   4.625   8.537  0.0840  0.0517  0.1382
 7652SOL    HW134592   0.606   4.553   8.525 -1.8265 -1.6327  0.3844
 7652SOL    HW234593   0.526   4.643   8.445  0.7937  0.8673  0.1637
 7653SOL     OW34594   1.968   1.527  15.565 -0.2087  0.3599  0.1400
 7653SOL    HW134595   1.902   1.582  15.605  0.8878  0.4055  1.9217
 7653SOL    HW234596   2.013   1.483  15.638 -0.0332  0.5468  0.1446
 7654SOL     OW34597   2.419   3.094   9.483 -0.5463  0.6242 -0.2543
 7654SOL    HW134598   2.371   3.171   9.515 -0.0523  0.2756  1.2944
 7654SOL    HW234599   2.358   3.070   9.413 -0.3126  0.6226 -0.4568
 7655SOL     OW34600   2.829   2.947   6.515  0.0145  0.9253  0.0117
 7655SOL    HW134601   2.886   3.002   6.461  0.7886  1.9428  1.8949
 7655SOL    HW234602   2.830   2.987   6.602 -0.3453 -0.5157  0.6821
 7656SOL     OW34603   1.031   0.904   4.204 -0.2613  0.1553  0.1146
 7656SOL    HW134604   0.944   0.864   4.199  0.6912 -1.6201 -2.2785
 7656SOL    HW234605   1.065   0.856   4.279  0.1899  0.3675  0.0448
 7657SOL     OW34606   2.933   0.752   2.332  0.1327 -0.2127  0.3347
 7657SOL    HW134607   2.917   0.706   2.250  0.2618 -0.9474  0.7226
 7657SOL    HW234608   2.932   0.840   2.294 -0.3655  0.3081  1.5295
 7658SOL     OW34609   0.016   2.450   5.152  0.9197 -0.0300  0.2259
 7658SOL    HW134610   0.076   2.450   5.077 -1.4780 -0.3730 -1.6566
 7658SOL    HW234611   4.698   2.522   5.128  0.1690 -1.2300 -1.4694
 7659SOL     OW34612   4.574   0.900  16.794 -0.5531 -0.5742 -0.2063
 7659SOL    HW134613   4.563   0.819  16.744 -0.6066  0.2255 -1.4893
 7659SOL    HW234614   4.520   0.887  16.872  1.5445  0.3104  1.3738
 7660SOL     OW34615   0.754   1.197  13.747  0.1745 -0.1140 -0.5355
 7660SOL    HW134616   0.845   1.210  13.774 -0.0978 -1.3432  0.9829
 7660SOL    HW234617   0.739   1.105  13.770  0.9619  0.4927  2.4489
 7661SOL     OW34618   0.682   4.038   5.517 -1.2076  0.6277  0.0383
 7661SOL    HW134619   0.604   3.988   5.539 -0.7695  0.0777  0.3343
 7661SOL    HW234620   0.652   4.104   5.455 -1.5003 -0.7570 -1.2816
 7662SOL     OW34621   1.490   1.439   5.576  0.0236 -0.2658  0.1986
 7662SOL    HW134622   1.504   1.494   5.653  2.4494 -0.3297 -0.2069
 7662SOL    HW234623   1.483   1.507   5.510  0.3514 -0.8479 -0.4412
 7663SOL     OW34624   0.115   0.766  17.124 -0.4497 -0.8502  0.1049
 7663SOL    HW134625   0.078   0.854  17.140 -0.5650 -0.9762  0.5418
 7663SOL    HW234626   0.080   0.741  17.039  1.8655 -1.7578 -0.5726
 7664SOL     OW34627   3.387   4.553   0.252 -0.3796 -0.0198 -0.3991
 7664SOL    HW134628   3.448   4.481   0.270  0.7606  1.4907  1.8067
 7664SOL    HW234629   3.432   4.619   0.199 -2.3830  0.5071 -1.4241
 7665SOL     OW34630   0.855   0.137   8.998  0.1485 -0.1065 -0.8414
 7665SOL    HW134631   0.815   0.222   8.977  2.0109  1.4202  1.6820
 7665SOL    HW234632   0.848   0.099   8.911  0.3881 -1.5007 -0.2500
 7666SOL     OW34633   4.383   2.938   1.394 -0.7223 -0.4317 -0.4141
 7666SOL    HW134634   4.346   2.850   1.406  2.0616 -1.2360  2.0562
 7666SOL    HW234635   4.476   2.925   1.411 -0.8007  0.9333  1.0390
 7667SOL     OW34636   2.925   0.732   7.607 -0.4365  0.0305 -0.3760
 7667SOL    HW134637   2.905   0.749   7.699  0.3757 -0.4373 -0.1142
 7667SOL    HW234638   2.860   0.781   7.557 -0.2095  0.1694 -0.5330
 7668SOL     OW34639   4.636   2.163   3.410  0.0109 -0.1456 -0.0100
 7668SOL    HW134640   4.657   2.214   3.331 -2.1848  1.3701  0.3960
 7668SOL    HW234641   4.551   2.125   3.391  1.1936 -1.8518 -1.8796
 7669SOL     OW34642   2.551   1.062   9.271  0.0532  0.6062  0.2767
 7669SOL    HW134643   2.487   1.047   9.202  1.6040 -0.7537 -0.8497
 7669SOL    HW234644   2.614   1.118   9.226  0.5762  2.3473  3.1294
 7670SOL     OW34645   0.377   3.811  11.334  0.0953 -0.3814 -0.3072
 7670SOL    HW134646   0.329   3.742  11.379 -1.3314  0.7494 -0.0862
 7670SOL    HW234647   0.393   3.873  11.406  0.5712 -0.5162 -0.2968
 7671SOL     OW34648   4.314   3.993   2.500 -0.0406 -0.0394  0.6888
 7671SOL    HW134649   4.241   4.034   2.454  2.8302  2.3014 -1.8036
 7671SOL    HW234650   4.270   3.964   2.580  1.7070 -1.1446  1.2434
 7672SOL     OW34651   3.037   3.950   7.846 -0.1613  0.4568  0.1573
 7672SOL    HW134652   3.132   3.955   7.835 -0.1014 -2.4247 -0.7210
 7672SOL    HW234653   3.033   4.018   7.913 -0.1705 -0.5101  1.1434
 7673SOL     OW34654   3.477   1.232   4.627  0.5201 -0.3082 -0.1312
 7673SOL    HW134655   3.572   1.225   4.617  0.7867 -0.6396  2.7347
 7673SOL    HW234656   3.473   1.328   4.625 -1.6177 -0.3497  2.7300
 7674SOL     OW34657   0.654   1.500   9.457  0.0596 -0.2650 -0.2444
 7674SOL    HW134658   0.685   1.492   9.367  0.8168  0.2975 -0.0266
 7674SOL    HW234659   0.724   1.520   9.518 -0.3441 -0.2166  0.2025
 7675SOL     OW34660   4.727   1.012  11.017 -0.2242  0.2835  0.4756
 7675SOL    HW134661   0.078   1.026  10.993  0.0702 -2.1194  0.2608
 7675SOL    HW234662   0.000   0.944  11.082  2.1470  1.7943  1.5596
 7676SOL     OW34663   1.359   0.098  15.572 -0.2197  0.2416 -0.1027
 7676SOL    HW134664   1.377   0.078  15.663  1.0992  1.8687 -0.0027
 7676SOL    HW234665   1.382   0.014  15.533  0.4016  0.8433 -1.0414
 7677SOL     OW34666   0.164   1.391   6.903  0.0321 -0.4271  0.4799
 7677SOL    HW134667   0.081   1.392   6.856  1.1538 -1.3097 -1.5495
 7677SOL    HW234668   0.226   1.411   6.832  0.4381 -3.1873  0.0470
 7678SOL     OW34669   0.922   2.026   0.022 -0.1452  0.1283  0.2283
 7678SOL    HW134670   0.884   2.052   0.106  0.9325 -0.3270  0.8502
 7678SOL    HW234671   0.949   2.115  17.754  1.2363 -0.6835 -1.0789
 7679SOL     OW34672   4.289   0.150   9.840 -0.9030  0.1278 -0.2186
 7679SOL    HW134673   4.384   0.138   9.846 -0.6863  1.9237 -0.3313
 7679SOL    HW234674   4.256   0.099   9.914 -2.6763 -0.2175 -1.2551
 7680SOL     OW34675   3.992   3.602   3.891  0.1432  0.7351 -0.5541
 7680SOL    HW134676   4.079   3.614   3.930  0.0072  1.4280 -0.4708
 7680SOL    HW234677   4.014   3.524   3.839 -0.0308  1.4585 -1.7067
 7681SOL     OW34678   0.419   0.672   2.296  0.1428  0.0196 -0.0534
 7681SOL    HW134679   0.505   0.681   2.338 -0.0098 -2.6129  0.8136
 7681SOL    HW234680   0.445   0.667   2.204  2.0876 -1.2442  0.5509
 7682SOL     OW34681   3.397   3.049   3.991 -0.2930  0.4185  0.3319
 7682SOL    HW134682   3.319   2.996   4.009 -0.6992  1.0563  0.4376
 7682SOL    HW234683   3.453   3.044   4.068 -0.4173 -2.7747  0.2324
 7683SOL     OW34684   4.065   0.842   6.434 -0.4888  0.3534  0.3829
 7683SOL    HW134685   4.048   0.860   6.342  4.5094  2.3527 -0.1470
 7683SOL    HW234686   4.117   0.762   6.441  1.0437  1.4950  2.0405
 7684SOL     OW34687   3.346   2.459  14.694 -0.0448 -0.4476  0.7007
 7684SOL    HW134688   3.306   2.486  14.776 -0.9796  0.1016  0.0590
 7684SOL    HW234689   3.441   2.459  14.711  0.4162  0.1560 -1.8777
 7685SOL     OW34690   1.255   2.848   3.680 -0.0234  0.2230  0.0614
 7685SOL    HW134691   1.213   2.786   3.740  0.9246 -0.6273 -0.1596
 7685SOL    HW234692   1.187   2.846   3.613 -0.4249  1.1761  0.4287
 7686SOL     OW34693   2.517   3.701   4.761  0.9759 -0.4095 -0.2156
 7686SOL    HW134694   2.594   3.755   4.743 -0.0439  1.0583 -0.1389
 7686SOL    HW234695   2.446   3.765   4.757 -0.9595 -2.5142  0.5942
 7687SOL     OW34696   2.171   2.986   2.455 -0.6209 -0.6172  0.4309
 7687SOL    HW134697   2.098   3.023   2.504 -0.4310  2.0934 -1.3191
 7687SOL    HW234698   2.123   2.948   2.381 -0.4755  0.2624 -0.1228
 7688SOL     OW34699   3.514   1.498  12.854 -0.0172  0.1094 -0.2811
 7688SOL    HW134700   3.593   1.455  12.822  0.4705 -0.4575  1.6485
 7688SOL    HW234701   3.487   1.554  12.781 -2.0191  0.5061  0.7723
 7689SOL     OW34702   4.193   3.811   2.073 -0.4324  0.4209  0.0176
 7689SOL    HW134703   4.282   3.826   2.042 -0.2007  1.3767  1.1456
 7689SOL    HW234704   4.199   3.716   2.082  3.2083  0.6696  0.0807
 7690SOL     OW34705   0.388   0.279   8.192  0.0337 -0.2432 -0.0380
 7690SOL    HW134706   0.478   0.303   8.210 -0.2630  0.9369 -0.1693
 7690SOL    HW234707   0.386   0.207   8.255 -1.4052 -3.8905 -4.2176
 7691SOL     OW34708   2.345   3.015  16.428 -0.0307 -0.4047 -0.1307
 7691SOL    HW134709   2.375   2.925  16.422  0.4942 -0.2240 -0.2205
 7691SOL    HW234710   2.253   3.006  16.404 -0.5578  1.4546  1.1843
 7692SOL     OW34711   0.273   2.157   8.646 -0.0083  0.0051  0.2259
 7692SOL    HW134712   0.275   2.246   8.681 -0.2048 -0.4730  1.4600
 7692SOL    HW234713   0.334   2.169   8.573 -0.6537 -1.6904 -0.6070
 7693SOL     OW34714   4.507   4.575   5.328 -0.1162  0.4160  0.1575
 7693SOL    HW134715   4.444   4.507   5.305  1.5026 -0.9344 -0.2876
 7693SOL    HW234716   4.461   4.632   5.389  2.3763  0.7943  1.7025
 7694SOL     OW34717   1.550   3.578   1.887  0.1395 -0.9198  0.3540
 7694SOL    HW134718   1.627   3.612   1.933  0.0457  2.3311 -1.9434
 7694SOL    HW234719   1.547   3.644   1.819 -1.1307  0.3627  1.6663
 7695SOL     OW34720   4.152   2.068   0.758  0.5235  0.4396  0.1628
 7695SOL    HW134721   4.200   2.149   0.773 -0.6680  1.0389  0.7424
 7695SOL    HW234722   4.137   2.087   0.665 -0.7164 -1.0929  0.0459
 7696SOL     OW34723   1.181   0.587   9.290 -0.1516  0.7706  0.2262
 7696SOL    HW134724   1.136   0.669   9.268 -0.8033  0.7271  1.3980
 7696SOL    HW234725   1.174   0.534   9.211  0.5939 -0.4542  0.9782
 7697SOL     OW34726   1.122   2.799   6.108  0.4970 -0.1404 -0.0180
 7697SOL    HW134727   1.105   2.811   6.201  3.1516  0.3768  0.4046
 7697SOL    HW234728   1.042   2.748   6.100 -0.2573  1.2507 -1.3363
 7698SOL     OW34729   1.540   2.447   4.853 -0.3742  0.0908 -0.3419
 7698SOL    HW134730   1.583   2.421   4.772  1.3505  1.3529  0.1681
 7698SOL    HW234731   1.448   2.455   4.829 -0.4317 -0.2330 -0.2350
 7699SOL     OW34732   4.600   4.647  15.734  0.6527  0.0117  0.4667
 7699SOL    HW134733   4.638   4.672  15.650  1.0603  0.0552  0.6653
 7699SOL    HW234734   4.634   4.559  15.748  1.2969  0.1056 -0.5023
 7700SOL     OW34735   3.848   1.602   5.555  0.3500  0.8573 -0.5108
 7700SOL    HW134736   3.827   1.691   5.582 -0.6827  1.0553 -1.9817
 7700SOL    HW234737   3.907   1.621   5.481  0.0242  2.3381 -0.3944
 7701SOL     OW34738   3.355   3.753  15.714 -0.2426 -0.3728 -0.1527
 7701SOL    HW134739   3.302   3.795  15.646 -1.0798 -2.1758 -0.6030
 7701SOL    HW234740   3.430   3.721  15.664  0.2724  0.4883  0.0614
 7702SOL     OW34741   2.269   0.402   6.841  0.0468 -0.1528  0.3749
 7702SOL    HW134742   2.189   0.362   6.877 -2.6429  2.1952 -2.9767
 7702SOL    HW234743   2.328   0.368   6.908  0.7391  1.5275  0.6021
 7703SOL     OW34744   2.980   0.021  10.414 -0.4051 -0.0340  0.4188
 7703SOL    HW134745   2.938   4.698  10.471  1.0896  0.1156  1.6840
 7703SOL    HW234746   2.998   4.705  10.338 -1.0576  1.6351 -0.9681
 7704SOL     OW34747   1.612   3.447   0.165 -0.0931  0.0909 -0.3866
 7704SOL    HW134748   1.558   3.425   0.241  1.7943  2.3544  1.6473
 7704SOL    HW234749   1.586   3.539   0.164 -1.1188 -0.2291 -2.2341
 7705SOL     OW34750   4.323   1.059  11.457  0.3944 -0.0913 -0.2628
 7705SOL    HW134751   4.259   1.049  11.387  1.9061  0.4693 -1.7274
 7705SOL    HW234752   4.299   1.149  11.476  0.5598 -0.2973  0.9246
 7706SOL     OW34753   3.153   3.425  11.768  0.1944  0.3740  0.1007
 7706SOL    HW134754   3.117   3.495  11.822 -3.4156 -0.7022 -0.9540
 7706SOL    HW234755   3.098   3.442  11.692 -3.3137  1.5033  2.9103
 7707SOL     OW34756   2.074   1.574   6.109  0.1521  0.0362 -0.2901
 7707SOL    HW134757   2.044   1.583   6.199 -0.5445 -1.2016 -0.4108
 7707SOL    HW234758   2.160   1.613   6.123  1.5194 -3.1082 -0.0575
 7708SOL     OW34759   1.940   1.420   1.328 -0.3912  0.1596 -0.3120
 7708SOL    HW134760   1.879   1.476   1.376 -0.6928  0.7767 -1.4070
 7708SOL    HW234761   1.923   1.345   1.385  0.2748 -0.1925 -0.5773
 7709SOL     OW34762   3.322   2.998  13.677  0.1068  0.1758  0.0156
 7709SOL    HW134763   3.337   3.085  13.641  1.8244  1.1420  3.0877
 7709SOL    HW234764   3.292   2.952  13.599  1.2769 -1.0555  0.2953
 7710SOL     OW34765   3.479   0.344   5.673  0.2687  0.3988 -0.0268
 7710SOL    HW134766   3.429   0.265   5.655  0.9330 -0.3272  1.3111
 7710SOL    HW234767   3.422   0.387   5.737  0.0567  1.3333 -0.8445
 7711SOL     OW34768   2.640   0.107   1.966  0.2890  0.2291  0.8221
 7711SOL    HW134769   2.725   0.118   1.923 -0.3049  0.5537 -0.2637
 7711SOL    HW234770   2.600   0.194   1.966  1.4453  0.7636  0.4341
 7712SOL     OW34771   1.837   0.627   2.936 -0.5949 -0.1201 -0.6278
 7712SOL    HW134772   1.922   0.583   2.933 -0.7137 -0.2655 -1.6846
 7712SOL    HW234773   1.857   0.721   2.936  1.0177 -0.4578 -1.2880
 7713SOL     OW34774   3.542   3.654   1.964  0.0130 -0.1654 -0.7912
 7713SOL    HW134775   3.473   3.633   2.027 -0.7073  0.6251 -1.3056
 7713SOL    HW234776   3.520   3.610   1.882 -0.7351  1.9098 -1.7098
 7714SOL     OW34777   1.764   0.189   8.943  0.0270  0.0997  0.6715
 7714SOL    HW134778   1.674   0.176   8.975 -0.3849 -2.3911 -1.4754
 7714SOL    HW234779   1.792   0.272   8.981 -0.8813 -0.2633  2.1409
 7715SOL     OW34780   1.673   4.605  10.565  0.1605  0.3331 -0.1859
 7715SOL    HW134781   1.626   4.523  10.579 -1.8585  1.7132  1.0685
 7715SOL    HW234782   1.732   4.589  10.491  0.7625 -3.2010  1.0884
 7716SOL     OW34783   2.668   4.718   6.364 -0.0662 -0.4847  0.3136
 7716SOL    HW134784   2.621   0.013   6.439 -2.2025  0.5687 -1.5088
 7716SOL    HW234785   2.733   4.667   6.412  0.7810  1.7727  1.5459
 7717SOL     OW34786   3.006   2.453  12.089 -0.0353  0.0628  0.5202
 7717SOL    HW134787   2.975   2.410  12.169  0.2400 -0.8090  0.1471
 7717SOL    HW234788   3.022   2.538  12.130  2.9242 -1.0972  1.7602
 7718SOL     OW34789   4.467   1.986  11.814  0.4785  0.6603  0.3257
 7718SOL    HW134790   4.389   2.041  11.821 -0.8736 -1.0630 -1.2834
 7718SOL    HW234791   4.454   1.953  11.725  2.1367 -1.2365  0.7772
 7719SOL     OW34792   3.906   0.507   3.953 -0.3943  0.0302 -0.6603
 7719SOL    HW134793   3.938   0.426   3.914 -1.3848 -0.4138 -0.5308
 7719SOL    HW234794   3.955   0.570   3.901 -0.2879  0.9844  0.5732
 7720SOL     OW34795   3.083   0.439   6.701 -0.3056 -0.6343  0.2682
 7720SOL    HW134796   3.041   0.508   6.649 -0.6874 -0.0018  1.4329
 7720SOL    HW234797   3.061   0.353   6.664 -0.8004  0.1517 -1.2562
 7721SOL     OW34798   2.576   2.900  10.337 -0.3800  0.3534 -0.1647
 7721SOL    HW134799   2.528   2.943  10.408 -0.5104 -1.4630  0.8609
 7721SOL    HW234800   2.560   2.963  10.267  1.6995  2.7589  1.5067
 7722SOL     OW34801   4.579   3.144   5.754  0.3822 -0.0593 -0.2345
 7722SOL    HW134802   4.595   3.127   5.661 -0.9188  3.7488 -1.1483
 7722SOL    HW234803   4.647   3.085   5.787  0.4307  0.3807  0.4510
 7723SOL     OW34804   1.047   1.209   1.785 -0.2029 -0.1899  0.2668
 7723SOL    HW134805   1.094   1.237   1.863 -0.7112 -1.0405  0.8823
 7723SOL    HW234806   1.026   1.292   1.744  1.0256  0.3458  0.7229
 7724SOL     OW34807   4.185   1.375   1.926 -0.3727 -0.4350 -0.5149
 7724SOL    HW134808   4.221   1.431   1.993  3.9917  1.1914 -4.2541
 7724SOL    HW234809   4.240   1.299   1.944  1.5324  1.0532 -0.1596
 7725SOL     OW34810   0.625   0.053   8.070  0.3095 -0.7058  0.0165
 7725SOL    HW134811   0.630   0.105   7.989 -1.4009  2.4374  1.9212
 7725SOL    HW234812   0.637   0.121   8.137 -2.7126 -1.9975  1.8299
 7726SOL     OW34813   2.873   2.850   8.672 -0.4993 -0.1721 -0.7727
 7726SOL    HW134814   2.850   2.771   8.720 -1.1052 -0.6253 -1.8225
 7726SOL    HW234815   2.864   2.910   8.746  0.1278  1.0823 -1.7158
 7727SOL     OW34816   3.417   2.049   5.977 -0.2222 -0.7682  0.3549
 7727SOL    HW134817   3.377   2.131   6.004  0.1265 -0.4097 -0.2255
 7727SOL    HW234818   3.511   2.067   5.980 -0.8989  3.0901 -2.1964
 7728SOL     OW34819   4.292   4.496   3.864 -0.6390 -0.4950  0.2905
 7728SOL    HW134820   4.253   4.544   3.790 -1.0039  1.8080  1.9677
 7728SOL    HW234821   4.257   4.409   3.847 -0.0082 -0.2778 -2.1289
 7729SOL     OW34822   3.263   3.200  16.038 -0.1952  0.1278 -0.1707
 7729SOL    HW134823   3.247   3.214  16.131 -0.0276  0.9334 -0.2598
 7729SOL    HW234824   3.173   3.187  16.007 -0.1833  3.2665 -1.6116
 7730SOL     OW34825   1.138   0.919  16.710  0.4797  0.2085  0.2328
 7730SOL    HW134826   1.043   0.930  16.708  0.6222  1.6629  1.2975
 7730SOL    HW234827   1.161   0.979  16.781  1.7691  1.6502 -1.4197
 7731SOL     OW34828   1.703   2.540   6.850 -0.1281 -0.4876 -0.0130
 7731SOL    HW134829   1.764   2.611   6.829 -0.9437 -0.0510 -0.9074
 7731SOL    HW234830   1.666   2.509   6.767 -1.5268 -3.2865  1.6352
 7732SOL     OW34831   4.685   3.026   6.183 -0.0712 -0.0546  0.4620
 7732SOL    HW134832   4.620   2.956   6.185 -0.5664  0.4528  2.3313
 7732SOL    HW234833   4.679   3.048   6.090  1.5451  1.7016  0.7620
 7733SOL     OW34834   1.348   1.145   3.648 -1.0360 -0.1255 -0.3448
 7733SOL    HW134835   1.395   1.177   3.725 -0.8749  0.3839 -0.6554
 7733SOL    HW234836   1.412   1.122   3.580  0.8393 -1.0393  1.7132
 7734SOL     OW34837   2.818   0.602   2.144 -0.3557  0.5197  0.3821
 7734SOL    HW134838   2.764   0.601   2.065  0.9753 -0.0866 -0.5231
 7734SOL    HW234839   2.818   0.511   2.171  0.0795  0.3814 -0.0811
 7735SOL     OW34840   2.937   3.217  14.919  0.2493  0.0681  0.3802
 7735SOL    HW134841   2.975   3.251  14.838  0.4211  0.8235  0.7888
 7735SOL    HW234842   2.934   3.123  14.901 -3.8493  0.2003  0.3294
 7736SOL     OW34843   0.327   2.233   3.543  0.0166  0.1847 -0.0740
 7736SOL    HW134844   0.282   2.297   3.489  1.0143 -0.9827 -2.2839
 7736SOL    HW234845   0.387   2.195   3.478 -1.0642  1.4620 -1.8135
 7737SOL     OW34846   2.733   4.504   5.543  0.2460  0.3153  0.4445
 7737SOL    HW134847   2.691   4.568   5.485  3.6228  1.4752 -0.7377
 7737SOL    HW234848   2.667   4.439   5.565 -1.1631  0.9752 -1.8419
 7738SOL     OW34849   0.715   3.381  13.675 -0.6079 -0.1180 -1.0330
 7738SOL    HW134850   0.709   3.437  13.597 -1.3498  0.0052 -0.8904
 7738SOL    HW234851   0.650   3.433  13.722 -0.8540 -1.9125  0.5922
 7739SOL     OW34852   0.401   1.961   0.134  0.1700  0.2793  0.9464
 7739SOL    HW134853   0.466   1.970   0.204  0.8845  0.9329  0.2088
 7739SOL    HW234854   0.320   1.940   0.179 -0.5297  0.0764 -0.3990
 7740SOL     OW34855   4.264   1.627  14.176 -0.8704 -0.0445  0.2597
 7740SOL    HW134856   4.244   1.541  14.139 -0.1072  0.4513 -1.2846
 7740SOL    HW234857   4.181   1.652  14.217 -0.6543 -0.1297  0.7529
 7741SOL     OW34858   3.784   4.719   2.362  0.6992 -0.5496  0.3433
 7741SOL    HW134859   3.720   4.659   2.400 -0.9023  1.5194  0.8646
 7741SOL    HW234860   3.727   0.050   2.332  2.6536  1.9764  2.7196
 7742SOL     OW34861   1.185   2.120   7.711 -0.1416 -0.3503 -0.3697
 7742SOL    HW134862   1.120   2.057   7.680  2.4975 -3.6031  0.7231
 7742SOL    HW234863   1.136   2.173   7.774 -1.0339 -1.9305  0.2540
 7743SOL     OW34864   3.224   3.249   5.196  0.3907 -0.7724  0.1675
 7743SOL    HW134865   3.278   3.325   5.217  0.4450 -0.5131 -0.9315
 7743SOL    HW234866   3.245   3.238   5.103 -2.3822  1.7613 -0.7511
 7744SOL     OW34867   1.193   4.504   4.822  0.4201 -0.1003 -0.9741
 7744SOL    HW134868   1.225   4.557   4.895 -1.0375  0.1347 -0.5144
 7744SOL    HW234869   1.243   4.550   4.754  2.2666  0.4584  0.7659
 7745SOL     OW34870   0.969   0.613   5.247 -0.3392  0.2173 -0.5061
 7745SOL    HW134871   0.939   0.523   5.234 -0.6295  0.3403 -0.7148
 7745SOL    HW234872   0.890   0.667   5.247 -1.2778 -1.1454 -1.6714
 7746SOL     OW34873   3.296   1.532   7.966 -0.0072  0.1289  0.4143
 7746SOL    HW134874   3.321   1.553   7.876  0.0675 -1.6768  0.0055
 7746SOL    HW234875   3.294   1.437   7.951  1.2013 -0.1812  2.1774
 7747SOL     OW34876   0.151   2.723   5.593 -0.0948  0.6841  0.3035
 7747SOL    HW134877   0.148   2.735   5.498  0.2745  1.8643  0.4422
 7747SOL    HW234878   0.205   2.799   5.613  0.4206  0.6074 -0.8068
 7748SOL     OW34879   0.012   3.192  12.284  0.1615 -0.2772  0.1740
 7748SOL    HW134880   4.709   3.162  12.204 -2.5027  1.1424  1.0650
 7748SOL    HW234881   4.675   3.238  12.318  0.5996  0.7201 -0.1832
 7749SOL     OW34882   4.286   4.452  10.790  0.3792  0.9614  0.4386
 7749SOL    HW134883   4.217   4.519  10.791 -0.8766 -0.3107  0.1666
 7749SOL    HW234884   4.364   4.505  10.802 -0.3858  1.5318  2.8250
 7750SOL     OW34885   2.682   1.004  14.514 -0.2287 -0.3546  0.0022
 7750SOL    HW134886   2.710   0.948  14.586  1.0426  1.4774  0.9531
 7750SOL    HW234887   2.675   1.091  14.554 -3.8523 -0.8607  0.4524
 7751SOL     OW34888   4.506   0.466  13.305  0.0849 -0.6620 -0.2614
 7751SOL    HW134889   4.421   0.484  13.265  1.0266  2.6049 -0.7731
 7751SOL    HW234890   4.521   0.559  13.323 -1.5656 -0.6659  1.2033
 7752SOL     OW34891   0.978   0.958   1.695  0.0707 -0.0872 -0.4439
 7752SOL    HW134892   1.010   0.973   1.606  2.7432  2.0089  0.8813
 7752SOL    HW234893   1.013   1.043   1.722 -1.3352 -0.0993  1.4131
 7753SOL     OW34894   2.243   3.837   6.822 -0.3584  0.3621  0.4910
 7753SOL    HW134895   2.234   3.895   6.747 -0.0410 -0.4619 -0.1768
 7753SOL    HW234896   2.305   3.889   6.873 -2.5773  0.1688  3.4138
 7754SOL     OW34897   3.449   3.616  11.015  0.5240  0.4457  0.1770
 7754SOL    HW134898   3.490   3.611  11.102 -0.4501 -0.5132  0.5777
 7754SOL    HW234899   3.514   3.572  10.960  0.6505  2.7202 -1.4845
 7755SOL     OW34900   1.241   0.478   4.536 -0.5589  0.9155 -0.1421
 7755SOL    HW134901   1.336   0.469   4.527 -0.6255  0.2804 -0.2076
 7755SOL    HW234902   1.243   0.544   4.605  0.7898  0.1536  0.5554
 7756SOL     OW34903   0.020   0.856   9.180  0.0931 -0.4630 -0.1552
 7756SOL    HW134904   0.038   0.940   9.223 -1.4384  0.7926 -1.9798
 7756SOL    HW234905   0.067   0.790   9.231  0.6480 -0.2253 -0.3567
 7757SOL     OW34906   1.332   0.522   7.714 -0.5184 -0.2952  0.0165
 7757SOL    HW134907   1.410   0.545   7.763 -0.9185 -0.4564  0.7404
 7757SOL    HW234908   1.265   0.542   7.779 -0.5691  0.3379 -0.2332
 7758SOL     OW34909   0.249   0.674   4.211 -0.6245 -0.2505 -0.5215
 7758SOL    HW134910   0.198   0.755   4.205 -2.5758 -1.4775 -0.6940
 7758SOL    HW234911   0.184   0.620   4.257 -0.2003  0.7092  1.2083
 7759SOL     OW34912   2.019   2.126   0.350  0.2957  0.6730 -0.3419
 7759SOL    HW134913   2.047   2.151   0.438  2.5991  0.4549 -1.0221
 7759SOL    HW234914   2.091   2.150   0.292  0.4281  1.5260  0.1769
 7760SOL     OW34915   2.717   2.142   2.697 -0.2106 -0.5882  0.9206
 7760SOL    HW134916   2.742   2.124   2.607  1.4181 -2.4944  1.7620
 7760SOL    HW234917   2.638   2.089   2.712 -1.4129  1.3820  1.4861
 7761SOL     OW34918   2.559   2.912   6.749 -0.6007  0.6902 -0.3693
 7761SOL    HW134919   2.507   2.895   6.671  0.5267 -0.4798 -0.8545
 7761SOL    HW234920   2.560   3.008   6.756  1.7526  0.7314 -1.3997
 7762SOL     OW34921   3.349   4.633   2.586 -0.1470  0.0983 -0.8484
 7762SOL    HW134922   3.262   4.655   2.552  0.4826  0.7126 -2.0485
 7762SOL    HW234923   3.347   4.672   2.673 -3.7572  1.8214 -1.7194
 7763SOL     OW34924   2.342   2.658   4.456  0.1357  0.3317  0.1157
 7763SOL    HW134925   2.342   2.747   4.491  0.6183  0.2781  0.2518
 7763SOL    HW234926   2.340   2.603   4.535  0.7528  0.4937  0.2482
 7764SOL     OW34927   1.518   4.735   6.533  0.3683  0.1158 -0.5993
 7764SOL    HW134928   1.426   0.013   6.549  0.5628  0.5998 -0.0563
 7764SOL    HW234929   1.559   0.080   6.547 -1.4031  1.0103 -0.8461
 7765SOL     OW34930   0.274   0.778   9.746 -0.6623  0.0615  0.5726
 7765SOL    HW134931   0.214   0.719   9.701  0.1194 -0.4299  0.1796
 7765SOL    HW234932   0.289   0.723   9.823  0.0556  0.4549  0.7133
 7766SOL     OW34933   4.688   1.217   7.831  0.2091  0.8549 -1.0122
 7766SOL    HW134934   4.712   1.197   7.921 -0.4438 -0.8633 -1.2258
 7766SOL    HW234935   0.034   1.237   7.795  0.4964 -0.7664 -1.2052
 7767SOL     OW34936   0.400   1.048   2.770  0.5010  0.8816 -0.5840
 7767SOL    HW134937   0.332   1.047   2.838 -0.0082  0.9461 -1.0865
 7767SOL    HW234938   0.413   1.142   2.764  0.9052  0.9030  0.5556
 7768SOL     OW34939   2.859   2.169   3.936 -0.2014 -0.6119 -0.4691
 7768SOL    HW134940   2.888   2.122   4.014  0.1206  0.0551 -0.1941
 7768SOL    HW234941   2.831   2.100   3.875  0.2488  1.2890 -2.8342
 7769SOL     OW34942   3.318   0.285   1.502  0.1268  0.3745  0.8049
 7769SOL    HW134943   3.403   0.270   1.461 -0.3028 -0.6209  0.2766
 7769SOL    HW234944   3.262   0.268   1.426  0.7628 -0.3025  0.4844
 7770SOL     OW34945   1.663   1.539   0.382 -0.7156  0.3724  0.5978
 7770SOL    HW134946   1.594   1.496   0.331  1.3883 -1.2888 -0.8345
 7770SOL    HW234947   1.718   1.592   0.324 -1.3863  0.2741 -0.1228
 7771SOL     OW34948   2.925   3.836   5.543  0.3992 -0.1374  0.1031
 7771SOL    HW134949   2.975   3.913   5.572  0.7492  0.4084 -1.9495
 7771SOL    HW234950   2.835   3.847   5.572 -0.2717 -3.3917 -0.7527
 7772SOL     OW34951   0.280   3.311   6.883  0.9614 -0.0841  0.3050
 7772SOL    HW134952   0.237   3.260   6.815  2.0153  2.9472 -2.6646
 7772SOL    HW234953   0.331   3.373   6.830 -0.5425  1.1672  0.3012
 7773SOL     OW34954   2.721   2.097   8.828 -0.3312  0.2003  0.2223
 7773SOL    HW134955   2.724   2.004   8.849 -1.0556  0.0022 -0.5659
 7773SOL    HW234956   2.629   2.105   8.805 -0.4356  0.9013  0.8775
 7774SOL     OW34957   4.450   4.564   6.488 -0.3017  0.0867 -0.9298
 7774SOL    HW134958   4.472   4.496   6.424  0.2802 -0.5054 -0.0908
 7774SOL    HW234959   4.510   4.556   6.561 -0.4631 -1.3754 -0.9548
 7775SOL     OW34960   3.887   0.115   7.575  0.2319  0.2865 -0.6111
 7775SOL    HW134961   3.967   0.162   7.601  0.4775 -1.3629  1.6331
 7775SOL    HW234962   3.817   0.180   7.579  0.1030  0.0490  1.3054
 7776SOL     OW34963   0.164   1.271   8.672  0.0587 -0.2520 -0.5517
 7776SOL    HW134964   0.078   1.252   8.709  1.4841  1.9931  3.9917
 7776SOL    HW234965   0.207   1.309   8.749 -1.2668 -1.2941  0.7043
 7777SOL     OW34966   2.250   0.203   3.269  0.4244  0.7994 -0.1328
 7777SOL    HW134967   2.161   0.221   3.236  0.0577  0.5382  0.7234
 7777SOL    HW234968   2.240   0.204   3.364 -0.2951  0.4876 -0.2001
 7778SOL     OW34969   2.817   1.551  13.872  0.2237 -0.0265  0.2538
 7778SOL    HW134970   2.895   1.598  13.901 -0.3146  2.6830 -2.6607
 7778SOL    HW234971   2.759   1.553  13.948 -0.8600  3.3352 -0.6601
 7779SOL     OW34972   1.541   4.691   6.223 -0.4163 -0.2422  0.4260
 7779SOL    HW134973   1.565   4.599   6.235  0.0615  0.0198  1.5419
 7779SOL    HW234974   1.468   4.688   6.284 -0.2850  3.3011  0.7421
 7780SOL     OW34975   0.411   3.586   1.318 -0.1064  0.3069  0.6887
 7780SOL    HW134976   0.476   3.554   1.380 -0.2263  0.4814  0.9069
 7780SOL    HW234977   0.471   3.603   1.245  1.4309 -0.2055  1.8449
 7781SOL     OW34978   4.017   3.241   5.595  0.3762  0.6619  0.1014
 7781SOL    HW134979   4.068   3.295   5.655  0.9542  0.1621  0.0540
 7781SOL    HW234980   3.970   3.311   5.549  1.8968  0.9824 -0.9487
 7782SOL     OW34981   0.175   3.651   4.347 -0.0557  0.6210  0.2158
 7782SOL    HW134982   0.146   3.596   4.420  1.3921  0.3857  0.6014
 7782SOL    HW234983   0.140   3.740   4.359 -0.6581  0.5686 -1.1887
 7783SOL     OW34984   3.862   1.550  11.394  0.7381 -0.6622  0.3903
 7783SOL    HW134985   3.936   1.577  11.448 -0.6447  0.4990  1.7080
 7783SOL    HW234986   3.856   1.457  11.416 -0.2416 -1.0003 -1.3113
 7784SOL     OW34987   0.545   1.299  13.917  0.5682  0.1633  0.0056
 7784SOL    HW134988   0.524   1.365  13.851  2.4570  1.7008  0.9423
 7784SOL    HW234989   0.617   1.264  13.863  2.2023  0.4856  1.9639
 7785SOL     OW34990   1.020   2.914  13.596  0.5303  0.2492 -0.1319
 7785SOL    HW134991   1.002   2.990  13.651 -0.1026  1.4585 -2.0282
 7785SOL    HW234992   0.956   2.929  13.526  0.2736  1.6379  0.4096
 7786SOL     OW34993   2.186   3.031   6.063 -0.2228 -0.2782 -0.4102
 7786SOL    HW134994   2.208   3.036   5.970 -1.0426  1.1044 -0.5367
 7786SOL    HW234995   2.159   2.940   6.070  1.0222 -0.6925 -1.1062
 7787SOL     OW34996   1.413   3.634  16.753  0.1191  0.1162 -0.3220
 7787SOL    HW134997   1.341   3.643  16.689  1.4155 -0.5558 -1.8759
 7787SOL    HW234998   1.473   3.617  16.680 -2.6809 -0.1601 -2.5894
 7788SOL     OW34999   2.957   2.593  10.761  0.2851 -0.6139 -0.3005
 7788SOL    HW135000   2.875   2.577  10.807  0.5702 -0.9243  0.1095
 7788SOL    HW235001   3.027   2.555  10.815  0.8896 -0.1243 -0.7371
 7789SOL     OW35002   4.516   4.612  17.026 -0.1173  0.0639  0.2028
 7789SOL    HW135003   4.592   4.652  17.068 -0.8852  1.5085  0.1933
 7789SOL    HW235004   4.448   4.668  17.063  0.7131  1.4712 -0.4004
 7790SOL     OW35005   1.308   1.443   9.878 -0.5938 -0.2407 -0.3571
 7790SOL    HW135006   1.301   1.515   9.941  0.0373 -0.4072 -0.0990
 7790SOL    HW235007   1.229   1.469   9.830 -0.3323  1.2442  0.0060
 7791SOL     OW35008   2.596   4.301   5.594 -0.2547  0.1312  0.2033
 7791SOL    HW135009   2.658   4.231   5.573 -0.1174  0.8379 -1.7425
 7791SOL    HW235010   2.618   4.311   5.687 -1.5617  0.1762  0.5097
 7792SOL     OW35011   1.132   1.703   9.051 -0.2805  0.1059 -0.4434
 7792SOL    HW135012   1.172   1.622   9.084 -0.2449  0.2992 -0.0108
 7792SOL    HW235013   1.179   1.768   9.104  1.8142  0.0780 -2.2976
 7793SOL     OW35014   3.365   2.880   5.554  0.4975 -0.1136  0.2282
 7793SOL    HW135015   3.381   2.962   5.600 -0.5907  0.7693 -0.9567
 7793SOL    HW235016   3.308   2.915   5.486 -1.0373  1.8080  2.5190
 7794SOL     OW35017   0.384   0.262  14.049  0.4957  0.7323  0.0674
 7794SOL    HW135018   0.307   0.290  14.099 -0.8229 -1.4742 -0.7516
 7794SOL    HW235019   0.426   0.196  14.105 -0.7619 -0.0831  0.0350
 7795SOL     OW35020   0.111   4.144   2.175  0.1002 -0.0078  0.1495
 7795SOL    HW135021   0.166   4.181   2.107  1.0326 -4.0722 -1.2679
 7795SOL    HW235022   0.145   4.211   2.235  2.5495 -0.1967 -1.0381
 7796SOL     OW35023   2.132   4.300   1.794  0.0014  0.2941 -0.6157
 7796SOL    HW135024   2.188   4.359   1.742 -0.8052  2.4167  0.9135
 7796SOL    HW235025   2.198   4.234   1.815 -2.6226 -1.2230  2.8350
 7797SOL     OW35026   3.795   3.335  10.993 -0.4514 -0.1532 -0.5575
 7797SOL    HW135027   3.803   3.298  11.081 -0.3437 -0.5973 -0.7565
 7797SOL    HW235028   3.845   3.416  11.004  1.0037 -1.3117  1.5031
 7798SOL     OW35029   0.311   2.382   4.503 -0.5691 -0.1848 -0.2134
 7798SOL    HW135030   0.260   2.359   4.426 -0.1821  0.8035 -0.7714
 7798SOL    HW235031   0.379   2.442   4.472 -1.3142  1.4730  1.3410
 7799SOL     OW35032   1.732   4.489   9.414 -0.7999 -0.2527  0.1638
 7799SOL    HW135033   1.776   4.451   9.338 -3.0726 -0.9896 -0.7798
 7799SOL    HW235034   1.779   4.456   9.490 -0.8147 -0.8241 -0.0797
 7800SOL     OW35035   1.418   0.791   8.706 -0.8777  0.2480 -0.4491
 7800SOL    HW135036   1.440   0.793   8.613  1.0550  0.1091  0.0045
 7800SOL    HW235037   1.432   0.698   8.722 -0.1216  0.5762  0.8212
 7801SOL     OW35038   4.451   1.596   2.381 -0.5834 -0.2994  0.3257
 7801SOL    HW135039   4.452   1.519   2.325 -1.1674 -0.0592 -0.0185
 7801SOL    HW235040   4.542   1.595   2.408 -0.2869 -0.7437 -0.6773
 7802SOL     OW35041   3.057   0.325   2.902 -0.1749 -0.4609  0.2773
 7802SOL    HW135042   3.082   0.248   2.953  0.4194 -0.8097 -0.5531
 7802SOL    HW235043   3.039   0.390   2.970 -0.4371 -0.3424  0.0934
 7803SOL     OW35044   1.199   3.968   4.284  0.1830 -0.0984 -0.0546
 7803SOL    HW135045   1.273   3.907   4.277 -0.9965 -1.7112  1.5410
 7803SOL    HW235046   1.206   3.998   4.193  0.6974  0.3751  0.1419
 7804SOL     OW35047   3.880   3.991   4.137 -0.1451 -0.2359  0.0759
 7804SOL    HW135048   3.804   3.944   4.102  0.1752 -1.9240  1.6172
 7804SOL    HW235049   3.944   3.923   4.117  1.4979  0.8915  1.5805
 7805SOL     OW35050   3.874   4.285   2.475  0.2919 -0.1172 -0.1459
 7805SOL    HW135051   3.862   4.368   2.522  3.0491 -0.5022  1.2488
 7805SOL    HW235052   3.887   4.234   2.555 -0.5873 -0.8143 -0.4530
 7806SOL     OW35053   0.357   2.319   2.336  0.1619  0.5098  0.2456
 7806SOL    HW135054   0.397   2.279   2.413  0.3784 -2.7716 -1.5943
 7806SOL    HW235055   0.287   2.377   2.368 -0.0589  0.5627 -0.3322
 7807SOL     OW35056   1.368   3.817  13.788  0.3610  0.0417  0.0982
 7807SOL    HW135057   1.318   3.739  13.760  1.6982  0.1819 -2.6901
 7807SOL    HW235058   1.390   3.801  13.879  1.5845  2.2317  0.1715
 7808SOL     OW35059   1.832   2.712   3.382 -0.2187  1.0416 -0.2568
 7808SOL    HW135060   1.923   2.744   3.379  0.2299 -0.4069 -1.6934
 7808SOL    HW235061   1.789   2.793   3.355 -1.2428  0.7717  0.5630
 7809SOL     OW35062   0.581   0.518   8.226 -0.4340 -0.3194 -0.0860
 7809SOL    HW135063   0.632   0.597   8.241  0.6086 -0.9369 -0.3698
 7809SOL    HW235064   0.500   0.528   8.276 -1.2508  0.7965 -1.6283
 7810SOL     OW35065   2.617   4.257   8.112 -0.0791 -0.4088  0.2184
 7810SOL    HW135066   2.641   4.314   8.186 -1.8988  2.2108 -1.2371
 7810SOL    HW235067   2.637   4.319   8.042 -1.9297 -1.3500 -1.1029
 7811SOL     OW35068   0.646   0.561  10.712 -0.5043  0.0165  0.2709
 7811SOL    HW135069   0.668   0.560  10.619  1.0679  3.5456  0.6364
 7811SOL    HW235070   0.646   0.465  10.720  1.0536 -0.2181 -2.7382
 7812SOL     OW35071   3.744   4.493   6.072  1.0360 -0.4995 -0.6672
 7812SOL    HW135072   3.697   4.485   5.989 -1.8800  1.7170  0.7732
 7812SOL    HW235073   3.701   4.421   6.118  0.8656 -0.5033 -0.8281
 7813SOL     OW35074   0.404   2.310   5.709  0.5344  0.4882  0.0768
 7813SOL    HW135075   0.400   2.300   5.614  1.4372 -0.9538  0.1846
 7813SOL    HW235076   0.327   2.258   5.734  0.0326  0.9183 -0.6067
 7814SOL     OW35077   3.745   2.354   4.183  0.7068  0.3461 -0.3572
 7814SOL    HW135078   3.672   2.360   4.244  0.0988  0.6437 -1.1093
 7814SOL    HW235079   3.693   2.337   4.104  0.3101 -2.7452  0.5752
 7815SOL     OW35080   4.501   0.090   8.964 -0.2500  0.8613 -0.2632
 7815SOL    HW135081   4.497   4.739   8.995 -0.4603  0.8807 -0.2358
 7815SOL    HW235082   4.427   0.092   8.903 -1.3060  0.8215  1.0286
 7816SOL     OW35083   1.142   3.243  15.594  0.8955 -0.3836 -0.6825
 7816SOL    HW135084   1.138   3.163  15.541  1.9067 -1.0951  0.3129
 7816SOL    HW235085   1.126   3.204  15.680  0.6054 -1.8030 -1.3749
 7817SOL     OW35086   3.258   1.418   1.691 -0.4347  0.0269 -0.0358
 7817SOL    HW135087   3.281   1.342   1.638  0.7578 -1.2908  2.3855
 7817SOL    HW235088   3.271   1.375   1.775 -0.1132  0.1212 -0.0396
 7818SOL     OW35089   0.010   1.999  15.181  0.0977  0.2498  0.6568
 7818SOL    HW135090   4.722   2.090  15.187 -1.0738  0.0082 -0.8834
 7818SOL    HW235091   0.089   1.995  15.234  1.0530 -3.2720 -1.0212
 7819SOL     OW35092   0.798   2.514   9.464  0.1084 -0.0355 -0.1074
 7819SOL    HW135093   0.724   2.537   9.408 -1.0320 -0.8565  1.0476
 7819SOL    HW235094   0.837   2.439   9.418  1.5412  0.3338  0.4967
 7820SOL     OW35095   0.352   4.476  15.355  0.5332 -0.5434  0.1450
 7820SOL    HW135096   0.339   4.437  15.269 -1.5969  0.2520  0.0924
 7820SOL    HW235097   0.378   4.566  15.341  1.9888 -1.0103 -0.0924
 7821SOL     OW35098   1.465   0.432   8.265 -0.3113 -0.5366 -0.0531
 7821SOL    HW135099   1.528   0.361   8.250 -0.6215 -0.5299 -1.3477
 7821SOL    HW235100   1.382   0.384   8.261 -0.7789  0.3595 -1.1112
 7822SOL     OW35101   2.871   2.292   6.204  0.7787  0.3807  0.0901
 7822SOL    HW135102   2.862   2.296   6.108  1.6638  0.1097  0.0001
 7822SOL    HW235103   2.817   2.365   6.233 -3.0530 -1.0113 -3.4237
 7823SOL     OW35104   3.046   2.665   2.322 -0.6257 -0.5830  0.8066
 7823SOL    HW135105   3.004   2.597   2.375 -0.0058 -0.8899  0.8906
 7823SOL    HW235106   3.054   2.743   2.377 -0.4076  1.2313 -1.7837
 7824SOL     OW35107   1.375   3.456  12.324 -0.6131 -0.0416  0.4805
 7824SOL    HW135108   1.401   3.536  12.370  0.2230 -0.1876  0.2574
 7824SOL    HW235109   1.444   3.455  12.258 -0.7814  0.0058  0.3020
 7825SOL     OW35110   3.027   3.521  13.455 -0.2516  0.2621  0.1821
 7825SOL    HW135111   2.973   3.511  13.376 -1.5191  1.9576  0.8185
 7825SOL    HW235112   3.090   3.583  13.417 -2.3568  2.2320 -0.1077
 7826SOL     OW35113   2.517   2.387   6.555 -0.0473 -0.0947 -0.3503
 7826SOL    HW135114   2.432   2.425   6.533 -0.1090 -1.5673 -2.6267
 7826SOL    HW235115   2.560   2.450   6.613 -1.3182  0.2146  0.2578
 7827SOL     OW35116   4.455   2.176   3.035 -0.4637  0.0641  0.1093
 7827SOL    HW135117   4.504   2.169   2.953 -0.5767  0.2842  0.0226
 7827SOL    HW235118   4.527   2.213   3.086 -1.9625  1.7232  1.0033
 7828SOL     OW35119   3.869   2.169  14.821 -0.0824  0.3092 -0.2349
 7828SOL    HW135120   3.922   2.234  14.867 -0.1339  0.3191 -0.1891
 7828SOL    HW235121   3.926   2.141  14.749 -1.3562 -1.0535 -0.7132
 7829SOL     OW35122   0.094   3.353   2.217 -0.4185  0.2674 -0.1229
 7829SOL    HW135123   0.096   3.444   2.246 -0.0946  0.0597  0.4990
 7829SOL    HW235124   0.000   3.351   2.197 -0.3398  0.7350 -0.5238
 7830SOL     OW35125   0.038   3.171   8.399  0.1875  0.1218 -0.5687
 7830SOL    HW135126   0.080   3.102   8.450  0.1342 -0.7546 -1.7002
 7830SOL    HW235127   4.684   3.165   8.415  0.0020 -1.2939 -2.1540
 7831SOL     OW35128   1.375   1.341   5.261  0.5896  0.8996  0.0320
 7831SOL    HW135129   1.377   1.272   5.328 -0.9059  0.6378 -0.1861
 7831SOL    HW235130   1.414   1.297   5.186 -0.6396 -0.3711  0.1291
 7832SOL     OW35131   2.169   4.586   1.900  0.6848 -0.9166  0.5517
 7832SOL    HW135132   2.134   4.533   1.972  1.0895  0.5187  1.8044
 7832SOL    HW235133   2.249   4.624   1.937  0.0881  0.1349  0.7346
 7833SOL     OW35134   1.740   3.700  16.648 -0.6923  0.2686 -0.0598
 7833SOL    HW135135   1.833   3.716  16.632 -1.0498 -0.7742 -3.1050
 7833SOL    HW235136   1.707   3.768  16.589  0.8540  2.7504  1.9132
 7834SOL     OW35137   4.492   0.141   6.201  0.4701 -0.6120  0.0043
 7834SOL    HW135138   4.502   0.126   6.295  3.3919  0.3883 -0.1275
 7834SOL    HW235139   4.533   0.227   6.190  0.9178 -0.7892  0.2660
 7835SOL     OW35140   2.928   3.693   6.245  0.0096  0.2777 -0.0688
 7835SOL    HW135141   2.916   3.635   6.321 -1.9006 -0.2210 -0.7620
 7835SOL    HW235142   2.969   3.637   6.179 -2.0241 -0.8778 -0.3322
 7836SOL     OW35143   1.023   1.782   1.045 -0.2097 -0.1984  0.1337
 7836SOL    HW135144   0.948   1.825   1.006  1.4463  1.5005 -1.2098
 7836SOL    HW235145   1.068   1.854   1.091  0.1629 -0.7154  0.5756
 7837SOL     OW35146   2.899   2.631   6.029  0.5916  0.0220  0.0094
 7837SOL    HW135147   2.815   2.586   6.019 -0.7754  2.2955  1.3139
 7837SOL    HW235148   2.877   2.713   6.073 -1.7727 -0.7891  0.3763
 7838SOL     OW35149   3.957   0.188   6.137 -0.5937 -0.0982 -0.2058
 7838SOL    HW135150   4.018   0.193   6.211  0.4685 -2.0561 -0.9725
 7838SOL    HW235151   3.970   0.096   6.113 -2.2530 -0.3642 -0.0607
 7839SOL     OW35152   2.336   2.598   8.039 -0.2876 -0.2264 -0.0735
 7839SOL    HW135153   2.303   2.599   7.949 -0.4921 -1.1076 -0.0065
 7839SOL    HW235154   2.355   2.689   8.060 -0.8692  0.3353 -1.9830
 7840SOL     OW35155   1.805   1.911  13.662  0.1164 -0.1321 -0.6834
 7840SOL    HW135156   1.743   1.964  13.613  0.0114  0.9727  0.6735
 7840SOL    HW235157   1.801   1.958  13.745 -0.8009 -2.2656  0.4948
 7841SOL     OW35158   3.075   1.184  13.208 -0.0551 -0.2613  0.5208
 7841SOL    HW135159   3.058   1.269  13.249 -0.2864  0.7195 -1.6136
 7841SOL    HW235160   3.094   1.223  13.123  0.6970  1.2860  1.4026
 7842SOL     OW35161   0.631   4.708   5.744 -0.0792 -0.3197  0.2391
 7842SOL    HW135162   0.604   4.643   5.680 -1.2048  0.8557 -0.4770
 7842SOL    HW235163   0.661   4.659   5.821  1.3404 -2.2920 -1.5853
 7843SOL     OW35164   1.002   1.988   7.291  0.0341  0.2640  0.3063
 7843SOL    HW135165   0.915   1.996   7.253  0.1987 -0.3120 -0.1881
 7843SOL    HW235166   1.039   2.072   7.263  0.9252  0.3359  1.6443
 7844SOL     OW35167   2.255   3.585   1.841  0.0323  0.4926  0.2386
 7844SOL    HW135168   2.202   3.597   1.920 -1.0974 -2.0489 -0.1376
 7844SOL    HW235169   2.330   3.642   1.858 -0.5506  1.0867  0.7800
 7845SOL     OW35170   4.530   0.715   4.597  0.2073 -0.5429  0.1529
 7845SOL    HW135171   4.610   0.748   4.557 -0.5731  0.8124 -0.3114
 7845SOL    HW235172   4.503   0.664   4.521  4.5535 -0.3948 -1.4457
 7846SOL     OW35173   3.221   4.596   4.738 -0.4825 -0.0084  0.0926
 7846SOL    HW135174   3.265   4.540   4.674 -0.6441  0.7080 -0.6412
 7846SOL    HW235175   3.231   4.539   4.814  1.5270 -0.4048 -0.4703
 7847SOL     OW35176   3.164   3.885  15.571  0.4073 -0.1314 -0.6359
 7847SOL    HW135177   3.122   3.941  15.505 -0.8358  2.3037  2.2539
 7847SOL    HW235178   3.110   3.807  15.563  0.1533  0.0468 -0.6929
 7848SOL     OW35179   3.243   4.692  13.320  0.3191 -0.2947  0.0629
 7848SOL    HW135180   3.169   4.635  13.299  1.1381 -1.2910 -0.1039
 7848SOL    HW235181   3.217   0.028  13.268 -1.9965  0.2014  1.9598
 7849SOL     OW35182   4.215   1.105  15.000 -0.5297  0.1513 -0.4389
 7849SOL    HW135183   4.239   1.107  15.092 -1.5554  2.9664 -0.2133
 7849SOL    HW235184   4.284   1.155  14.956 -0.3751  0.7653  0.4938
 7850SOL     OW35185   0.023   0.326   9.001  0.0701  0.2658 -0.0157
 7850SOL    HW135186   4.727   0.397   8.947  0.3323  0.5689  0.2063
 7850SOL    HW235187   0.106   0.304   8.959  0.1516  1.0135 -0.2511
 7851SOL     OW35188   4.392   4.627  15.120  0.2197 -0.9954 -0.1969
 7851SOL    HW135189   4.376   4.535  15.137  0.5112 -0.8841  0.6839
 7851SOL    HW235190   4.337   4.650  15.195 -0.0974  0.5097 -0.8841
 7852SOL     OW35191   3.117   4.300   2.208  0.1411  0.8401 -1.0311
 7852SOL    HW135192   3.145   4.380   2.252 -0.7427  1.0062 -0.7785
 7852SOL    HW235193   3.190   4.282   2.148  0.9382 -0.4835  0.3408
 7853SOL     OW35194   2.587   4.348   8.801 -0.4926 -0.2206  0.3290
 7853SOL    HW135195   2.608   4.413   8.869  2.5502 -1.3528  0.4667
 7853SOL    HW235196   2.500   4.377   8.773 -0.5391  1.1081  1.8021
 7854SOL     OW35197   3.718   2.568   5.198  0.2939 -0.4134  0.5210
 7854SOL    HW135198   3.675   2.644   5.237 -1.8435  0.0828 -2.7716
 7854SOL    HW235199   3.785   2.623   5.155  1.4619 -1.0397  1.5419
 7855SOL     OW35200   1.518   1.627   1.884 -0.2840 -0.3580 -1.0875
 7855SOL    HW135201   1.565   1.699   1.925 -3.0360 -0.1800  1.7526
 7855SOL    HW235202   1.507   1.647   1.791  1.1427 -2.7058 -1.7611
 7856SOL     OW35203   1.563   3.332  17.427  0.5521  0.1794 -0.4093
 7856SOL    HW135204   1.565   3.403  17.491 -0.8058  0.1280 -0.3092
 7856SOL    HW235205   1.606   3.377  17.354  0.6113 -0.3890 -0.7265
 7857SOL     OW35206   0.205   2.306  12.055  0.0788 -0.4602 -0.0003
 7857SOL    HW135207   0.133   2.260  12.099  0.9434 -1.5131  0.3143
 7857SOL    HW235208   0.223   2.382  12.110  1.0443 -0.2694 -0.5759
 7858SOL     OW35209   2.024   0.674  14.454 -0.1407  0.4603 -0.6535
 7858SOL    HW135210   1.986   0.709  14.535  0.2814 -2.2616  0.7393
 7858SOL    HW235211   2.067   0.750  14.415  0.7364 -0.2159 -0.9852
 7859SOL     OW35212   3.363   4.149   9.183 -0.6417  0.3279  0.6765
 7859SOL    HW135213   3.344   4.213   9.251 -0.7206 -0.1761  1.1272
 7859SOL    HW235214   3.303   4.076   9.199  0.4706 -0.7966 -0.2524
 7860SOL     OW35215   2.158   2.528  14.612  0.1197  0.4496 -0.3037
 7860SOL    HW135216   2.106   2.595  14.655 -2.0703  0.0233 -2.2880
 7860SOL    HW235217   2.196   2.577  14.539  0.7384 -0.5428 -0.6531
 7861SOL     OW35218   2.662   3.420   1.604  0.5022  0.0244  0.2099
 7861SOL    HW135219   2.681   3.500   1.654  2.1070  0.4935 -1.1434
 7861SOL    HW235220   2.568   3.434   1.596  0.8656  1.7680 -1.0074
 7862SOL     OW35221   2.406   3.419   4.251  0.0458  0.0107  0.0983
 7862SOL    HW135222   2.318   3.444   4.278  0.2957 -0.2866  1.1861
 7862SOL    HW235223   2.449   3.500   4.277 -0.5724  1.0669 -2.1752
 7863SOL     OW35224   0.268   0.416   1.543  0.5177 -0.4274 -0.2440
 7863SOL    HW135225   0.214   0.374   1.476  2.6531 -2.8573 -0.4235
 7863SOL    HW235226   0.221   0.404   1.626  0.1406 -0.2117 -0.4235
 7864SOL     OW35227   0.034   0.862  12.540  0.2449 -0.4783  0.0154
 7864SOL    HW135228   0.001   0.933  12.596  0.8984 -2.7111  3.2073
 7864SOL    HW235229   4.715   0.882  12.467  0.2312  2.5330  0.8269
 7865SOL     OW35230   2.807   2.896  12.237  0.0226  0.2674  0.8859
 7865SOL    HW135231   2.872   2.827  12.224  0.2539  0.3218  1.8011
 7865SOL    HW235232   2.850   2.979  12.216  0.2161 -0.0495  0.0270
 7866SOL     OW35233   4.527   2.409  10.085 -0.3122  0.0142 -0.0166
 7866SOL    HW135234   4.536   2.318  10.058  2.2161  0.5653 -1.0226
 7866SOL    HW235235   4.618   2.438  10.089 -0.3091 -0.2354  1.5290
 7867SOL     OW35236   1.978   2.833   2.027  0.2277 -0.3908  0.1527
 7867SOL    HW135237   1.898   2.885   2.023 -0.6256 -1.6978  0.2075
 7867SOL    HW235238   1.992   2.837   2.122  0.2770 -0.6079  0.1553
 7868SOL     OW35239   1.255   3.234   5.876 -0.1449 -0.2878 -0.2944
 7868SOL    HW135240   1.340   3.200   5.849  0.6435  1.1073  0.4448
 7868SOL    HW235241   1.228   3.150   5.914 -1.8904  1.1596  1.6533
 7869SOL     OW35242   1.864   3.078   1.450  0.2738 -0.1209 -0.2095
 7869SOL    HW135243   1.936   3.062   1.510  1.0236  3.3433 -0.2067
 7869SOL    HW235244   1.817   3.147   1.498 -0.9267 -0.4782 -0.8636
 7870SOL     OW35245   3.320   2.446  12.128  0.0038  0.3850 -0.4461
 7870SOL    HW135246   3.236   2.404  12.147  0.2841  0.0783  0.1211
 7870SOL    HW235247   3.302   2.540  12.119 -0.1494  0.0481 -3.6572
 7871SOL     OW35248   0.179   2.187   6.355  0.1888 -0.1025  0.5066
 7871SOL    HW135249   0.274   2.198   6.357  0.1410  0.2790  0.6902
 7871SOL    HW235250   0.176   2.097   6.387  1.2233 -0.4213 -0.3123
 7872SOL     OW35251   3.499   1.145   4.114  0.4640  0.1093 -0.3313
 7872SOL    HW135252   3.425   1.190   4.156  1.5538 -1.5296  3.3507
 7872SOL    HW235253   3.518   1.090   4.190 -2.8034 -0.2853  0.2277
 7873SOL     OW35254   0.498   2.793   1.774  0.1536  0.2076  0.3465
 7873SOL    HW135255   0.569   2.776   1.711  0.9589 -2.7027  2.0796
 7873SOL    HW235256   0.551   2.803   1.853  0.3301  0.7624  0.1568
 7874SOL     OW35257   3.582   1.682   9.457 -0.2289  0.8837 -0.9045
 7874SOL    HW135258   3.514   1.615   9.455 -1.1843  1.8334 -0.4712
 7874SOL    HW235259   3.543   1.750   9.513  1.3794  1.0198  0.0634
 7875SOL     OW35260   4.498   1.296   3.557 -0.6691 -0.1231 -0.3225
 7875SOL    HW135261   4.478   1.293   3.464  2.1561  1.7779 -0.9903
 7875SOL    HW235262   4.575   1.353   3.561  0.0432 -1.2665  2.1697
 7876SOL     OW35263   1.312   3.612   6.600 -0.2341  0.0814  0.2232
 7876SOL    HW135264   1.315   3.547   6.531  0.5349 -0.4413  0.7490
 7876SOL    HW235265   1.313   3.547   6.670 -0.5464 -0.3050 -0.1325
 7877SOL     OW35266   3.482   1.869   2.723 -0.2329  0.0473 -0.3747
 7877SOL    HW135267   3.431   1.885   2.803  0.2244  0.6340 -0.2008
 7877SOL    HW235268   3.569   1.870   2.763 -0.1340 -0.2601 -0.5894
 7878SOL     OW35269   3.400   0.391   7.025  0.3539 -0.5452 -0.2097
 7878SOL    HW135270   3.336   0.389   6.953  1.0425 -0.1181 -0.8306
 7878SOL    HW235271   3.478   0.437   6.995  0.1677  0.2539  0.5326
 7879SOL     OW35272   4.037   0.636   4.962  0.7727  0.2033 -0.0721
 7879SOL    HW135273   4.040   0.712   4.904  0.4446 -0.3890 -0.8767
 7879SOL    HW235274   4.127   0.658   4.986  0.5783  0.1773  0.6729
 7880SOL     OW35275   1.376   2.762   6.260 -0.1344 -0.1058  0.3502
 7880SOL    HW135276   1.431   2.831   6.224  1.7278 -1.0930  1.3387
 7880SOL    HW235277   1.298   2.759   6.203 -0.8848 -2.5301  1.5157
 7881SOL     OW35278   3.816   1.661  12.771 -0.3226 -0.4204  0.1329
 7881SOL    HW135279   3.775   1.576  12.786  2.6462 -1.7470  0.6022
 7881SOL    HW235280   3.817   1.677  12.677 -0.3850  0.5563  0.2967
 7882SOL     OW35281   4.544   1.697   3.505  1.0623  0.3514 -0.4858
 7882SOL    HW135282   4.584   1.746   3.433  1.4609  0.9201  0.1226
 7882SOL    HW235283   4.462   1.674   3.461 -0.9712  1.8155  2.5509
 7883SOL     OW35284   2.030   3.620   4.783 -0.8650  0.0122  0.3661
 7883SOL    HW135285   1.949   3.588   4.821  0.1392 -3.0522 -0.0418
 7883SOL    HW235286   2.023   3.713   4.806 -0.7911  0.4626 -1.4417
 7884SOL     OW35287   3.962   3.354  16.186 -0.0264  0.2127  0.2875
 7884SOL    HW135288   3.895   3.287  16.197 -1.3769  1.7583  1.3568
 7884SOL    HW235289   3.905   3.414  16.138 -0.0783  0.6129  0.8560
 7885SOL     OW35290   1.392   1.577   3.281  0.3276  0.1087 -0.4574
 7885SOL    HW135291   1.418   1.639   3.213 -1.9841  3.5063  1.7278
 7885SOL    HW235292   1.474   1.563   3.328 -2.0691 -2.6979  2.9793
 7886SOL     OW35293   3.196   3.160  11.762  0.3607  0.1534  0.5590
 7886SOL    HW135294   3.197   3.253  11.785  2.6772  0.2716 -0.0371
 7886SOL    HW235295   3.131   3.157  11.692 -1.9636 -2.6321  2.8524
 7887SOL     OW35296   1.751   3.142   7.935 -0.1598 -0.6199 -0.1281
 7887SOL    HW135297   1.804   3.072   7.897 -1.0524 -0.0545 -2.4421
 7887SOL    HW235298   1.755   3.120   8.028  0.8234  0.0202 -0.0243
 7888SOL     OW35299   3.543   1.037  12.380 -0.1888 -0.6167  0.2568
 7888SOL    HW135300   3.624   1.004  12.340  1.3230  2.1341  1.0237
 7888SOL    HW235301   3.474   1.010  12.319 -0.3376 -1.5997  0.8635
 7889SOL     OW35302   2.187   0.257  12.484 -0.4086  0.4425 -0.3694
 7889SOL    HW135303   2.181   0.217  12.571  3.5083 -2.8603 -1.6379
 7889SOL    HW235304   2.281   0.268  12.470 -0.4346 -0.2231 -1.0732
 7890SOL     OW35305   1.819   0.764   6.118  0.2650  0.5095  0.7920
 7890SOL    HW135306   1.831   0.853   6.085  1.0661  0.7496  1.7514
 7890SOL    HW235307   1.792   0.723   6.036  0.2732  1.1912  0.4476
 7891SOL     OW35308   4.272   2.891  14.767  0.2335 -0.1315  0.1200
 7891SOL    HW135309   4.336   2.956  14.797  1.2092 -0.3548 -1.4664
 7891SOL    HW235310   4.271   2.901  14.671 -3.3122 -0.2084  0.1440
 7892SOL     OW35311   4.194   1.101   5.965  0.3728 -0.5029 -0.0604
 7892SOL    HW135312   4.141   1.180   5.979  1.2487  0.1117 -0.2056
 7892SOL    HW235313   4.174   1.063   5.880  2.8883  0.5405 -1.0835
 7893SOL     OW35314   3.019   0.564   0.748 -0.2542 -0.7701 -1.0680
 7893SOL    HW135315   3.085   0.634   0.743 -0.4185 -0.3140  3.5241
 7893SOL    HW235316   3.061   0.506   0.812  0.4207 -2.4862 -3.0753
 7894SOL     OW35317   4.470   3.185   1.686  0.4421 -0.3200  0.0072
 7894SOL    HW135318   4.539   3.145   1.633  1.0139  0.9628 -0.1993
 7894SOL    HW235319   4.409   3.111   1.678  0.6523 -0.4360 -0.4898
 7895SOL     OW35320   3.651   4.521  17.642  0.3445  0.2890 -0.0662
 7895SOL    HW135321   3.668   4.508  17.735  0.1466  0.6316  0.0200
 7895SOL    HW235322   3.598   4.449  17.609 -0.4900 -0.8837  3.8566
 7896SOL     OW35323   1.700   2.703   4.068 -0.0494  0.0509  0.2657
 7896SOL    HW135324   1.617   2.668   4.100 -0.7452  1.1730 -0.3059
 7896SOL    HW235325   1.688   2.796   4.087 -1.9683 -0.5704  2.0596
 7897SOL     OW35326   2.358   2.884   1.149 -0.3027 -0.1038  0.2015
 7897SOL    HW135327   2.374   2.814   1.086 -0.9885 -1.0015  1.0350
 7897SOL    HW235328   2.293   2.938   1.103  2.6754  1.8845 -1.7125
 7898SOL     OW35329   3.076   1.521   5.964 -0.0889  0.2901  0.4840
 7898SOL    HW135330   3.076   1.519   5.868  0.3726 -0.0927  0.4906
 7898SOL    HW235331   3.094   1.431   5.991  0.6468  0.1235 -0.5747
 7899SOL     OW35332   3.864   1.354   6.975  0.5681  0.2992 -0.2850
 7899SOL    HW135333   3.866   1.450   6.968 -1.1930  0.6257  4.1671
 7899SOL    HW235334   3.897   1.326   6.889 -1.5715 -0.3235 -0.8872
 7900SOL     OW35335   0.945   0.533  10.063  0.0389 -0.6114  0.2137
 7900SOL    HW135336   1.013   0.534   9.996 -0.2199 -0.4491 -0.0482
 7900SOL    HW235337   0.896   0.461  10.023 -3.4940  2.1748 -0.5373
 7901SOL     OW35338   3.197   4.110  15.181 -0.2288  0.4122  0.2657
 7901SOL    HW135339   3.184   4.040  15.116  0.8328 -0.1304  0.6236
 7901SOL    HW235340   3.109   4.122  15.216  0.0238  0.0885  1.0052
 7902SOL     OW35341   0.659   3.556   8.235  0.2508  0.4878 -0.1557
 7902SOL    HW135342   0.677   3.465   8.255  0.9031  0.4460 -0.9511
 7902SOL    HW235343   0.634   3.556   8.142  1.5554 -0.3751 -0.5018
 7903SOL     OW35344   2.350   4.024  15.872  0.0831 -0.5961 -0.3266
 7903SOL    HW135345   2.401   3.954  15.833 -0.2279 -0.0143 -1.7645
 7903SOL    HW235346   2.337   3.994  15.962 -1.0592  1.9153  0.3450
 7904SOL     OW35347   4.042   2.114   7.666  0.0234 -0.7919 -0.4076
 7904SOL    HW135348   4.057   2.035   7.717  0.1919 -1.9409 -2.2368
 7904SOL    HW235349   3.997   2.167   7.732  1.4526 -1.0097  0.7409
 7905SOL     OW35350   2.551   2.257   5.622  0.1822  0.0681  0.3208
 7905SOL    HW135351   2.640   2.229   5.604  0.5551  2.3463 -1.4016
 7905SOL    HW235352   2.553   2.347   5.588  1.4792 -0.5255 -1.1788
 7906SOL     OW35353   0.974   0.818   6.020  0.0031 -0.1030 -0.5180
 7906SOL    HW135354   1.047   0.759   6.002  0.2180  0.3952 -1.2807
 7906SOL    HW235355   0.998   0.887   5.958  2.4425 -0.6235 -0.1340
 7907SOL     OW35356   3.284   2.045   7.346  0.1422  0.7570  0.4927
 7907SOL    HW135357   3.306   2.121   7.399 -1.3900  2.8470 -1.8730
 7907SOL    HW235358   3.206   2.011   7.391  1.0264 -1.4359  0.3547
 7908SOL     OW35359   3.127   1.739   3.817 -0.5556  0.3314  0.1916
 7908SOL    HW135360   3.208   1.691   3.796 -0.5510  1.3942 -2.2265
 7908SOL    HW235361   3.143   1.812   3.758 -0.3397 -1.6573 -2.2305
 7909SOL     OW35362   0.811   0.004  12.004  0.0282  0.1224 -0.1304
 7909SOL    HW135363   0.723   0.035  12.023  0.4657  0.3260  1.5578
 7909SOL    HW235364   0.849   0.088  11.976 -1.5677  1.1946  0.9373
 7910SOL     OW35365   1.717   4.486   7.097  0.3152  0.4538  0.3124
 7910SOL    HW135366   1.745   4.397   7.078  0.0601  0.4434 -0.0049
 7910SOL    HW235367   1.710   4.476   7.192 -1.2218 -0.2426  0.1335
 7911SOL     OW35368   1.165   2.405   3.362 -0.1503  0.3713 -0.5342
 7911SOL    HW135369   1.238   2.393   3.421 -0.4373 -1.1063 -0.4714
 7911SOL    HW235370   1.095   2.346   3.391  1.6357 -0.8428  1.2587
 7912SOL     OW35371   1.279   2.127   8.484 -0.2313 -0.1234  0.0292
 7912SOL    HW135372   1.267   2.212   8.525  1.8856 -0.4860  1.3840
 7912SOL    HW235373   1.189   2.099   8.470 -0.6222  3.4754 -4.6435
 7913SOL     OW35374   0.281   1.286   4.563 -0.0313 -0.0084  0.5694
 7913SOL    HW135375   0.250   1.368   4.602  0.2880  0.9085 -1.0694
 7913SOL    HW235376   0.361   1.325   4.527 -1.4986  1.3673 -1.2106
 7914SOL     OW35377   1.078   0.015   3.503 -0.5647 -0.1271  0.0000
 7914SOL    HW135378   1.108   4.684   3.446 -0.2011  0.6530 -0.7903
 7914SOL    HW235379   1.085   0.095   3.450 -0.9268  0.0515  0.2237
 7915SOL     OW35380   1.468   2.860   1.717 -0.0821 -0.2235 -0.4684
 7915SOL    HW135381   1.423   2.847   1.800  0.8079 -1.0294 -0.1156
 7915SOL    HW235382   1.560   2.862   1.743 -0.0414  0.3061 -0.6564
 7916SOL     OW35383   2.550   2.500   8.968 -0.2568  0.2849 -0.2562
 7916SOL    HW135384   2.610   2.567   9.001  2.1627 -1.3437 -1.3651
 7916SOL    HW235385   2.587   2.421   9.007 -0.2419 -0.1716 -1.2025
 7917SOL     OW35386   2.732   0.392   9.897  0.1992  0.2407 -0.5885
 7917SOL    HW135387   2.731   0.376   9.991 -0.1174 -1.7091 -0.9312
 7917SOL    HW235388   2.822   0.365   9.879 -0.3543 -1.9254 -0.1176
 7918SOL     OW35389   2.038   2.343   8.675  0.4622  0.2184 -0.2351
 7918SOL    HW135390   2.043   2.388   8.591  0.2468  1.3080  0.3349
 7918SOL    HW235391   2.100   2.398   8.724 -1.0987  1.8530 -0.0822
 7919SOL     OW35392   1.827   1.022   6.048 -0.4147  0.0674  0.5987
 7919SOL    HW135393   1.816   1.077   5.971  0.7178 -1.7043 -0.8420
 7919SOL    HW235394   1.922   1.019   6.049 -0.4590 -0.5730  1.9352
 7920SOL     OW35395   0.262   0.082  17.217  0.1388  0.1427  0.6939
 7920SOL    HW135396   0.325   0.120  17.278  1.1292  0.2292 -0.3757
 7920SOL    HW235397   0.197   0.152  17.217 -3.0809 -2.8316 -1.5183
 7921SOL     OW35398   1.186   3.275  14.334 -0.4771  0.4865 -0.6477
 7921SOL    HW135399   1.191   3.270  14.239 -0.8366 -0.1982 -0.6221
 7921SOL    HW235400   1.281   3.282  14.347 -0.8687  2.0574  1.3777
 7922SOL     OW35401   3.614   4.693   9.075 -0.2251  0.2966  0.2769
 7922SOL    HW135402   3.657   0.036   9.094 -1.9955  1.5040 -1.0192
 7922SOL    HW235403   3.644   4.676   8.986 -1.3152 -1.0073  0.1677
 7923SOL     OW35404   2.982   1.332   6.260  0.1626 -0.0522 -0.1818
 7923SOL    HW135405   3.000   1.278   6.337  1.4260 -2.0141 -1.8486
 7923SOL    HW235406   2.906   1.388   6.278 -1.4385 -2.2953  0.0217
 7924SOL     OW35407   3.407   3.279  10.826 -0.1237  0.0601 -0.5185
 7924SOL    HW135408   3.323   3.307  10.862  1.4511  1.2464  2.2262
 7924SOL    HW235409   3.383   3.189  10.802 -0.1069  0.0557 -0.5185
 7925SOL     OW35410   1.967   4.662   3.085 -0.1893 -0.0730  0.4602
 7925SOL    HW135411   1.994   4.720   3.014  2.3041 -1.0310  0.6120
 7925SOL    HW235412   1.876   4.640   3.064 -0.3302  0.2380  0.7343
 7926SOL     OW35413   2.666   3.120   9.389  0.0752  0.5154  0.1654
 7926SOL    HW135414   2.572   3.126   9.407 -0.3647 -1.7093 -1.4308
 7926SOL    HW235415   2.681   3.186   9.322 -1.2182 -0.3784 -1.0067
 7927SOL     OW35416   2.436   4.550   7.356 -0.5166 -0.1432 -0.0247
 7927SOL    HW135417   2.428   4.486   7.426  1.4196  0.3482  0.6613
 7927SOL    HW235418   2.381   4.614   7.401  0.6538  0.8146  0.0560
 7928SOL     OW35419   3.161   2.287   8.527 -0.1327  0.1204 -0.3401
 7928SOL    HW135420   3.228   2.295   8.459 -2.0237  3.6391 -1.7612
 7928SOL    HW235421   3.082   2.318   8.483 -0.6510 -2.3586 -1.1780
 7929SOL     OW35422   3.707   0.392   7.195 -0.4518 -0.1120 -0.7258
 7929SOL    HW135423   3.708   0.463   7.130 -2.5930 -0.2485 -0.8980
 7929SOL    HW235424   3.706   0.451   7.270 -2.9444 -1.9911  0.7315
 7930SOL     OW35425   3.509   1.514   3.061  0.3449  0.3680 -0.2735
 7930SOL    HW135426   3.449   1.589   3.054  1.4317  1.2896  0.2063
 7930SOL    HW235427   3.593   1.541   3.024  1.1199  0.2826  1.4126
 7931SOL     OW35428   0.028   3.629   0.669  0.4394  0.2938 -0.1360
 7931SOL    HW135429   0.063   3.546   0.702  1.7486  0.6520 -0.5927
 7931SOL    HW235430   4.695   3.648   0.727  0.1233 -1.4916  0.0583
 7932SOL     OW35431   3.527   2.111  15.161  0.5673  0.3211 -0.2259
 7932SOL    HW135432   3.616   2.146  15.159  1.3498 -1.7342 -1.1485
 7932SOL    HW235433   3.505   2.127  15.253 -1.8996 -2.6544 -0.2705
 7933SOL     OW35434   1.314   1.875  10.211 -0.1268 -0.2284 -0.0476
 7933SOL    HW135435   1.401   1.905  10.182  0.9115 -0.8380  2.4455
 7933SOL    HW235436   1.324   1.863  10.305 -1.1850 -4.0178 -0.4112
 7934SOL     OW35437   1.098   3.633   4.332 -0.2691  0.3518 -0.5453
 7934SOL    HW135438   1.004   3.650   4.335 -0.4955 -0.7374 -1.2789
 7934SOL    HW235439   1.134   3.681   4.406 -1.6779 -0.9864  1.0266
 7935SOL     OW35440   1.676   0.443   6.817 -0.2926  0.7026  0.1420
 7935SOL    HW135441   1.756   0.485   6.786 -0.8090 -0.7819 -3.1623
 7935SOL    HW235442   1.642   0.511   6.876 -0.2758  1.2935 -0.5364
 7936SOL     OW35443   3.266   3.165   4.944  0.5388 -0.0534 -0.3578
 7936SOL    HW135444   3.329   3.196   4.878  0.8092 -0.2700 -0.2001
 7936SOL    HW235445   3.231   3.091   4.894 -0.4036  0.4032 -0.3635
 7937SOL     OW35446   2.820   4.051   8.237  0.4362  0.1963 -0.1761
 7937SOL    HW135447   2.863   4.137   8.238  1.5439 -0.3366 -1.3576
 7937SOL    HW235448   2.783   4.076   8.152 -1.5481 -2.5129 -0.0828
 7938SOL     OW35449   3.522   2.059  11.144 -0.4521  0.0961  0.1306
 7938SOL    HW135450   3.464   2.035  11.216  1.8221 -5.8512 -0.0030
 7938SOL    HW235451   3.520   2.154  11.130  0.6419 -0.0864 -1.3458
 7939SOL     OW35452   0.630   2.963   8.278  0.6818 -0.0804  0.2074
 7939SOL    HW135453   0.535   2.969   8.287  0.8214  1.2182  0.7861
 7939SOL    HW235454   0.643   2.910   8.199 -0.4295  1.5093 -1.0329
 7940SOL     OW35455   3.469   4.049   7.698 -0.1776  0.4499 -0.2624
 7940SOL    HW135456   3.451   3.987   7.769 -0.2044 -0.1380 -0.7888
 7940SOL    HW235457   3.524   4.106   7.752  0.7006 -0.2975 -0.3622
 7941SOL     OW35458   2.206   4.338   4.327  0.3736  0.1134  0.9044
 7941SOL    HW135459   2.288   4.294   4.353  0.2664  0.3215  1.5801
 7941SOL    HW235460   2.217   4.332   4.232  0.9965 -1.3820  1.0603
 7942SOL     OW35461   0.100   4.168   6.479  0.4693 -0.2130 -0.1903
 7942SOL    HW135462   0.144   4.203   6.557  1.7888 -0.4305 -0.8207
 7942SOL    HW235463   0.113   4.078   6.506  0.1593 -0.5219 -1.0783
 7943SOL     OW35464   0.536   1.573   6.507 -0.1641 -0.0100 -0.0866
 7943SOL    HW135465   0.592   1.567   6.584 -2.1228  1.9317  1.4817
 7943SOL    HW235466   0.502   1.487   6.484 -1.7451  0.8665 -1.0392
 7944SOL     OW35467   2.107   1.373  16.720 -0.3324 -0.2581  0.3849
 7944SOL    HW135468   2.089   1.451  16.772 -3.5643 -1.4053  0.9412
 7944SOL    HW235469   2.089   1.301  16.780 -3.9211  0.7260  0.4755
 7945SOL     OW35470   4.456   2.594   8.631  0.2756  0.2448 -0.4961
 7945SOL    HW135471   4.424   2.516   8.677 -0.5146  1.4388  0.9742
 7945SOL    HW235472   4.398   2.601   8.554 -1.4840 -3.1058  0.5245
 7946SOL     OW35473   3.502   3.406   9.471  0.3902  0.0503 -0.2564
 7946SOL    HW135474   3.446   3.396   9.548  0.7006 -0.6120 -0.1161
 7946SOL    HW235475   3.441   3.436   9.405  1.0406  0.3829 -0.7011
 7947SOL     OW35476   1.791   4.718   5.528 -0.1798 -0.1333  0.4045
 7947SOL    HW135477   1.853   0.018   5.589  1.0868 -1.2856 -0.1112
 7947SOL    HW235478   1.735   4.667   5.586 -2.1999  0.5784 -0.9013
 7948SOL     OW35479   2.208   1.887   7.925  0.7722 -0.5852 -0.1846
 7948SOL    HW135480   2.113   1.897   7.918  0.8415 -1.5365 -2.4647
 7948SOL    HW235481   2.238   1.931   7.845 -1.6372 -1.5765 -1.6226
 7949SOL     OW35482   1.936   3.712   7.293 -0.0064 -0.0722 -0.0141
 7949SOL    HW135483   1.903   3.703   7.383  1.6863  0.9690  0.7058
 7949SOL    HW235484   1.979   3.628   7.278 -1.9357 -1.5247  2.6081
 7950SOL     OW35485   3.035   1.236   7.781  0.8648  0.0832  0.0753
 7950SOL    HW135486   2.953   1.213   7.736 -0.4882  2.5422  1.3199
 7950SOL    HW235487   3.041   1.327   7.753 -1.0636  0.9497  2.4585
 7951SOL     OW35488   1.995   2.356   0.572  0.2731 -0.4840 -0.4243
 7951SOL    HW135489   2.016   2.266   0.596  1.2088  0.2014  1.3276
 7951SOL    HW235490   2.027   2.410   0.644  1.3701 -1.1525 -0.4078
 7952SOL     OW35491   0.895   1.764   2.787 -0.0744  0.2557  0.7983
 7952SOL    HW135492   0.946   1.807   2.720 -0.2061  0.0560  0.5701
 7952SOL    HW235493   0.853   1.704   2.726  1.5092  0.4123 -0.4308
 7953SOL     OW35494   1.901   4.470   8.318  0.1525 -0.1883  0.1248
 7953SOL    HW135495   1.932   4.559   8.334 -0.1166 -0.0331 -0.2311
 7953SOL    HW235496   1.831   4.484   8.255 -0.3260  1.6663  1.0730
 7954SOL     OW35497   4.016   3.265   2.511  0.0325 -0.3120 -0.1366
 7954SOL    HW135498   4.039   3.331   2.447 -1.0092 -0.3743 -0.5663
 7954SOL    HW235499   3.982   3.198   2.451  1.6755  0.4465 -1.9181
 7955SOL     OW35500   0.722   1.341   8.738 -0.5632  0.1243 -0.5021
 7955SOL    HW135501   0.677   1.319   8.656  1.3400 -0.3031 -1.4109
 7955SOL    HW235502   0.802   1.291   8.724  0.6292  0.8137  4.1161
 7956SOL     OW35503   1.161   4.609  16.173  0.3702 -0.3752  0.3469
 7956SOL    HW135504   1.129   4.569  16.255  0.6992  1.4278  1.3554
 7956SOL    HW235505   1.095   4.584  16.108  2.3991 -3.3587 -0.5562
 7957SOL     OW35506   0.022   0.473   5.185 -0.9219 -0.8453  0.6190
 7957SOL    HW135507   4.682   0.439   5.147  0.1144 -4.1024  1.3430
 7957SOL    HW235508   0.083   0.485   5.112 -1.1685 -1.6087  0.2886
 7958SOL     OW35509   4.471   0.543   2.570 -0.3668  0.8598  0.9022
 7958SOL    HW135510   4.516   0.535   2.486  1.9641 -1.1075  2.3285
 7958SOL    HW235511   4.424   0.460   2.564 -1.7452  1.5206  2.6260
 7959SOL     OW35512   3.469   3.146  11.712 -0.0160  0.0536 -0.5039
 7959SOL    HW135513   3.388   3.161  11.760 -0.2614 -0.2810 -0.8153
 7959SOL    HW235514   3.477   3.051  11.727  0.7176  0.1287 -0.4061
 7960SOL     OW35515   1.047   0.977   7.798 -0.1178  0.0328  0.4939
 7960SOL    HW135516   0.965   0.936   7.822  0.3321 -0.5007  1.1012
 7960SOL    HW235517   1.033   1.060   7.843 -0.5286  1.3868 -2.0871
 7961SOL     OW35518   3.197   1.953   8.004 -0.2550  0.0120  0.4140
 7961SOL    HW135519   3.262   2.002   7.953 -0.8406 -0.2459 -0.5916
 7961SOL    HW235520   3.166   2.029   8.054 -1.2359  0.1216 -0.3543
 7962SOL     OW35521   4.363   3.509  10.089 -0.7468  0.0359 -0.0097
 7962SOL    HW135522   4.301   3.484  10.021 -1.4538 -1.8291  1.3400
 7962SOL    HW235523   4.437   3.448  10.081 -0.4967  0.3915 -0.4288
 7963SOL     OW35524   2.441   0.754   9.685  0.2963 -0.1397  0.2859
 7963SOL    HW135525   2.349   0.729   9.674  0.1103  0.9191 -0.6023
 7963SOL    HW235526   2.470   0.691   9.751  0.7940  1.5687  1.7068
 7964SOL     OW35527   0.119   3.143   3.466 -0.0900  0.0706  0.0752
 7964SOL    HW135528   0.057   3.145   3.393 -1.9433  0.1484  1.6501
 7964SOL    HW235529   0.060   3.117   3.536  1.6531  3.3765  2.7742
 7965SOL     OW35530   2.769   1.274  13.777  0.3182 -0.1407 -0.0113
 7965SOL    HW135531   2.856   1.241  13.796  0.3365  0.0551  0.2451
 7965SOL    HW235532   2.781   1.368  13.792 -2.6670  0.0708  1.1163
 7966SOL     OW35533   3.962   1.236   7.648  0.0626 -0.6736 -0.0034
 7966SOL    HW135534   4.056   1.247   7.665  0.2013 -2.2993  0.2422
 7966SOL    HW235535   3.960   1.182   7.569 -0.0439  0.0682 -0.5060
 7967SOL     OW35536   2.228   4.601   1.249  0.0721 -0.0293 -0.7530
 7967SOL    HW135537   2.171   4.645   1.186 -2.0061 -2.6642 -0.7335
 7967SOL    HW235538   2.286   4.548   1.196 -0.5838 -2.1912  0.7005
 7968SOL     OW35539   1.590   0.823   2.699 -0.5242 -0.3118  0.2766
 7968SOL    HW135540   1.642   0.745   2.678  1.3323  1.0148 -0.0124
 7968SOL    HW235541   1.572   0.814   2.792 -1.9773 -0.9380 -0.0623
 7969SOL     OW35542   1.581   1.209  15.995  0.1764  0.1689 -0.4385
 7969SOL    HW135543   1.617   1.130  16.037  0.9051 -0.5258 -2.3804
 7969SOL    HW235544   1.590   1.183  15.904 -0.3736 -2.4862  0.2744
 7970SOL     OW35545   3.219   1.652   7.296 -0.0397 -0.6371 -0.1500
 7970SOL    HW135546   3.261   1.703   7.227 -0.0430 -1.7587 -0.9918
 7970SOL    HW235547   3.163   1.586   7.254 -0.3337 -0.6249  0.2224
 7971SOL     OW35548   1.025   3.709   8.107  0.5085 -0.2267  0.0627
 7971SOL    HW135549   1.102   3.653   8.110 -0.3229 -1.4023 -0.4338
 7971SOL    HW235550   1.056   3.795   8.078  0.1873  0.2006  0.9690
 7972SOL     OW35551   1.058   2.023   3.396  0.0210 -0.5659 -0.7590
 7972SOL    HW135552   1.035   2.053   3.309  2.9317  1.4098 -0.8555
 7972SOL    HW235553   1.000   1.947   3.386  0.2909 -0.5459 -2.5133
 7973SOL     OW35554   1.308   4.546  11.130 -0.0764 -0.1182  0.2319
 7973SOL    HW135555   1.228   4.505  11.097 -1.1019  1.4231  0.7790
 7973SOL    HW235556   1.341   4.591  11.052  1.1334  1.7128  1.7982
 7974SOL     OW35557   0.327   2.533   3.182  0.0940 -0.1293  0.1609
 7974SOL    HW135558   0.301   2.527   3.275 -1.3045  3.6648  0.0166
 7974SOL    HW235559   0.248   2.582   3.159 -1.3774 -1.3297  2.5576
 7975SOL     OW35560   3.004   1.161  11.577 -0.0700  0.1712 -0.2588
 7975SOL    HW135561   2.948   1.206  11.640 -0.0997 -1.3676  0.8031
 7975SOL    HW235562   3.070   1.228  11.560  1.3268 -0.7460  1.6529
 7976SOL     OW35563   2.400   3.201  16.611 -0.6976 -0.3431  0.1547
 7976SOL    HW135564   2.377   3.144  16.537  0.4799 -2.6102  1.5351
 7976SOL    HW235565   2.319   3.206  16.661  0.0757 -2.6345  1.6009
 7977SOL     OW35566   4.110   1.182   7.428 -0.4873 -0.2681  0.2090
 7977SOL    HW135567   4.119   1.102   7.375 -1.2262  0.6299 -1.2869
 7977SOL    HW235568   4.057   1.230   7.365 -0.0827 -0.2648 -0.1330
 7978SOL     OW35569   1.831   4.582   4.377  0.0837  0.4472  0.0249
 7978SOL    HW135570   1.912   4.537   4.400 -1.3969 -2.3285 -0.1222
 7978SOL    HW235571   1.798   4.593   4.466 -1.7650  0.4777 -0.6530
 7979SOL     OW35572   1.898   3.518  15.060  0.0700  0.6636  0.5336
 7979SOL    HW135573   1.989   3.487  15.062  0.8316  2.9179  0.2776
 7979SOL    HW235574   1.849   3.436  15.053  2.0737 -0.5517  0.7255
 7980SOL     OW35575   1.543   4.462   2.091  0.2133  0.4783 -0.6000
 7980SOL    HW135576   1.546   4.557   2.097  1.7692  0.5158 -2.0876
 7980SOL    HW235577   1.523   4.440   2.182  2.9294  2.1508  0.3966
 7981SOL     OW35578   2.092   2.594   0.450 -0.5294 -0.7288 -0.4811
 7981SOL    HW135579   2.004   2.571   0.421 -0.6012  1.8514 -2.3456
 7981SOL    HW235580   2.101   2.525   0.516 -3.0517  1.3474  2.0627
 7982SOL     OW35581   4.225   0.611   6.515 -0.5022 -0.6613 -0.2525
 7982SOL    HW135582   4.226   0.527   6.561 -1.2917 -1.4038 -1.6063
 7982SOL    HW235583   4.242   0.672   6.588 -0.8377 -0.5649 -0.2556
 7983SOL     OW35584   3.782   4.475  17.309 -0.5807  0.5423 -0.3751
 7983SOL    HW135585   3.741   4.485  17.395 -0.9418  0.1983 -0.5052
 7983SOL    HW235586   3.735   4.399  17.273 -0.4685  0.5972 -0.6316
 7984SOL     OW35587   4.709   0.302   7.089  0.2067 -0.4490  0.2552
 7984SOL    HW135588   0.019   0.382   7.102 -0.0174  0.1230 -2.3058
 7984SOL    HW235589   0.020   0.229   7.124 -0.0814 -0.7559  0.0339
 7985SOL     OW35590   0.406   0.804  14.038  0.2185  0.4079 -0.1982
 7985SOL    HW135591   0.382   0.850  13.958  0.1435 -0.0632 -0.4444
 7985SOL    HW235592   0.322   0.785  14.080  0.5614 -1.1494 -0.2278
 7986SOL     OW35593   0.201   2.236  11.775  0.4121  0.1497  0.5946
 7986SOL    HW135594   0.123   2.181  11.777  0.1517  0.5116  0.3958
 7986SOL    HW235595   0.230   2.239  11.867  1.0574 -0.8082  0.4236
 7987SOL     OW35596   2.247   0.223   0.898 -0.2790 -0.1549  0.0157
 7987SOL    HW135597   2.256   0.257   0.808  1.6815 -0.6486  0.0074
 7987SOL    HW235598   2.152   0.234   0.902 -0.2896 -0.0091 -0.5911
 7988SOL     OW35599   0.993   4.549   1.743 -0.1955  0.9023 -0.1976
 7988SOL    HW135600   1.007   4.551   1.648 -1.3103  2.0111 -0.3399
 7988SOL    HW235601   1.068   4.595   1.780 -0.3927  0.0167  1.3173
 7989SOL     OW35602   3.400   4.522   1.581 -0.0374 -0.0304  0.1596
 7989SOL    HW135603   3.481   4.517   1.529  1.0982  4.4467  1.4574
 7989SOL    HW235604   3.398   4.446   1.639  2.0435 -0.3268 -0.1415
 7990SOL     OW35605   1.900   0.322   7.861  0.1325  0.3822  0.3556
 7990SOL    HW135606   1.875   0.367   7.942  1.3638  1.7843 -0.0485
 7990SOL    HW235607   1.975   0.268   7.884 -0.4663 -0.8064 -0.5202
 7991SOL     OW35608   3.419   3.881   3.111  0.0091  0.3733 -0.2225
 7991SOL    HW135609   3.480   3.952   3.093 -0.1026 -0.1669 -2.6826
 7991SOL    HW235610   3.449   3.857   3.198  1.5536  0.6402 -0.6916
 7992SOL     OW35611   2.394   3.003   0.722 -0.1411  0.4096 -0.0246
 7992SOL    HW135612   2.386   2.922   0.773 -1.2303 -0.4148 -1.4937
 7992SOL    HW235613   2.458   3.058   0.767 -0.0224 -0.6142  1.0676
 7993SOL     OW35614   4.191   1.216   2.218  0.6028  0.1334 -0.2414
 7993SOL    HW135615   4.174   1.128   2.250 -0.1719  0.6075  0.6524
 7993SOL    HW235616   4.240   1.196   2.138 -1.0217 -0.1549 -1.1621
 7994SOL     OW35617   1.303   1.988  12.629 -0.1687  0.4026 -0.9028
 7994SOL    HW135618   1.351   1.919  12.583 -1.4067 -1.7192  0.9574
 7994SOL    HW235619   1.321   2.069  12.582  3.1509  0.9191  1.2294
 7995SOL     OW35620   3.955   4.722   3.329  0.2381 -0.2371 -0.0212
 7995SOL    HW135621   4.003   0.008   3.408  2.0700 -0.9547 -0.9002
 7995SOL    HW235622   3.995   0.021   3.251 -0.1290  0.3312  0.0761
 7996SOL     OW35623   0.314   1.336   4.869  0.5343 -0.0525  0.0749
 7996SOL    HW135624   0.364   1.256   4.851 -0.5306 -0.5793 -0.5978
 7996SOL    HW235625   0.230   1.314   4.828  0.7964 -0.6482 -0.1399
 7997SOL     OW35626   4.065   1.751  17.470 -0.3429 -0.0710  0.2951
 7997SOL    HW135627   4.160   1.756  17.473 -0.4908  2.7096 -0.0684
 7997SOL    HW235628   4.056   1.779  17.379 -1.3888 -3.6053 -0.7217
 7998SOL     OW35629   2.579   4.260  15.011  0.1535 -0.3059 -0.0514
 7998SOL    HW135630   2.633   4.298  14.941  0.4507 -2.5289 -1.0091
 7998SOL    HW235631   2.493   4.266  14.968  0.0385 -2.8179 -0.1740
 7999SOL     OW35632   3.017   2.446  17.022 -0.0978  0.3447 -0.2108
 7999SOL    HW135633   2.976   2.531  17.006 -0.7686  0.2963  1.3143
 7999SOL    HW235634   3.013   2.433  17.117  0.7895  2.2836  0.0754
 8000SOL     OW35635   4.625   2.392   8.269 -0.4455 -0.5772 -0.3200
 8000SOL    HW135636   4.589   2.422   8.352 -0.6288  2.5234 -1.5246
 8000SOL    HW235637   4.650   2.302   8.288  0.3614 -0.6570 -1.7624
 8001SOL     OW35638   2.309   0.882   2.702  0.2688 -0.4706 -0.1980
 8001SOL    HW135639   2.268   0.947   2.759 -0.0867 -0.7553 -0.1313
 8001SOL    HW235640   2.283   0.917   2.616 -1.5305  0.9597  0.9254
 8002SOL     OW35641   2.592   3.361   2.012 -0.2623  0.1389 -0.6631
 8002SOL    HW135642   2.651   3.430   2.041 -0.8828 -0.4072  1.9434
 8002SOL    HW235643   2.632   3.343   1.927  1.2258 -4.3008  0.9296
 8003SOL     OW35644   0.070   0.366   2.465 -0.3325  0.2261  0.0355
 8003SOL    HW135645   0.010   0.292   2.456  0.4148 -0.3370 -0.3364
 8003SOL    HW235646   0.144   0.320   2.506  0.3785  0.1737 -1.2799
 8004SOL     OW35647   2.215   2.714  12.280 -0.2154  0.2038 -0.2832
 8004SOL    HW135648   2.222   2.782  12.213 -1.3405  1.1293  0.5520
 8004SOL    HW235649   2.170   2.640  12.238 -0.8545  0.1208  0.5554
 8005SOL     OW35650   2.377   0.002   1.989 -0.0573  0.2583  0.4964
 8005SOL    HW135651   2.469   4.734   1.964 -0.2134  0.1853 -0.0527
 8005SOL    HW235652   2.375   0.008   2.084 -0.0427  2.3835  0.3606
 8006SOL     OW35653   3.810   2.627   3.938  0.2269 -0.0952 -0.5093
 8006SOL    HW135654   3.836   2.597   4.025 -1.5338  0.2046  0.1274
 8006SOL    HW235655   3.807   2.722   3.950  1.6320 -0.0954 -0.1440
 8007SOL     OW35656   0.037   0.836  11.223 -0.4488  0.0539 -0.3082
 8007SOL    HW135657   0.055   0.746  11.250  2.5428 -0.0112 -2.3794
 8007SOL    HW235658   0.050   0.882  11.306  1.7918  1.1031 -1.1978
 8008SOL     OW35659   3.849   4.300   2.045  0.1599 -0.3632  0.0329
 8008SOL    HW135660   3.935   4.289   2.085 -1.2830 -1.2275  2.8463
 8008SOL    HW235661   3.796   4.229   2.081  0.0983  0.2745  1.1754
 8009SOL     OW35662   1.344   3.919   7.055  0.2289 -0.1738  0.0078
 8009SOL    HW135663   1.257   3.886   7.031  0.4422 -0.2364 -0.6652
 8009SOL    HW235664   1.405   3.871   7.000  0.1071  0.8430 -1.0126
 8010SOL     OW35665   3.234   2.283   5.074  0.1755  0.1993  0.0480
 8010SOL    HW135666   3.167   2.286   5.005  0.9654  0.0481 -0.7231
 8010SOL    HW235667   3.190   2.211   5.120  0.2875  0.1609  0.0957
 8011SOL     OW35668   0.652   4.001   6.636  0.5695 -0.2954 -0.2264
 8011SOL    HW135669   0.594   3.952   6.577  1.0671 -1.9309  0.6205
 8011SOL    HW235670   0.647   4.091   6.606  2.5273 -0.0375  0.2027
 8012SOL     OW35671   4.357   3.483   2.771 -0.3816  0.0731 -0.0023
 8012SOL    HW135672   4.415   3.553   2.798  1.0979 -0.9711 -0.5082
 8012SOL    HW235673   4.272   3.508   2.808  0.4132  1.8168  0.6303
 8013SOL     OW35674   2.989   2.551   5.467 -0.1877 -0.3624  0.6853
 8013SOL    HW135675   3.081   2.557   5.495  0.3098 -0.6771 -0.8675
 8013SOL    HW235676   2.943   2.626   5.504  1.7561  1.7864 -1.2229
 8014SOL     OW35677   4.602   2.763   6.966  0.1583 -0.1219 -0.4380
 8014SOL    HW135678   4.560   2.835   7.014  2.7068 -0.2078  1.9616
 8014SOL    HW235679   4.600   2.799   6.877  2.7067 -0.0908 -0.4742
 8015SOL     OW35680   4.411   3.612   3.475 -0.1649  0.0524 -0.6641
 8015SOL    HW135681   4.433   3.572   3.391 -1.3386 -1.3809 -0.2803
 8015SOL    HW235682   4.447   3.543   3.530 -0.1485  0.8836  0.3718
 8016SOL     OW35683   0.754   2.848   2.396  0.2946  0.3631  0.0687
 8016SOL    HW135684   0.697   2.845   2.473  1.6045 -0.8553  0.9976
 8016SOL    HW235685   0.687   2.833   2.329  1.4284  2.1195 -1.4504
 8017SOL     OW35686   4.584   2.586  15.421 -0.2746  0.4405  0.5633
 8017SOL    HW135687   4.552   2.671  15.391 -1.2516  0.7153  2.3842
 8017SOL    HW235688   4.497   2.546  15.418 -0.3902  0.7056  0.3619
 8018SOL     OW35689   0.051   3.197   8.923 -0.0727 -0.5621 -0.5652
 8018SOL    HW135690   0.023   3.177   9.013  0.0602 -0.4419 -0.4984
 8018SOL    HW235691   4.723   3.259   8.896 -0.5136 -0.4191  0.8203
 8019SOL     OW35692   3.172   2.671  11.430 -0.6925 -0.3669 -0.4371
 8019SOL    HW135693   3.230   2.723  11.375 -0.2854  0.9933  1.2889
 8019SOL    HW235694   3.103   2.729  11.461  0.0066  0.0723  0.3075
 8020SOL     OW35695   3.091   4.679   5.093 -0.1090  0.0690 -0.0158
 8020SOL    HW135696   3.111   4.634   5.175 -3.6755 -1.4318  0.0077
 8020SOL    HW235697   3.169   4.734   5.094 -0.0552 -0.0205  0.5470
 8021SOL     OW35698   0.349   1.127   4.001  0.5897  0.2090 -0.0369
 8021SOL    HW135699   0.360   1.037   4.031 -0.1588  0.5287  1.1826
 8021SOL    HW235700   0.286   1.156   4.067  0.7760  0.0479  0.2127
 8022SOL     OW35701   2.944   3.133  14.539 -0.3288  0.3246 -0.3547
 8022SOL    HW135702   2.904   3.172  14.461  0.0955  1.3111 -0.0714
 8022SOL    HW235703   3.009   3.196  14.570  0.3531 -0.1892 -0.7461
 8023SOL     OW35704   0.851   4.026  14.733 -0.6155 -0.0825  0.5273
 8023SOL    HW135705   0.811   4.049  14.650 -0.0036 -2.7654 -0.5241
 8023SOL    HW235706   0.806   3.950  14.769 -1.2911  0.9823  1.9410
 8024SOL     OW35707   1.614   3.570   5.742  0.2679  0.8523 -0.1495
 8024SOL    HW135708   1.692   3.569   5.798  0.4141  1.6776 -0.3303
 8024SOL    HW235709   1.554   3.529   5.803  3.6128 -3.1257  0.4458
 8025SOL     OW35710   0.690   3.659  11.718 -0.1694  0.2969  0.2722
 8025SOL    HW135711   0.599   3.683  11.702 -0.6257 -0.9647  0.9753
 8025SOL    HW235712   0.683   3.574  11.761 -0.6698  1.3093  2.1944
 8026SOL     OW35713   2.776   0.734   8.583  0.4642 -0.1713 -0.2030
 8026SOL    HW135714   2.851   0.685   8.552 -0.2655 -0.2724 -1.7776
 8026SOL    HW235715   2.805   0.816   8.544 -1.0992 -0.9500 -3.0189
 8027SOL     OW35716   1.425   2.716  16.626 -0.5643  0.6198 -0.1169
 8027SOL    HW135717   1.471   2.699  16.708  0.2215  3.2971  0.0101
 8027SOL    HW235718   1.401   2.627  16.601  0.7265  0.0144  0.8129
 8028SOL     OW35719   0.823   3.066   7.382  0.2223 -0.3497 -0.7209
 8028SOL    HW135720   0.832   3.114   7.464 -1.4775  0.1421 -0.8172
 8028SOL    HW235721   0.846   2.984   7.425  2.9506  0.5599 -0.4412
 8029SOL     OW35722   4.506   3.607   4.062 -0.0621 -0.3006 -0.6523
 8029SOL    HW135723   4.561   3.676   4.101 -1.4667  1.1341 -1.2151
 8029SOL    HW235724   4.561   3.572   3.991 -1.4850 -0.6237 -1.5911
 8030SOL     OW35725   0.411   0.833  15.777 -0.0927 -0.0851  0.2014
 8030SOL    HW135726   0.408   0.774  15.853 -0.2852 -1.0806 -0.5874
 8030SOL    HW235727   0.318   0.858  15.773 -0.4667 -1.2054  1.6320
 8031SOL     OW35728   0.958   2.255   9.233  0.2975  0.0105  0.1673
 8031SOL    HW135729   1.040   2.217   9.266  0.9398 -0.6123 -2.1671
 8031SOL    HW235730   1.001   2.312   9.169 -1.7016  1.0468 -0.2627
 8032SOL     OW35731   2.631   2.179   4.260  0.0675 -0.5645 -0.0561
 8032SOL    HW135732   2.712   2.226   4.281 -1.0350  1.7807 -1.0512
 8032SOL    HW235733   2.565   2.220   4.317  0.3018 -0.9470  0.4906
 8033SOL     OW35734   0.722   2.158   8.996  0.0508  0.1704  0.1165
 8033SOL    HW135735   0.804   2.120   8.966 -0.1498  0.7751 -1.1937
 8033SOL    HW235736   0.679   2.077   9.023  3.5099 -1.3813  0.9229
 8034SOL     OW35737   1.652   1.355   4.066 -0.1258 -0.5315  0.4414
 8034SOL    HW135738   1.586   1.292   4.037 -0.7951  0.0610  0.6731
 8034SOL    HW235739   1.663   1.313   4.151  1.3351  0.0491  0.5269
 8035SOL     OW35740   3.251   3.965   4.668  0.3590  0.9226 -0.0132
 8035SOL    HW135741   3.346   3.975   4.674  0.4988  0.1634 -0.9083
 8035SOL    HW235742   3.231   3.904   4.739 -2.2637  1.6958 -0.0764
 8036SOL     OW35743   3.836   0.380   3.591 -0.4678 -0.4738 -0.1165
 8036SOL    HW135744   3.913   0.432   3.569  0.1946 -0.8466  1.3365
 8036SOL    HW235745   3.871   0.333   3.667  1.0934  1.0774  0.1153
 8037SOL     OW35746   2.758   4.256   2.389  0.3349 -0.2673 -0.1633
 8037SOL    HW135747   2.725   4.320   2.326  1.2196  1.0198  0.6798
 8037SOL    HW235748   2.771   4.172   2.346 -1.0981 -1.8402  2.5236
 8038SOL     OW35749   4.011   0.280   3.830  0.3582 -0.3370 -0.7229
 8038SOL    HW135750   4.017   0.201   3.884  1.2153  0.5466  0.4652
 8038SOL    HW235751   4.098   0.290   3.791  0.3137  1.2567 -0.4009
 8039SOL     OW35752   2.760   3.449  14.923 -0.1665  0.3663  0.2838
 8039SOL    HW135753   2.806   3.386  14.978 -0.0069  0.8105  0.6612
 8039SOL    HW235754   2.683   3.401  14.892  1.2498 -0.7953 -1.4133
 8040SOL     OW35755   3.444   0.819  14.716 -0.2686  0.2267 -0.1611
 8040SOL    HW135756   3.480   0.883  14.655  0.7059  0.7755  0.9837
 8040SOL    HW235757   3.365   0.859  14.752  1.2788  1.5367  1.7642
 8041SOL     OW35758   4.481   4.041   7.362  0.0602  0.6520 -0.7276
 8041SOL    HW135759   4.553   4.105   7.367  0.8121 -0.3358  0.9696
 8041SOL    HW235760   4.411   4.106   7.367  0.5252  1.0176  1.0556
 8042SOL     OW35761   2.204   3.361   3.777 -0.3921  0.1179  0.2242
 8042SOL    HW135762   2.135   3.300   3.804 -0.3086  0.5885  1.4736
 8042SOL    HW235763   2.172   3.374   3.687 -0.0285  0.7483  0.1885
 8043SOL     OW35764   0.662   0.885  12.068 -0.4422 -0.4383 -0.2508
 8043SOL    HW135765   0.637   0.938  11.992 -3.3217  0.5470  1.4124
 8043SOL    HW235766   0.704   0.962  12.106 -2.1349 -0.8276  2.3847
 8044SOL     OW35767   0.668   0.844   3.951 -0.9333 -0.2713  0.0225
 8044SOL    HW135768   0.724   0.915   3.921 -0.7719 -0.6102 -0.4860
 8044SOL    HW235769   0.596   0.841   3.887 -1.4729 -1.6041  0.6925
 8045SOL     OW35770   0.175   3.514   7.801 -0.0477  0.4722  0.5842
 8045SOL    HW135771   0.138   3.600   7.780 -0.5957 -0.0701 -0.6536
 8045SOL    HW235772   0.193   3.525   7.894 -0.7323  3.1878  0.4071
 8046SOL     OW35773   2.644   2.251   7.014 -0.0289  0.7204 -0.0227
 8046SOL    HW135774   2.723   2.200   7.028 -1.9482 -1.0663  4.3805
 8046SOL    HW235775   2.655   2.274   6.922  2.5218  0.1425  0.1569
 8047SOL     OW35776   1.435   4.591   1.476 -0.2733  0.6616  0.4418
 8047SOL    HW135777   1.423   4.500   1.450 -0.9216  0.8037  0.2595
 8047SOL    HW235778   1.455   4.593   1.570  0.6463 -1.9721  0.3156
 8048SOL     OW35779   2.304   0.360   3.707  0.3373  0.1284 -0.2411
 8048SOL    HW135780   2.278   0.416   3.780 -1.7764 -3.9604  2.1292
 8048SOL    HW235781   2.360   0.299   3.756 -1.9032 -0.4232  1.6518
 8049SOL     OW35782   2.008   3.928  17.260 -0.0804 -0.7023 -0.3409
 8049SOL    HW135783   2.042   3.956  17.175 -1.5614 -0.6774 -0.9259
 8049SOL    HW235784   1.913   3.930  17.258 -0.0466  1.6360  0.1726
 8050SOL     OW35785   2.417   4.246   5.398  0.3765  0.1649 -0.8323
 8050SOL    HW135786   2.465   4.287   5.325  0.4963  0.2326 -0.7145
 8050SOL    HW235787   2.475   4.267   5.470 -0.2615  1.8877 -0.8270
 8051SOL     OW35788   0.287   1.959   9.609 -0.9951 -0.4293 -0.0116
 8051SOL    HW135789   0.301   2.053   9.609  1.1345 -0.7605  0.9703
 8051SOL    HW235790   0.311   1.924   9.694 -2.5848 -1.1450  0.1511
 8052SOL     OW35791   1.054   3.669  12.511  0.0013  0.0648 -0.5400
 8052SOL    HW135792   1.070   3.762  12.525  2.5001 -0.0967 -2.3140
 8052SOL    HW235793   1.119   3.619  12.560  0.1211  2.0795  1.3283
 8053SOL     OW35794   3.681   4.085   3.609 -0.4301 -0.2783  0.1583
 8053SOL    HW135795   3.756   4.117   3.559  0.7889 -1.7702  1.0311
 8053SOL    HW235796   3.649   4.009   3.560  0.8998 -0.6719 -0.1168
 8054SOL     OW35797   1.484   2.710   6.895  0.3275  0.3957 -0.3001
 8054SOL    HW135798   1.573   2.677   6.884 -0.4140 -1.8363  0.5239
 8054SOL    HW235799   1.493   2.775   6.965 -1.7923 -0.9223  1.2062
 8055SOL     OW35800   4.395   2.248   6.275 -0.4248  0.2986  0.6589
 8055SOL    HW135801   4.488   2.271   6.268 -0.3011 -0.0748  1.0645
 8055SOL    HW235802   4.387   2.200   6.358  3.7057  0.1318  0.9853
 8056SOL     OW35803   2.026   3.922   4.823 -0.4243  0.6637 -0.0355
 8056SOL    HW135804   1.951   3.943   4.768  2.0534  1.2412 -3.2507
 8056SOL    HW235805   1.994   3.924   4.913  3.5482  0.6606  1.4046
 8057SOL     OW35806   3.836   1.300   2.904 -0.3628 -0.9812  0.2613
 8057SOL    HW135807   3.839   1.217   2.950  1.0858 -1.3399 -0.4643
 8057SOL    HW235808   3.744   1.306   2.880 -0.1594  1.7163  0.1559
 8058SOL     OW35809   0.305   2.438   8.364 -0.4856  0.3641 -1.0569
 8058SOL    HW135810   0.398   2.421   8.380 -0.7887  0.2881  0.6581
 8058SOL    HW235811   0.281   2.482   8.446 -1.4730  1.1499 -1.7566
 8059SOL     OW35812   2.670   1.084  15.321  0.4079 -0.0605 -0.2508
 8059SOL    HW135813   2.715   1.106  15.402 -3.3440  1.0927  1.5295
 8059SOL    HW235814   2.614   1.159  15.303  1.8839  1.2913  0.8162
 8060SOL     OW35815   1.048   2.152   4.983  0.3024 -0.3704  0.0641
 8060SOL    HW135816   1.128   2.137   5.034  1.5093  0.0757 -1.6590
 8060SOL    HW235817   1.028   2.236   5.023 -2.4803 -1.6277  1.2901
 8061SOL     OW35818   2.709   3.073   3.683  0.6849  0.3943  0.0095
 8061SOL    HW135819   2.630   3.109   3.724 -1.4442 -3.2055 -0.9126
 8061SOL    HW235820   2.714   3.125   3.603 -0.4431  0.5353  0.0254
 8062SOL     OW35821   1.336   1.857   4.361 -0.2961 -0.1358 -0.1867
 8062SOL    HW135822   1.312   1.882   4.272  1.2819 -1.8707 -1.1006
 8062SOL    HW235823   1.412   1.907   4.391 -0.5004 -0.8142  1.4109
 8063SOL     OW35824   0.992   3.184  13.186 -0.3278  0.4645  0.3072
 8063SOL    HW135825   0.926   3.181  13.255 -1.5889  0.9919 -0.8836
 8063SOL    HW235826   1.004   3.276  13.165  2.0877  0.3918  1.3931
 8064SOL     OW35827   3.908   1.630   4.963 -0.6052  0.1796 -0.2380
 8064SOL    HW135828   3.827   1.653   5.009  0.4456  0.9648  1.2288
 8064SOL    HW235829   3.975   1.690   4.996  0.7990 -0.7179 -1.4444
 8065SOL     OW35830   3.026   0.411   3.999  0.4395 -1.1263 -0.1330
 8065SOL    HW135831   2.995   0.357   4.071  1.4528 -1.7546 -0.1714
 8065SOL    HW235832   2.985   0.368   3.925  1.3723 -1.7994 -0.2616
 8066SOL     OW35833   3.712   1.524   2.700  1.1213 -0.1555 -0.6426
 8066SOL    HW135834   3.752   1.456   2.646  1.0060  0.2426 -1.2300
 8066SOL    HW235835   3.690   1.592   2.636  3.3268  0.6127 -0.6079
 8067SOL     OW35836   2.876   3.631   8.526  0.4549 -0.3632 -1.0489
 8067SOL    HW135837   2.792   3.665   8.557  0.4164 -0.3140 -1.2100
 8067SOL    HW235838   2.894   3.661   8.437  0.5607  0.0457 -0.8921
 8068SOL     OW35839   0.136   4.137  10.240 -0.0047 -0.5627 -0.3775
 8068SOL    HW135840   0.124   4.093  10.324  2.9880  1.7063  1.2335
 8068SOL    HW235841   0.229   4.158  10.241  0.1398 -1.2119 -0.3687
 8069SOL     OW35842   2.086   3.432   3.536  0.8611  0.3149 -0.2317
 8069SOL    HW135843   2.134   3.484   3.472 -0.4894 -0.7580 -2.1029
 8069SOL    HW235844   2.074   3.353   3.484  0.9623  1.2363 -1.6459
 8070SOL     OW35845   2.157   3.562   1.580 -0.2197 -0.1958 -0.2061
 8070SOL    HW135846   2.153   3.579   1.674 -0.5350  0.9917 -0.4349
 8070SOL    HW235847   2.219   3.493   1.603  0.8580  1.2188  1.1251
 8071SOL     OW35848   1.028   3.186   0.351 -0.3246  0.5955 -0.3588
 8071SOL    HW135849   0.936   3.211   0.342 -0.3176  0.8541  0.2501
 8071SOL    HW235850   1.030   3.133   0.431  0.0616 -0.4018 -1.0339
 8072SOL     OW35851   0.606   4.186   4.365 -0.2251 -0.1545  0.2867
 8072SOL    HW135852   0.627   4.275   4.393 -0.5976  0.6356 -2.0007
 8072SOL    HW235853   0.670   4.131   4.411 -1.8539 -0.5593  2.0757
 8073SOL     OW35854   1.021   4.315  13.477  0.5698 -0.0274 -0.1684
 8073SOL    HW135855   1.071   4.236  13.458  1.2155  0.7578 -1.7402
 8073SOL    HW235856   0.935   4.278  13.495  0.3823  0.8090  0.7062
 8074SOL     OW35857   4.477   0.048  13.725  0.3915 -0.1878  0.4574
 8074SOL    HW135858   4.510   0.086  13.643 -0.5503 -2.7138 -1.0949
 8074SOL    HW235859   4.494   0.117  13.789 -0.3487  0.8774 -0.4883
 8075SOL     OW35860   2.348   4.460   6.755 -0.0529 -0.2118 -0.0726
 8075SOL    HW135861   2.384   4.420   6.834  1.6326 -0.8876 -1.1865
 8075SOL    HW235862   2.427   4.469   6.701 -1.6535  3.0927 -1.8570
 8076SOL     OW35863   4.283   2.870  12.674  0.2119  0.1490  0.3052
 8076SOL    HW135864   4.314   2.787  12.637  0.3238 -0.1292  1.0172
 8076SOL    HW235865   4.304   2.930  12.603  3.3499  0.1308  1.1827
 8077SOL     OW35866   3.248   4.679   3.238 -0.0040 -0.1666  0.3766
 8077SOL    HW135867   3.193   4.633   3.302 -0.4422 -0.2016 -0.0197
 8077SOL    HW235868   3.331   4.633   3.243  1.0599  1.9341  1.8723
 8078SOL     OW35869   0.795   3.460  11.904  0.0074  0.2751 -0.0980
 8078SOL    HW135870   0.863   3.468  11.838  0.8266  1.8927  0.9513
 8078SOL    HW235871   0.785   3.365  11.913  0.0796  0.3187  0.4208
 8079SOL     OW35872   1.349   3.685   7.735  0.3316  0.2560  0.0563
 8079SOL    HW135873   1.422   3.672   7.797 -3.8147 -0.1941  4.8719
 8079SOL    HW235874   1.370   3.618   7.670  2.9349 -0.1677  1.2909
 8080SOL     OW35875   0.663   4.136   5.207 -0.4458 -0.5380 -0.0546
 8080SOL    HW135876   0.745   4.177   5.232 -1.5856  0.8687  1.3778
 8080SOL    HW235877   0.688   4.047   5.233 -1.3375 -0.7528  0.0776
 8081SOL     OW35878   3.072   1.228   9.970 -0.1736 -0.2289  0.2115
 8081SOL    HW135879   3.091   1.252  10.061  1.1982 -1.9478  0.3710
 8081SOL    HW235880   2.993   1.175   9.975 -0.1884 -0.1291  1.0786
 8082SOL     OW35881   1.634   1.971   3.714  0.0245 -0.0400 -0.4051
 8082SOL    HW135882   1.619   2.064   3.698  2.1757  0.5167  0.7960
 8082SOL    HW235883   1.723   1.959   3.681  0.7428  2.6376  0.5635
 8083SOL     OW35884   3.668   0.283   2.315 -0.2768  0.8906  0.2454
 8083SOL    HW135885   3.634   0.235   2.239  0.0880  2.2578 -0.7843
 8083SOL    HW235886   3.734   0.342   2.279  0.0018 -0.0926 -0.8923
 8084SOL     OW35887   0.223   2.657   8.636 -0.1565 -0.5242 -0.0960
 8084SOL    HW135888   0.145   2.638   8.584  1.3007  1.9337 -3.2238
 8084SOL    HW235889   0.230   2.577   8.689  0.4313 -0.3259  0.1225
 8085SOL     OW35890   0.636   4.168  11.407 -0.0160 -0.4515  0.0027
 8085SOL    HW135891   0.642   4.263  11.412  0.9890 -0.4571 -0.9402
 8085SOL    HW235892   0.615   4.150  11.315  1.9151  0.6540 -0.6575
 8086SOL     OW35893   1.962   0.705  11.541 -0.5047  0.4070 -0.0985
 8086SOL    HW135894   2.002   0.663  11.617  1.2022  0.9456 -0.6975
 8086SOL    HW235895   1.955   0.794  11.575 -0.9050 -0.1454  1.2873
 8087SOL     OW35896   0.142   3.052  14.777 -0.0669 -0.4724 -0.3780
 8087SOL    HW135897   0.202   3.002  14.722  1.2314 -0.9619  1.4622
 8087SOL    HW235898   0.150   2.993  14.852 -1.9587 -0.3255 -0.0647
 8088SOL     OW35899   1.172   3.066   3.954 -0.2715 -0.5048  0.6251
 8088SOL    HW135900   1.102   3.026   3.903  0.9118 -1.4091 -0.2892
 8088SOL    HW235901   1.248   3.050   3.898 -0.1573 -1.5326  1.0821
 8089SOL     OW35902   1.959   1.027   4.105 -0.5885  0.1882 -0.3936
 8089SOL    HW135903   2.003   0.995   4.183 -0.9603  0.8356  0.0816
 8089SOL    HW235904   2.022   1.096   4.083 -2.3456  1.5581 -1.0767
 8090SOL     OW35905   1.055   0.155   2.025  0.1038  0.2532  0.0264
 8090SOL    HW135906   0.966   0.129   2.003  0.0689  0.7952 -0.4866
 8090SOL    HW235907   1.093   0.080   2.070  1.9870  0.3709 -1.3417
 8091SOL     OW35908   1.092   1.004  17.753  0.0369 -0.1528  0.2499
 8091SOL    HW135909   1.155   0.934   0.011 -0.2079 -0.1023  1.3439
 8091SOL    HW235910   1.036   0.957  17.690  0.6498 -0.2585 -0.2151
 8092SOL     OW35911   2.450   0.708  10.151  0.3755  0.7464  0.2674
 8092SOL    HW135912   2.542   0.693  10.174  1.3722  1.6128 -3.0387
 8092SOL    HW235913   2.462   0.663  10.067  1.0941  1.3441  0.0543
 8093SOL     OW35914   0.207   0.384   4.302 -0.4501  0.0244 -0.3035
 8093SOL    HW135915   0.229   0.291   4.296 -2.0224 -0.2157 -2.3137
 8093SOL    HW235916   0.147   0.398   4.229  1.1038  0.8274 -1.4397
 8094SOL     OW35917   4.110   1.485  17.372  0.5278  0.1805  0.1395
 8094SOL    HW135918   4.070   1.562  17.413 -0.6182 -1.7410  2.6456
 8094SOL    HW235919   4.146   1.513  17.288  0.5381 -1.0843 -0.2825
 8095SOL     OW35920   0.772   3.432   4.647 -0.1479  0.1351 -1.1398
 8095SOL    HW135921   0.756   3.390   4.731  0.2835  1.0541 -0.6002
 8095SOL    HW235922   0.850   3.482   4.671 -1.3511  1.6165 -0.3222
 8096SOL     OW35923   0.551   0.161   9.387  0.1740  0.2575 -0.0309
 8096SOL    HW135924   0.480   0.099   9.368 -0.1891  1.2285 -1.8569
 8096SOL    HW235925   0.611   0.141   9.316 -0.3740  0.9344 -0.6852
 8097SOL     OW35926   4.394   1.814   7.909 -0.3414  0.3716  0.1664
 8097SOL    HW135927   4.338   1.773   7.844 -0.3313  0.2433  0.2383
 8097SOL    HW235928   4.437   1.879   7.853  1.0249 -2.3148 -1.9143
 8098SOL     OW35929   3.506   3.500  15.869  0.0257  0.2870  0.0261
 8098SOL    HW135930   3.579   3.562  15.856 -0.6061  1.4246  1.8469
 8098SOL    HW235931   3.532   3.459  15.952  0.7684 -2.5122 -1.6262
 8099SOL     OW35932   3.749   2.342   8.911 -0.1844  0.0835 -0.8489
 8099SOL    HW135933   3.810   2.281   8.870  0.3336 -1.1878  1.8634
 8099SOL    HW235934   3.683   2.276   8.936  0.1663 -0.6197 -1.7492
 8100SOL     OW35935   1.442   0.970  17.173 -0.4645  0.1510  0.0564
 8100SOL    HW135936   1.451   1.056  17.215 -1.5710  1.3938 -2.2506
 8100SOL    HW235937   1.411   0.909  17.239  1.7847 -2.6754 -1.4613
 8101SOL     OW35938   2.978   4.475   7.119  0.0764  0.1206 -0.0801
 8101SOL    HW135939   3.017   4.399   7.075  1.5675 -1.0906  3.3300
 8101SOL    HW235940   3.005   4.548   7.062  3.1946  0.3863  1.7355
 8102SOL     OW35941   4.601   0.382   6.548  0.5957 -0.7278  0.7681
 8102SOL    HW135942   4.631   0.305   6.499  0.7801  0.3613 -0.8475
 8102SOL    HW235943   4.507   0.371   6.533  0.4988  0.5817  0.3539
 8103SOL     OW35944   3.122   3.835  13.840  0.3699  0.0762  0.4004
 8103SOL    HW135945   3.109   3.909  13.780  0.6263  0.0370  0.3000
 8103SOL    HW235946   3.040   3.845  13.889  0.2143 -2.9007  0.7591
 8104SOL     OW35947   4.450   1.685   0.347 -0.3539 -0.0446  0.1380
 8104SOL    HW135948   4.400   1.615   0.305  1.6943 -0.0952 -2.2182
 8104SOL    HW235949   4.462   1.733   0.265 -0.4387 -1.9017 -0.9761
 8105SOL     OW35950   4.253   3.700   3.075  0.0747 -0.0181 -0.4298
 8105SOL    HW135951   4.315   3.647   3.125 -0.4905 -2.0420 -1.8514
 8105SOL    HW235952   4.184   3.722   3.138  2.5242  3.6438  0.9578
 8106SOL     OW35953   3.754   1.123   8.177 -0.2950 -0.0981 -0.5545
 8106SOL    HW135954   3.699   1.201   8.171 -0.8569 -0.6326 -2.3911
 8106SOL    HW235955   3.845   1.151   8.168  0.1434 -0.6514  2.0211
 8107SOL     OW35956   2.373   4.244   3.008 -0.3535  0.5105  0.0048
 8107SOL    HW135957   2.350   4.335   3.028 -2.1135  0.0808 -0.0834
 8107SOL    HW235958   2.453   4.264   2.960 -0.1573 -0.4298 -0.0587
 8108SOL     OW35959   0.132   4.318   7.324  0.5852 -0.0460  0.5259
 8108SOL    HW135960   0.054   4.265   7.339 -0.6933  1.0187 -2.3604
 8108SOL    HW235961   0.206   4.257   7.331  0.0132 -0.7943  0.1155
 8109SOL     OW35962   3.224   1.617  11.584 -0.2156  0.1304  0.0149
 8109SOL    HW135963   3.210   1.706  11.615 -0.1120  0.8407 -1.9718
 8109SOL    HW235964   3.290   1.630  11.517  1.3213  1.9972  1.8883
 8110SOL     OW35965   4.681   0.047   3.169 -0.2149  0.3562  0.3820
 8110SOL    HW135966   4.711   0.067   3.258 -2.6128 -0.8238  1.4419
 8110SOL    HW235967   0.007   0.098   3.123 -0.6804  0.7393  0.1281
 8111SOL     OW35968   2.414   1.959   2.510 -0.6079 -0.4647 -0.0608
 8111SOL    HW135969   2.337   1.948   2.566 -0.7379  1.1116  0.0748
 8111SOL    HW235970   2.411   2.055   2.501  1.3722 -0.3999 -0.0695
 8112SOL     OW35971   0.908   1.160   8.687  0.1936 -0.5152  0.2202
 8112SOL    HW135972   0.896   1.070   8.717  3.0474 -0.3499  1.8941
 8112SOL    HW235973   0.916   1.138   8.594  1.8342  0.3371  0.1600
 8113SOL     OW35974   3.935   2.225  15.590  0.0548 -0.0636  0.1373
 8113SOL    HW135975   3.978   2.173  15.522 -0.1040  1.7725 -1.3361
 8113SOL    HW235976   3.938   2.165  15.665 -0.3755 -1.6577 -1.1104
 8114SOL     OW35977   1.752   0.909  12.482 -0.0000  0.5305 -0.1069
 8114SOL    HW135978   1.844   0.926  12.462  0.2535 -1.4537 -0.6748
 8114SOL    HW235979   1.730   0.818  12.462 -0.3677  0.3547  1.0839
 8115SOL     OW35980   2.388   0.036   6.647  0.2547  0.1412 -0.2283
 8115SOL    HW135981   2.406   0.109   6.588  1.8747  0.2470  0.3949
 8115SOL    HW235982   2.467   4.723   6.651 -0.5250 -1.0166 -0.0173
 8116SOL     OW35983   0.356   3.608   7.574  0.4533  0.2431  0.1400
 8116SOL    HW135984   0.366   3.687   7.627 -0.3212 -0.4964  1.3889
 8116SOL    HW235985   0.280   3.560   7.607  0.1800 -1.0993 -2.4548
 8117SOL     OW35986   0.880   3.912   3.317 -0.2014 -0.0256  0.3863
 8117SOL    HW135987   0.872   3.917   3.222  2.5409  1.8758  0.2318
 8117SOL    HW235988   0.903   4.005   3.324 -0.2943  0.0481 -0.3486
 8118SOL     OW35989   0.350   0.329   9.481  0.1445 -0.5581  0.2426
 8118SOL    HW135990   0.278   0.308   9.421 -0.7653  0.6475  0.8937
 8118SOL    HW235991   0.429   0.296   9.439 -0.5724  0.4338 -1.8831
 8119SOL     OW35992   2.904   2.657   1.196  0.1485  0.0985  0.4477
 8119SOL    HW135993   2.983   2.650   1.250  0.5577  3.1266  0.2136
 8119SOL    HW235994   2.922   2.719   1.126 -2.5960  0.8014  0.3666
 8120SOL     OW35995   0.630   1.232   8.156  0.0788  0.3687 -0.5757
 8120SOL    HW135996   0.535   1.232   8.150  0.1234 -0.3770 -1.2813
 8120SOL    HW235997   0.660   1.276   8.076  0.4075  0.8045 -0.2178
 8121SOL     OW35998   2.709   4.702   7.522  0.1652  0.9972  0.3073
 8121SOL    HW135999   2.803   4.719   7.528  0.0183  2.0401 -0.5460
 8121SOL    HW236000   2.682   0.000   7.439  0.7049 -0.3005 -0.4707
 8122SOL     OW36001   2.082   0.116   7.314  0.1599  0.2615  0.2536
 8122SOL    HW136002   2.142   0.094   7.243 -1.4357  1.3758 -1.4488
 8122SOL    HW236003   2.001   0.090   7.271  0.6867  0.3780 -0.7900
 8123SOL     OW36004   2.912   4.350   0.230 -0.1976  0.5566 -0.2298
 8123SOL    HW136005   2.982   4.407   0.199 -0.1444  2.1435  2.8662
 8123SOL    HW236006   2.921   4.358   0.325 -1.1855  3.2791 -0.3856
 8124SOL     OW36007   2.102   1.729  11.721  0.2404 -0.3522  0.0222
 8124SOL    HW136008   2.066   1.793  11.660 -1.4186 -0.5216  0.8464
 8124SOL    HW236009   2.171   1.783  11.758  0.7838 -1.6067  0.8449
 8125SOL     OW36010   0.851   4.215   7.663 -0.0644 -0.1454 -0.0669
 8125SOL    HW136011   0.842   4.310   7.665 -0.3092 -0.1690 -0.0911
 8125SOL    HW236012   0.840   4.196   7.756 -1.2137  0.7224 -0.0319
 8126SOL     OW36013   2.574   4.703  11.863  0.3910  0.4376 -0.1330
 8126SOL    HW136014   2.632   0.023  11.908  1.3304 -1.7415  1.5837
 8126SOL    HW236015   2.613   4.618  11.885 -0.3097  0.3416  0.7303
 8127SOL     OW36016   1.788   4.394   8.921 -0.2634 -0.2088 -0.0368
 8127SOL    HW136017   1.724   4.431   8.860 -0.0806  0.6573  0.2919
 8127SOL    HW236018   1.813   4.309   8.885 -0.4083  0.6180 -2.1429
 8128SOL     OW36019   1.186   2.455   2.467  0.6706  0.4496 -0.3537
 8128SOL    HW136020   1.162   2.545   2.490 -0.5396 -0.6147  2.6247
 8128SOL    HW236021   1.100   2.416   2.479  0.4232  0.9348 -0.5605
 8129SOL     OW36022   0.128   3.723  16.126 -0.2585 -0.1572 -0.0765
 8129SOL    HW136023   0.166   3.787  16.066 -0.3704 -0.1298 -0.1193
 8129SOL    HW236024   0.159   3.753  16.211 -2.1495 -0.2139  0.6331
 8130SOL     OW36025   1.671   1.898   5.899 -0.1396  0.3131 -0.2052
 8130SOL    HW136026   1.763   1.908   5.925  0.2995 -0.9542 -1.2192
 8130SOL    HW236027   1.631   1.929   5.980  0.2186  0.2927 -0.0180
 8131SOL     OW36028   2.623   2.380   5.274 -0.2693 -0.1098  0.5406
 8131SOL    HW136029   2.665   2.465   5.286  0.2732 -0.6784  2.6627
 8131SOL    HW236030   2.643   2.336   5.357 -1.2055 -0.1454  0.7551
 8132SOL     OW36031   4.371   2.911   2.007 -0.7067  0.3170  0.2657
 8132SOL    HW136032   4.313   2.892   2.081 -1.1859 -1.7606 -0.6558
 8132SOL    HW236033   4.360   3.002   1.979 -1.8249  0.3442  0.8010
 8133SOL     OW36034   2.078   2.528   8.452 -0.4276 -0.4207  0.3149
 8133SOL    HW136035   2.163   2.568   8.471  0.3858 -1.7282 -0.5461
 8133SOL    HW236036   2.087   2.500   8.360  0.2121  1.7573 -0.2995
 8134SOL     OW36037   1.891   3.608   2.958 -0.4974  0.0834  0.0030
 8134SOL    HW136038   1.806   3.651   2.967 -1.2878 -1.6409  0.7782
 8134SOL    HW236039   1.942   3.666   3.015 -1.7591  0.0695  1.1410
 8135SOL     OW36040   0.551   2.743   2.188 -0.6002  0.1720 -0.3207
 8135SOL    HW136041   0.589   2.656   2.172  0.6677  0.6834 -0.1121
 8135SOL    HW236042   0.492   2.715   2.258 -1.0368  3.1762  0.5268
 8136SOL     OW36043   2.381   1.263   3.611 -0.0321  0.6599  0.1024
 8136SOL    HW136044   2.331   1.312   3.545 -0.1788  0.9488  0.4250
 8136SOL    HW236045   2.459   1.232   3.565 -0.0016 -0.5608  0.9608
 8137SOL     OW36046   2.276   0.921  16.397 -0.4534 -0.0687 -0.0470
 8137SOL    HW136047   2.269   1.003  16.446  0.7162  0.0255 -0.0281
 8137SOL    HW236048   2.324   0.945  16.318 -0.3692  0.2037  0.0880
 8138SOL     OW36049   4.216   1.668   2.260 -0.1473  0.0237  0.3294
 8138SOL    HW136050   4.304   1.648   2.289 -0.4945  0.8468  1.9370
 8138SOL    HW236051   4.221   1.763   2.257  0.8648 -0.1234 -2.7076
 8139SOL     OW36052   1.143   2.165   8.907 -0.1467  0.3235  0.6764
 8139SOL    HW136053   1.237   2.177   8.919 -0.1333 -0.0180  0.9085
 8139SOL    HW236054   1.146   2.073   8.882  2.4659  0.5011  0.2890
 8140SOL     OW36055   0.036   4.704  11.046  0.4688  0.0854 -0.2601
 8140SOL    HW136056   0.128   4.713  11.024 -0.0010  1.5898 -1.5946
 8140SOL    HW236057   0.016   0.046  11.090 -0.6078 -0.2594 -0.0864
 8141SOL     OW36058   1.823   3.326  12.098  0.3802  0.0661  0.2022
 8141SOL    HW136059   1.740   3.305  12.142 -1.0528  2.2461 -1.4599
 8141SOL    HW236060   1.798   3.417  12.082 -0.5037  0.0420  1.4133
 8142SOL     OW36061   0.393   4.000   0.371 -0.1469 -0.1387 -0.1421
 8142SOL    HW136062   0.385   3.910   0.400  1.8827 -0.4866 -0.6671
 8142SOL    HW236063   0.487   4.006   0.358 -0.2260  1.7609  0.0871
 8143SOL     OW36064   3.059   3.516   4.790 -0.7659  0.5176 -0.4077
 8143SOL    HW136065   3.129   3.533   4.853  0.5726 -1.4315 -1.4181
 8143SOL    HW236066   3.089   3.435   4.749 -0.9382 -0.0963  0.6709
 8144SOL     OW36067   3.124   0.971  17.638 -0.4633  0.7709  0.1255
 8144SOL    HW136068   3.082   0.885  17.637 -1.6862  1.3687 -0.0506
 8144SOL    HW236069   3.171   0.970  17.554 -0.1984 -0.8765  0.2976
 8145SOL     OW36070   2.958   0.051   4.487  0.0447  0.7550 -0.2065
 8145SOL    HW136071   2.953   0.005   4.571 -4.9838  0.0668 -0.8520
 8145SOL    HW236072   3.036   0.025   4.438  1.0780 -1.0265  2.3443
 8146SOL     OW36073   2.796   2.147   5.050 -0.0221  0.3320  0.0194
 8146SOL    HW136074   2.764   2.237   5.052  1.3709  0.8713 -2.3153
 8146SOL    HW236075   2.886   2.169   5.026  0.3931  1.6188  2.6979
 8147SOL     OW36076   1.392   2.575   1.698  0.1224 -0.1558 -0.0965
 8147SOL    HW136077   1.407   2.669   1.703  1.6732 -0.4086  0.1295
 8147SOL    HW236078   1.319   2.571   1.637 -0.8849 -2.0720  1.2391
 8148SOL     OW36079   0.328   3.609   4.967 -0.3231 -0.1193 -0.0187
 8148SOL    HW136080   0.414   3.649   4.983  0.0350 -0.8563 -0.0724
 8148SOL    HW236081   0.313   3.634   4.876  1.9840 -0.3950 -0.4931
 8149SOL     OW36082   3.085   0.449   2.593  0.3731  0.1098  0.1668
 8149SOL    HW136083   3.158   0.511   2.582 -1.3643  1.6891 -2.2829
 8149SOL    HW236084   3.083   0.428   2.686  0.2857  2.0114  0.5892
 8150SOL     OW36085   2.083   2.918  16.405 -0.0733 -0.0646 -0.1098
 8150SOL    HW136086   2.045   2.843  16.360  0.9650 -0.5929 -0.1036
 8150SOL    HW236087   1.998   2.953  16.431  0.6350  1.9437 -0.4604
 8151SOL     OW36088   2.600   3.318   1.097 -0.0239 -0.2078 -0.2919
 8151SOL    HW136089   2.507   3.312   1.122  0.4596 -0.5171  1.4153
 8151SOL    HW236090   2.652   3.333   1.176 -0.4491 -1.2415  0.1933
 8152SOL     OW36091   3.987   3.938  11.445 -0.4943  0.5232  0.3745
 8152SOL    HW136092   4.017   3.947  11.355 -2.2761  1.4928 -0.1222
 8152SOL    HW236093   4.061   3.955  11.504 -0.5253  3.6468 -0.5147
 8153SOL     OW36094   4.277   2.583  11.564 -0.3514 -0.2057  0.1111
 8153SOL    HW136095   4.330   2.526  11.619  0.2628  2.1460  1.9683
 8153SOL    HW236096   4.335   2.655  11.537  0.7151 -0.8082  0.8357
 8154SOL     OW36097   2.446   1.498   0.093 -0.4028  0.2434 -0.2359
 8154SOL    HW136098   2.358   1.503   0.131 -0.4043 -1.4315 -0.0394
 8154SOL    HW236099   2.486   1.560   0.154 -1.3247  0.3703  0.2523
 8155SOL     OW36100   1.659   0.810  16.568  0.1226  0.2892  0.0060
 8155SOL    HW136101   1.677   0.817  16.474  0.0540  2.0312  0.1314
 8155SOL    HW236102   1.565   0.814  16.584 -0.1457  0.6598 -1.6979
 8156SOL     OW36103   3.369   3.568   3.117 -0.2856 -0.0639  0.2628
 8156SOL    HW136104   3.403   3.619   3.044  1.0032  0.1107  0.9819
 8156SOL    HW236105   3.391   3.625   3.191 -0.5127 -1.4877  1.4210
 8157SOL     OW36106   0.972   2.524   9.665  0.5890 -0.0239  0.5952
 8157SOL    HW136107   0.917   2.513   9.588  0.1944 -1.3802  1.0749
 8157SOL    HW236108   1.015   2.607   9.646  1.7392 -1.3483 -2.7062
 8158SOL     OW36109   1.936   2.760   8.623  0.4260  0.3081  0.5043
 8158SOL    HW136110   2.010   2.702   8.604  0.5899  0.6685  0.0266
 8158SOL    HW236111   1.863   2.699   8.619 -0.8927  1.9750 -1.1044
 8159SOL     OW36112   4.728   2.315   5.616  0.4855 -0.4698 -0.7623
 8159SOL    HW136113   4.716   2.372   5.540 -0.9054 -1.2504 -1.1285
 8159SOL    HW236114   4.649   2.263   5.600 -0.8116  1.2713  0.0172
 8160SOL     OW36115   4.625   2.271  16.234 -0.3766 -0.5149 -0.2231
 8160SOL    HW136116   4.531   2.285  16.233 -0.4418 -1.0261 -0.9561
 8160SOL    HW236117   4.638   2.177  16.249 -2.5030 -0.7040  0.4239
 8161SOL     OW36118   4.245   2.207   8.019  0.7132  0.1577  1.5113
 8161SOL    HW136119   4.184   2.207   8.093 -1.2282  1.4011 -0.0895
 8161SOL    HW236120   4.311   2.271   8.044  0.5765  0.5302  0.9096
 8162SOL     OW36121   1.039   2.911  10.035  0.6039 -0.1358 -0.5192
 8162SOL    HW136122   1.110   2.971  10.058  1.0440 -0.6109 -0.6482
 8162SOL    HW236123   0.984   2.960   9.973 -0.6043 -0.8605 -0.0304
 8163SOL     OW36124   0.985   3.102   3.537  0.1814 -0.7477  0.4412
 8163SOL    HW136125   0.954   3.136   3.453 -0.2846 -1.8560  0.1754
 8163SOL    HW236126   1.070   3.068   3.510  0.9072  2.2917 -1.1203
 8164SOL     OW36127   0.652   2.098   7.635 -0.3386 -0.9005  0.1790
 8164SOL    HW136128   0.558   2.077   7.640 -0.5605 -0.1603 -0.9989
 8164SOL    HW236129   0.690   2.031   7.579 -1.2934 -1.2300 -0.0806
 8165SOL     OW36130   4.624   3.769   6.448 -0.1843 -0.3466  0.0728
 8165SOL    HW136131   4.575   3.851   6.455 -0.8346 -0.5279 -2.3591
 8165SOL    HW236132   4.554   3.711   6.419 -0.8919  0.1568  0.7905
 8166SOL     OW36133   1.266   0.744  13.172 -0.0539 -0.1221  0.3494
 8166SOL    HW136134   1.315   0.701  13.101 -2.2497 -1.9947 -0.0339
 8166SOL    HW236135   1.182   0.718  13.132 -0.0064  2.0468 -1.1546
 8167SOL     OW36136   0.683   1.991   3.195 -0.2095 -0.2315  0.0819
 8167SOL    HW136137   0.778   1.988   3.188 -0.1642 -1.0627  1.0260
 8167SOL    HW236138   0.653   1.978   3.105 -2.2026  2.6517  0.3400
 8168SOL     OW36139   2.338   2.171  12.938  0.1588 -0.1973 -0.2469
 8168SOL    HW136140   2.275   2.175  12.866 -0.3106  0.1276  0.1809
 8168SOL    HW236141   2.357   2.078  12.925  0.0261 -0.4919  1.7561
 8169SOL     OW36142   2.086   2.332   4.083 -0.7800 -0.5507  0.1426
 8169SOL    HW136143   2.134   2.269   4.029 -0.2336 -0.2942  0.3246
 8169SOL    HW236144   2.038   2.396   4.031 -0.8891 -2.4627 -2.0771
 8170SOL     OW36145   3.932   1.251   1.912 -0.3181  0.3153  0.3791
 8170SOL    HW136146   4.016   1.297   1.911  0.2225 -0.7191 -0.6369
 8170SOL    HW236147   3.877   1.299   1.975  1.6260  0.9686  1.5958
 8171SOL     OW36148   2.137   0.580   3.218  0.0786  0.1641  0.3545
 8171SOL    HW136149   2.189   0.585   3.299  1.5013  1.0999 -0.6096
 8171SOL    HW236150   2.081   0.505   3.237 -0.0582 -0.0318 -0.8432
 8172SOL     OW36151   1.598   0.535   2.999 -0.3174  0.6770  0.7044
 8172SOL    HW136152   1.688   0.561   2.982  0.0181 -0.7770  0.2859
 8172SOL    HW236153   1.587   0.541   3.094  0.3412 -0.7485  0.8748
 8173SOL     OW36154   4.053   1.585   9.264  0.4828  0.0764  0.3938
 8173SOL    HW136155   4.020   1.501   9.295  1.1229 -0.6600 -0.8913
 8173SOL    HW236156   3.967   1.621   9.242  0.4706 -1.6342 -2.4440
 8174SOL     OW36157   0.221   1.772   4.827 -0.3620 -0.1973  0.3314
 8174SOL    HW136158   0.284   1.838   4.797  0.3003 -0.5796  0.8630
 8174SOL    HW236159   0.263   1.728   4.901  0.0034 -0.6642 -0.1537
 8175SOL     OW36160   2.685   1.691  10.085 -0.5997  0.2726 -0.1481
 8175SOL    HW136161   2.629   1.768  10.092 -0.1579  0.5786 -0.0096
 8175SOL    HW236162   2.664   1.668   9.994  0.3363 -1.7205  0.1341
 8176SOL     OW36163   2.076   0.028   4.112  0.6066  0.4445  0.2786
 8176SOL    HW136164   2.082   0.117   4.076  2.4589 -0.6346 -2.0864
 8176SOL    HW236165   2.148   4.725   4.066 -0.1099  1.8169 -2.1041
 8177SOL     OW36166   2.282   4.730   7.474  0.2520  0.7237 -0.0641
 8177SOL    HW136167   2.206   0.020   7.425  0.1149  0.1532 -0.2005
 8177SOL    HW236168   2.292   0.053   7.545 -0.2273 -1.1191  1.6547
 8178SOL     OW36169   2.790   3.621   3.858 -0.0037  0.3080  0.0985
 8178SOL    HW136170   2.756   3.571   3.784 -2.7643 -0.3498  1.7663
 8178SOL    HW236171   2.739   3.701   3.846 -0.8715 -0.4599 -1.3425
 8179SOL     OW36172   0.035   1.727   3.858 -0.2425 -0.5913  0.7074
 8179SOL    HW136173   0.101   1.666   3.825 -0.5763 -0.2490 -0.6143
 8179SOL    HW236174   0.076   1.768   3.934 -1.6449  1.7436  0.2023
 8180SOL     OW36175   0.149   0.224   9.301 -0.3422 -0.1761 -0.4843
 8180SOL    HW136176   0.069   0.177   9.279  0.2078 -1.8878  1.0989
 8180SOL    HW236177   0.210   0.180   9.241 -1.5387 -1.4515 -0.7728
 8181SOL     OW36178   0.224   2.283  11.474  0.2095 -0.1543  0.7029
 8181SOL    HW136179   0.222   2.260  11.567  0.3711  1.1685  1.0318
 8181SOL    HW236180   0.228   2.192  11.442  1.3020  0.6445 -1.4117
 8182SOL     OW36181   2.821   4.267   2.934  0.3101 -0.2568 -0.6011
 8182SOL    HW136182   2.726   4.268   2.940  0.3568  0.3048  0.1513
 8182SOL    HW236183   2.827   4.245   2.841  1.9493 -0.9537 -0.3219
 8183SOL     OW36184   2.801   4.037   5.851  0.1496  0.5195  0.0036
 8183SOL    HW136185   2.822   3.984   5.928 -0.7995  0.0933 -0.0303
 8183SOL    HW236186   2.848   4.115   5.879  1.6515 -0.4784  0.3027
 8184SOL     OW36187   0.178   0.997   1.927 -0.2552  0.3765 -0.3392
 8184SOL    HW136188   0.153   0.933   1.994  1.6913 -0.1877 -0.1451
 8184SOL    HW236189   0.179   0.958   1.840  1.3402 -1.4908  0.5194
 8185SOL     OW36190   0.754   4.007  11.143  0.0793  0.3400 -0.0799
 8185SOL    HW136191   0.708   3.930  11.177  1.2602  0.4528  1.7530
 8185SOL    HW236192   0.683   4.056  11.102 -1.3317  2.2203  4.6046
 8186SOL     OW36193   1.665   4.400   6.205  0.5494  0.0347  0.5451
 8186SOL    HW136194   1.682   4.360   6.119 -1.0079  0.7052 -0.0791
 8186SOL    HW236195   1.594   4.342   6.232  0.3857 -0.1511 -0.2742
 8187SOL     OW36196   1.157   0.055   4.120  0.0673  0.5056 -0.1055
 8187SOL    HW136197   1.112   0.090   4.196 -2.1256  0.0015 -1.1732
 8187SOL    HW236198   1.085   0.030   4.063  0.3626 -2.5815  0.8890
 8188SOL     OW36199   1.154   2.513   8.117  0.3908 -0.1465  0.3352
 8188SOL    HW136200   1.198   2.597   8.109 -1.1496  0.5092 -1.3877
 8188SOL    HW236201   1.101   2.509   8.037  0.0574  3.1299  0.3999
 8189SOL     OW36202   1.454   2.376   5.771  0.0102  0.3126  0.3419
 8189SOL    HW136203   1.426   2.377   5.862  0.0746 -5.0603  0.3694
 8189SOL    HW236204   1.391   2.317   5.730 -0.3814  0.4119  0.8091
 8190SOL     OW36205   0.321   1.594   9.313 -0.7465 -0.2367 -0.3222
 8190SOL    HW136206   0.401   1.637   9.284 -0.2140 -0.3546  0.9655
 8190SOL    HW236207   0.259   1.654   9.272  0.8832  2.3337  0.9772
 8191SOL     OW36208   3.013   1.738  10.725  0.2053 -0.3260 -0.0441
 8191SOL    HW136209   3.048   1.808  10.670 -0.1756 -0.3822 -0.3533
 8191SOL    HW236210   2.981   1.678  10.658  1.9135 -0.7677 -0.4525
 8192SOL     OW36211   4.003   3.862   8.975  0.5489  0.4735 -0.0180
 8192SOL    HW136212   3.944   3.892   9.045 -0.5265 -1.6503 -0.0334
 8192SOL    HW236213   3.991   3.768   8.968  0.0577  0.5303  0.0750
 8193SOL     OW36214   3.172   3.501   3.489  0.4377 -0.4427  0.0542
 8193SOL    HW136215   3.221   3.497   3.407 -0.7103  1.1824 -0.7177
 8193SOL    HW236216   3.116   3.426   3.474  2.0591 -1.4670 -0.8710
 8194SOL     OW36217   1.613   1.231  17.743 -0.0561 -0.5945 -0.4047
 8194SOL    HW136218   1.523   1.212   0.009 -1.0475  1.1666 -2.7761
 8194SOL    HW236219   1.598   1.253  17.651  1.8257  0.0157 -0.5738
 8195SOL     OW36220   3.726   1.632   8.984 -0.4539 -0.5394  0.1373
 8195SOL    HW136221   3.635   1.614   8.960 -0.6553 -1.8083  1.8397
 8195SOL    HW236222   3.718   1.726   9.003 -2.1352 -0.8088  0.8423
 8196SOL     OW36223   2.375   1.770   4.415  0.0786 -0.1170  0.1788
 8196SOL    HW136224   2.342   1.767   4.504 -0.3903 -4.4401 -0.1594
 8196SOL    HW236225   2.375   1.864   4.397  2.2106 -0.3332 -0.9403
 8197SOL     OW36226   3.136   2.167  17.040  0.4747  0.2142 -0.1298
 8197SOL    HW136227   3.115   2.257  17.015  0.6963  0.6011  1.0939
 8197SOL    HW236228   3.230   2.184  17.029  0.8420 -0.9951  1.0970
 8198SOL     OW36229   0.269   1.729   8.733 -0.6015  0.5036  0.1880
 8198SOL    HW136230   0.335   1.673   8.693 -0.7901  0.3739  0.0549
 8198SOL    HW236231   0.243   1.763   8.648  1.3431  1.3505 -0.0598
 8199SOL     OW36232   2.897   3.112   5.610 -0.2577 -0.3673  0.3190
 8199SOL    HW136233   2.940   3.067   5.683 -0.2072  1.1363  1.2227
 8199SOL    HW236234   2.920   3.202   5.635 -1.3783 -0.5047  1.8757
 8200SOL     OW36235   3.926   3.047   4.798  0.5050 -0.3009 -0.6451
 8200SOL    HW136236   3.883   3.117   4.848 -1.0776 -1.2585 -0.6472
 8200SOL    HW236237   3.854   2.984   4.793  0.6655 -0.8221  2.9620
 8201SOL     OW36238   0.205   1.596   7.085  0.5074  0.2225  0.1707
 8201SOL    HW136239   0.124   1.647   7.086 -0.4886 -1.3789  0.6404
 8201SOL    HW236240   0.177   1.514   7.046 -0.0313  0.9410 -0.9548
 8202SOL     OW36241   1.245   4.044   3.696  0.2894 -0.4520 -0.1579
 8202SOL    HW136242   1.336   4.054   3.724 -0.3911 -3.5955  3.1960
 8202SOL    HW236243   1.258   4.078   3.608  1.1804 -2.2341 -0.7257
 8203SOL     OW36244   4.464   1.232  14.081 -0.3002  0.1276  0.1997
 8203SOL    HW136245   4.535   1.199  14.026  0.0409 -0.7758  1.1908
 8203SOL    HW236246   4.382   1.189  14.059  0.6855 -0.6797 -1.8513
 8204SOL     OW36247   4.340   1.862   6.777 -0.1013 -0.3815 -0.1517
 8204SOL    HW136248   4.255   1.827   6.805  0.6129 -1.3293  0.8314
 8204SOL    HW236249   4.353   1.941   6.829  1.8142 -0.6439 -0.2156
 8205SOL     OW36250   2.167   0.321   9.682  0.4479 -0.6155 -0.1660
 8205SOL    HW136251   2.077   0.338   9.708  0.4949 -0.7374  0.0754
 8205SOL    HW236252   2.169   0.234   9.722 -1.5040 -0.9047 -0.7050
 8206SOL     OW36253   1.355   2.743   3.391 -0.7949  0.6256  0.3499
 8206SOL    HW136254   1.288   2.809   3.405  0.6729  1.8764  1.4712
 8206SOL    HW236255   1.430   2.787   3.432 -0.8076 -0.5672  1.6673
 8207SOL     OW36256   1.086   3.369   9.458 -0.0990 -0.5135 -0.1263
 8207SOL    HW136257   1.027   3.307   9.416  0.5848 -0.2664 -1.4540
 8207SOL    HW236258   1.017   3.431   9.483  1.0611  1.1157 -0.9082
 8208SOL     OW36259   3.272   2.879   1.106 -0.3640  0.2494  0.6084
 8208SOL    HW136260   3.340   2.917   1.162  1.2896 -0.0252 -1.2192
 8208SOL    HW236261   3.294   2.938   1.034  2.2906  0.9253  1.9806
 8209SOL     OW36262   3.959   4.648   6.075  0.4967 -0.0804  0.7619
 8209SOL    HW136263   3.889   4.589   6.102 -2.7111  3.3298 -0.2577
 8209SOL    HW236264   4.034   4.598   6.109  0.0984 -0.9885  0.2778
 8210SOL     OW36265   3.180   2.924   8.753 -0.5945  0.8224  0.8333
 8210SOL    HW136266   3.133   2.986   8.697 -0.8048 -0.4894 -0.4414
 8210SOL    HW236267   3.266   2.965   8.757  0.0414 -0.4127 -0.1190
 8211SOL     OW36268   0.315   0.289   7.690 -0.0063  0.9205 -0.2094
 8211SOL    HW136269   0.313   0.306   7.784  1.4690 -1.4891  0.2663
 8211SOL    HW236270   0.278   0.201   7.685  1.2630  0.3474  0.4144
 8212SOL     OW36271   3.197   3.804   2.251  0.6127 -0.3068  0.3421
 8212SOL    HW136272   3.262   3.845   2.195 -1.6523  1.8098 -0.7703
 8212SOL    HW236273   3.159   3.880   2.295 -1.5885 -0.9882 -0.3332
 8213SOL     OW36274   0.778   0.501   0.063 -0.0631 -0.0525 -0.4950
 8213SOL    HW136275   0.760   0.595   0.069  0.8527  0.1426 -0.7599
 8213SOL    HW236276   0.697   0.467   0.101 -0.0691  0.2023 -0.2793
 8214SOL     OW36277   3.804   4.175   9.967  0.5284 -0.0750 -0.1999
 8214SOL    HW136278   3.788   4.188  10.060  0.9782  0.8977 -0.2565
 8214SOL    HW236279   3.714   4.191   9.937  0.6671 -0.3429 -0.7568
 8215SOL     OW36280   2.969   3.733   2.094  0.5643  0.3099  0.0968
 8215SOL    HW136281   3.030   3.716   2.022  0.0087  2.3009 -0.8557
 8215SOL    HW236282   3.026   3.734   2.170 -1.4108 -1.2512  1.5983
 8216SOL     OW36283   1.513   1.928   8.098  0.0567  0.2838 -0.4700
 8216SOL    HW136284   1.498   1.922   8.193 -1.3540  2.4597 -0.5585
 8216SOL    HW236285   1.422   1.949   8.078 -0.0597  1.3681  1.2117
 8217SOL     OW36286   4.333   2.204   8.597  0.4582 -0.0602  0.1139
 8217SOL    HW136287   4.284   2.152   8.660 -0.2398  1.5417  0.8868
 8217SOL    HW236288   4.365   2.134   8.539  0.5242 -1.5687  1.9721
 8218SOL     OW36289   2.332   1.256   6.178 -0.1475 -0.1535 -0.0907
 8218SOL    HW136290   2.416   1.282   6.140 -0.8350  2.9153  0.5301
 8218SOL    HW236291   2.271   1.292   6.113  0.9546 -0.4430 -1.2945
 8219SOL     OW36292   1.984   2.157  16.775 -0.2355 -0.1268 -0.2593
 8219SOL    HW136293   1.943   2.232  16.820  2.3915  0.1758  1.6357
 8219SOL    HW236294   1.935   2.147  16.693 -0.3127 -1.4040 -0.0434
 8220SOL     OW36295   3.735   1.960   7.601  0.4883 -0.2987 -0.0697
 8220SOL    HW136296   3.671   1.988   7.535  1.7601 -1.3990 -1.7530
 8220SOL    HW236297   3.812   1.947   7.547 -0.9158 -0.8930 -1.9374
 8221SOL     OW36298   2.595   3.424   6.091 -0.3866 -0.0578  0.2537
 8221SOL    HW136299   2.509   3.404   6.052 -0.2816  1.1047 -0.5895
 8221SOL    HW236300   2.631   3.467   6.014  1.2688 -1.0084  0.5037
 8222SOL     OW36301   1.029   2.511   7.838 -0.0600  0.3271 -0.4955
 8222SOL    HW136302   1.030   2.432   7.785  0.2609 -0.8145  1.2034
 8222SOL    HW236303   0.936   2.534   7.834 -0.1477  0.1400  0.5565
 8223SOL     OW36304   4.552   3.464   4.980  0.2831 -0.1224 -0.1950
 8223SOL    HW136305   4.481   3.528   4.969 -0.5142 -0.9444  0.1773
 8223SOL    HW236306   4.628   3.521   4.990  1.0522 -1.2213  0.1843
 8224SOL     OW36307   0.041   3.797   3.329  0.1952  0.4412 -0.0115
 8224SOL    HW136308   0.125   3.753   3.318 -0.4041 -1.2165  2.1159
 8224SOL    HW236309   0.046   3.889   3.304  0.0217  0.4593  0.0209
 8225SOL     OW36310   2.114   1.331   5.451  0.6343 -0.1421 -0.5235
 8225SOL    HW136311   2.052   1.404   5.452 -0.4342 -1.0742  1.6101
 8225SOL    HW236312   2.096   1.283   5.532  1.3909 -0.8367 -0.7774
 8226SOL     OW36313   4.020   0.936   2.859 -0.0490  0.4679  0.3604
 8226SOL    HW136314   4.032   1.027   2.830 -2.0545  0.6224  0.0186
 8226SOL    HW236315   4.114   0.916   2.864 -0.5827 -1.7544  1.3523
 8227SOL     OW36316   1.783   1.901   6.256 -0.0829 -0.3403 -0.1568
 8227SOL    HW136317   1.871   1.914   6.291 -0.0860 -1.6371  0.3353
 8227SOL    HW236318   1.812   1.885   6.166 -1.5434 -1.1715 -0.4734
 8228SOL     OW36319   3.690   1.837   8.137 -0.0524  0.2650  0.2102
 8228SOL    HW136320   3.760   1.901   8.148  0.1252  0.1413 -0.2491
 8228SOL    HW236321   3.668   1.854   8.045  0.2417  0.2925  0.1478
 8229SOL     OW36322   1.186   2.639   3.199 -0.2084 -0.4981 -0.3441
 8229SOL    HW136323   1.269   2.631   3.245 -0.7717  0.7331  0.9039
 8229SOL    HW236324   1.142   2.560   3.231 -3.3835  1.2829 -0.2452
 8230SOL     OW36325   3.304   1.827   9.081  0.3670 -0.0419  0.2153
 8230SOL    HW136326   3.357   1.799   9.007 -0.3010 -0.9425  0.0805
 8230SOL    HW236327   3.254   1.746   9.095  0.1417 -0.1494 -1.2098
 8231SOL     OW36328   4.054   0.135  12.119  0.1086 -0.4770  0.4175
 8231SOL    HW136329   3.981   0.186  12.153  0.1616 -1.2176  1.6521
 8231SOL    HW236330   4.109   0.137  12.198  1.0693  1.0257 -0.2978
 8232SOL     OW36331   2.714   4.451   4.196 -0.0051  0.0408 -0.2263
 8232SOL    HW136332   2.673   4.414   4.118 -0.3838 -3.2817  1.5300
 8232SOL    HW236333   2.807   4.464   4.174 -0.5149 -2.6452 -4.0078
 8233SOL     OW36334   3.391   3.939   2.140  0.1731 -0.0130 -0.7268
 8233SOL    HW136335   3.480   3.906   2.147 -0.1604 -0.5973  0.9171
 8233SOL    HW236336   3.391   4.015   2.198 -1.2365 -0.6354  0.0935
 8234SOL     OW36337   3.635   0.139   5.096 -0.5291  0.1192 -0.3062
 8234SOL    HW136338   3.669   0.208   5.039 -1.0009  1.5877  1.1874
 8234SOL    HW236339   3.658   0.066   5.039  2.4627 -0.4948  1.7161
 8235SOL     OW36340   2.498   1.145  10.623 -0.2172 -0.2958  0.0866
 8235SOL    HW136341   2.548   1.083  10.677  1.4427  0.5590 -0.4504
 8235SOL    HW236342   2.539   1.132  10.537  0.0655 -0.1198  0.1955
 8236SOL     OW36343   0.420   1.661   6.159  0.6238  0.7688 -0.6152
 8236SOL    HW136344   0.470   1.604   6.218 -2.3872  0.1038  1.3095
 8236SOL    HW236345   0.467   1.641   6.078 -0.2444  0.2859 -1.0079
 8237SOL     OW36346   1.749   1.503  17.650  0.1288  0.0505 -0.1069
 8237SOL    HW136347   1.659   1.535  17.654 -0.1223 -0.5001 -1.2939
 8237SOL    HW236348   1.737   1.431  17.588  0.8570  0.6608 -0.9504
 8238SOL     OW36349   1.320   3.411  10.921 -0.0815 -0.1085 -0.2782
 8238SOL    HW136350   1.276   3.382  11.001 -0.3292  0.9375 -0.0384
 8238SOL    HW236351   1.267   3.362  10.858 -0.0680 -2.2512  1.3481
 8239SOL     OW36352   3.347   1.223   6.211  0.3908 -0.0106 -0.0180
 8239SOL    HW136353   3.320   1.313   6.194  0.6208 -0.1908 -1.2862
 8239SOL    HW236354   3.298   1.213   6.293 -0.4951 -0.7624 -0.6459
 8240SOL     OW36355   2.159   2.181   7.306 -0.1184 -0.2904  0.1100
 8240SOL    HW136356   2.165   2.129   7.225 -0.0439  1.1012 -0.7894
 8240SOL    HW236357   2.131   2.267   7.274 -0.7325 -0.8479 -0.8739
 8241SOL     OW36358   3.257   4.294   1.264  0.2034  0.5040  0.0422
 8241SOL    HW136359   3.258   4.389   1.262 -1.0363  0.5238  0.3755
 8241SOL    HW236360   3.343   4.257   1.286  0.7058  0.8724 -1.2855
 8242SOL     OW36361   2.973   0.068   2.758 -0.1778  0.1284  0.2169
 8242SOL    HW136362   3.009   4.722   2.777 -0.6704 -0.5923 -2.1931
 8242SOL    HW236363   3.038   0.090   2.691  0.2621 -1.3970  0.1414
 8243SOL     OW36364   3.476   3.603  10.357 -0.6165  0.2741  0.1827
 8243SOL    HW136365   3.495   3.641  10.443 -1.4799 -0.4401  0.6999
 8243SOL    HW236366   3.465   3.513  10.390  3.6232  0.3278  1.7426
 8244SOL     OW36367   2.061   0.965   2.041 -0.0661 -0.2427  0.2000
 8244SOL    HW136368   2.061   0.874   2.072 -4.2886 -0.1706  0.4034
 8244SOL    HW236369   2.090   0.962   1.950 -0.4768  1.5537  0.0105
 8245SOL     OW36370   1.337   1.882   2.840 -0.0938 -0.1073  0.3672
 8245SOL    HW136371   1.330   1.788   2.822 -0.7140  0.1548 -0.7844
 8245SOL    HW236372   1.352   1.911   2.750  0.2730 -0.2517  0.3827
 8246SOL     OW36373   3.876   4.174   5.143 -0.3196 -0.1291 -0.0203
 8246SOL    HW136374   3.794   4.130   5.163 -0.3724 -0.7225 -1.5293
 8246SOL    HW236375   3.850   4.225   5.066  0.6604 -0.5900 -0.6602
 8247SOL     OW36376   3.039   1.237   3.922  0.0417  0.0104 -0.3236
 8247SOL    HW136377   3.023   1.327   3.948  0.2791 -0.3061  0.9162
 8247SOL    HW236378   3.090   1.206   3.997  0.8407  0.9982 -0.4641
 8248SOL     OW36379   0.256   2.966   9.038  0.0182 -0.1819  0.0733
 8248SOL    HW136380   0.181   3.002   8.991 -1.1794 -0.2977  1.8686
 8248SOL    HW236381   0.270   2.886   8.988 -1.3897 -0.7538  0.5742
 8249SOL     OW36382   2.989   3.534   1.511 -0.1821 -0.7247 -0.1191
 8249SOL    HW136383   3.044   3.590   1.566  0.6082 -1.8831  0.2952
 8249SOL    HW236384   3.044   3.456   1.525  0.5002  0.1498  2.0053
 8250SOL     OW36385   0.931   3.702   8.898 -0.3377  0.1016  0.3575
 8250SOL    HW136386   0.883   3.632   8.940  2.1887 -2.1074 -0.4213
 8250SOL    HW236387   0.887   3.781   8.929  1.7503  1.1036  0.8219
 8251SOL     OW36388   2.011   0.336   3.318 -0.0989  0.2042 -0.2631
 8251SOL    HW136389   2.059   0.298   3.391 -1.5908  0.7572  1.0206
 8251SOL    HW236390   1.924   0.362   3.348  0.1108  1.5742 -0.8241
 8252SOL     OW36391   0.008   0.996   7.611  0.5187  0.7086 -0.5475
 8252SOL    HW136392   4.702   0.959   7.536  0.1996  3.1483 -1.5456
 8252SOL    HW236393   4.705   1.081   7.609  1.1221  0.9896 -1.5423
 8253SOL     OW36394   0.310   4.367   2.563 -0.5464 -0.8102 -0.1353
 8253SOL    HW136395   0.243   4.318   2.609 -0.7221 -1.7857 -1.4253
 8253SOL    HW236396   0.381   4.305   2.545  0.1783  0.2326 -0.8706
 8254SOL     OW36397   4.075   3.918   6.066  0.3006 -0.0663 -0.1757
 8254SOL    HW136398   4.128   3.933   5.987  1.0716 -0.2782  0.2962
 8254SOL    HW236399   4.084   3.999   6.117  1.0483 -1.1962  1.4780
 8255SOL     OW36400   0.291   3.459  17.398 -0.1664 -0.3184 -0.6512
 8255SOL    HW136401   0.362   3.469  17.335  0.3544  0.0695 -0.0109
 8255SOL    HW236402   0.309   3.533  17.456 -0.2384 -1.2742  0.6064
 8256SOL     OW36403   1.101   2.622   8.500  0.5695 -0.3113  0.3598
 8256SOL    HW136404   1.065   2.677   8.570 -0.5978  0.2541 -0.6856
 8256SOL    HW236405   1.191   2.648   8.516  1.5548 -2.1015 -2.3849
 8257SOL     OW36406   4.357   0.208   2.990  0.2204 -0.9859  0.1182
 8257SOL    HW136407   4.433   0.225   2.935 -1.5673  2.1746 -1.4417
 8257SOL    HW236408   4.293   0.264   2.945  1.1613  0.9087  1.1403
 8258SOL     OW36409   0.728   3.195  11.838 -0.3816  0.1805  0.7826
 8258SOL    HW136410   0.671   3.127  11.802 -0.8593  1.4461 -0.8132
 8258SOL    HW236411   0.739   3.242  11.756  2.1276  0.5390  1.3214
 8259SOL     OW36412   3.735   4.145   7.109  0.1161 -0.4619  0.0161
 8259SOL    HW136413   3.701   4.233   7.123  0.0187 -0.5257  0.1852
 8259SOL    HW236414   3.829   4.152   7.125  0.5166 -0.4912 -2.4791
 8260SOL     OW36415   3.997   1.500   6.436  0.2203  0.0773 -0.3592
 8260SOL    HW136416   3.984   1.593   6.451 -1.1463 -0.6075  2.6723
 8260SOL    HW236417   4.087   1.506   6.405  0.0977  1.9558 -0.3235
 8261SOL     OW36418   4.653   1.711   7.148 -0.1949 -0.3332  0.5966
 8261SOL    HW136419   4.575   1.709   7.092  0.6473 -1.3050 -0.5530
 8261SOL    HW236420   4.696   1.784   7.102 -3.5730  1.6899  0.6386
 8262SOL     OW36421   3.706   2.331  11.376  1.3596  0.3776 -0.2943
 8262SOL    HW136422   3.743   2.243  11.382  0.9596  0.2909  0.8813
 8262SOL    HW236423   3.622   2.313  11.417  1.0896 -0.9451 -1.4585
 8263SOL     OW36424   3.013   3.642  11.877 -0.7977 -0.0338  0.2892
 8263SOL    HW136425   3.060   3.719  11.845 -0.9628  0.5174  1.3922
 8263SOL    HW236426   2.998   3.675  11.965  1.5682  2.0246 -0.0828
 8264SOL     OW36427   3.960   2.742   5.777 -0.6431 -0.2395 -0.2736
 8264SOL    HW136428   3.897   2.732   5.849  0.4151 -4.3092  0.0616
 8264SOL    HW236429   3.971   2.837   5.781 -1.4171 -0.1317 -0.5421
 8265SOL     OW36430   4.098   1.408  11.937 -0.4241  0.0457  0.5048
 8265SOL    HW136431   4.049   1.440  12.013  1.8046  0.8193  1.6127
 8265SOL    HW236432   4.113   1.316  11.961  3.1536  0.0709 -1.7099
 8266SOL     OW36433   0.100   2.427   4.062 -0.4404  0.2345  0.1499
 8266SOL    HW136434   0.023   2.483   4.050 -1.4156 -0.7788  1.7032
 8266SOL    HW236435   0.153   2.445   3.984  0.0198 -0.9772  0.1967
 8267SOL     OW36436   4.655   0.134   6.416 -0.9578 -0.3414  0.3173
 8267SOL    HW136437   4.725   0.171   6.362 -0.7212 -0.7603  0.3397
 8267SOL    HW236438   4.693   0.062   6.466  1.6553  1.6325  1.1847
 8268SOL     OW36439   0.443   1.685  10.060 -0.3921  0.3290  0.2634
 8268SOL    HW136440   0.504   1.750  10.025 -1.3130  0.5140 -0.9796
 8268SOL    HW236441   0.394   1.677   9.979 -2.0276  0.6049  1.2276
 8269SOL     OW36442   1.080   3.702   3.121 -0.3911 -1.1264  0.2817
 8269SOL    HW136443   1.025   3.680   3.046 -0.7756  0.6493  0.0340
 8269SOL    HW236444   1.022   3.679   3.194  1.0519  1.5770  2.2924
 8270SOL     OW36445   3.692   1.341   8.555  0.1761  0.7667  0.5111
 8270SOL    HW136446   3.704   1.249   8.532 -0.3472  1.0440 -0.8607
 8270SOL    HW236447   3.765   1.377   8.504  0.4557  1.9017  1.7067
 8271SOL     OW36448   3.311   4.186   9.953  0.1965  0.0952  0.3648
 8271SOL    HW136449   3.326   4.233  10.035 -3.0684  0.5468  0.6809
 8271SOL    HW236450   3.219   4.206   9.942  0.1960 -0.6524 -1.0514
 8272SOL     OW36451   4.316   0.242   8.776  0.1002 -0.2218 -0.2257
 8272SOL    HW136452   4.250   0.182   8.741 -0.3434 -1.2284  2.3893
 8272SOL    HW236453   4.342   0.283   8.693 -1.6917 -1.2010 -1.2750
 8273SOL     OW36454   3.019   2.603   1.862 -0.7029 -0.0126 -0.3944
 8273SOL    HW136455   2.967   2.622   1.940  1.7066 -2.2974  1.7541
 8273SOL    HW236456   3.022   2.508   1.871 -2.7266  0.1668  2.0686
 8274SOL     OW36457   4.343   4.336   9.037 -0.0069 -0.0709 -0.3292
 8274SOL    HW136458   4.257   4.329   9.078  0.3902 -0.2786  0.4630
 8274SOL    HW236459   4.314   4.382   8.958  4.4011  1.7780 -0.8673
 8275SOL     OW36460   4.091   2.335  16.609 -0.0842  0.0866 -0.2880
 8275SOL    HW136461   4.185   2.315  16.611 -0.6395 -2.5212 -0.6122
 8275SOL    HW236462   4.090   2.421  16.651 -1.4513  0.3469 -0.8484
 8276SOL     OW36463   0.302   2.856   2.403 -0.2674 -0.4817 -0.3905
 8276SOL    HW136464   0.327   2.922   2.338 -2.0682  0.7759  0.2080
 8276SOL    HW236465   0.255   2.791   2.351 -1.4026  0.1251 -0.1163
 8277SOL     OW36466   2.028   0.618   7.748  0.8895  0.1560 -0.2409
 8277SOL    HW136467   1.987   0.532   7.749  1.0196  0.0954 -0.1151
 8277SOL    HW236468   2.061   0.622   7.838 -0.1462 -2.3351  0.2581
 8278SOL     OW36469   3.102   4.619   5.670  0.2418  0.0031  0.7060
 8278SOL    HW136470   3.032   4.683   5.684 -1.1661 -0.9996 -1.9145
 8278SOL    HW236471   3.185   4.666   5.679  0.5342  0.3537 -3.7157
 8279SOL     OW36472   2.097   2.677   2.716 -0.5430  0.1647  0.1709
 8279SOL    HW136473   2.079   2.690   2.622 -1.0665 -2.3511 -0.0883
 8279SOL    HW236474   2.181   2.631   2.720 -1.8767 -2.1128  1.7656
 8280SOL     OW36475   0.679   1.755   1.103  0.1683 -0.1521 -0.2880
 8280SOL    HW136476   0.647   1.827   1.158 -0.7041  0.4001 -1.5420
 8280SOL    HW236477   0.623   1.756   1.026 -1.3696 -2.5065  0.8091
 8281SOL     OW36478   0.217   1.604  15.596 -0.0567  0.4100 -0.1633
 8281SOL    HW136479   0.306   1.591  15.563  0.2287 -1.6029  1.4320
 8281SOL    HW236480   0.239   1.606  15.690 -0.7817 -1.8471  0.0395
 8282SOL     OW36481   0.881   2.406  14.994 -0.2971  0.0290  0.1457
 8282SOL    HW136482   0.939   2.453  14.934  0.6735 -0.3264  0.8007
 8282SOL    HW236483   0.866   2.323  14.948  0.7264 -0.0985  0.0325
 8283SOL     OW36484   2.410   2.789   5.595 -0.1738  0.0573  0.1273
 8283SOL    HW136485   2.343   2.733   5.554  1.1343  0.3434 -2.4072
 8283SOL    HW236486   2.375   2.768   5.682  1.2936 -1.6105  0.3004
 8284SOL     OW36487   1.908   4.117  14.909 -0.3458  0.0773 -0.2757
 8284SOL    HW136488   1.924   4.072  14.992 -2.6345 -0.5477 -0.1935
 8284SOL    HW236489   1.999   4.142  14.895 -0.1355 -1.7898 -2.1233
 8285SOL     OW36490   0.270   0.487   3.367  0.0570  0.1224 -0.0933
 8285SOL    HW136491   0.341   0.545   3.340 -0.2609  1.1676  1.3437
 8285SOL    HW236492   0.291   0.482   3.460 -0.0680 -0.3175 -0.0897
 8286SOL     OW36493   4.278   1.295   2.792 -0.2712 -0.4691 -0.0607
 8286SOL    HW136494   4.361   1.310   2.747  0.4434 -0.2547  1.3082
 8286SOL    HW236495   4.277   1.362   2.860 -0.6878  1.0267 -1.5463
 8287SOL     OW36496   3.970   2.079   6.268  0.0741  0.3358 -0.1764
 8287SOL    HW136497   3.963   2.029   6.349 -0.1636  1.1027  0.2723
 8287SOL    HW236498   3.881   2.111   6.254 -0.0450 -0.2289 -0.7048
 8288SOL     OW36499   2.661   3.603   3.403 -0.3353 -0.1997 -0.1479
 8288SOL    HW136500   2.716   3.582   3.328 -0.6006  0.1393 -0.4372
 8288SOL    HW236501   2.688   3.691   3.430  0.9348 -0.7201  0.2774
 8289SOL     OW36502   0.470   0.570   1.444  0.4329  0.0472  0.3868
 8289SOL    HW136503   0.419   0.496   1.478 -0.0968  0.6455  0.8768
 8289SOL    HW236504   0.547   0.526   1.408  0.1298  0.0462 -0.2620
 8290SOL     OW36505   4.067   1.705   5.382  0.1660  0.2948  0.4052
 8290SOL    HW136506   4.138   1.769   5.386 -2.0499  2.7131  1.6201
 8290SOL    HW236507   4.088   1.651   5.306 -1.1700  3.3199 -2.1180
 8291SOL     OW36508   3.695   3.489  12.335 -0.0554  0.2982  0.2206
 8291SOL    HW136509   3.664   3.520  12.250  0.8322  1.9875  0.5125
 8291SOL    HW236510   3.613   3.462  12.376  0.4600 -0.9367  0.4543
 8292SOL     OW36511   2.304   3.264   5.274 -0.3094  0.1066 -0.2423
 8292SOL    HW136512   2.365   3.337   5.264  3.7103 -3.6470 -3.5742
 8292SOL    HW236513   2.271   3.256   5.184  1.9525  2.2085 -1.2443
 8293SOL     OW36514   1.035   2.382   2.841 -0.5017 -0.3197  0.0336
 8293SOL    HW136515   1.102   2.430   2.889  0.3559  1.9475 -3.4375
 8293SOL    HW236516   0.954   2.430   2.858 -0.3802  0.2556 -1.0132
 8294SOL     OW36517   4.711   0.566   7.591  0.7337  0.5007  0.1809
 8294SOL    HW136518   0.063   0.588   7.575  1.2227 -1.2921  0.5708
 8294SOL    HW236519   4.715   0.570   7.686  0.9355  0.0978  0.1906
 8295SOL     OW36520   3.763   0.792   3.145 -0.6388 -0.7064 -0.3709
 8295SOL    HW136521   3.850   0.764   3.172  0.9773  2.0831 -2.6454
 8295SOL    HW236522   3.704   0.745   3.204  1.6426 -0.3294  2.2338
 8296SOL     OW36523   1.747   2.851  16.264  0.2886 -0.5267  0.1204
 8296SOL    HW136524   1.794   2.909  16.204  2.2695 -2.5026 -0.2244
 8296SOL    HW236525   1.814   2.786  16.284 -0.7230 -1.4735  0.4084
 8297SOL     OW36526   1.207   1.662   1.881 -0.5422 -0.3259  0.0109
 8297SOL    HW136527   1.295   1.656   1.844  0.8050  1.0961  2.9812
 8297SOL    HW236528   1.164   1.736   1.839 -1.1995  0.0856  1.3947
 8298SOL     OW36529   4.142   4.101   0.444  0.7913  0.1402  0.4535
 8298SOL    HW136530   4.212   4.069   0.386  0.3799  0.0434  0.0016
 8298SOL    HW236531   4.161   4.194   0.455  0.6682  0.2625 -0.3180
 8299SOL     OW36532   3.522   2.659   6.571  0.2935 -0.0925 -0.8327
 8299SOL    HW136533   3.575   2.733   6.543  0.3549  0.1437 -0.0729
 8299SOL    HW236534   3.584   2.586   6.562  2.6076  1.7909 -0.1219
 8300SOL     OW36535   0.458   2.431  15.886  0.5873 -0.0666 -0.0697
 8300SOL    HW136536   0.368   2.410  15.911  1.5206 -1.5347  2.1133
 8300SOL    HW236537   0.451   2.520  15.851 -0.8249 -0.1337  0.0585
 8301SOL     OW36538   4.086   3.941   7.602 -0.3466  0.3323 -0.2001
 8301SOL    HW136539   4.160   4.000   7.592 -0.8778  0.8842 -0.8486
 8301SOL    HW236540   4.140   3.885   7.657 -1.9171 -0.5966  0.3978
 8302SOL     OW36541   0.265   3.532   8.303 -0.0826 -0.8755  0.2616
 8302SOL    HW136542   0.310   3.614   8.321 -2.8341  0.9507 -1.0477
 8302SOL    HW236543   0.180   3.559   8.268 -0.6505 -0.2406  2.1558
 8303SOL     OW36544   3.861   4.356   4.933  0.2003  0.1762  0.1743
 8303SOL    HW136545   3.878   4.369   4.840  0.3772 -0.7309  0.0726
 8303SOL    HW236546   3.842   4.444   4.964 -1.2990 -0.8506  2.2077
 8304SOL     OW36547   0.887   3.214   2.576 -0.1857 -0.1114 -0.1795
 8304SOL    HW136548   0.948   3.243   2.644 -0.8645 -1.5081  1.0185
 8304SOL    HW236549   0.888   3.284   2.510 -2.1214  1.3197  1.3157
 8305SOL     OW36550   0.854   4.659   2.816  0.2303 -0.1540  0.5690
 8305SOL    HW136551   0.809   4.581   2.849  0.1267  0.1874  1.2447
 8305SOL    HW236552   0.831   4.728   2.878  0.3484  0.3028  0.1031
 8306SOL     OW36553   3.810   3.157   3.921 -0.7521 -0.0538 -0.0235
 8306SOL    HW136554   3.727   3.204   3.928 -1.5239 -1.3161 -0.5755
 8306SOL    HW236555   3.858   3.208   3.986  1.8555  0.6420 -2.4920
 8307SOL     OW36556   0.235   1.310   9.972  0.9229  0.0492  0.6693
 8307SOL    HW136557   0.195   1.236   9.926 -0.6032  0.1893  1.7900
 8307SOL    HW236558   0.183   1.318  10.052  0.4406  0.4103  0.3261
 8308SOL     OW36559   1.724   2.358  14.382  0.4533 -0.1815  0.3174
 8308SOL    HW136560   1.667   2.310  14.322  1.2243  0.9245 -1.2909
 8308SOL    HW236561   1.810   2.325  14.356  0.9174  0.9025  0.4662
 8309SOL     OW36562   0.897   0.586   2.293  0.2023  0.2048  0.2004
 8309SOL    HW136563   0.957   0.628   2.355  0.8515  1.4534 -1.2896
 8309SOL    HW236564   0.950   0.521   2.248  1.4963  1.4099 -0.0014
 8310SOL     OW36565   3.293   3.834   2.611 -0.2072  0.3483 -0.1849
 8310SOL    HW136566   3.366   3.821   2.673 -0.7338 -0.3292  0.2910
 8310SOL    HW236567   3.290   3.928   2.593  1.0468  0.7730  1.7043
 8311SOL     OW36568   1.147   4.240   4.855 -0.0959  0.5312  0.6400
 8311SOL    HW136569   1.237   4.214   4.876  0.0123 -0.7226 -1.3163
 8311SOL    HW236570   1.148   4.333   4.834 -0.6469  0.8294  1.9580
 8312SOL     OW36571   0.222   0.201  10.041  0.5565 -0.3009 -1.0329
 8312SOL    HW136572   0.290   0.265  10.020 -0.4681  1.3285  0.6388
 8312SOL    HW236573   0.176   0.200   9.957 -0.2965  0.3742 -0.5727
 8313SOL     OW36574   2.728   3.646   1.742  0.7885 -0.1108  0.0680
 8313SOL    HW136575   2.746   3.640   1.836  1.6930  0.1742 -0.0841
 8313SOL    HW236576   2.808   3.693   1.716  0.2656  1.0246  0.5002
 8314SOL     OW36577   3.680   3.295   6.293  0.7244  0.1330  0.8629
 8314SOL    HW136578   3.641   3.216   6.330  1.2322  0.2260  1.5958
 8314SOL    HW236579   3.603   3.325   6.245  0.3354  0.0340  1.4269
 8315SOL     OW36580   0.202   0.612   4.643 -0.1680 -0.0380 -0.3333
 8315SOL    HW136581   0.155   0.669   4.583  0.7379  2.8123  1.6613
 8315SOL    HW236582   0.275   0.577   4.592  2.1607  0.9499  2.2668
 8316SOL     OW36583   1.838   3.414   8.548  0.2901  0.4931 -0.2012
 8316SOL    HW136584   1.843   3.319   8.534 -0.2467  0.6904 -1.7082
 8316SOL    HW236585   1.742   3.422   8.552  0.1710 -1.8170  2.0689
 8317SOL     OW36586   3.408   2.498  11.322 -0.6141  0.1361 -0.1067
 8317SOL    HW136587   3.337   2.557  11.349  0.4570  0.4378  2.0309
 8317SOL    HW236588   3.357   2.418  11.306  0.5446 -0.5642 -0.2819
 8318SOL     OW36589   2.839   4.151   5.448  0.5977 -0.2503  0.2674
 8318SOL    HW136590   2.908   4.128   5.385 -1.3635 -0.0247 -1.9793
 8318SOL    HW236591   2.876   4.233   5.481 -1.8249  1.5500 -1.4843
 8319SOL     OW36592   2.900   1.857  15.061  0.2128  0.3296 -0.0269
 8319SOL    HW136593   2.901   1.827  14.970 -0.4817 -2.4716  0.8971
 8319SOL    HW236594   2.977   1.817  15.100 -1.5053 -2.8361  0.1515
 8320SOL     OW36595   1.458   1.494  17.621  0.0167  0.0885 -0.5131
 8320SOL    HW136596   1.389   1.483  17.687 -0.3911 -0.5601 -1.0528
 8320SOL    HW236597   1.425   1.447  17.544  2.0656 -0.1670 -1.2310
 8321SOL     OW36598   4.545   4.122   8.283  0.0627 -0.3060  0.4551
 8321SOL    HW136599   4.608   4.183   8.245 -1.1435  1.1627  0.8308
 8321SOL    HW236600   4.495   4.181   8.339  0.5805  1.1145 -0.5848
 8322SOL     OW36601   1.802   3.320   9.914 -0.1183 -0.1827  0.0538
 8322SOL    HW136602   1.768   3.231   9.924 -0.6236  0.0251  0.2039
 8322SOL    HW236603   1.734   3.378   9.949 -1.8082  0.9755 -5.1175
 8323SOL     OW36604   0.021   0.844  14.596  0.5971 -0.1995  0.4643
 8323SOL    HW136605   4.670   0.871  14.595  1.0332  1.2761  2.3030
 8323SOL    HW236606   0.059   0.900  14.528 -1.1620  0.0914 -0.2565
 8324SOL     OW36607   0.250   3.467  17.720  0.0963  0.0481 -0.6262
 8324SOL    HW136608   0.254   3.563  17.719  2.4935 -0.0629  0.1088
 8324SOL    HW236609   0.340   3.447  17.744 -0.9966  1.3677  4.5466
 8325SOL     OW36610   1.868   4.286  10.381 -0.9681 -0.4856 -0.2098
 8325SOL    HW136611   1.816   4.365  10.369  0.6693  0.1866 -2.9523
 8325SOL    HW236612   1.842   4.252  10.467 -1.5635  0.1223 -0.1519
 8326SOL     OW36613   0.522   1.384   2.300 -0.3338 -0.0674 -0.1345
 8326SOL    HW136614   0.504   1.290   2.309  1.7849 -0.2963  1.6776
 8326SOL    HW236615   0.435   1.410   2.268 -0.3834  0.3237  0.3137
 8327SOL     OW36616   0.600   0.855   8.655 -0.3903  0.0485  0.4469
 8327SOL    HW136617   0.553   0.928   8.695 -0.5585  0.5591 -0.6750
 8327SOL    HW236618   0.686   0.897   8.655  0.4808 -1.7248  0.9909
 8328SOL     OW36619   0.436   0.821   8.457  0.4476 -0.1992  0.9941
 8328SOL    HW136620   0.383   0.743   8.473  0.6268 -0.3006  1.0824
 8328SOL    HW236621   0.492   0.821   8.534  1.6179 -0.6541  0.1363
 8329SOL     OW36622   4.502   0.930  14.608  0.5372 -0.1273 -0.4342
 8329SOL    HW136623   4.489   0.940  14.702  0.5162  1.5786 -0.6276
 8329SOL    HW236624   4.440   0.860  14.588 -1.0287  1.3856 -0.7819
 8330SOL     OW36625   0.044   0.709  12.253  0.3843  0.4593  0.0100
 8330SOL    HW136626   4.739   0.785  12.291  2.1561  1.7037 -0.3684
 8330SOL    HW236627   0.008   0.718  12.165 -1.2898  0.0964  0.6495
 8331SOL     OW36628   1.517   0.654   9.104 -0.2791 -0.1421 -0.1592
 8331SOL    HW136629   1.453   0.725   9.104 -0.3323 -0.1865 -1.6784
 8331SOL    HW236630   1.553   0.664   9.192 -0.3583  1.1147 -0.2736
 8332SOL     OW36631   0.961   0.188   3.222  0.0366 -0.0258 -0.8062
 8332SOL    HW136632   1.031   0.253   3.225  0.5484 -0.5257 -2.1288
 8332SOL    HW236633   0.889   0.229   3.270 -1.9854 -1.7376 -2.3412
 8333SOL     OW36634   1.768   1.698   8.919  0.5083 -0.2063  0.1140
 8333SOL    HW136635   1.731   1.709   9.006  1.0832  2.8197 -0.0474
 8333SOL    HW236636   1.743   1.611   8.889 -0.3971 -0.0734  0.4980
 8334SOL     OW36637   1.785   3.508   5.349  0.2195  0.0279 -0.3155
 8334SOL    HW136638   1.781   3.417   5.380 -1.8437 -0.3551 -1.6981
 8334SOL    HW236639   1.875   3.529   5.376 -0.1101  1.4308 -0.3057
 8335SOL     OW36640   1.118   2.157   4.175 -0.3091 -0.2087 -0.1745
 8335SOL    HW136641   1.088   2.200   4.094 -0.8636 -0.0242  0.1345
 8335SOL    HW236642   1.163   2.077   4.147 -1.6310 -1.3920  1.1508
 8336SOL     OW36643   3.734   2.378   7.399  0.0337 -0.5639  0.4347
 8336SOL    HW136644   3.823   2.344   7.398  1.4536  3.2719 -2.0062
 8336SOL    HW236645   3.717   2.357   7.491  0.7534 -0.4775  0.5827
 8337SOL     OW36646   1.703   3.331   6.013 -0.6649 -0.3887 -0.4829
 8337SOL    HW136647   1.697   3.297   5.924 -0.2039  1.0331 -1.0519
 8337SOL    HW236648   1.792   3.302   6.034 -0.9149 -1.1752 -0.5187
 8338SOL     OW36649   0.362   2.242   1.853 -0.8455  0.6245  0.1457
 8338SOL    HW136650   0.364   2.223   1.947  2.9280 -0.1869 -0.0708
 8338SOL    HW236651   0.440   2.195   1.824 -1.9114 -1.4430  0.5639
 8339SOL     OW36652   1.922   3.369   9.673  0.3323 -0.3478  0.1463
 8339SOL    HW136653   1.875   3.383   9.755 -1.3577  0.6947 -1.0159
 8339SOL    HW236654   1.984   3.440   9.690 -1.2587  0.9684  0.4932
 8340SOL     OW36655   3.606   3.129   8.520 -0.3880 -0.6279  0.2562
 8340SOL    HW136656   3.606   3.224   8.525  2.3125 -0.6841  1.7583
 8340SOL    HW236657   3.533   3.109   8.461 -0.0515 -0.0104 -0.3636
 8341SOL     OW36658   2.649   4.153   8.449 -0.2335  0.3236  0.2515
 8341SOL    HW136659   2.711   4.100   8.399 -0.4057  0.9677 -0.6546
 8341SOL    HW236660   2.680   4.140   8.539  2.1443  0.1556 -0.6129
 8342SOL     OW36661   3.137   0.645   6.238  0.2159  0.3243  0.0907
 8342SOL    HW136662   3.137   0.719   6.178 -1.0624 -0.4708 -0.8788
 8342SOL    HW236663   3.134   0.572   6.177 -1.4471 -0.7492  1.4364
 8343SOL     OW36664   4.570   1.790  17.240  0.1686  0.1068  0.2537
 8343SOL    HW136665   4.635   1.860  17.248  0.3139 -0.0366  0.3028
 8343SOL    HW236666   4.519   1.831  17.169  0.7188  0.0291 -0.1812
 8344SOL     OW36667   1.341   0.250   2.499  0.1564 -0.1911  0.0794
 8344SOL    HW136668   1.388   0.332   2.512  1.3402 -0.4184 -2.5591
 8344SOL    HW236669   1.268   0.265   2.439  0.0893 -1.1601 -0.0930
 8345SOL     OW36670   4.521   1.004   6.501  0.1147 -0.0064 -0.1398
 8345SOL    HW136671   4.496   0.924   6.456 -1.1400 -0.8296  1.9928
 8345SOL    HW236672   4.606   1.023   6.462  0.9178  0.2395  1.7487
 8346SOL     OW36673   2.195   4.694   6.803 -0.0883  0.1569 -0.2904
 8346SOL    HW136674   2.227   4.604   6.800 -0.0607  0.1671 -0.3045
 8346SOL    HW236675   2.251   0.002   6.743 -0.4459 -1.0350 -1.5928
 8347SOL     OW36676   2.511   0.859  11.668 -0.3521 -0.0364  0.0932
 8347SOL    HW136677   2.579   0.793  11.672 -0.6806 -0.1437  3.6595
 8347SOL    HW236678   2.546   0.931  11.720  2.5044 -2.8456  2.0425
 8348SOL     OW36679   1.037   0.210   8.707  0.0889 -0.2566 -0.4845
 8348SOL    HW136680   0.954   0.186   8.747  0.3874  0.0758  0.3351
 8348SOL    HW236681   1.025   0.191   8.614  0.6895  1.0471 -0.8468
 8349SOL     OW36682   0.390   0.363  16.996  0.2671 -0.1982 -0.4203
 8349SOL    HW136683   0.334   0.439  16.978 -1.0801 -0.8536  1.0403
 8349SOL    HW236684   0.433   0.394  17.076  0.5341  1.8984 -1.3582
 8350SOL     OW36685   2.199   4.265   7.968 -0.3060 -0.1596  0.1249
 8350SOL    HW136686   2.207   4.186   8.022 -4.0617 -0.2482  0.5563
 8350SOL    HW236687   2.111   4.255   7.930 -0.1795 -0.5728 -0.0591
 8351SOL     OW36688   0.101   4.215   7.866 -0.2067 -0.1010 -0.3236
 8351SOL    HW136689   0.011   4.186   7.857 -0.0294  0.0162 -2.4885
 8351SOL    HW236690   0.114   4.228   7.960  0.9776 -1.4946 -0.2823
 8352SOL     OW36691   4.547   0.857   8.975 -1.0590 -0.1534 -0.1931
 8352SOL    HW136692   4.489   0.798   9.023 -2.3004 -0.0652 -1.5734
 8352SOL    HW236693   4.625   0.843   9.029 -0.0005 -0.2277 -1.7219
 8353SOL     OW36694   2.471   3.254   7.666  0.7980  0.2309 -0.3993
 8353SOL    HW136695   2.564   3.280   7.671  1.1411 -1.4794  1.9944
 8353SOL    HW236696   2.447   3.265   7.575 -0.4157 -0.2339 -0.1258
 8354SOL     OW36697   1.981   3.670   2.294 -0.4213 -0.1241  0.3334
 8354SOL    HW136698   2.052   3.612   2.320  0.3771  0.6295 -0.1622
 8354SOL    HW236699   1.924   3.607   2.249 -1.4394  1.4599 -0.6111
 8355SOL     OW36700   1.142   4.597  11.743  0.5449  0.3289 -0.2901
 8355SOL    HW136701   1.196   4.586  11.821  1.9595  1.9021 -1.0504
 8355SOL    HW236702   1.166   4.526  11.682  2.5354  0.7574 -0.0197
 8356SOL     OW36703   2.852   3.330   4.034  0.7202  0.3072  0.1682
 8356SOL    HW136704   2.809   3.401   3.987  0.3079 -0.6952 -0.9689
 8356SOL    HW236705   2.865   3.266   3.964  0.7797 -0.1109  0.5622
 8357SOL     OW36706   4.529   0.297   5.369 -0.2637 -0.0483 -0.1937
 8357SOL    HW136707   4.526   0.216   5.318 -0.2271  1.5265 -2.6767
 8357SOL    HW236708   4.552   0.351   5.293  0.6179  0.2260  0.2679
 8358SOL     OW36709   0.879   0.619   8.043 -0.4811  0.8075 -0.0828
 8358SOL    HW136710   0.819   0.683   8.005  0.4461  0.7182 -1.6873
 8358SOL    HW236711   0.950   0.674   8.075  0.1925 -0.4304  0.5307
 8359SOL     OW36712   3.902   1.241   6.477  0.2074 -0.1881 -0.2711
 8359SOL    HW136713   3.835   1.251   6.409 -0.2883 -0.5091  0.1745
 8359SOL    HW236714   3.951   1.320   6.454  1.3193 -0.1902  2.1872
 8360SOL     OW36715   1.544   3.549   5.016  0.3224  0.0108 -0.2383
 8360SOL    HW136716   1.575   3.463   5.044  0.9305 -0.0289 -1.0509
 8360SOL    HW236717   1.543   3.605   5.093  0.0596 -0.8409  0.3848
 8361SOL     OW36718   0.286   2.813   6.168  0.0463  0.0359 -0.4407
 8361SOL    HW136719   0.334   2.878   6.220 -1.0303 -1.7129  2.7085
 8361SOL    HW236720   0.357   2.773   6.118  1.5229  0.4941  1.3042
 8362SOL     OW36721   0.472   3.881   2.226  0.3342  0.5250  0.0520
 8362SOL    HW136722   0.466   3.882   2.322 -1.2346  2.1692 -0.0703
 8362SOL    HW236723   0.556   3.835   2.215 -0.5693 -1.1244  0.0091
 8363SOL     OW36724   2.794   1.692   4.675  0.5116  0.1764 -0.1463
 8363SOL    HW136725   2.886   1.716   4.663  0.0975  1.7479 -0.1854
 8363SOL    HW236726   2.753   1.771   4.711  0.3914  0.0942 -0.1052
 8364SOL     OW36727   2.392   3.793   3.552  0.3919 -0.1954  0.1143
 8364SOL    HW136728   2.392   3.716   3.494 -1.8064  0.2092 -0.4165
 8364SOL    HW236729   2.397   3.756   3.640  1.8402  1.2106  0.6207
 8365SOL     OW36730   0.167   1.731   3.512 -0.1058 -0.4634 -0.2048
 8365SOL    HW136731   0.145   1.806   3.567  3.0237  0.7067 -0.5742
 8365SOL    HW236732   0.234   1.768   3.455 -0.7711  1.0587  0.0131
 8366SOL     OW36733   0.361   0.579   4.898 -0.1133 -0.3992 -0.1850
 8366SOL    HW136734   0.299   0.539   4.958 -0.1786  0.4674  0.3086
 8366SOL    HW236735   0.318   0.553   4.817  1.5493 -2.2427 -0.5105
 8367SOL     OW36736   4.131   4.430   2.738 -0.1284 -0.1220  0.0896
 8367SOL    HW136737   4.105   4.339   2.750  1.4399 -0.3229  1.9706
 8367SOL    HW236738   4.044   4.470   2.732  0.5053  1.5948  2.2637
 8368SOL     OW36739   3.648   0.463   8.625  0.3537 -0.6247  0.3086
 8368SOL    HW136740   3.609   0.406   8.557  0.2563 -0.5878  0.3334
 8368SOL    HW236741   3.642   0.546   8.579 -1.9716 -1.2781 -0.6094
 8369SOL     OW36742   3.561   2.114   3.435  0.2273 -0.4404  0.4933
 8369SOL    HW136743   3.539   2.098   3.527 -0.5776 -2.8916 -0.1174
 8369SOL    HW236744   3.646   2.072   3.443  0.6539  0.0262 -1.5221
 8370SOL     OW36745   2.804   1.357   5.313  0.4075 -0.1723 -0.2930
 8370SOL    HW136746   2.819   1.310   5.395 -2.4587 -2.2079 -0.9442
 8370SOL    HW236747   2.716   1.394   5.326  1.1042  1.3449  0.0437
 8371SOL     OW36748   3.297   2.128   9.628  0.2964  0.6520 -0.2996
 8371SOL    HW136749   3.240   2.104   9.555 -1.8601  2.9860  0.6357
 8371SOL    HW236750   3.323   2.212   9.592  0.2851  1.2067  0.9857
 8372SOL     OW36751   3.517   3.769   6.589 -0.2577 -0.2359  0.3672
 8372SOL    HW136752   3.550   3.854   6.560  0.9327 -0.4137  1.1982
 8372SOL    HW236753   3.431   3.762   6.548 -0.3704  0.8955  0.4154
 8373SOL     OW36754   3.707   3.069   6.757 -0.2293 -0.0156  0.0064
 8373SOL    HW136755   3.763   3.143   6.732 -1.6413  0.4441 -1.8039
 8373SOL    HW236756   3.760   2.994   6.732 -1.2862 -1.1488  1.1455
 8374SOL     OW36757   1.193   4.663  13.377 -0.0565 -0.3682 -0.0182
 8374SOL    HW136758   1.175   4.608  13.453 -1.4539 -1.7404 -1.3369
 8374SOL    HW236759   1.270   4.715  13.399  0.3511 -1.4608  1.1355
 8375SOL     OW36760   0.984   4.726  10.967  0.2487 -0.4781 -0.1011
 8375SOL    HW136761   0.994   4.631  10.976  0.6393 -0.6771 -2.8128
 8375SOL    HW236762   1.004   0.021  11.054 -1.6524  0.3628 -0.0033
 8376SOL     OW36763   1.962   3.306   5.806  0.3902  0.1373 -0.3373
 8376SOL    HW136764   1.893   3.260   5.759  0.7674 -1.3811  0.5771
 8376SOL    HW236765   1.996   3.233   5.858 -2.2358 -0.0924  1.0497
 8377SOL     OW36766   2.342   0.322   8.686  0.5505  0.0465  0.1407
 8377SOL    HW136767   2.301   0.356   8.765 -1.8187 -0.7540 -0.7270
 8377SOL    HW236768   2.429   0.361   8.682  0.7370 -0.6219 -2.8144
 8378SOL     OW36769   0.464   4.533   5.573 -0.5650 -0.1754  0.0077
 8378SOL    HW136770   0.529   4.473   5.537  1.2551  1.7855  0.0226
 8378SOL    HW236771   0.487   4.616   5.530  1.3962 -0.3996  0.6029
 8379SOL     OW36772   0.584   2.706   6.871  0.0185 -0.7944  0.7814
 8379SOL    HW136773   0.616   2.777   6.926  2.3004 -0.8915 -0.4592
 8379SOL    HW236774   0.646   2.706   6.798 -2.4667  0.4434 -1.3406
 8380SOL     OW36775   4.584   4.522   4.950  0.3820 -0.0865 -0.5224
 8380SOL    HW136776   4.520   4.563   5.008  0.8225  0.2930 -0.3024
 8380SOL    HW236777   4.600   4.591   4.886 -1.0312  0.7919  0.0862
 8381SOL     OW36778   2.281   2.249   4.854  0.6987 -0.1550  0.1149
 8381SOL    HW136779   2.345   2.202   4.908  0.3608  0.2261  0.8388
 8381SOL    HW236780   2.250   2.173   4.804  1.3921 -0.4798  0.1755
 8382SOL     OW36781   0.574   0.371   0.176  0.4163 -0.0009 -0.0818
 8382SOL    HW136782   0.491   0.390   0.220  1.0715  2.5787  0.0227
 8382SOL    HW236783   0.609   0.302   0.231  0.1988 -1.1057 -1.3147
 8383SOL     OW36784   3.800   2.326   3.224  1.0777 -0.0892 -0.7001
 8383SOL    HW136785   3.785   2.255   3.161 -1.5249  1.5059 -1.9033
 8383SOL    HW236786   3.864   2.277   3.274  2.0844  1.3419 -0.5885
 8384SOL     OW36787   3.546   0.060   8.621 -0.1796  0.0841  0.1802
 8384SOL    HW136788   3.473   0.079   8.681 -0.3205 -1.3712  0.4741
 8384SOL    HW236789   3.532   4.707   8.602 -1.6181  0.9632 -2.9612
 8385SOL     OW36790   0.412   4.100  16.166 -0.2120 -0.3014 -0.6335
 8385SOL    HW136791   0.461   4.027  16.128 -1.9790 -1.1755 -1.2639
 8385SOL    HW236792   0.325   4.061  16.153 -1.4750  2.4166 -0.4171
 8386SOL     OW36793   4.017   0.693   7.193 -0.3703 -0.3936  0.2998
 8386SOL    HW136794   4.018   0.699   7.098 -0.2099  2.3047  0.4693
 8386SOL    HW236795   3.922   0.700   7.201 -0.3978  0.1351 -0.4845
 8387SOL     OW36796   2.748   3.334   6.621 -0.2792  0.2841 -0.4183
 8387SOL    HW136797   2.743   3.305   6.530 -1.2904 -0.1326 -0.2299
 8387SOL    HW236798   2.720   3.253   6.663  0.9190 -0.0337 -0.2211
 8388SOL     OW36799   2.857   1.417   2.989  0.3065  0.2969  0.6431
 8388SOL    HW136800   2.821   1.380   3.070 -1.9547 -2.3168 -1.5373
 8388SOL    HW236801   2.792   1.481   2.960 -0.4761 -0.5120  0.6271
 8389SOL     OW36802   1.583   0.717   6.761  0.0150  0.4941  0.4908
 8389SOL    HW136803   1.524   0.681   6.827  0.2728 -0.7511  0.0461
 8389SOL    HW236804   1.528   0.714   6.683  0.6534  1.2754  0.0184
 8390SOL     OW36805   0.045   0.918   2.614 -0.5023 -0.1770 -1.0026
 8390SOL    HW136806   0.025   0.989   2.676 -0.8040 -1.1994  0.0793
 8390SOL    HW236807   4.699   0.882   2.595 -1.4285  1.7723 -0.4693
 8391SOL     OW36808   2.237   0.332   6.109 -0.2687 -0.3272  1.0156
 8391SOL    HW136809   2.229   0.240   6.082  1.3555 -0.7200  1.8913
 8391SOL    HW236810   2.199   0.326   6.197  1.0434  3.0570  1.7781
 8392SOL     OW36811   2.107   2.302   1.369 -0.1192  0.2669  0.7332
 8392SOL    HW136812   2.190   2.258   1.353  0.6455  1.2877  1.8522
 8392SOL    HW236813   2.074   2.255   1.445 -1.7421  0.5722  0.2235
 8393SOL     OW36814   0.425   0.374   9.975 -0.4270 -0.5061 -0.1788
 8393SOL    HW136815   0.372   0.453   9.968 -1.5090 -1.2161 -0.0393
 8393SOL    HW236816   0.488   0.396   9.906 -1.5860  2.9956 -0.0908
 8394SOL     OW36817   2.413   0.627   3.051 -0.3357 -0.2249  0.4767
 8394SOL    HW136818   2.439   0.615   2.960  0.9004 -0.0552  0.8055
 8394SOL    HW236819   2.352   0.701   3.045  0.3775  0.4210  1.0326
 8395SOL     OW36820   1.537   1.011   0.683 -0.1450  0.0767  0.2335
 8395SOL    HW136821   1.566   0.987   0.595 -1.7032 -1.7561  0.2089
 8395SOL    HW236822   1.550   1.105   0.678  0.4005 -0.0366 -0.4570
 8396SOL     OW36823   3.387   3.588   0.082  1.1336 -0.0111 -0.3237
 8396SOL    HW136824   3.375   3.543  17.756 -1.4018  0.3697 -0.1443
 8396SOL    HW236825   3.417   3.672   0.047  0.2110 -0.4436 -2.1533
 8397SOL     OW36826   2.085   0.954   6.187  0.4009  0.3691 -0.1923
 8397SOL    HW136827   2.064   0.865   6.213  1.1660  0.5366  1.0003
 8397SOL    HW236828   2.119   0.989   6.269 -0.4663  1.6279 -0.3599
 8398SOL     OW36829   3.762   0.912   2.573  0.1743 -0.0900 -0.2350
 8398SOL    HW136830   3.730   1.002   2.571 -0.2587 -0.2076  1.3799
 8398SOL    HW236831   3.856   0.924   2.563  0.2704  0.2129  1.0773
 8399SOL     OW36832   4.086   2.340   3.407  0.2191 -0.0748 -0.5041
 8399SOL    HW136833   4.130   2.302   3.483 -0.4303  1.1482  0.4765
 8399SOL    HW236834   4.051   2.421   3.444  0.4140 -0.2768  0.1128
 8400SOL     OW36835   0.349   0.585   5.906 -0.1020  0.1573  0.4386
 8400SOL    HW136836   0.308   0.533   5.836 -0.8486  1.7674 -0.3171
 8400SOL    HW236837   0.399   0.522   5.958 -2.3027 -1.5222  0.5628
 8401SOL     OW36838   3.936   1.396  16.387 -0.6675 -0.1335  0.4266
 8401SOL    HW136839   3.842   1.404  16.366 -0.6919 -1.7365 -0.0479
 8401SOL    HW236840   3.933   1.394  16.483  1.0248 -0.2218  0.4603
 8402SOL     OW36841   4.102   4.518   6.306  0.6718 -0.3340 -0.4468
 8402SOL    HW136842   4.145   4.433   6.312  1.0413 -0.1209 -0.0376
 8402SOL    HW236843   4.099   4.542   6.398 -1.2060 -2.5481  0.0381
 8403SOL     OW36844   1.525   4.053   3.714  0.1841 -0.6098 -0.0932
 8403SOL    HW136845   1.543   4.142   3.745  1.0760 -0.1701 -1.9327
 8403SOL    HW236846   1.552   4.007   3.793 -0.3657 -0.4447  0.1980
 8404SOL     OW36847   1.831   3.581   3.295  0.2454 -0.4302 -0.0580
 8404SOL    HW136848   1.793   3.642   3.358 -0.3308 -0.9706  0.1250
 8404SOL    HW236849   1.865   3.650   3.238 -2.0962 -0.3762 -1.3740
 8405SOL     OW36850   2.650   3.590   6.289  0.1775  0.1761 -0.7434
 8405SOL    HW136851   2.632   3.528   6.218 -0.1060 -2.1725  1.3850
 8405SOL    HW236852   2.626   3.674   6.248  3.6075  1.1852 -0.6635
 8406SOL     OW36853   3.667   2.097   6.287  0.0759 -0.0516 -0.0596
 8406SOL    HW136854   3.635   2.165   6.227  1.4367 -1.8020 -2.7489
 8406SOL    HW236855   3.613   2.119   6.363 -0.6897 -0.2143 -0.5483
 8407SOL     OW36856   3.716   3.677  15.843 -0.0840  0.2017 -0.1347
 8407SOL    HW136857   3.667   3.755  15.815 -0.2663  0.2640  0.3732
 8407SOL    HW236858   3.765   3.658  15.762  1.8507 -0.2048  1.1383
 8408SOL     OW36859   1.090   2.770   8.751  0.1347  0.0395 -0.0970
 8408SOL    HW136860   1.145   2.694   8.768 -2.2418 -0.9872  3.0791
 8408SOL    HW236861   1.017   2.758   8.812  0.3056 -0.2427  0.0493
 8409SOL     OW36862   2.358   0.736  16.589  0.1221 -0.3597 -0.0495
 8409SOL    HW136863   2.383   0.809  16.645 -0.3378 -0.4564  0.2839
 8409SOL    HW236864   2.329   0.787  16.514 -0.1535  2.2603  1.8567
 8410SOL     OW36865   1.298   2.212   5.593 -0.2436 -0.4571 -0.3908
 8410SOL    HW136866   1.257   2.297   5.585  0.5642 -0.0232  0.0876
 8410SOL    HW236867   1.361   2.218   5.521 -0.7769 -0.9740 -0.9115
 8411SOL     OW36868   1.587   4.325   4.894 -0.0251  0.3581 -0.4342
 8411SOL    HW136869   1.683   4.322   4.895 -0.0602 -1.3240 -2.3819
 8411SOL    HW236870   1.564   4.346   4.804 -2.1501 -0.0241  0.0223
 8412SOL     OW36871   3.010   2.983   8.378  0.3102  0.8179  0.2494
 8412SOL    HW136872   3.037   3.054   8.436  0.3849  1.6620 -0.8352
 8412SOL    HW236873   2.920   2.982   8.410  0.8453  0.1850  1.7685
 8413SOL     OW36874   1.777   4.152   8.772 -0.1766  0.0066 -0.4110
 8413SOL    HW136875   1.843   4.177   8.707  1.5547  0.8521  1.6833
 8413SOL    HW236876   1.782   4.057   8.776  2.2515  0.2670  2.5558
 8414SOL     OW36877   2.807   0.688  10.019 -0.6460 -0.0540 -0.5509
 8414SOL    HW136878   2.777   0.680  10.110 -1.4430  2.5503 -0.5624
 8414SOL    HW236879   2.729   0.669   9.968  1.6539 -1.6876 -3.4234
 8415SOL     OW36880   3.767   0.742  13.633 -0.2809  0.1917  0.5617
 8415SOL    HW136881   3.711   0.804  13.680  0.8250  0.9397  0.8933
 8415SOL    HW236882   3.838   0.741  13.696  0.1595 -3.4981 -0.0053
 8416SOL     OW36883   4.514   2.194   8.844 -0.5014  0.0114  0.5465
 8416SOL    HW136884   4.468   2.152   8.771 -0.3038 -1.0020  1.0061
 8416SOL    HW236885   4.606   2.175   8.829 -1.0148 -0.6606 -1.8521
 8417SOL     OW36886   4.079   1.602   6.687 -0.5129 -0.2052  0.2137
 8417SOL    HW136887   4.046   1.661   6.619  2.3000 -0.3955 -1.3451
 8417SOL    HW236888   4.075   1.520   6.636 -0.1750  0.7561 -1.3599
 8418SOL     OW36889   3.436   4.326   4.273 -0.2933  0.2120 -0.0010
 8418SOL    HW136890   3.492   4.361   4.203 -1.6234 -0.8565 -1.5917
 8418SOL    HW236891   3.495   4.266   4.318  1.0948  1.1963 -0.4979
 8419SOL     OW36892   0.758   3.571   2.771 -0.7626  0.2244  0.3960
 8419SOL    HW136893   0.663   3.566   2.785 -0.7403  3.1817  1.6435
 8419SOL    HW236894   0.776   3.477   2.767  1.3100  0.5784  1.1859
 8420SOL     OW36895   2.709   3.054   7.925  0.0687  0.3403  0.1477
 8420SOL    HW136896   2.701   3.149   7.927 -1.1712  0.1466  3.3931
 8420SOL    HW236897   2.727   3.033   8.017  0.6689  2.1191  0.4310
 8421SOL     OW36898   3.061   3.508   3.751  0.7160  0.1353 -0.4085
 8421SOL    HW136899   2.988   3.570   3.747  1.2860  0.9871  2.4330
 8421SOL    HW236900   3.065   3.476   3.661 -0.3843 -2.4919  0.4658
 8422SOL     OW36901   3.347   2.535  13.565 -0.6155  0.0823 -0.3419
 8422SOL    HW136902   3.434   2.570  13.548 -0.5316  1.0252  1.9281
 8422SOL    HW236903   3.313   2.552  13.478 -0.5203  2.2565  0.0470
 8423SOL     OW36904   2.127   1.304   6.621 -0.7996  0.0784 -0.2804
 8423SOL    HW136905   2.035   1.327   6.633 -0.4900  0.6825  0.9585
 8423SOL    HW236906   2.180   1.365   6.673 -1.4151 -1.4870  2.2257
 8424SOL     OW36907   1.687   1.163   5.814 -0.0423  0.0903 -0.7040
 8424SOL    HW136908   1.676   1.258   5.822  1.8135  0.1582  1.0029
 8424SOL    HW236909   1.615   1.124   5.862 -2.1609  1.4880 -2.7346
 8425SOL     OW36910   2.030   1.793   8.854  0.1971 -0.0895 -0.1434
 8425SOL    HW136911   2.015   1.763   8.764  2.0663  1.7564 -1.0892
 8425SOL    HW236912   1.940   1.789   8.886 -0.0976  0.7977 -0.8533
 8426SOL     OW36913   4.148   0.708   2.232  0.2408 -0.3864  0.2762
 8426SOL    HW136914   4.130   0.615   2.219 -0.2080 -0.6702  3.0040
 8426SOL    HW236915   4.202   0.702   2.310 -0.7185  2.3450  1.1579
 8427SOL     OW36916   3.520   1.923   8.767 -0.2636  0.1345  0.3486
 8427SOL    HW136917   3.585   1.900   8.833  1.2656  0.8806 -0.9060
 8427SOL    HW236918   3.559   1.886   8.688  0.5261  0.2471  0.6869
 8428SOL     OW36919   4.166   3.960  11.669  0.2032  0.3772 -0.0281
 8428SOL    HW136920   4.177   4.050  11.698  0.7866  0.2125  0.2561
 8428SOL    HW236921   4.246   3.923  11.706 -0.4056  0.4507  1.3773
 8429SOL     OW36922   4.151   2.346   8.242 -0.3277 -0.2705  0.7064
 8429SOL    HW136923   4.204   2.420   8.212 -2.5652  1.5435  1.1870
 8429SOL    HW236924   4.164   2.353   8.337 -1.6270  1.0245  0.7959
 8430SOL     OW36925   4.383   2.195  12.391  0.0338  0.1915  0.0832
 8430SOL    HW136926   4.451   2.166  12.330  0.6887 -2.1271  1.8843
 8430SOL    HW236927   4.311   2.146  12.351 -0.4626  0.1411  1.0339
 8431SOL     OW36928   0.146   1.514   6.173  0.3057  0.4340  0.9037
 8431SOL    HW136929   0.161   1.588   6.115  3.2162  0.5112  1.7742
 8431SOL    HW236930   0.233   1.491   6.205  0.4765 -1.0480 -0.6578
 8432SOL     OW36931   3.003   4.028  15.408 -0.6227  0.2328 -0.0000
 8432SOL    HW136932   2.917   3.988  15.402  0.5878 -2.4972  0.9174
 8432SOL    HW236933   2.978   4.105  15.459  1.0447  2.2714 -2.2241
 8433SOL     OW36934   0.955   1.844   3.065  0.4908 -0.4074 -0.3192
 8433SOL    HW136935   0.936   1.767   3.120 -0.0226 -1.3347 -1.7941
 8433SOL    HW236936   0.965   1.803   2.979  1.8118  2.9565 -1.7393
 8434SOL     OW36937   2.436   3.270   3.185 -0.2544  0.2793 -0.3246
 8434SOL    HW136938   2.400   3.234   3.105  0.8348 -0.1762 -0.6072
 8434SOL    HW236939   2.463   3.354   3.148  0.4903  0.4064  0.5059
 8435SOL     OW36940   4.583   0.357   4.315  0.0279 -0.5510  0.2478
 8435SOL    HW136941   4.520   0.298   4.275 -0.2488  0.4927 -0.8692
 8435SOL    HW236942   4.643   0.389   4.248  0.2828  1.1623  1.2875
 8436SOL     OW36943   1.986   2.484  10.981 -0.2427 -0.2867  0.2227
 8436SOL    HW136944   2.054   2.427  10.946 -0.4864 -0.1026 -0.5450
 8436SOL    HW236945   2.029   2.507  11.064  0.6374  0.0096 -0.3187
 8437SOL     OW36946   0.507   4.165   6.176 -0.1368 -0.1809  0.5456
 8437SOL    HW136947   0.449   4.091   6.191  0.6194 -0.8368  0.2487
 8437SOL    HW236948   0.484   4.191   6.086  1.4051 -1.5000 -0.2177
 8438SOL     OW36949   0.455   2.264   4.995  0.7172 -0.3792 -0.0378
 8438SOL    HW136950   0.484   2.277   4.905 -0.1745  0.4128 -0.2065
 8438SOL    HW236951   0.535   2.224   5.030 -0.1024 -2.8937 -1.0176
 8439SOL     OW36952   3.336   0.913   3.094 -0.3621 -0.4033 -0.2246
 8439SOL    HW136953   3.341   0.891   3.187  0.4321  0.8924  0.0380
 8439SOL    HW236954   3.359   0.827   3.059 -0.0872 -0.0974 -0.8119
 8440SOL     OW36955   0.436   3.046   7.672  0.6982  0.5267  0.7420
 8440SOL    HW136956   0.527   3.050   7.702  0.4491  1.4462  1.3936
 8440SOL    HW236957   0.387   3.060   7.753 -1.4861 -1.8993 -0.1562
 8441SOL     OW36958   2.497   0.743  17.395  0.5760 -0.4900 -0.2144
 8441SOL    HW136959   2.418   0.747  17.341 -0.2330 -0.7803  0.9539
 8441SOL    HW236960   2.500   0.830  17.435  1.0890 -0.8562  0.5365
 8442SOL     OW36961   0.952   1.731   9.764 -0.3557 -0.5195 -0.3436
 8442SOL    HW136962   0.999   1.799   9.813 -0.5223  1.3651 -2.8115
 8442SOL    HW236963   0.860   1.750   9.782  0.0995  0.8087  0.6373
 8443SOL     OW36964   3.913   3.846   3.535  0.1383 -0.1729  0.2845
 8443SOL    HW136965   3.901   3.812   3.623  1.2757 -1.4024 -0.0455
 8443SOL    HW236966   3.986   3.794   3.504 -0.1165  0.8258 -2.0608
 8444SOL     OW36967   2.093   4.637  17.292  0.2309  0.5163 -0.4055
 8444SOL    HW136968   2.146   4.587  17.354 -0.9004 -0.9495 -0.6039
 8444SOL    HW236969   2.124   4.586  17.217 -0.7012 -0.5193 -0.0934
 8445SOL     OW36970   2.061   0.540   4.903  0.3460  0.6254 -0.2092
 8445SOL    HW136971   2.153   0.563   4.913  0.4056 -0.8787  2.5195
 8445SOL    HW236972   2.040   0.470   4.965 -0.3434 -0.9943 -2.2741
 8446SOL     OW36973   3.683   2.574   5.886  0.5586  0.2584  0.3030
 8446SOL    HW136974   3.591   2.597   5.880  0.4528 -0.1066  0.5411
 8446SOL    HW236975   3.675   2.488   5.927  0.7944  0.9826  1.8629
 8447SOL     OW36976   4.044   0.746  13.873  0.0162 -0.0470 -0.1139
 8447SOL    HW136977   4.116   0.787  13.826 -0.0668  2.4448  1.9050
 8447SOL    HW236978   4.060   0.652  13.871  1.2639  0.1468  1.0380
 8448SOL     OW36979   2.880   2.576   4.157  0.6708 -0.1379 -0.6338
 8448SOL    HW136980   2.807   2.550   4.213  0.0725  1.8530 -0.4931
 8448SOL    HW236981   2.952   2.531   4.202  2.4782  3.9426  0.5817
 8449SOL     OW36982   2.658   0.315   6.662 -0.4794  0.1528 -0.0984
 8449SOL    HW136983   2.604   0.266   6.599 -1.2177  0.7860  0.0375
 8449SOL    HW236984   2.612   0.398   6.672 -1.9893 -0.6336 -0.4285
 8450SOL     OW36985   2.560   2.822  15.018  0.6990  0.5684 -0.8807
 8450SOL    HW136986   2.574   2.769  15.096 -1.3404 -1.1200 -1.6744
 8450SOL    HW236987   2.507   2.767  14.961 -2.4187  2.0604  0.5467
 8451SOL     OW36988   0.073   4.037   6.171 -0.0124  0.5529  0.7845
 8451SOL    HW136989   4.722   4.046   6.143  1.4490  0.6324 -3.8628
 8451SOL    HW236990   0.084   4.123   6.209  1.9812  0.6722 -0.0836
 8452SOL     OW36991   3.563   3.185  11.009 -0.5098 -0.2849 -0.0514
 8452SOL    HW136992   3.515   3.207  10.929 -1.5060 -1.6129  0.1757
 8452SOL    HW236993   3.651   3.222  11.006 -0.8056  0.4929  1.0808
 8453SOL     OW36994   0.155   2.340   3.039  0.5401 -0.3939 -1.1354
 8453SOL    HW136995   0.134   2.307   2.952  1.6195 -1.3194 -1.0447
 8453SOL    HW236996   0.248   2.315   3.040  0.3918 -0.8565 -0.0246
 8454SOL     OW36997   2.349   1.681  11.536 -0.3065 -0.2643  0.4855
 8454SOL    HW136998   2.270   1.728  11.510 -1.6140 -3.1584 -0.8017
 8454SOL    HW236999   2.369   1.723  11.620 -1.3725 -3.1151  2.1708
 8455SOL     OW37000   3.442   1.216   2.365  0.3363  0.1765  0.0253
 8455SOL    HW137001   3.528   1.231   2.326 -1.4681  0.5798 -3.7919
 8455SOL    HW237002   3.444   1.121   2.381 -1.7730  0.3218  1.2741
 8456SOL     OW37003   3.939   3.713   2.507  0.0622 -0.0269  0.1833
 8456SOL    HW137004   4.028   3.697   2.537  0.2972 -0.4667 -0.7597
 8456SOL    HW237005   3.951   3.688   2.416 -3.7731 -1.2606  0.0136
 8457SOL     OW37006   0.855   2.695  17.439 -0.1402  0.0996  0.1256
 8457SOL    HW137007   0.881   2.785  17.418  1.9095 -0.3433  0.7264
 8457SOL    HW237008   0.809   2.716  17.520 -0.8121 -1.2878  0.1094
 8458SOL     OW37009   1.331   1.001   5.717  0.1720  0.0674 -0.2137
 8458SOL    HW137010   1.339   1.086   5.760 -2.4196 -0.2830  0.9418
 8458SOL    HW237011   1.269   0.957   5.775  1.7549 -1.6622  0.1881
 8459SOL     OW37012   4.201   3.780   7.800  0.8154  0.2702  0.1065
 8459SOL    HW137013   4.216   3.688   7.778 -0.1377  0.2311 -0.4212
 8459SOL    HW237014   4.185   3.784   7.894  1.5145 -1.0693  0.2707
 8460SOL     OW37015   0.806   2.413  12.675 -0.3831 -0.1914 -0.7511
 8460SOL    HW137016   0.820   2.455  12.590 -0.3103  0.0501 -0.6179
 8460SOL    HW237017   0.712   2.396  12.664  0.1553 -2.0487 -2.3839
 8461SOL     OW37018   0.905   2.594   6.126  0.2362 -0.1664  0.1185
 8461SOL    HW137019   0.990   2.549   6.131 -0.4149 -1.3829  0.3335
 8461SOL    HW237020   0.857   2.552   6.198 -0.1377 -1.4525 -0.8777
 8462SOL     OW37021   1.931   1.915   6.013 -0.4970  0.0567  0.1687
 8462SOL    HW137022   2.005   1.854   6.012 -0.7012 -0.1783 -0.7194
 8462SOL    HW237023   1.977   1.999   6.012  0.2411 -0.3343  1.1981
 8463SOL     OW37024   0.413   2.838   6.542 -0.2785 -0.0444 -0.0283
 8463SOL    HW137025   0.430   2.749   6.509 -1.0671 -0.1307 -0.1990
 8463SOL    HW237026   0.460   2.901   6.487  0.9399 -0.5519  0.4333
 8464SOL     OW37027   3.577   4.056   5.620 -0.4388  0.1406  0.1181
 8464SOL    HW137028   3.619   3.971   5.637 -0.9936 -0.4826 -1.6456
 8464SOL    HW237029   3.648   4.096   5.570  0.8779 -1.9963  0.2414
 8465SOL     OW37030   4.608   3.430   2.072  0.1668  0.1189  0.1324
 8465SOL    HW137031   4.600   3.341   2.038 -1.5450  0.2141  0.2939
 8465SOL    HW237032   4.540   3.483   2.029  0.5497  0.1218 -0.4565
 8466SOL     OW37033   3.636   4.416   2.945  0.3841  0.4327 -0.0443
 8466SOL    HW137034   3.688   4.485   2.986 -0.5784  0.9768  0.2764
 8466SOL    HW237035   3.597   4.369   3.018  1.0740  0.7767  0.5367
 8467SOL     OW37036   1.561   0.835   9.652  0.3186 -0.0124 -0.0454
 8467SOL    HW137037   1.560   0.844   9.557 -3.0441 -3.8378 -0.3846
 8467SOL    HW237038   1.577   0.925   9.680  0.6588  0.5049 -1.8959
 8468SOL     OW37039   0.206   1.334  15.037 -0.6891 -0.2352  0.6837
 8468SOL    HW137040   0.274   1.273  15.065 -1.3145 -1.3856 -0.2915
 8468SOL    HW237041   0.262   1.401  14.998 -0.4638 -0.5921  0.3932
 8469SOL     OW37042   0.102   0.693  16.614  0.2324  0.0957  0.5275
 8469SOL    HW137043   0.087   0.648  16.532  0.2905  2.0347 -0.5621
 8469SOL    HW237044   0.128   0.779  16.580  2.0262 -1.3827 -1.8120
 8470SOL     OW37045   3.720   3.444   2.760  0.0839  0.1592  0.6619
 8470SOL    HW137046   3.686   3.429   2.671 -0.5282  0.0708  0.9114
 8470SOL    HW237047   3.726   3.355   2.796  1.1219 -0.6592 -1.5384
 8471SOL     OW37048   1.533   4.022   3.440 -0.4806  0.1545  0.0684
 8471SOL    HW137049   1.560   4.022   3.532  0.6212 -0.8762 -0.2622
 8471SOL    HW237050   1.589   4.090   3.402 -1.5846  1.6021  1.0102
 8472SOL     OW37051   4.638   0.139   6.775 -0.3246  0.2228  0.1086
 8472SOL    HW137052   4.683   0.144   6.860 -0.1438 -3.4239  0.2411
 8472SOL    HW237053   4.704   0.169   6.713 -0.6930 -0.2583 -0.5157
 8473SOL     OW37054   0.486   2.805   4.490  0.2559 -0.2857 -0.1742
 8473SOL    HW137055   0.567   2.855   4.477  0.6908 -0.8021  0.5778
 8473SOL    HW237056   0.426   2.873   4.521 -0.3783 -0.1756 -1.6739
 8474SOL     OW37057   1.307   1.789  13.955  0.1178 -0.0649  0.2817
 8474SOL    HW137058   1.388   1.802  13.906 -0.2738  0.0479 -0.3354
 8474SOL    HW237059   1.242   1.752  13.895  0.3335 -1.7579  1.0929
 8475SOL     OW37060   0.329   0.541   0.426 -1.2894 -0.4775 -0.3361
 8475SOL    HW137061   0.288   0.623   0.399  1.7145  0.7114 -1.3591
 8475SOL    HW237062   0.405   0.580   0.471 -0.4560 -1.0954 -1.2168
 8476SOL     OW37063   0.351   3.940   8.438  0.6240  0.1377  0.5654
 8476SOL    HW137064   0.258   3.933   8.419  0.6640  0.0125  0.4213
 8476SOL    HW237065   0.387   3.884   8.369 -0.1021  1.0745 -0.5753
 8477SOL     OW37066   3.983   1.327   8.594 -0.5271  0.0990 -0.1078
 8477SOL    HW137067   4.076   1.342   8.612  0.2251 -3.5188 -0.9746
 8477SOL    HW237068   3.951   1.398   8.539 -0.5656  1.0697  1.1754
 8478SOL     OW37069   0.734   0.325   1.543  0.5915  0.3859 -0.4872
 8478SOL    HW137070   0.656   0.272   1.561  1.2183 -0.0859  0.8183
 8478SOL    HW237071   0.763   0.299   1.456  0.7490 -1.4888  0.1288
 8479SOL     OW37072   4.232   1.639   4.802  0.4708  0.4791 -0.0909
 8479SOL    HW137073   4.247   1.703   4.872  0.7852  0.4078 -0.0899
 8479SOL    HW237074   4.324   1.619   4.784  0.6646  0.8410  0.5073
 8480SOL     OW37075   0.920   3.035   6.945 -0.7967 -0.0165 -0.0305
 8480SOL    HW137076   0.879   3.122   6.954  1.1941  0.9213 -0.0148
 8480SOL    HW237077   0.996   3.050   7.001 -0.2873  0.3200 -0.8114
 8481SOL     OW37078   2.674   0.935   9.652 -0.3440 -0.2144  0.1458
 8481SOL    HW137079   2.706   0.910   9.565  2.3581 -2.0083  1.6732
 8481SOL    HW237080   2.599   0.879   9.673  0.6666 -1.4223  0.4816
 8482SOL     OW37081   1.751   3.535   4.041  0.4152 -0.2171 -0.2454
 8482SOL    HW137082   1.804   3.477   4.096 -2.1048 -2.3225 -0.0927
 8482SOL    HW237083   1.712   3.483   3.971  1.8578 -0.5910 -0.7771
 8483SOL     OW37084   4.023   3.001   5.726  0.2624  0.0077 -0.2944
 8483SOL    HW137085   4.011   3.065   5.655 -1.4428 -0.7884 -0.7245
 8483SOL    HW237086   4.110   3.031   5.752 -0.7050  1.7052  1.0096
 8484SOL     OW37087   1.733   1.311   8.177  0.3828 -0.1177  0.2599
 8484SOL    HW137088   1.791   1.373   8.133 -1.6416  2.6077  1.4627
 8484SOL    HW237089   1.691   1.375   8.234  1.8934  1.1068 -0.0063
 8485SOL     OW37090   1.788   1.602  13.532  0.4252 -0.0643  0.2222
 8485SOL    HW137091   1.700   1.629  13.504 -0.0671  0.1524  2.0159
 8485SOL    HW237092   1.826   1.565  13.452  1.1029  0.8783  0.1191
 8486SOL     OW37093   2.180   1.585  16.152 -0.0287  0.4318 -0.1696
 8486SOL    HW137094   2.156   1.678  16.148  0.9977  0.7512  1.0875
 8486SOL    HW237095   2.109   1.544  16.202  1.4868 -0.2464  1.4465
 8487SOL     OW37096   0.915   3.014   4.652 -0.6362  0.8446  0.5924
 8487SOL    HW137097   0.915   2.976   4.740 -1.1639  2.3301  1.2291
 8487SOL    HW237098   1.009   3.013   4.636 -0.5221 -0.6385  1.3888
 8488SOL     OW37099   4.213   1.791   8.917 -0.3636  0.2391  0.0789
 8488SOL    HW137100   4.255   1.706   8.902 -0.1640  0.6050 -1.4708
 8488SOL    HW237101   4.127   1.777   8.876 -0.9141 -1.0377  1.6814
 8489SOL     OW37102   0.127   3.172   8.146  0.0699 -0.4996 -0.0425
 8489SOL    HW137103   0.091   3.196   8.231 -0.1480  0.0738 -0.2975
 8489SOL    HW237104   0.213   3.212   8.161  0.1145 -0.8915  0.7524
 8490SOL     OW37105   4.167   3.826   0.252  0.1409 -0.2648 -0.8019
 8490SOL    HW137106   4.197   3.907   0.211  0.4784  0.4225  0.7906
 8490SOL    HW237107   4.255   3.794   0.269  0.4387  1.5075  1.0791
 8491SOL     OW37108   1.575   0.785   4.032  0.6675  0.7000 -0.2416
 8491SOL    HW137109   1.575   0.756   4.123 -0.1430  3.5418  0.6567
 8491SOL    HW237110   1.614   0.872   4.041 -0.8205  1.2931  0.3748
 8492SOL     OW37111   2.412   4.150   4.325 -0.0641  0.2293  0.1894
 8492SOL    HW137112   2.392   4.120   4.414  2.3009 -1.0150  0.2885
 8492SOL    HW237113   2.507   4.160   4.335 -0.3124  2.4985  0.4031
 8493SOL     OW37114   0.276   2.154   8.171 -0.6103 -0.1039 -0.0224
 8493SOL    HW137115   0.319   2.116   8.247 -0.9392  0.9111  0.6657
 8493SOL    HW237116   0.275   2.246   8.197  0.8900  0.4741 -2.0030
 8494SOL     OW37117   4.697   2.867   7.458 -0.2553  0.5804  0.8975
 8494SOL    HW137118   0.012   2.945   7.446  1.8975 -0.7700  1.9795
 8494SOL    HW237119   0.011   2.799   7.417 -0.1440  1.7535 -0.9019
 8495SOL     OW37120   2.435   0.942  14.370  0.3442 -0.7159 -0.2416
 8495SOL    HW137121   2.507   0.959  14.430  0.0729  0.4429 -0.2297
 8495SOL    HW237122   2.372   0.898  14.427  1.0813 -1.4434  0.0017
 8496SOL     OW37123   2.683   2.027  11.156 -0.0864  0.0207  0.3413
 8496SOL    HW137124   2.668   1.941  11.118  1.9844  0.7172 -2.0094
 8496SOL    HW237125   2.626   2.010  11.231 -0.2737  1.0005  0.4181
 8497SOL     OW37126   4.408   2.844   3.113  0.1987 -0.2116 -0.1309
 8497SOL    HW137127   4.379   2.916   3.056 -0.4109  0.6088  1.2197
 8497SOL    HW237128   4.461   2.879   3.184 -0.4109  1.7317 -0.6386
 8498SOL     OW37129   3.996   2.225   3.029 -0.1725 -0.2515 -0.9008
 8498SOL    HW137130   4.068   2.162   3.039  0.4599  0.5549 -0.3052
 8498SOL    HW237131   4.048   2.302   3.005 -0.4249  0.5002  0.9816
 8499SOL     OW37132   4.397   4.068  13.933  0.0460 -0.7410 -0.6657
 8499SOL    HW137133   4.457   4.140  13.914  1.1880 -1.3895  0.5184
 8499SOL    HW237134   4.409   4.053  14.026  0.0208 -0.4001 -0.6053
 8500SOL     OW37135   1.244   0.728   5.942 -0.3962 -0.3684 -0.5509
 8500SOL    HW137136   1.318   0.783   5.970  1.0012 -1.8460 -1.3599
 8500SOL    HW237137   1.276   0.647   5.903 -0.6757 -0.9203  0.3614
 8501SOL     OW37138   1.947   1.326   7.207  0.5348 -0.2259  0.3609
 8501SOL    HW137139   1.977   1.398   7.263 -1.9312  1.7913 -0.9487
 8501SOL    HW237140   1.923   1.368   7.125 -0.3043  0.0918  0.7712
 8502SOL     OW37141   2.728   0.265  10.133 -0.0272 -0.0818  0.2668
 8502SOL    HW137142   2.757   0.246  10.222  1.5085  2.0464  0.2226
 8502SOL    HW237143   2.659   0.199  10.143  0.7443 -0.6712  1.6452
 8503SOL     OW37144   2.371   3.750   8.638 -0.1842 -0.1548 -0.0038
 8503SOL    HW137145   2.345   3.716   8.552  3.0523  2.9254 -2.2204
 8503SOL    HW237146   2.283   3.767   8.672 -0.2960 -1.0562  0.1571
 8504SOL     OW37147   1.072   0.763   6.510  0.6652  0.5046  0.0654
 8504SOL    HW137148   1.005   0.811   6.559  1.2407  2.2084 -0.8169
 8504SOL    HW237149   1.102   0.831   6.449 -1.4964  1.9772  0.6632
 8505SOL     OW37150   1.499   3.549  16.992  0.0478 -0.7685 -0.0616
 8505SOL    HW137151   1.423   3.561  17.049  0.3612 -0.9296  0.3940
 8505SOL    HW237152   1.470   3.592  16.911 -0.8037 -0.7279  0.2609
 8506SOL     OW37153   0.271   1.815  16.299  0.1389  0.4773 -0.0027
 8506SOL    HW137154   0.189   1.765  16.307 -0.0406  0.7294 -0.2588
 8506SOL    HW237155   0.326   1.756  16.248  0.2174 -0.8642  1.6428
 8507SOL     OW37156   3.721   0.374   3.347  0.2475 -0.5575 -0.2367
 8507SOL    HW137157   3.761   0.387   3.433 -1.7151  1.2770  0.3958
 8507SOL    HW237158   3.741   0.281   3.334  0.3074 -0.6140  0.2531
 8508SOL     OW37159   2.634   2.567   3.201 -0.0965  0.3393  0.7301
 8508SOL    HW137160   2.627   2.618   3.282 -0.2952  0.8439  0.3947
 8508SOL    HW237161   2.574   2.616   3.145  1.0808 -0.6404 -1.4011
 8509SOL     OW37162   0.056   4.404   8.921  0.0431 -0.3530  0.0321
 8509SOL    HW137163   0.055   4.424   8.827 -0.8512  1.4422  0.4224
 8509SOL    HW237164   4.720   4.348   8.938 -0.8370  0.5694 -0.9086
 8510SOL     OW37165   0.331   2.676   4.816  0.2138  0.0638 -0.5653
 8510SOL    HW137166   0.355   2.767   4.835 -0.0835  0.0777 -0.2490
 8510SOL    HW237167   0.238   2.687   4.794  0.0092  0.0638  0.2702
 8511SOL     OW37168   2.549   0.255   6.959 -0.0692  0.1946 -0.3062
 8511SOL    HW137169   2.561   0.162   6.975  1.3590  0.2500 -0.9847
 8511SOL    HW237170   2.594   0.265   6.875  0.8749  0.9707  0.2917
 8512SOL     OW37171   0.502   2.176   4.014  0.2056 -0.2284  0.0833
 8512SOL    HW137172   0.457   2.257   4.037 -0.3994 -1.1593  2.1230
 8512SOL    HW237173   0.514   2.186   3.919  1.3754  0.2790  0.2867
 8513SOL     OW37174   2.970   2.958  15.228  0.1761 -0.3059  0.4056
 8513SOL    HW137175   2.948   2.906  15.150  1.5819 -0.1301 -0.1306
 8513SOL    HW237176   3.009   2.892  15.286  0.2507 -1.2460 -0.7121
 8514SOL     OW37177   3.942   4.122   6.694 -0.1098 -0.1775  0.4188
 8514SOL    HW137178   3.883   4.062   6.740  1.0956 -0.5473  1.4696
 8514SOL    HW237179   3.883   4.186   6.653 -1.2738 -1.0696  0.6914
 8515SOL     OW37180   2.676   2.938  15.284 -0.5458  0.1713  0.2456
 8515SOL    HW137181   2.654   2.877  15.214 -0.8349  0.9599 -0.3481
 8515SOL    HW237182   2.765   2.962  15.258 -0.8120  0.3706 -0.4746
 8516SOL     OW37183   1.239   3.542   8.078 -0.2808 -0.2910  0.2784
 8516SOL    HW137184   1.324   3.557   8.036  0.4346 -2.4453  0.9621
 8516SOL    HW237185   1.271   3.490   8.152  1.7689  0.5043 -0.0516
 8517SOL     OW37186   3.274   0.899  13.961 -0.2592  0.9936 -0.0402
 8517SOL    HW137187   3.257   0.993  13.962 -0.5764  0.9284  0.7355
 8517SOL    HW237188   3.265   0.887  14.056 -1.7007  6.1004  0.4350
 8518SOL     OW37189   4.249   4.078   3.948 -0.2212  0.6435 -0.1623
 8518SOL    HW137190   4.182   4.109   3.887  0.2623  0.4322 -0.8017
 8518SOL    HW237191   4.319   4.059   3.885  0.3282  2.3951 -0.0735
 8519SOL     OW37192   4.267   4.655   2.765  0.0840 -0.0726 -0.0607
 8519SOL    HW137193   4.259   4.640   2.859  0.3972  1.4234  0.1980
 8519SOL    HW237194   4.215   4.578   2.741  1.0493 -0.7498 -0.0102
 8520SOL     OW37195   0.514   1.252   1.168  0.3632  0.7200 -0.2614
 8520SOL    HW137196   0.487   1.265   1.078 -1.6618  0.7180  0.3465
 8520SOL    HW237197   0.550   1.163   1.164 -1.1896  0.0941 -0.3816
 8521SOL     OW37198   0.419   4.412   1.891  0.0793 -0.0007  0.1056
 8521SOL    HW137199   0.402   4.390   1.800 -1.8985 -1.0697  0.7529
 8521SOL    HW237200   0.510   4.445   1.891  0.5464 -1.2985  2.1405
 8522SOL     OW37201   2.355   0.377   7.146 -0.0059 -0.0326  0.7734
 8522SOL    HW137202   2.411   0.331   7.209  1.1539  1.0548  0.5428
 8522SOL    HW237203   2.322   0.305   7.092  1.4645  1.1079 -1.6626
 8523SOL     OW37204   3.857   1.164  11.078  0.6779  0.6721  0.3449
 8523SOL    HW137205   3.780   1.176  11.135  0.0296 -2.9784  0.2060
 8523SOL    HW237206   3.844   1.226  11.006  5.4767 -1.0080 -1.9573
 8524SOL     OW37207   1.229   4.244   8.343  0.2864 -0.4296  0.1320
 8524SOL    HW137208   1.289   4.265   8.271 -0.1014  1.2080  0.2944
 8524SOL    HW237209   1.285   4.259   8.419 -0.0507 -0.0674  0.3039
 8525SOL     OW37210   3.609   1.896   4.295  0.3710  0.4206  0.4104
 8525SOL    HW137211   3.598   1.802   4.307  0.9989  0.6023  2.2744
 8525SOL    HW237212   3.687   1.898   4.239  0.0789 -2.2526 -0.0936
 8526SOL     OW37213   2.867   2.515   6.666  0.6982  0.1377 -0.0421
 8526SOL    HW137214   2.914   2.557   6.594  1.7468 -0.5505  0.2404
 8526SOL    HW237215   2.932   2.457   6.705  0.4990 -0.7143 -0.9929
 8527SOL     OW37216   3.885   0.102   4.788  0.2303  0.0012  0.2220
 8527SOL    HW137217   3.825   0.131   4.719  2.2184 -0.3332 -1.6303
 8527SOL    HW237218   3.885   0.179   4.845  0.2796 -0.3310  0.6805
 8528SOL     OW37219   1.587   2.867   5.590 -0.2719 -0.0407 -0.5648
 8528SOL    HW137220   1.667   2.842   5.543  0.0641 -0.4983  0.2566
 8528SOL    HW237221   1.528   2.793   5.579  1.1372 -1.3360  0.5048
 8529SOL     OW37222   0.569   1.970   2.183  0.2590 -0.1455  1.1089
 8529SOL    HW137223   0.556   1.883   2.146 -3.1734  1.0987 -0.6817
 8529SOL    HW237224   0.566   1.948   2.276 -1.8045 -0.5024  0.9685
 8530SOL     OW37225   2.251   0.464  15.470 -0.3511 -0.3194  0.1026
 8530SOL    HW137226   2.289   0.391  15.422  0.6815 -1.2908  2.4272
 8530SOL    HW237227   2.315   0.473  15.540 -0.6438  0.1384  0.3104
 8531SOL     OW37228   2.778   0.424   3.482 -0.4006 -0.1191  0.0782
 8531SOL    HW137229   2.702   0.400   3.428  2.1252 -1.6080 -2.7866
 8531SOL    HW237230   2.837   0.351   3.461  0.4201 -0.0103  2.0863
 8532SOL     OW37231   2.199   1.668   5.521  0.7640  0.1800 -0.0329
 8532SOL    HW137232   2.213   1.628   5.435 -0.1718 -0.7938  0.2629
 8532SOL    HW237233   2.104   1.661   5.532  0.9632 -3.2993 -0.4886
 8533SOL     OW37234   4.554   4.030   6.402  0.4727  0.2092 -0.1190
 8533SOL    HW137235   4.495   4.057   6.472  1.2533 -1.3253  1.1270
 8533SOL    HW237236   4.635   4.077   6.421 -0.1450  1.2764 -0.1323
 8534SOL     OW37237   2.034   3.327  12.474 -0.3679  0.0422 -0.0064
 8534SOL    HW137238   2.019   3.257  12.410  0.0352  1.1091 -1.2392
 8534SOL    HW237239   2.100   3.387  12.442  0.2406 -0.7117 -0.1658
 8535SOL     OW37240   2.735   0.135  12.801 -0.9490  0.4819 -0.1340
 8535SOL    HW137241   2.734   0.050  12.845 -1.0093 -0.2436 -1.5097
 8535SOL    HW237242   2.747   0.193  12.876  2.1787 -0.6619  0.2494
 8536SOL     OW37243   0.607   4.212  15.144 -0.0842  0.4586 -0.1233
 8536SOL    HW137244   0.616   4.305  15.124  1.5286  0.0899 -1.1047
 8536SOL    HW237245   0.618   4.202  15.238  0.9350  0.3968 -0.2474
 8537SOL     OW37246   2.205   1.498   5.032  0.2983 -0.6179 -0.0785
 8537SOL    HW137247   2.111   1.494   5.011  0.0586  1.6031  0.5934
 8537SOL    HW237248   2.215   1.431   5.100 -1.2748 -1.6607 -0.8607
 8538SOL     OW37249   1.491   3.062   2.738 -0.3878 -0.3232  0.2755
 8538SOL    HW137250   1.520   3.105   2.818 -1.1676  0.5052  0.1111
 8538SOL    HW237251   1.400   3.044   2.761 -1.2394  0.3357 -2.5887
 8539SOL     OW37252   1.872   4.020   1.463 -0.3983 -0.3438  0.4062
 8539SOL    HW137253   1.907   3.934   1.443 -3.2872 -1.2379 -0.7614
 8539SOL    HW237254   1.792   3.991   1.506 -0.1193 -1.0633  0.4249
 8540SOL     OW37255   4.236   1.805  12.384  0.2916  0.5442 -0.4036
 8540SOL    HW137256   4.308   1.778  12.326  0.7086  1.4105 -0.2948
 8540SOL    HW237257   4.289   1.830  12.460 -0.3988  0.4083  0.1190
 8541SOL     OW37258   0.323   2.034   5.992 -0.6159 -0.4214  0.1689
 8541SOL    HW137259   0.262   2.089   5.943  0.1049 -1.8310 -2.3470
 8541SOL    HW237260   0.335   1.957   5.936  2.0336  0.1106 -0.0003
 8542SOL     OW37261   3.045   0.614   8.744 -0.0391  0.1585 -0.6064
 8542SOL    HW137262   2.950   0.616   8.752  0.1805 -2.1039  2.2659
 8542SOL    HW237263   3.055   0.645   8.654 -1.3484  2.0648 -0.1247
 8543SOL     OW37264   1.097   2.790   7.871 -0.2108 -0.0160  0.0465
 8543SOL    HW137265   1.026   2.787   7.935  0.3065 -0.3461  0.6119
 8543SOL    HW237266   1.104   2.695   7.861 -1.2621  0.1111 -1.9150
 8544SOL     OW37267   0.966   1.047  16.921 -0.5241  0.1989 -0.3618
 8544SOL    HW137268   1.043   0.991  16.927 -0.3938  0.4275  0.1120
 8544SOL    HW237269   0.913   1.006  16.853  0.8573  0.2666 -1.4848
 8545SOL     OW37270   1.723   1.537   4.468 -0.4324  0.8940  0.2086
 8545SOL    HW137271   1.671   1.570   4.394 -0.0697  0.9056 -0.0391
 8545SOL    HW237272   1.800   1.509   4.419 -0.3942  1.5588 -0.1147
 8546SOL     OW37273   0.341   1.424  17.520  0.3305 -0.5251 -0.1040
 8546SOL    HW137274   0.286   1.502  17.523  0.8745 -0.0424 -2.3195
 8546SOL    HW237275   0.281   1.364  17.564 -1.7966  1.5751 -0.0950
 8547SOL     OW37276   2.426   4.116  14.841  0.0907  0.4130 -0.4509
 8547SOL    HW137277   2.470   4.090  14.760 -0.7386 -0.9801 -0.4609
 8547SOL    HW237278   2.477   4.065  14.903  0.5128  1.1309 -0.2130
 8548SOL     OW37279   2.723   3.127   6.127  0.4968 -0.5866 -0.0670
 8548SOL    HW137280   2.649   3.147   6.070  0.1567 -0.9218  0.2571
 8548SOL    HW237281   2.794   3.159   6.071 -0.2826 -0.8475 -1.1931
 8549SOL     OW37282   3.066   1.472   4.087 -0.2735 -0.2707  0.2644
 8549SOL    HW137283   3.112   1.531   4.146  0.0228  0.5239 -0.7535
 8549SOL    HW237284   3.141   1.417   4.067 -0.2831 -0.3436  0.4284
 8550SOL     OW37285   4.083   2.452   9.653 -0.6130  0.4760 -0.6383
 8550SOL    HW137286   4.178   2.438   9.658 -0.7311 -0.4411 -0.9346
 8550SOL    HW237287   4.065   2.364   9.620  1.2826 -1.1055  2.5855
 8551SOL     OW37288   3.511   4.163   1.858 -0.2285  0.0853  0.5011
 8551SOL    HW137289   3.594   4.116   1.857 -1.4716 -2.0312 -1.4480
 8551SOL    HW237290   3.508   4.220   1.781  0.4025 -0.0780  0.3585
 8552SOL     OW37291   1.071   0.859   8.476  0.4533 -0.4695 -0.2407
 8552SOL    HW137292   1.041   0.853   8.385 -0.8578  2.5267  0.0034
 8552SOL    HW237293   1.099   0.949   8.464  0.3568 -0.2914  0.8662
 8553SOL     OW37294   3.833   4.466   3.720 -0.2802 -0.1925  0.1467
 8553SOL    HW137295   3.889   4.543   3.727  1.4888 -1.2113 -2.8662
 8553SOL    HW237296   3.752   4.505   3.686  0.8059 -1.3508 -3.8040
 8554SOL     OW37297   3.947   3.986   8.748  0.2860  0.1697 -0.5303
 8554SOL    HW137298   3.917   4.048   8.815  1.4904  0.2497 -0.0750
 8554SOL    HW237299   3.947   3.917   8.815 -4.9643 -0.5082 -1.2399
 8555SOL     OW37300   3.044   3.771   4.844  0.2855  0.4817 -0.0599
 8555SOL    HW137301   2.963   3.746   4.889  0.1661  0.5464 -0.2406
 8555SOL    HW237302   3.067   3.685   4.809 -2.4310 -0.5459  0.6609
 8556SOL     OW37303   2.268   0.948   3.078  0.3474  0.2909 -0.1864
 8556SOL    HW137304   2.238   0.974   2.991 -0.7117 -0.6574 -0.1028
 8556SOL    HW237305   2.186   0.916   3.115  1.4781 -1.1934  1.0212
 8557SOL     OW37306   0.312   2.240  15.619 -0.0107 -0.4862 -0.2580
 8557SOL    HW137307   0.404   2.234  15.644 -0.3859  1.7984  1.6560
 8557SOL    HW237308   0.306   2.335  15.621 -0.5402 -0.5034 -1.2474
 8558SOL     OW37309   2.685   3.838   6.836  0.1573  0.2948  0.2623
 8558SOL    HW137310   2.764   3.785   6.844  0.0139 -0.0281 -0.4579
 8558SOL    HW237311   2.686   3.871   6.926  0.0631 -1.2451  0.8187
 8559SOL     OW37312   4.636   3.862   3.543  0.2682 -0.7134 -0.3649
 8559SOL    HW137313   4.685   3.819   3.474 -1.7560 -2.3169 -0.7897
 8559SOL    HW237314   4.669   3.952   3.538  0.7389 -0.9583 -1.4610
 8560SOL     OW37315   1.529   1.682   4.895  0.1600  0.3140  0.2714
 8560SOL    HW137316   1.439   1.649   4.887  0.2260  0.4881 -1.1991
 8560SOL    HW237317   1.537   1.713   4.805  1.8110 -0.0470  0.3084
 8561SOL     OW37318   3.006   3.810  16.375  0.6516  0.6075 -0.2003
 8561SOL    HW137319   3.076   3.873  16.389  1.2492 -0.0366 -0.2608
 8561SOL    HW237320   3.058   3.730  16.387  2.7192  1.8157 -1.1963
 8562SOL     OW37321   0.987   0.490   6.513  0.7302  0.0092  0.1621
 8562SOL    HW137322   1.070   0.475   6.468  1.6192  1.5022  1.3276
 8562SOL    HW237323   1.005   0.583   6.529 -0.1094  0.2349 -0.1847
 8563SOL     OW37324   2.593   2.073   5.942 -0.4270 -0.1233 -0.3533
 8563SOL    HW137325   2.647   2.105   6.015 -0.5888 -0.8064  0.0702
 8563SOL    HW237326   2.651   2.077   5.867  0.4399 -1.0981  0.2616
 8564SOL     OW37327   0.763   1.705   8.610 -0.1767 -0.3994  1.0569
 8564SOL    HW137328   0.721   1.669   8.688  0.6741 -1.6028  0.9596
 8564SOL    HW237329   0.835   1.642   8.602  0.2640  0.0852  1.1849
 8565SOL     OW37330   2.088   2.094   0.622  0.6114  0.1095  0.1923
 8565SOL    HW137331   2.103   2.006   0.658 -0.1940 -0.2225 -0.2714
 8565SOL    HW237332   2.176   2.130   0.623  0.5646  0.1795  1.7177
 8566SOL     OW37333   1.465   2.207   1.144  0.1369 -0.3816 -0.6618
 8566SOL    HW137334   1.525   2.281   1.138 -0.3720  0.3139  2.7749
 8566SOL    HW237335   1.437   2.205   1.052 -2.6050  1.9902  0.1257
 8567SOL     OW37336   1.627   0.509  14.496 -0.0294 -0.0502 -0.0038
 8567SOL    HW137337   1.532   0.500  14.496 -0.0078 -0.2738  0.3796
 8567SOL    HW237338   1.639   0.571  14.424 -0.4463  3.2020  2.7465
 8568SOL     OW37339   1.001   3.552   4.760  0.3395 -0.7607 -0.1659
 8568SOL    HW137340   1.037   3.480   4.812  2.7101  0.4631 -0.1387
 8568SOL    HW237341   1.074   3.560   4.698  1.0175 -0.0602  0.7387
 8569SOL     OW37342   0.040   2.450  10.147 -0.0432  0.2584  0.4242
 8569SOL    HW137343   0.064   2.390  10.218  0.3202  1.7324  1.5438
 8569SOL    HW237344   0.128   2.462  10.110 -0.5635 -1.6830 -1.4607
 8570SOL     OW37345   0.623   1.313   9.658  0.1103 -0.1694  0.2588
 8570SOL    HW137346   0.631   1.219   9.639 -1.3094 -0.9238  3.2322
 8570SOL    HW237347   0.624   1.346   9.569  2.7075  1.3707  0.8819
 8571SOL     OW37348   2.182   4.346   5.615  0.0589  0.5292 -0.0461
 8571SOL    HW137349   2.220   4.310   5.535  1.0070 -1.3362  1.2507
 8571SOL    HW237350   2.092   4.314   5.621 -0.0948  1.4126  2.3606
 8572SOL     OW37351   1.133   4.500  13.635  0.0191  0.2681 -0.2523
 8572SOL    HW137352   1.111   4.496  13.728 -0.4742  1.0404 -0.3316
 8572SOL    HW237353   1.072   4.434  13.603 -1.8363  1.1614  1.3807
 8573SOL     OW37354   4.605   0.365   1.459 -0.3999 -0.0819 -0.1141
 8573SOL    HW137355   4.639   0.375   1.548 -0.1724  1.9376 -0.4440
 8573SOL    HW237356   4.536   0.302   1.480 -1.4082  0.7067 -1.0598
 8574SOL     OW37357   1.512   1.110   5.232  0.0211 -0.0519  0.5783
 8574SOL    HW137358   1.473   1.025   5.255 -0.2689  0.2956  1.3910
 8574SOL    HW237359   1.600   1.085   5.261  0.9466  1.2006 -1.1780
 8575SOL     OW37360   1.323   1.378  17.423 -0.9405  0.5539  0.1959
 8575SOL    HW137361   1.263   1.429  17.368  0.6405  0.1365 -1.9263
 8575SOL    HW237362   1.254   1.331  17.470 -1.4009  1.6605  0.6302
 8576SOL     OW37363   3.351   3.309   7.950 -0.2841 -0.3960 -0.5025
 8576SOL    HW137364   3.288   3.361   7.999 -0.1776 -1.4174  0.7012
 8576SOL    HW237365   3.425   3.366   7.930 -0.7818 -0.0992 -1.5153
 8577SOL     OW37366   0.800   4.473   7.743 -0.3775  0.4275 -0.0447
 8577SOL    HW137367   0.803   4.565   7.717  1.9399  0.5880  0.8098
 8577SOL    HW237368   0.801   4.480   7.838 -0.8190  3.1593 -0.2381
 8578SOL     OW37369   2.178   1.840  12.931  0.4861 -0.0729  0.1366
 8578SOL    HW137370   2.087   1.812  12.926  0.9018 -0.9376 -2.6002
 8578SOL    HW237371   2.221   1.770  12.882  2.8069  1.8890 -0.6813
 8579SOL     OW37372   2.109   3.947   7.892 -0.0046  0.0894 -0.0912
 8579SOL    HW137373   2.068   3.872   7.937  0.1065  0.6868  1.0102
 8579SOL    HW237374   2.169   3.970   7.963 -0.2140 -0.4397  0.2638
 8580SOL     OW37375   3.554   2.906   4.990  0.0279  0.0643 -0.0233
 8580SOL    HW137376   3.611   2.858   5.050  0.9296  0.0117 -0.9169
 8580SOL    HW237377   3.603   2.988   4.991  1.8907 -1.0385 -0.9114
 8581SOL     OW37378   2.064   1.319   3.309  0.1966  0.4895 -0.1996
 8581SOL    HW137379   2.081   1.281   3.395  1.1591 -0.4035 -0.7756
 8581SOL    HW237380   2.121   1.395   3.298  2.1535 -0.8348  0.8232
 8582SOL     OW37381   2.909   4.546  10.581  0.2887 -0.2856  0.4461
 8582SOL    HW137382   2.980   4.482  10.583 -0.0425 -0.6093  2.0480
 8582SOL    HW237383   2.828   4.497  10.567 -0.8899  1.7013  0.2675
 8583SOL     OW37384   2.421   4.537   6.299 -0.0799  0.3691 -0.4204
 8583SOL    HW137385   2.432   4.632   6.301  0.5880  0.2637  1.1893
 8583SOL    HW237386   2.509   4.500   6.299 -0.4499 -0.5031 -2.1021
 8584SOL     OW37387   4.694   0.123   2.502 -0.0417  0.4318 -0.2173
 8584SOL    HW137388   0.048   0.107   2.505 -0.1299 -0.1893 -0.6097
 8584SOL    HW237389   4.652   0.057   2.557  1.0731 -1.1150 -1.2350
 8585SOL     OW37390   0.931   2.549   8.288 -0.3968  0.1977  0.6745
 8585SOL    HW137391   0.970   2.566   8.374  1.3543  0.8091 -0.2281
 8585SOL    HW237392   1.011   2.541   8.237 -1.0165 -1.0847 -0.1000
 8586SOL     OW37393   0.540   4.141   2.156 -0.3400 -0.6629 -0.5403
 8586SOL    HW137394   0.501   4.053   2.160 -0.3197 -0.7269 -1.6987
 8586SOL    HW237395   0.568   4.142   2.065 -1.6531 -0.3595 -0.9487
 8587SOL     OW37396   3.387   0.226   8.251 -0.5536  0.3505  0.5216
 8587SOL    HW137397   3.445   0.230   8.176  1.0518 -1.4783  1.6598
 8587SOL    HW237398   3.445   0.257   8.321  1.8350 -1.4061 -0.6797
 8588SOL     OW37399   2.592   3.319   0.659  0.2180  0.0465 -0.0072
 8588SOL    HW137400   2.583   3.248   0.724  4.2491  0.3389  0.8509
 8588SOL    HW237401   2.658   3.365   0.710 -0.5655 -1.7670  2.6717
 8589SOL     OW37402   2.731   0.824   7.409 -0.4875  0.0802  0.0390
 8589SOL    HW137403   2.710   0.745   7.360 -2.4261  1.1808 -0.8837
 8589SOL    HW237404   2.650   0.845   7.455  0.5323  0.0681  1.8603
 8590SOL     OW37405   2.108   1.723  13.612 -0.1505  0.0486  0.3964
 8590SOL    HW137406   2.120   1.706  13.518 -1.0496 -2.5235  0.7706
 8590SOL    HW237407   2.173   1.793  13.624  1.9302 -1.3822 -2.4163
 8591SOL     OW37408   2.039   2.571   5.353 -0.1652  0.1298  0.6332
 8591SOL    HW137409   2.049   2.478   5.329 -1.3515 -0.2757  1.6970
 8591SOL    HW237410   2.020   2.568   5.447 -0.2226 -1.1453  0.5916
 8592SOL     OW37411   4.557   2.642   3.610  0.3366 -0.3908 -0.3157
 8592SOL    HW137412   4.559   2.558   3.563 -0.2672 -1.4810  1.5751
 8592SOL    HW237413   4.517   2.611   3.691 -1.9462  0.4052 -1.1570
 8593SOL     OW37414   4.428   0.145  11.300  0.1053 -0.5464  0.0708
 8593SOL    HW137415   4.357   0.199  11.264  1.1507  1.1629  0.5546
 8593SOL    HW237416   4.494   0.148  11.230  2.1317  1.4375  2.0511
 8594SOL     OW37417   3.329   4.400  11.344  0.2491  0.0254  0.3012
 8594SOL    HW137418   3.280   4.431  11.268  0.8468  0.0843 -0.0603
 8594SOL    HW237419   3.398   4.349  11.301  0.2073  2.8440 -3.0967
 8595SOL     OW37420   0.478   4.209   1.634 -0.1642  0.2726 -0.2224
 8595SOL    HW137421   0.414   4.173   1.573  0.4892 -0.8871 -0.2333
 8595SOL    HW237422   0.491   4.296   1.597 -0.9350  0.1415 -0.8027
 8596SOL     OW37423   2.207   0.638   9.630 -0.6207 -0.0814  0.4706
 8596SOL    HW137424   2.241   0.569   9.573 -0.5512  0.9475 -0.7343
 8596SOL    HW237425   2.190   0.708   9.566  0.6610 -0.2156 -0.0254
 8597SOL     OW37426   4.167   1.718  10.646  0.1793 -0.2335  0.9967
 8597SOL    HW137427   4.249   1.763  10.667  0.7878  0.1656 -2.1422
 8597SOL    HW237428   4.200   1.635  10.681  0.8874 -0.6096 -0.5650
 8598SOL     OW37429   4.155   2.663  16.479  0.2039 -0.3479  0.1308
 8598SOL    HW137430   4.154   2.640  16.572 -0.6776 -2.1737 -0.3436
 8598SOL    HW237431   4.249   2.667  16.461  0.1301 -0.2323 -0.2319
 8599SOL     OW37432   1.591   2.432   6.253  0.3056 -0.0272 -0.3411
 8599SOL    HW137433   1.638   2.349   6.250 -0.4294 -0.5633  2.2234
 8599SOL    HW237434   1.631   2.480   6.181 -0.3126  1.8946  0.5878
 8600SOL     OW37435   0.202   0.969   3.827 -0.0177  0.2371 -0.1879
 8600SOL    HW137436   0.256   1.047   3.838  0.0794  0.1014  0.3201
 8600SOL    HW237437   0.121   1.011   3.799  0.4439 -0.2073 -2.2205
 8601SOL     OW37438   2.812   4.416  15.327 -0.0739  0.1322  0.1143
 8601SOL    HW137439   2.827   4.326  15.298  0.8408 -0.4139  2.3360
 8601SOL    HW237440   2.718   4.423  15.338 -0.3979 -0.2537 -2.2804
 8602SOL     OW37441   4.221   3.509   7.383  0.6530 -0.1671  0.6746
 8602SOL    HW137442   4.206   3.424   7.340 -0.9080  0.2656  0.3616
 8602SOL    HW237443   4.274   3.549   7.314 -0.3360  0.9801  0.5687
 8603SOL     OW37444   0.718   2.413   7.978 -0.0504  0.3234  0.2513
 8603SOL    HW137445   0.681   2.483   8.033  0.4407  1.1445 -0.4669
 8603SOL    HW237446   0.656   2.401   7.906 -0.4944 -1.5000  0.9468
 8604SOL     OW37447   0.096   2.394   9.051  0.1295 -0.3234  0.5380
 8604SOL    HW137448   0.040   2.454   9.100 -2.8150 -3.4408  0.9517
 8604SOL    HW237449   0.105   2.318   9.109 -1.3073 -1.1250 -0.2789
 8605SOL     OW37450   0.052   3.271   1.154  0.0937 -0.1559  0.4687
 8605SOL    HW137451   0.124   3.332   1.138 -0.1077  0.4692  1.9428
 8605SOL    HW237452   0.102   3.191   1.144 -1.0470 -1.0021  1.5488
 8606SOL     OW37453   4.727   2.143   8.299 -0.4872 -0.2138  0.2500
 8606SOL    HW137454   0.057   2.111   8.243 -0.7555  0.5999 -0.5507
 8606SOL    HW237455   0.001   2.099   8.383 -0.0444  1.2693  0.9524
 8607SOL     OW37456   1.662   4.522   8.702  0.3237  0.5272  0.1350
 8607SOL    HW137457   1.573   4.556   8.688 -1.1388 -3.0142  0.7499
 8607SOL    HW237458   1.714   4.600   8.683 -0.6029  0.8742 -0.9998
 8608SOL     OW37459   2.701   3.212   2.415  0.2247 -0.3817 -0.0483
 8608SOL    HW137460   2.698   3.218   2.320  1.3532  2.1361  0.0880
 8608SOL    HW237461   2.607   3.226   2.426  0.4334  2.1011 -1.6194
 8609SOL     OW37462   1.531   3.023   4.278  0.0807  0.4087  0.3116
 8609SOL    HW137463   1.504   3.079   4.350 -3.4567 -2.4162  1.2105
 8609SOL    HW237464   1.624   3.003   4.292  0.0780 -2.0047 -2.9291
 8610SOL     OW37465   1.043   4.159   3.076 -0.8196 -0.6023 -0.6195
 8610SOL    HW137466   0.948   4.156   3.072 -0.8859 -0.9078  1.1047
 8610SOL    HW237467   1.051   4.244   3.119 -0.0916 -0.9393 -0.0775
 8611SOL     OW37468   1.535   2.723  14.196 -0.0040  0.3482  0.1102
 8611SOL    HW137469   1.597   2.691  14.262 -1.5093 -2.5872  0.1007
 8611SOL    HW237470   1.468   2.662  14.229 -1.9326  0.5451 -3.5287
 8612SOL     OW37471   3.350   2.526   7.657  0.1613 -0.0656 -0.1599
 8612SOL    HW137472   3.395   2.533   7.741  0.5090  0.1157 -0.3636
 8612SOL    HW237473   3.390   2.588   7.596  3.1721 -1.5717  0.2479
 8613SOL     OW37474   4.677   0.977   8.768  0.2955  0.4370  0.6810
 8613SOL    HW137475   4.627   0.921   8.827  0.3412  1.2749  1.5081
 8613SOL    HW237476   4.719   0.916   8.707 -0.6074 -0.8084  1.2972
 8614SOL     OW37477   1.348   2.247  12.521 -0.1380 -0.3976  0.0406
 8614SOL    HW137478   1.283   2.312  12.494  1.3646  1.9379  2.1555
 8614SOL    HW237479   1.374   2.279  12.607  3.2047  3.1269 -2.3106
 8615SOL     OW37480   3.101   4.300   2.548  0.0266  0.6459 -0.1620
 8615SOL    HW137481   3.010   4.311   2.523  0.4044  0.7875 -1.4536
 8615SOL    HW237482   3.138   4.374   2.499  0.9985 -0.2837 -0.8354
 8616SOL     OW37483   2.526   1.912  13.270 -0.3861  0.4553  0.9342
 8616SOL    HW137484   2.457   1.957  13.318 -0.0988  3.3484 -1.4226
 8616SOL    HW237485   2.491   1.922  13.182 -1.3079 -0.8791  1.1470
 8617SOL     OW37486   3.602   4.426   2.691 -0.4362 -0.4325 -0.1387
 8617SOL    HW137487   3.523   4.464   2.728 -0.2174 -0.5939  0.4996
 8617SOL    HW237488   3.639   4.410   2.778 -2.2728 -0.2032  0.6835
 8618SOL     OW37489   0.152   4.020  16.079 -0.0726  0.1697  0.2685
 8618SOL    HW137490   0.059   4.039  16.095 -0.4037  0.1186 -1.5799
 8618SOL    HW237491   0.156   3.988  15.989  0.1161 -0.1494  0.3904
 8619SOL     OW37492   0.593   1.392  16.035 -0.0253 -0.1589  0.1764
 8619SOL    HW137493   0.568   1.364  16.122  0.3870 -1.5550 -0.1520
 8619SOL    HW237494   0.687   1.375  16.031  0.2005  1.3132 -0.8977
 8620SOL     OW37495   4.660   3.888   2.946  0.0615 -0.1679  0.8314
 8620SOL    HW137496   4.566   3.888   2.932  0.2044  2.6407 -0.2304
 8620SOL    HW237497   4.656   3.901   3.041 -2.1064 -0.8359  0.8289
 8621SOL     OW37498   3.482   0.677  13.172 -0.1239 -0.6869  0.6236
 8621SOL    HW137499   3.573   0.674  13.201 -0.2242 -1.5359  0.8543
 8621SOL    HW237500   3.447   0.744  13.231 -0.4278 -3.1535  3.3121
 8622SOL     OW37501   2.039   4.634   1.666 -0.3800  0.1295  0.0773
 8622SOL    HW137502   2.083   4.628   1.751  3.4263  0.5418 -1.9106
 8622SOL    HW237503   1.947   4.617   1.690 -0.1280 -0.6457  0.4880
 8623SOL     OW37504   0.276   3.668   6.596  0.1679 -0.1857  0.0094
 8623SOL    HW137505   0.327   3.630   6.667  0.7924  3.0579  1.3110
 8623SOL    HW237506   0.337   3.678   6.523 -0.0651 -2.3132 -0.4806
 8624SOL     OW37507   1.304   3.667   4.928 -0.6639  0.2592 -0.0701
 8624SOL    HW137508   1.236   3.622   4.979  0.8369  0.3972  2.0616
 8624SOL    HW237509   1.382   3.618   4.953  0.9569  2.5954 -0.5929
 8625SOL     OW37510   4.520   4.131   1.375  0.1785 -0.0845 -0.9020
 8625SOL    HW137511   4.473   4.212   1.395  0.6077 -0.3013  0.9621
 8625SOL    HW237512   4.488   4.109   1.287  1.4665 -1.7212 -0.9515
 8626SOL     OW37513   1.623   0.296   9.375 -0.1477 -0.6492  0.2175
 8626SOL    HW137514   1.557   0.245   9.422 -1.2354 -1.5749 -2.3626
 8626SOL    HW237515   1.584   0.383   9.383 -0.2181 -0.4821 -2.1250
 8627SOL     OW37516   2.190   3.661  17.322 -0.3393  0.9333 -0.3341
 8627SOL    HW137517   2.140   3.672  17.404 -1.0292 -0.8282 -0.5066
 8627SOL    HW237518   2.177   3.750  17.289 -4.2939  0.7816  0.7421
 8628SOL     OW37519   1.874   4.003   7.047  0.4538  0.7427 -0.1300
 8628SOL    HW137520   1.876   4.027   7.140  1.6649  0.5132 -0.0885
 8628SOL    HW237521   1.872   3.910   7.069 -1.4608  1.0691  1.0804
 8629SOL     OW37522   3.642   1.868   5.280 -0.3553 -0.5564  0.2884
 8629SOL    HW137523   3.583   1.875   5.355  1.3279  3.1834  1.2741
 8629SOL    HW237524   3.644   1.958   5.248 -1.2507 -0.3454  0.8363
 8630SOL     OW37525   2.407   0.383  16.452  0.2115 -0.2705  0.7119
 8630SOL    HW137526   2.471   0.314  16.473  1.4562  0.7155  0.2013
 8630SOL    HW237527   2.339   0.319  16.434  0.2246  0.3422 -1.4840
 8631SOL     OW37528   1.867   2.404  17.753  0.1182  0.6809  0.0267
 8631SOL    HW137529   1.961   2.396  17.738  0.1808  0.4967  0.5123
 8631SOL    HW237530   1.851   2.323   0.043  0.2940 -0.0874 -1.2205
 8632SOL     OW37531   2.810   0.546   2.788 -0.0971 -0.3317 -0.2794
 8632SOL    HW137532   2.798   0.639   2.805  2.4114  0.2508 -1.6355
 8632SOL    HW237533   2.803   0.549   2.693 -0.2995  1.4660 -0.2021
 8633SOL     OW37534   1.085   1.381   7.113 -0.2737  0.4549  0.0299
 8633SOL    HW137535   1.084   1.334   7.030 -0.7547 -0.5094  0.5814
 8633SOL    HW237536   1.139   1.318   7.160  0.5609  2.0735  1.2384
 8634SOL     OW37537   2.070   1.854  16.119 -0.3718 -0.3453  0.0341
 8634SOL    HW137538   2.001   1.869  16.183  0.2044  1.1033  0.3316
 8634SOL    HW237539   2.124   1.921  16.161 -0.2636  0.3780 -1.2555
 8635SOL     OW37540   1.560   2.044   4.981 -0.6456 -0.4550 -0.1716
 8635SOL    HW137541   1.478   2.023   4.936 -0.3689 -1.4758 -0.2135
 8635SOL    HW237542   1.600   2.105   4.920  1.2638  0.8364  2.3928
 8636SOL     OW37543   0.655   1.003   1.754  0.6952 -1.0871 -0.2848
 8636SOL    HW137544   0.700   1.083   1.726 -0.4100 -0.4249 -0.1805
 8636SOL    HW237545   0.698   0.931   1.709  0.4125 -1.5981  0.2574
 8637SOL     OW37546   3.912   2.262   3.965 -0.0452 -0.4897  0.7479
 8637SOL    HW137547   3.843   2.279   3.902  1.8098 -0.3155 -1.2490
 8637SOL    HW237548   3.867   2.245   4.047 -2.1519 -0.2359 -0.3697
 8638SOL     OW37549   3.226   0.644   6.928 -0.2865  0.1678  0.5316
 8638SOL    HW137550   3.288   0.658   6.856  0.5742 -0.5546  1.1340
 8638SOL    HW237551   3.282   0.651   7.005 -0.0904  1.5368  0.2551
 8639SOL     OW37552   1.229   3.122   9.223 -0.3371 -0.0175 -0.3261
 8639SOL    HW137553   1.215   3.072   9.303 -1.1071 -3.6140 -2.7125
 8639SOL    HW237554   1.322   3.146   9.227 -0.5079  0.0144  3.4055
 8640SOL     OW37555   0.838   4.297   2.709 -0.2497 -0.0278 -0.4903
 8640SOL    HW137556   0.929   4.296   2.680 -1.0331 -0.0578 -2.9763
 8640SOL    HW237557   0.791   4.303   2.625 -0.8856 -0.3274 -0.1544
 8641SOL     OW37558   3.760   1.574   3.936 -0.6303  0.5575  0.0544
 8641SOL    HW137559   3.707   1.495   3.947 -0.6343  0.6476  0.7138
 8641SOL    HW237560   3.785   1.570   3.844 -0.3854 -1.7839  0.2354
 8642SOL     OW37561   2.744   0.203   7.827 -1.5916  0.4540  0.0249
 8642SOL    HW137562   2.799   0.239   7.896 -1.8314  1.3408 -0.2461
 8642SOL    HW237563   2.774   0.250   7.749 -0.9588  0.7859  0.4738
 8643SOL     OW37564   2.576   1.881   2.730 -0.4218  0.4670 -0.8836
 8643SOL    HW137565   2.528   1.891   2.648 -0.7867  2.1282 -0.4814
 8643SOL    HW237566   2.617   1.797   2.711  0.1856  0.4842  0.2893
 8644SOL     OW37567   2.871   3.083  17.158  0.2994  0.1139  0.3126
 8644SOL    HW137568   2.938   3.123  17.103 -0.0682  1.2073  0.6758
 8644SOL    HW237569   2.809   3.064  17.087  2.2420 -0.5346 -1.2072
 8645SOL     OW37570   1.197   2.640  16.792  0.0209 -0.1073 -0.0543
 8645SOL    HW137571   1.145   2.595  16.725 -0.7792 -0.5842  0.8745
 8645SOL    HW237572   1.247   2.562  16.815  0.4712 -0.4156 -2.0310
 8646SOL     OW37573   4.258   2.681   1.405 -0.0083  0.3790  0.4192
 8646SOL    HW137574   4.171   2.677   1.445 -1.0323 -2.1236 -2.0721
 8646SOL    HW237575   4.303   2.609   1.449  1.3555  1.7332  1.2240
 8647SOL     OW37576   4.702   0.251   7.901  0.0137 -0.0650 -0.1431
 8647SOL    HW137577   4.631   0.211   7.951 -0.6858  1.5377  0.1544
 8647SOL    HW237578   4.668   0.235   7.813  0.0545 -1.6753  0.1432
 8648SOL     OW37579   4.381   4.209   2.285  0.3864  0.3636  0.6140
 8648SOL    HW137580   4.298   4.255   2.298  0.3523  0.6473 -0.6273
 8648SOL    HW237581   4.367   4.146   2.356  1.6295  0.6762  1.1426
 8649SOL     OW37582   0.557   4.102   3.912 -0.3281  0.3201 -0.3374
 8649SOL    HW137583   0.649   4.081   3.931 -0.6755 -1.2268 -0.3760
 8649SOL    HW237584   0.520   4.057   3.988 -0.9332 -0.0360 -0.8471
 8650SOL     OW37585   3.005   3.134  16.515 -0.2376  0.4660  0.2764
 8650SOL    HW137586   2.931   3.192  16.532  0.3214  1.4796 -0.8311
 8650SOL    HW237587   3.077   3.168  16.568 -1.7030  1.1167  1.8474
 8651SOL     OW37588   2.809   0.161   2.938  0.1866  0.1695  0.2109
 8651SOL    HW137589   2.876   0.138   2.873 -0.1907 -0.1576 -0.0604
 8651SOL    HW237590   2.858   0.216   2.999  0.6096 -0.1679  0.1790
 8652SOL     OW37591   1.572   1.185  16.741 -0.1343  0.3440 -0.3386
 8652SOL    HW137592   1.537   1.154  16.657 -0.8653 -2.1502  0.8626
 8652SOL    HW237593   1.629   1.110  16.760  1.6329  1.4504 -1.1882
 8653SOL     OW37594   0.759   4.220  10.020  0.7435 -0.1034 -0.1792
 8653SOL    HW137595   0.758   4.314  10.037 -0.0485 -0.1081 -0.1957
 8653SOL    HW237596   0.740   4.215   9.926 -0.2222 -0.6001  0.0423
 8654SOL     OW37597   3.484   3.195  10.244 -0.3300 -0.2815 -0.0113
 8654SOL    HW137598   3.471   3.277  10.291 -1.6947 -0.6365  0.2436
 8654SOL    HW237599   3.527   3.148  10.316  2.1292  0.6249 -0.9035
 8655SOL     OW37600   3.532   0.768   8.723  0.7975 -0.0925  0.0499
 8655SOL    HW137601   3.540   0.769   8.819 -0.8384 -1.2100  0.2029
 8655SOL    HW237602   3.620   0.755   8.689  0.5465  0.0113 -0.6329
 8656SOL     OW37603   4.300   2.093  14.512  0.5996  0.2430  0.2718
 8656SOL    HW137604   4.375   2.078  14.569  0.2930 -1.5408  0.2150
 8656SOL    HW237605   4.323   2.164  14.452  0.6678  1.1973  1.4350
 8657SOL     OW37606   1.949   4.075   4.175  0.5388 -0.1404  0.5182
 8657SOL    HW137607   1.938   4.030   4.091 -1.8844  1.2320  0.1171
 8657SOL    HW237608   1.867   4.062   4.223  0.0487  0.7543 -0.0683
 8658SOL     OW37609   0.517   2.514   6.598  0.0823  0.9496 -0.1975
 8658SOL    HW137610   0.439   2.508   6.653 -1.8892  2.8672 -2.7989
 8658SOL    HW237611   0.489   2.552   6.514 -1.0570 -1.7845 -1.0698
 8659SOL     OW37612   0.930   2.840   2.739 -0.2370  0.2521  0.3783
 8659SOL    HW137613   0.921   2.763   2.683  1.4679 -0.8376  1.6179
 8659SOL    HW237614   1.023   2.861   2.730 -0.3427 -0.2024 -1.8907
 8660SOL     OW37615   4.315   0.752   5.638  0.6865 -0.2332  0.1523
 8660SOL    HW137616   4.332   0.824   5.577  0.5118 -0.1394  0.2153
 8660SOL    HW237617   4.338   0.795   5.720 -1.1586  0.9789  0.0412
 8661SOL     OW37618   2.585   1.718  11.394 -0.2853  0.0122 -0.6996
 8661SOL    HW137619   2.559   1.793  11.341 -0.2010 -0.0573 -0.8404
 8661SOL    HW237620   2.509   1.705  11.451  1.9794  1.2568  2.5941
 8662SOL     OW37621   3.685   1.521  17.598  0.7648 -0.0857 -0.2871
 8662SOL    HW137622   3.660   1.608  17.629 -0.8647 -1.3266  1.8399
 8662SOL    HW237623   3.778   1.524  17.619  0.2038 -1.0722  2.3170
 8663SOL     OW37624   2.740   3.425   6.893 -0.7944 -0.2168 -0.0340
 8663SOL    HW137625   2.662   3.472   6.921 -0.9119 -2.2659  3.1164
 8663SOL    HW237626   2.721   3.378   6.812  0.0066  1.2911 -1.0847
 8664SOL     OW37627   2.625   3.382  15.250  0.3382 -0.0421 -0.1710
 8664SOL    HW137628   2.671   3.306  15.214 -0.5165 -0.7631  0.2769
 8664SOL    HW237629   2.687   3.440  15.295 -0.9342  0.2127  1.2385
 8665SOL     OW37630   2.746   3.599   2.026  0.4804  0.5070  0.0990
 8665SOL    HW137631   2.683   3.646   2.081  1.5181  0.4233  1.3520
 8665SOL    HW237632   2.828   3.645   2.039  2.7349 -2.7716 -2.5018
 8666SOL     OW37633   2.668   1.175   6.299 -0.0555  0.2696 -0.0771
 8666SOL    HW137634   2.697   1.245   6.358 -0.6975  1.2803 -0.9571
 8666SOL    HW237635   2.740   1.113   6.306  0.4699  0.6079 -2.4705
 8667SOL     OW37636   0.583   1.124   7.149  0.1522  0.2900  0.4026
 8667SOL    HW137637   0.509   1.075   7.186  1.2882 -1.5500  0.2605
 8667SOL    HW237638   0.631   1.042   7.134 -0.9104 -0.1826 -0.3981
 8668SOL     OW37639   1.430   4.537   5.372  0.0527  0.3099  0.2844
 8668SOL    HW137640   1.489   4.544   5.447  0.2935 -1.0834  0.2232
 8668SOL    HW237641   1.358   4.588   5.410 -0.4807  0.3871 -0.8175
 8669SOL     OW37642   1.227   0.674   5.210  0.2974 -0.1105  0.5695
 8669SOL    HW137643   1.145   0.660   5.256 -0.3529  0.2730 -0.4633
 8669SOL    HW237644   1.200   0.719   5.130  1.9271  0.3980  0.2940
 8670SOL     OW37645   0.663   2.957   3.487  0.6222 -0.0049  0.3149
 8670SOL    HW137646   0.624   2.940   3.401  0.2633  0.3486  0.4097
 8670SOL    HW237647   0.719   3.032   3.468 -0.3729  0.6817  0.0791
 8671SOL     OW37648   4.003   3.686   4.964 -0.5562  0.2982 -0.5859
 8671SOL    HW137649   4.039   3.690   5.053  0.3201  1.0604 -0.9676
 8671SOL    HW237650   3.954   3.768   4.954 -0.9623  0.1367  0.1507
 8672SOL     OW37651   2.218   2.086   3.369  0.2036  0.0067 -0.2327
 8672SOL    HW137652   2.157   2.158   3.388  0.1755 -0.6363  2.0807
 8672SOL    HW237653   2.203   2.076   3.275 -2.9454 -0.7050  0.3264
 8673SOL     OW37654   1.858   1.976  13.239  0.0900  0.5768 -0.0676
 8673SOL    HW137655   1.831   2.067  13.220 -0.4763  0.5940  0.8413
 8673SOL    HW237656   1.949   1.979  13.211  0.1126  0.2592 -0.0267
 8674SOL     OW37657   4.725   1.346   5.972 -0.3875 -0.3626  0.9503
 8674SOL    HW137658   4.695   1.437   5.964 -1.2554 -0.8666 -1.4206
 8674SOL    HW237659   0.041   1.341   6.049  0.2497 -1.3630  0.4135
 8675SOL     OW37660   0.483   0.855   8.154  0.3200  0.8522  0.1736
 8675SOL    HW137661   0.400   0.846   8.107  1.4796 -0.2875 -1.6349
 8675SOL    HW237662   0.467   0.824   8.243 -1.6799  0.0571 -0.4496
 8676SOL     OW37663   0.407   4.195   3.551 -0.0415  0.2823 -0.3771
 8676SOL    HW137664   0.482   4.150   3.590 -0.7707  0.0904  0.8070
 8676SOL    HW237665   0.422   4.290   3.547 -1.0067  0.2664 -4.3429
 8677SOL     OW37666   1.387   0.687  13.421 -0.1054 -0.3652  0.4502
 8677SOL    HW137667   1.345   0.697  13.336  0.3766 -1.9244  0.0336
 8677SOL    HW237668   1.466   0.639  13.394  1.8891  1.4445  3.0337
 8678SOL     OW37669   3.009   1.766  17.732 -0.3129  0.4154  0.4746
 8678SOL    HW137670   2.920   1.801  17.727 -0.3855 -0.0154 -1.2712
 8678SOL    HW237671   2.993   1.673  17.721 -0.4750  0.3167  1.5589
 8679SOL     OW37672   2.401   0.371  10.692 -0.1883 -0.7402 -0.1797
 8679SOL    HW137673   2.369   0.429  10.761 -1.1102 -0.0383 -1.1877
 8679SOL    HW237674   2.337   0.386  10.622  0.0207 -2.0676 -0.6504
 8680SOL     OW37675   3.537   4.442   6.868  0.1524  0.8368 -0.2258
 8680SOL    HW137676   3.580   4.419   6.950  1.6160  2.2157 -0.6088
 8680SOL    HW237677   3.604   4.495   6.824 -0.4929 -0.1670 -2.4205
 8681SOL     OW37678   2.269   4.164   5.119  0.1138 -0.0461  0.3937
 8681SOL    HW137679   2.270   4.259   5.104  2.7822  0.1754  2.0140
 8681SOL    HW237680   2.227   4.164   5.205  0.0925  0.4481  0.3850
 8682SOL     OW37681   1.581   0.779   1.928  0.0848 -0.2492 -0.1326
 8682SOL    HW137682   1.587   0.845   1.860 -2.3247 -1.7107 -1.7306
 8682SOL    HW237683   1.656   0.816   1.975 -0.1858  2.7605 -2.0700
 8683SOL     OW37684   2.581   3.786   6.605  0.1763 -0.9358 -0.3886
 8683SOL    HW137685   2.613   3.795   6.695  0.4365  0.7293 -0.6472
 8683SOL    HW237686   2.671   3.788   6.571  0.1744  0.3093 -0.3383
 8684SOL     OW37687   0.042   2.886  16.605 -0.4501 -0.3720 -0.0162
 8684SOL    HW137688   4.711   2.900  16.667 -2.1201 -2.1216 -1.5394
 8684SOL    HW237689   4.739   2.872  16.521  1.1175  1.1813 -1.0645
 8685SOL     OW37690   1.368   0.138   2.879 -0.0081  0.1978 -0.3759
 8685SOL    HW137691   1.458   0.106   2.873 -0.6916 -1.7118 -0.3711
 8685SOL    HW237692   1.361   0.151   2.973  2.2224 -0.6935 -0.0766
 8686SOL     OW37693   1.074   0.741  16.041  0.1338  0.0270  0.6054
 8686SOL    HW137694   1.011   0.737  16.114 -0.6866  0.0726 -0.1032
 8686SOL    HW237695   1.021   0.787  15.976 -1.2937  0.5166  2.0919
 8687SOL     OW37696   4.570   3.577   8.011 -0.0958 -0.2141 -0.6603
 8687SOL    HW137697   4.481   3.548   8.031 -0.1206 -1.7853 -3.1026
 8687SOL    HW237698   4.623   3.556   8.089  0.3836  0.0962 -0.9010
 8688SOL     OW37699   1.228   3.000   8.977  0.3546 -0.1508 -0.1796
 8688SOL    HW137700   1.225   3.054   9.056  2.6422  0.6099 -0.6090
 8688SOL    HW237701   1.271   2.924   9.016 -1.7078 -0.9630  0.5259
 8689SOL     OW37702   1.144   2.464   5.677  0.2399 -0.2136 -0.4549
 8689SOL    HW137703   1.059   2.454   5.719  0.1118 -1.5312 -1.0312
 8689SOL    HW237704   1.135   2.547   5.630  3.6253  0.7763  0.6318
 8690SOL     OW37705   4.112   4.077   7.163  0.0957  0.1225  0.4301
 8690SOL    HW137706   4.077   4.028   7.238  0.1791 -1.7374 -0.7254
 8690SOL    HW237707   4.143   4.010   7.100  0.7322  1.0106 -0.2053
 8691SOL     OW37708   1.962   3.159   1.747 -0.3026  0.7931 -0.5258
 8691SOL    HW137709   1.934   3.248   1.731  0.0455  1.3737  1.9964
 8691SOL    HW237710   2.056   3.171   1.760  0.0390 -1.2788 -1.0102
 8692SOL     OW37711   2.005   1.767   1.391  0.3181 -0.4681 -0.5506
 8692SOL    HW137712   1.955   1.692   1.422  1.7719 -1.2572 -0.0829
 8692SOL    HW237713   2.013   1.828   1.464  2.4852  0.1213 -1.2803
 8693SOL     OW37714   2.829   3.300   2.854 -0.6367 -0.7853  0.3284
 8693SOL    HW137715   2.783   3.242   2.914  0.2728 -2.3892 -0.5331
 8693SOL    HW237716   2.781   3.313   2.772 -0.7021  0.1382  0.5180
 8694SOL     OW37717   0.795   3.231   5.941 -0.1028 -0.4220  0.0225
 8694SOL    HW137718   0.867   3.240   6.004  0.7351 -0.3279 -0.9497
 8694SOL    HW237719   0.719   3.266   5.987  0.9737  1.1167  0.6389
 8695SOL     OW37720   4.666   4.511   7.282 -0.4586 -0.1724 -0.1101
 8695SOL    HW137721   0.004   4.472   7.244 -0.6032 -1.4465  0.8926
 8695SOL    HW237722   4.591   4.471   7.236 -0.6188  0.0537 -0.0473
 8696SOL     OW37723   2.669   0.641  12.142  0.1492  0.4039  0.0711
 8696SOL    HW137724   2.701   0.712  12.197 -0.4671 -0.5122  1.6130
 8696SOL    HW237725   2.578   0.659  12.119  0.8247 -1.0748 -3.8403
 8697SOL     OW37726   1.790   2.219   8.966  0.3401 -0.7411  0.3158
 8697SOL    HW137727   1.733   2.241   9.040  1.5449  0.8795  0.7630
 8697SOL    HW237728   1.798   2.124   8.960  1.8788 -0.5784 -0.2693
 8698SOL     OW37729   3.790   1.845  13.467  0.0080 -0.1519 -0.0506
 8698SOL    HW137730   3.798   1.765  13.519 -1.2772 -0.2755 -0.0401
 8698SOL    HW237731   3.708   1.840  13.418 -0.0370  2.3545 -0.2052
 8699SOL     OW37732   2.145   1.266  10.545 -0.9709 -0.0312 -0.4712
 8699SOL    HW137733   2.138   1.172  10.531 -0.1993 -0.4413  1.8423
 8699SOL    HW237734   2.068   1.296  10.497 -0.9662 -2.4678 -2.0113
 8700SOL     OW37735   1.145   0.345  14.680 -0.0859  0.3491 -0.5721
 8700SOL    HW137736   1.063   0.382  14.714  0.9622  0.7802  1.4681
 8700SOL    HW237737   1.199   0.424  14.677 -1.8027  1.5279 -0.3708
 8701SOL     OW37738   2.631   4.341   3.946 -0.0095 -0.1619 -0.4070
 8701SOL    HW137739   2.572   4.341   3.871 -0.6225  0.4558  0.0705
 8701SOL    HW237740   2.633   4.248   3.965  1.8989 -0.2520 -1.0055
 8702SOL     OW37741   3.136   2.985   2.674 -0.3221 -0.3370  0.2122
 8702SOL    HW137742   3.214   3.027   2.711 -2.4178  2.0649  1.9415
 8702SOL    HW237743   3.131   3.026   2.588  1.6611  1.4063  0.9072
 8703SOL     OW37744   4.091   4.426   3.367  0.0427 -0.5414  0.0862
 8703SOL    HW137745   4.119   4.429   3.275 -1.1847  2.2592 -0.1999
 8703SOL    HW237746   3.996   4.431   3.357  0.3820 -1.0405 -3.5607
 8704SOL     OW37747   1.865   1.143   0.092 -0.2747 -0.3268 -0.2180
 8704SOL    HW137748   1.794   1.183   0.041 -0.5449 -1.0164 -0.3754
 8704SOL    HW237749   1.824   1.128   0.177 -1.5208 -1.5629 -1.0320
 8705SOL     OW37750   0.180   2.217  13.970  0.1395 -0.1561  0.8609
 8705SOL    HW137751   0.151   2.143  13.917 -1.1728  1.2935 -0.4429
 8705SOL    HW237752   0.099   2.231  14.019  1.1779  1.7932  2.0197
 8706SOL     OW37753   2.611   0.546   5.971 -0.7368  0.3329  0.0347
 8706SOL    HW137754   2.672   0.493   5.919  0.1004  0.3224  1.0283
 8706SOL    HW237755   2.564   0.491   6.034  0.8599 -2.0392 -0.8475
 8707SOL     OW37756   1.899   4.311  13.996 -0.3992 -0.4050  0.2820
 8707SOL    HW137757   1.865   4.330  13.908 -1.3244 -2.4261  0.2024
 8707SOL    HW237758   1.912   4.401  14.027  3.0723 -0.9489  0.3939
 8708SOL     OW37759   2.976   1.418   9.722 -0.0410  0.5386  0.4009
 8708SOL    HW137760   2.933   1.454   9.799 -0.8220 -0.1616  0.3021
 8708SOL    HW237761   2.924   1.339   9.704  0.6123  0.4246 -1.0405
 8709SOL     OW37762   0.920   0.850   2.125  0.0199 -0.1016  1.0874
 8709SOL    HW137763   0.984   0.897   2.072  0.2189 -1.9210 -0.2986
 8709SOL    HW237764   0.975   0.843   2.204  2.5167 -0.8115 -0.7095
 8710SOL     OW37765   2.983   4.508   4.111  0.0179  0.5736  0.4852
 8710SOL    HW137766   3.061   4.462   4.141 -1.6973 -0.3961  3.4393
 8710SOL    HW237767   3.012   4.599   4.119 -3.3728  1.8325 -1.8150
 8711SOL     OW37768   0.136   2.995   5.338 -0.0553 -0.7192 -0.4440
 8711SOL    HW137769   0.168   2.905   5.344  0.6299 -0.4546 -0.2497
 8711SOL    HW237770   0.210   3.046   5.370 -0.3013  0.1000 -1.1857
 8712SOL     OW37771   2.372   1.251   2.780  0.0021  0.2511  0.3332
 8712SOL    HW137772   2.369   1.291   2.693  2.7382  2.6290  1.3417
 8712SOL    HW237773   2.311   1.178   2.767 -0.4245  0.3979  1.5225
 8713SOL     OW37774   3.049   4.662   1.295  0.5159 -0.0920 -0.2290
 8713SOL    HW137775   3.136   4.623   1.302  0.7717 -0.0076 -3.0007
 8713SOL    HW237776   3.009   4.608   1.227  0.8179  1.0602 -1.3190
 8714SOL     OW37777   4.409   2.763  16.472 -0.0482 -0.3258  0.4391
 8714SOL    HW137778   4.398   2.843  16.421 -1.9143 -1.3429 -0.7692
 8714SOL    HW237779   4.427   2.699  16.402  0.5907  0.8519 -0.4696
 8715SOL     OW37780   4.426   0.754  12.032  0.3337 -0.3583  0.4467
 8715SOL    HW137781   4.366   0.821  11.998 -0.9926 -2.4925 -1.4176
 8715SOL    HW237782   4.469   0.810  12.097 -1.0137  1.4760 -0.2381
 8716SOL     OW37783   1.899   2.883   0.705 -0.4682 -0.7987  0.0352
 8716SOL    HW137784   1.926   2.893   0.614 -2.0265  1.3729 -0.1956
 8716SOL    HW237785   1.850   2.801   0.701  1.9795 -2.3062  0.6654
 8717SOL     OW37786   3.954   3.617   2.246 -0.1818 -0.2579 -0.0788
 8717SOL    HW137787   3.891   3.608   2.174  0.7877 -0.5723 -0.8941
 8717SOL    HW237788   4.034   3.590   2.200  2.1754  4.7448  1.1235
 8718SOL     OW37789   2.697   4.607   9.227  1.1865  0.3365 -0.1716
 8718SOL    HW137790   2.670   4.656   9.304 -1.4134 -1.0710 -0.1982
 8718SOL    HW237791   2.709   4.520   9.266  4.1088  0.3972 -0.8642
 8719SOL     OW37792   0.365   1.154   2.258  0.2047  0.1619 -0.0821
 8719SOL    HW137793   0.408   1.069   2.248 -0.5096 -0.1762 -0.2536
 8719SOL    HW237794   0.325   1.132   2.342  1.2051 -1.2458  0.0077
 8720SOL     OW37795   0.015   0.736   4.408  0.1596 -0.0442 -0.4363
 8720SOL    HW137796   0.024   0.771   4.320  0.7524  2.6843  0.7205
 8720SOL    HW237797   0.086   0.780   4.454  0.9428 -2.6112  0.8329
 8721SOL     OW37798   4.216   2.336  11.176  0.1599  0.7340 -0.4369
 8721SOL    HW137799   4.127   2.370  11.172 -0.5029 -0.9834 -0.2994
 8721SOL    HW237800   4.263   2.419  11.186 -0.5049  0.9114  1.2452
 8722SOL     OW37801   3.034   0.573   5.217 -0.2001 -0.4619 -0.4412
 8722SOL    HW137802   3.027   0.565   5.312  3.6378 -1.4614 -0.2279
 8722SOL    HW237803   2.947   0.559   5.182 -0.8982 -0.8748  1.4689
 8723SOL     OW37804   4.492   1.579   6.301 -0.1994 -0.2812 -0.0826
 8723SOL    HW137805   4.570   1.528   6.323  1.5064  2.7510  0.8150
 8723SOL    HW237806   4.530   1.652   6.253 -0.2010  0.0974  0.4973
 8724SOL     OW37807   0.503   3.680   5.704  0.1896 -0.2215 -0.6556
 8724SOL    HW137808   0.426   3.629   5.729 -0.5019  1.2147  0.1975
 8724SOL    HW237809   0.553   3.700   5.783 -2.0914 -0.0363  0.7477
 8725SOL     OW37810   4.654   3.171  10.301  0.1296  0.1802 -0.4792
 8725SOL    HW137811   4.697   3.124  10.373 -1.4855  0.1458  0.4675
 8725SOL    HW237812   4.722   3.156  10.235  0.7128  0.2005  0.1101
 8726SOL     OW37813   2.161   3.535   4.360 -0.0856 -0.2034  0.1679
 8726SOL    HW137814   2.128   3.605   4.416  0.7326  0.2237  0.1191
 8726SOL    HW237815   2.103   3.462   4.381  0.9457 -0.3725  2.4022
 8727SOL     OW37816   3.239   2.430   5.325 -0.7614 -0.3621 -0.0454
 8727SOL    HW137817   3.233   2.409   5.231 -1.1950  1.8606 -0.5082
 8727SOL    HW237818   3.333   2.418   5.335 -0.5644  1.4939  0.2855
 8728SOL     OW37819   2.208   0.989   2.486 -0.0213 -0.1063 -0.0577
 8728SOL    HW137820   2.124   0.944   2.492 -0.3653  0.5768  0.1476
 8728SOL    HW237821   2.208   1.012   2.393  1.6595  1.2558  0.2842
 8729SOL     OW37822   1.939   2.140   7.888 -0.7320  0.3109  0.7325
 8729SOL    HW137823   1.950   2.047   7.908  0.3487  0.5664  1.3252
 8729SOL    HW237824   1.870   2.138   7.822 -1.7082 -0.4657  1.7710
 8730SOL     OW37825   4.131   0.233   7.907 -0.3343  0.4503  0.1086
 8730SOL    HW137826   4.110   0.259   7.818 -0.2511 -2.0796 -0.6593
 8730SOL    HW237827   4.051   0.181   7.920  0.0051  0.1457  1.0115
 8731SOL     OW37828   1.225   1.395  13.916  0.1861  0.3292 -0.0079
 8731SOL    HW137829   1.283   1.420  13.844  1.7285 -1.1576  0.7337
 8731SOL    HW237830   1.148   1.367  13.867  1.0514  2.6474 -2.6982
 8732SOL     OW37831   2.271   0.561   3.437 -0.5118 -0.4018 -0.2859
 8732SOL    HW137832   2.269   0.637   3.496  1.2920 -2.4169  2.3428
 8732SOL    HW237833   2.354   0.523   3.467  0.6175  1.1690 -1.4534
 8733SOL     OW37834   0.844   3.622   7.888 -0.6547  0.2682 -0.1022
 8733SOL    HW137835   0.883   3.658   7.968  2.4959 -0.7470 -1.2254
 8733SOL    HW237836   0.904   3.654   7.821  0.1603 -0.1643  0.4232
 8734SOL     OW37837   0.779   3.428  16.000 -0.5107  0.5010  0.0281
 8734SOL    HW137838   0.841   3.472  16.058 -0.6107 -0.5382  0.9074
 8734SOL    HW237839   0.837   3.420  15.924 -0.6422 -1.6970  0.1749
 8735SOL     OW37840   3.665   4.447  15.896  0.4914  0.6068  0.0445
 8735SOL    HW137841   3.651   4.538  15.870 -0.6352  0.2375 -0.6282
 8735SOL    HW237842   3.590   4.435  15.953  0.0432 -1.7482 -1.0338
 8736SOL     OW37843   0.900   2.272   8.417  0.0492  0.1769  0.1513
 8736SOL    HW137844   0.861   2.263   8.504 -1.2745  0.5809 -0.3909
 8736SOL    HW237845   0.910   2.368   8.420  1.1311  0.0073  2.2891
 8737SOL     OW37846   3.243   3.350  13.837  0.1398 -0.3549  0.1711
 8737SOL    HW137847   3.193   3.421  13.879  1.0861 -0.8622  2.1388
 8737SOL    HW237848   3.198   3.349  13.753 -0.4750 -0.7070  0.5027
 8738SOL     OW37849   0.308   1.244  16.163 -0.2143  0.1206 -0.0511
 8738SOL    HW137850   0.354   1.219  16.083  0.3504  2.7545 -0.5542
 8738SOL    HW237851   0.253   1.171  16.193 -0.4779  1.1646  2.0049
 8739SOL     OW37852   3.767   2.159   6.745 -0.3732  0.1738 -0.0341
 8739SOL    HW137853   3.756   2.090   6.810  2.4410 -1.1257 -0.9437
 8739SOL    HW237854   3.676   2.185   6.728 -0.1613  1.0198  0.1180
 8740SOL     OW37855   2.022   1.220  14.019 -0.2253  0.7403 -0.2865
 8740SOL    HW137856   2.025   1.261  14.105  0.7996  0.1375 -0.0432
 8740SOL    HW237857   2.110   1.232  13.983 -0.2852 -1.4114 -1.1396
 8741SOL     OW37858   2.081   4.181   5.354 -0.0628  0.3966 -0.1269
 8741SOL    HW137859   2.009   4.190   5.417  0.8388  2.2283  0.6383
 8741SOL    HW237860   2.087   4.267   5.314  0.9773  0.3790 -0.0086
 8742SOL     OW37861   4.379   0.597   1.805 -0.3222  0.3368 -0.7276
 8742SOL    HW137862   4.460   0.564   1.843  0.1951 -0.9651 -2.9358
 8742SOL    HW237863   4.347   0.517   1.764 -0.0948 -1.1637  2.0003
 8743SOL     OW37864   0.946   0.164   9.706  0.0471  0.0123  0.0335
 8743SOL    HW137865   0.944   0.100   9.634 -0.9999 -1.1605  1.0995
 8743SOL    HW237866   0.962   0.242   9.653 -0.0316  0.1957  0.2764
 8744SOL     OW37867   3.729   1.399   4.311 -0.6511 -0.2126  0.1377
 8744SOL    HW137868   3.759   1.360   4.394 -1.0704  1.3424  1.0062
 8744SOL    HW237869   3.768   1.339   4.247 -1.7074  0.4182 -1.0889
 8745SOL     OW37870   4.092   4.235   2.147 -0.4202 -0.2037 -0.1569
 8745SOL    HW137871   4.082   4.179   2.224 -1.4346  0.7302  0.3871
 8745SOL    HW237872   4.150   4.178   2.096 -1.5667 -0.6494 -0.9642
 8746SOL     OW37873   3.595   2.417  14.760  0.4586 -0.3980  0.2461
 8746SOL    HW137874   3.627   2.344  14.707 -1.1027 -0.6733 -0.3116
 8746SOL    HW237875   3.566   2.364  14.834 -1.0963 -2.1016 -1.5832
 8747SOL     OW37876   2.144   1.435   3.763  0.5978  0.8447 -0.7086
 8747SOL    HW137877   2.074   1.498   3.777  0.3688  0.7331 -1.3640
 8747SOL    HW237878   2.133   1.414   3.670 -2.5653  0.3762 -0.2180
 8748SOL     OW37879   4.246   3.549   4.040 -0.0689 -0.5283  0.8060
 8748SOL    HW137880   4.338   3.575   4.046 -0.4690  0.9484  0.5455
 8748SOL    HW237881   4.257   3.462   4.000 -0.9547  1.0935 -3.0448
 8749SOL     OW37882   4.477   1.522   9.876 -0.3497 -0.1306 -0.1959
 8749SOL    HW137883   4.470   1.426   9.884  1.0406 -0.2285 -0.1427
 8749SOL    HW237884   4.423   1.533   9.798  0.9851  0.6289 -1.0199
 8750SOL     OW37885   2.540   2.555   2.327 -0.6995 -0.3190 -0.6337
 8750SOL    HW137886   2.482   2.530   2.256  0.3723 -2.8567 -0.6185
 8750SOL    HW237887   2.530   2.650   2.324  0.6991 -0.2196 -2.1324
 8751SOL     OW37888   2.108   1.500   7.331 -0.1069 -0.4179 -0.2295
 8751SOL    HW137889   2.197   1.510   7.295  0.4138  0.4066  1.3122
 8751SOL    HW237890   2.130   1.423   7.383  2.2831 -0.1758 -0.8495
 8752SOL     OW37891   4.026   1.667   0.095  0.0731  0.0918 -0.3116
 8752SOL    HW137892   4.077   1.747   0.095  0.0359  0.1166 -1.7768
 8752SOL    HW237893   4.107   1.616   0.086  1.3503  2.0847  0.0941
 8753SOL     OW37894   3.644   2.824   5.265  0.0430 -0.5607 -0.4627
 8753SOL    HW137895   3.597   2.906   5.245  2.6210  0.6210 -1.7409
 8753SOL    HW237896   3.654   2.828   5.360  0.2369 -1.1884 -0.4592
 8754SOL     OW37897   4.046   3.450  10.207  0.0722 -0.6498 -0.1104
 8754SOL    HW137898   3.962   3.406  10.224  0.6080 -0.9147  1.7996
 8754SOL    HW237899   4.108   3.384  10.237 -0.3747 -1.8740 -1.8141
 8755SOL     OW37900   3.105   1.684   1.383  0.0317 -0.3016 -0.0521
 8755SOL    HW137901   3.036   1.728   1.434 -0.3474 -1.0020  0.0337
 8755SOL    HW237902   3.186   1.691   1.434 -0.0553  0.7205 -0.0483
 8756SOL     OW37903   1.367   3.831   8.863 -0.5406  0.1192  0.5295
 8756SOL    HW137904   1.358   3.926   8.858  0.7938  0.3441  2.7507
 8756SOL    HW237905   1.340   3.809   8.774  2.5874 -1.2795 -0.1048
 8757SOL     OW37906   0.109   2.165   6.924  0.3432  0.1646  0.0469
 8757SOL    HW137907   0.112   2.256   6.954  1.9845  0.7630 -1.9606
 8757SOL    HW237908   0.032   2.168   6.867 -0.4959  0.1998  1.1955
 8758SOL     OW37909   0.014   2.541   5.774  0.0341 -0.5288  0.1889
 8758SOL    HW137910   0.070   2.613   5.747 -3.2870  2.9191  2.4574
 8758SOL    HW237911   0.037   2.481   5.703 -1.8240 -1.1538  0.0906
 8759SOL     OW37912   4.303   3.047   8.109 -0.0502  0.0179 -0.2572
 8759SOL    HW137913   4.369   3.091   8.163  0.1137 -1.0707  0.4324
 8759SOL    HW237914   4.251   3.126   8.089 -1.0623 -0.6948 -0.4296
 8760SOL     OW37915   4.110   1.730   1.205  0.3651  0.4277  0.0065
 8760SOL    HW137916   4.034   1.688   1.163  0.5450 -2.3014  2.4443
 8760SOL    HW237917   4.091   1.824   1.212  0.0500  0.3259  0.5497
 8761SOL     OW37918   4.175   4.105   7.827  0.0649  0.4750  0.6188
 8761SOL    HW137919   4.186   4.137   7.916  1.7395  0.3460  0.4578
 8761SOL    HW237920   4.169   4.013   7.850 -1.1777  0.1795 -0.8928
 8762SOL     OW37921   1.561   0.190  14.867  0.5187  0.1644 -0.1641
 8762SOL    HW137922   1.477   0.191  14.822  1.0776  0.6634 -1.2100
 8762SOL    HW237923   1.591   0.275  14.835 -0.4924 -0.4207 -2.6820
 8763SOL     OW37924   4.128   0.214   7.614  0.1676  0.2571  0.5950
 8763SOL    HW137925   4.148   0.148   7.546  1.6401  1.8649 -0.5187
 8763SOL    HW237926   4.136   0.297   7.568  1.5181  0.0740  0.4876
 8764SOL     OW37927   1.001   1.405   5.716  0.1972 -0.7846  0.6608
 8764SOL    HW137928   1.002   1.312   5.741 -0.8907 -1.0197 -0.1925
 8764SOL    HW237929   0.911   1.429   5.695  0.3433 -0.9581 -0.1729
 8765SOL     OW37930   3.115   2.020   1.329 -0.3007 -0.1742 -0.5693
 8765SOL    HW137931   3.075   2.104   1.354 -0.0703 -0.5720  1.1187
 8765SOL    HW237932   3.149   1.988   1.412  1.5349  1.8751 -0.5308
 8766SOL     OW37933   2.966   3.693  15.566 -0.0341  0.4843  0.0235
 8766SOL    HW137934   3.012   3.614  15.592 -1.3058  0.1345  1.2130
 8766SOL    HW237935   2.877   3.684  15.600  0.5132  0.3111  1.3735
 8767SOL     OW37936   2.419   3.622   8.102 -0.1372 -0.2052 -0.0826
 8767SOL    HW137937   2.335   3.602   8.144 -0.6999  1.3778 -0.4353
 8767SOL    HW237938   2.407   3.701   8.048  1.0144  0.4272  0.5871
 8768SOL     OW37939   0.664   4.295   6.802 -0.1306  0.1962  0.2027
 8768SOL    HW137940   0.755   4.267   6.813 -0.9336 -2.6340 -0.1981
 8768SOL    HW237941   0.641   4.342   6.882 -0.4255 -1.4008  1.0609
 8769SOL     OW37942   4.132   3.833  13.743  0.1652  0.1045 -0.2092
 8769SOL    HW137943   4.203   3.772  13.726 -0.4634 -0.6588 -0.1071
 8769SOL    HW237944   4.093   3.780  13.812  1.5430  1.0810  1.3227
 8770SOL     OW37945   2.039   1.203   3.572  0.5197  0.1199  0.3155
 8770SOL    HW137946   2.055   1.116   3.609 -0.5475  0.2717  1.1308
 8770SOL    HW237947   1.949   1.216   3.601  1.2119  0.7897  2.1311
 8771SOL     OW37948   3.002   1.663   9.159 -0.1098  0.3923  0.0187
 8771SOL    HW137949   3.043   1.618   9.085 -0.3827  2.9066 -1.6959
 8771SOL    HW237950   2.984   1.593   9.222  2.6211 -0.4574 -0.1621
 8772SOL     OW37951   1.244   4.559   4.190  0.3203 -0.0119 -0.0098
 8772SOL    HW137952   1.333   4.590   4.173  0.3712 -0.5669 -0.7654
 8772SOL    HW237953   1.206   4.644   4.170  0.2534 -0.4810 -1.9088
 8773SOL     OW37954   1.520   2.489   8.386 -0.5442 -0.2013 -0.2340
 8773SOL    HW137955   1.483   2.434   8.317 -1.5823 -0.4846  0.5462
 8773SOL    HW237956   1.471   2.458   8.463 -1.0000 -1.0368 -0.8621
 8774SOL     OW37957   1.803   1.273  13.178 -0.2454 -0.3346  0.2270
 8774SOL    HW137958   1.756   1.344  13.133  2.8317  1.0221 -0.8655
 8774SOL    HW237959   1.841   1.327  13.247  0.2133  1.6593 -1.5656
 8775SOL     OW37960   3.713   1.930   6.894 -0.2689  0.6674 -0.0466
 8775SOL    HW137961   3.669   1.911   6.977 -1.7958 -1.6836 -1.3662
 8775SOL    HW237962   3.677   1.859   6.841 -0.5536  1.3803 -0.8136
 8776SOL     OW37963   2.762   2.949  11.208 -0.3613 -0.0224  0.0364
 8776SOL    HW137964   2.681   2.995  11.229 -0.5394 -0.0038 -0.6693
 8776SOL    HW237965   2.829   3.013  11.231 -0.0530  0.0095 -0.9246
 8777SOL     OW37966   3.914   0.701  15.537 -0.8968  0.1308 -0.1313
 8777SOL    HW137967   3.945   0.708  15.447  1.4558  0.0351  0.6563
 8777SOL    HW237968   3.899   0.793  15.558 -1.1306 -0.2966  1.6101
 8778SOL     OW37969   2.449   2.832   6.493 -0.3169 -0.0685  0.4288
 8778SOL    HW137970   2.527   2.797   6.450  0.7224  0.1663  2.1239
 8778SOL    HW237971   2.448   2.914   6.444 -0.1007 -0.7790 -0.7576
 8779SOL     OW37972   2.474   0.951   9.004 -0.5499 -0.2030 -0.3489
 8779SOL    HW137973   2.494   1.032   8.957 -1.4311  0.5076  0.4803
 8779SOL    HW237974   2.544   0.894   8.973  1.6392  1.8800  0.7441
 8780SOL     OW37975   3.954   4.464   2.952 -0.5391  0.5378  0.4921
 8780SOL    HW137976   4.043   4.495   2.970  0.5492 -1.9980 -0.5608
 8780SOL    HW237977   3.919   4.536   2.900  2.0059  0.3731 -1.4610
 8781SOL     OW37978   1.784   3.959   8.444  0.3399  0.0392  0.4775
 8781SOL    HW137979   1.807   4.050   8.465  1.8446 -0.5369  1.3612
 8781SOL    HW237980   1.869   3.921   8.424  0.6909  0.7293  0.6645
 8782SOL     OW37981   0.525   3.517  13.094 -0.0626 -0.5099 -0.5389
 8782SOL    HW137982   0.546   3.423  13.096 -1.3804 -0.7901  0.1150
 8782SOL    HW237983   0.606   3.558  13.123 -1.0181 -1.0184  2.7852
 8783SOL     OW37984   1.511   2.768   2.536 -0.1982  0.2037  0.0052
 8783SOL    HW137985   1.550   2.687   2.504 -0.0549  1.0677 -2.0414
 8783SOL    HW237986   1.478   2.725   2.615 -2.0080  0.6006 -0.5379
 8784SOL     OW37987   1.193   0.543   6.306 -0.6230 -0.1650 -0.0756
 8784SOL    HW137988   1.278   0.514   6.338  1.0075  2.5041 -1.9825
 8784SOL    HW237989   1.200   0.638   6.296 -1.8239 -0.2069 -1.4612
 8785SOL     OW37990   3.537   2.757  16.065  0.3293  0.1311  0.3389
 8785SOL    HW137991   3.604   2.709  16.017  0.3755 -0.6388  1.1717
 8785SOL    HW237992   3.462   2.701  16.043  1.5704 -1.1430 -0.6141
 8786SOL     OW37993   1.170   1.114   4.705 -0.5714 -0.0157 -0.3070
 8786SOL    HW137994   1.134   1.027   4.688  0.9867 -1.0946  1.8862
 8786SOL    HW237995   1.253   1.117   4.657  0.1833  1.8683  1.1138
 8787SOL     OW37996   3.208   0.366   1.777 -0.2602  0.9109  0.1084
 8787SOL    HW137997   3.288   0.314   1.767 -1.4133 -0.4495 -2.0526
 8787SOL    HW237998   3.144   0.307   1.738 -2.1719  2.4311  0.9262
 8788SOL     OW37999   4.402   1.577   7.298 -0.3825  0.4668  0.4791
 8788SOL    HW138000   4.357   1.640   7.355 -1.2568  1.4885 -1.3617
 8788SOL    HW238001   4.366   1.619   7.220 -1.9350 -1.9725 -0.1158
 8789SOL     OW38002   1.772   1.752   6.685  0.1281 -0.3972 -0.0458
 8789SOL    HW138003   1.854   1.783   6.647 -0.9544  0.4633 -1.6659
 8789SOL    HW238004   1.712   1.782   6.618 -2.0575  2.4430  3.2342
 8790SOL     OW38005   0.785   4.484  11.063  0.0687  0.5283  0.3468
 8790SOL    HW138006   0.697   4.482  11.024  0.1867  0.0458  0.1109
 8790SOL    HW238007   0.790   4.390  11.080  0.6703  0.3614 -0.7647
 8791SOL     OW38008   3.879   2.577   8.737  0.1580 -0.6082 -0.0814
 8791SOL    HW138009   3.803   2.621   8.777  1.6822  0.1559  1.9435
 8791SOL    HW238010   3.871   2.488   8.770  0.0711 -0.5804 -0.0266
 8792SOL     OW38011   4.671   2.685  16.946  0.2553  0.2261 -0.1054
 8792SOL    HW138012   4.610   2.705  16.876 -1.1946 -1.3254  0.7356
 8792SOL    HW238013   4.726   2.764  16.945  1.5682 -0.6226  3.8050
 8793SOL     OW38014   2.663   3.308  10.200  0.3525  0.1710  0.1803
 8793SOL    HW138015   2.662   3.215  10.181 -0.9792 -0.3548  2.8009
 8793SOL    HW238016   2.677   3.337  10.110  0.0346 -2.3589 -0.6826
 8794SOL     OW38017   2.179   2.345   3.108 -0.0650 -0.4088 -0.5056
 8794SOL    HW138018   2.194   2.359   3.202 -0.1096 -2.2133 -0.2288
 8794SOL    HW238019   2.247   2.396   3.065  2.7241 -2.0436  1.9854
 8795SOL     OW38020   4.439   0.789   1.276  0.5128  0.4860  0.2319
 8795SOL    HW138021   4.408   0.877   1.255 -0.3436  0.6316  2.0869
 8795SOL    HW238022   4.405   0.746   1.197  0.3988 -0.5423  0.8306
 8796SOL     OW38023   0.696   2.310   2.743  0.3278 -0.1368  0.0922
 8796SOL    HW138024   0.754   2.369   2.792  0.8705 -0.7963  0.2475
 8796SOL    HW238025   0.736   2.226   2.764  1.3852 -0.2169 -2.1595
 8797SOL     OW38026   0.681   0.243   7.255 -0.4148 -0.2344 -0.2313
 8797SOL    HW138027   0.606   0.291   7.293  1.6230  2.4200  0.4458
 8797SOL    HW238028   0.740   0.232   7.330 -0.6605  0.4033  0.0645
 8798SOL     OW38029   2.933   3.540   8.921 -0.5255 -0.0346  0.1653
 8798SOL    HW138030   2.973   3.530   9.007  0.3941  0.6402 -0.1881
 8798SOL    HW238031   2.874   3.615   8.926  1.0770  1.1997  0.4529
 8799SOL     OW38032   0.847   2.585  10.744  0.4575  0.1334  0.3810
 8799SOL    HW138033   0.814   2.539  10.822  0.2973  1.3722  1.0407
 8799SOL    HW238034   0.941   2.580  10.759  0.4128 -0.0755  0.6057
 8800SOL     OW38035   0.237   2.789   6.961  0.1390  0.0457  0.8426
 8800SOL    HW138036   0.269   2.723   7.022 -0.0791 -0.5370  0.3168
 8800SOL    HW238037   0.168   2.823   7.018 -0.0373  2.6682 -0.9332
 8801SOL     OW38038   2.237   4.264   9.974  0.7012 -0.1123  0.1178
 8801SOL    HW138039   2.161   4.264  10.032  2.4722  0.6619  2.4563
 8801SOL    HW238040   2.288   4.202  10.027 -0.1346 -0.3876  0.6052
 8802SOL     OW38041   0.073   3.648   7.365 -0.2770 -0.1771  0.2950
 8802SOL    HW138042   0.118   3.564   7.379  0.1563  0.3874  2.2517
 8802SOL    HW238043   0.124   3.689   7.295 -1.4562 -0.3122 -0.6344
 8803SOL     OW38044   1.004   0.784   7.289 -0.1290 -0.4205  0.5029
 8803SOL    HW138045   1.007   0.737   7.373  2.5552 -0.7930  0.2017
 8803SOL    HW238046   0.942   0.855   7.304  1.6344  0.7837  2.0501
 8804SOL     OW38047   3.192   1.101   8.526 -0.1301 -0.3038 -0.6737
 8804SOL    HW138048   3.190   1.051   8.445  1.9571 -1.2093 -0.1896
 8804SOL    HW238049   3.284   1.127   8.526  0.6035 -2.7607  2.6870
 8805SOL     OW38050   1.001   4.189  10.418 -0.2032 -0.0433  0.1052
 8805SOL    HW138051   0.968   4.114  10.467 -1.7073 -0.0837 -0.9637
 8805SOL    HW238052   1.001   4.160  10.326 -0.3205 -1.8904  0.6906
 8806SOL     OW38053   3.521   2.376   7.087 -0.6443 -0.3242 -0.1356
 8806SOL    HW138054   3.527   2.318   7.011 -2.2121 -1.5724  0.6880
 8806SOL    HW238055   3.426   2.365   7.094 -0.8129  1.2367 -0.1109
 8807SOL     OW38056   4.284   2.555  11.949  0.0140 -0.4016 -0.0670
 8807SOL    HW138057   4.344   2.530  11.879  2.4080 -3.3140  3.0047
 8807SOL    HW238058   4.278   2.470  11.995 -2.9529 -1.7499 -2.9741
 8808SOL     OW38059   1.484   3.951   6.284 -0.4397  0.3709  0.3327
 8808SOL    HW138060   1.403   3.900   6.289  0.1160 -0.4703  0.7437
 8808SOL    HW238061   1.531   3.925   6.363 -0.4710  0.6438  0.4410
 8809SOL     OW38062   2.081   2.542   5.033  0.0739 -0.6317 -0.4276
 8809SOL    HW138063   2.154   2.494   5.072 -1.6620 -1.4789  1.7539
 8809SOL    HW238064   2.008   2.515   5.089 -0.4679 -1.9319 -1.7728
 8810SOL     OW38065   4.654   3.024   0.358 -0.6075 -0.4924 -0.1813
 8810SOL    HW138066   4.682   3.016   0.449  0.1888 -1.9901 -0.5452
 8810SOL    HW238067   4.560   3.008   0.362 -0.8890  1.0558 -0.6880
 8811SOL     OW38068   1.394   4.135   4.903 -0.1345 -0.1525  0.4495
 8811SOL    HW138069   1.463   4.201   4.911  0.8814 -1.1689  0.1159
 8811SOL    HW238070   1.437   4.064   4.950  0.7932 -0.2213 -0.5092
 8812SOL     OW38071   0.876   2.661   9.928 -0.1184  0.0074  0.1757
 8812SOL    HW138072   0.837   2.695   9.848  0.0904  1.3568  0.6556
 8812SOL    HW238073   0.923   2.732   9.972  0.4985  0.8582 -1.8906
 8813SOL     OW38074   2.377   0.588   4.400  0.1598 -0.2184 -0.0391
 8813SOL    HW138075   2.410   0.518   4.458 -2.9699  0.7962  2.9960
 8813SOL    HW238076   2.460   0.634   4.386  0.2325 -0.6968 -1.1367
 8814SOL     OW38077   1.385   0.860  16.639 -0.4740  0.3797  0.2546
 8814SOL    HW138078   1.404   0.937  16.584 -1.9441 -0.0280 -0.8415
 8814SOL    HW238079   1.299   0.882  16.675 -0.0123  1.9406  0.4236
 8815SOL     OW38080   1.313   0.264   1.937 -0.0482 -0.3986 -0.1139
 8815SOL    HW138081   1.232   0.215   1.946 -0.0334 -0.4929 -0.5172
 8815SOL    HW238082   1.291   0.338   1.880  0.3330  0.4463  0.8328
 8816SOL     OW38083   2.807   1.928  16.277  0.3770  0.4018  0.1920
 8816SOL    HW138084   2.718   1.926  16.312  0.7332 -2.4411  0.9470
 8816SOL    HW238085   2.859   1.896  16.350 -0.3031 -0.3259  0.3533
 8817SOL     OW38086   3.410   4.707  13.549 -0.1633  0.2052  0.0666
 8817SOL    HW138087   3.497   4.682  13.521 -0.2552 -0.8336  0.7294
 8817SOL    HW238088   3.356   4.680  13.475 -1.4205  0.7064  0.7960
 8818SOL     OW38089   3.753   0.953   6.010 -0.2045 -0.8574  0.1778
 8818SOL    HW138090   3.737   0.937   5.917  0.4464  0.5739 -0.1847
 8818SOL    HW238091   3.761   0.862   6.040  0.3364 -1.3734 -1.5570
 8819SOL     OW38092   0.068   4.632  15.522  0.0349  0.0029  0.0741
 8819SOL    HW138093   0.048   4.549  15.564 -0.6428 -0.3920 -1.0210
 8819SOL    HW238094   0.072   4.602  15.431  0.2315 -1.3361  0.5328
 8820SOL     OW38095   1.645   3.104  17.526 -0.2678 -0.1261  0.0765
 8820SOL    HW138096   1.638   3.186  17.476 -1.6243 -0.4593 -0.2681
 8820SOL    HW238097   1.571   3.056  17.489  1.1080 -0.3361 -2.3935
 8821SOL     OW38098   3.758   1.577  11.806 -0.9085  0.4679 -0.5469
 8821SOL    HW138099   3.665   1.579  11.827 -0.9654 -1.6357 -0.6334
 8821SOL    HW238100   3.758   1.500  11.749 -4.1285  0.1670 -0.1151
 8822SOL     OW38101   1.066   4.642   0.750  1.1987 -0.3130  0.2283
 8822SOL    HW138102   1.007   4.607   0.684  1.1926  0.2382 -0.0541
 8822SOL    HW238103   1.113   4.715   0.709  0.3095  0.4500  0.5761
 8823SOL     OW38104   1.217   4.131   1.588 -0.1483  0.2383 -0.4208
 8823SOL    HW138105   1.151   4.138   1.657 -0.0406 -0.1467 -0.2789
 8823SOL    HW238106   1.164   4.165   1.516  1.7112 -1.6233 -2.6969
 8824SOL     OW38107   3.818   4.376  16.131  0.1044 -0.2664  1.1881
 8824SOL    HW138108   3.898   4.426  16.149 -2.3259  4.1032 -0.0940
 8824SOL    HW238109   3.778   4.421  16.056 -3.7792 -1.0446  2.7922
 8825SOL     OW38110   2.810   0.291  16.149  0.1448  0.4614  0.5248
 8825SOL    HW138111   2.786   0.206  16.185 -1.6975  1.1207  0.8593
 8825SOL    HW238112   2.773   0.283  16.061 -0.8283 -0.6931  1.0415
 8826SOL     OW38113   3.736   0.067  17.624  0.1513 -0.3744 -0.1585
 8826SOL    HW138114   3.695   4.721  17.614  0.4536 -0.4460 -0.8031
 8826SOL    HW238115   3.806   0.043  17.684 -1.6793 -2.3667  1.1666
 8827SOL     OW38116   0.732   2.298   0.594  0.5957  0.1554 -0.6603
 8827SOL    HW138117   0.753   2.205   0.587 -1.4229 -0.4312  1.2362
 8827SOL    HW238118   0.693   2.302   0.681  1.6527  1.3061 -0.2359
 8828SOL     OW38119   3.601   2.029   9.508  0.0644  0.7418  0.1351
 8828SOL    HW138120   3.563   1.959   9.562  0.6256 -0.3269 -0.8438
 8828SOL    HW238121   3.672   2.055   9.566  2.5386  0.1181 -2.6412
 8829SOL     OW38122   1.283   4.281   4.096 -0.2448 -0.5216 -0.1305
 8829SOL    HW138123   1.297   4.376   4.096  1.4438 -0.7636  0.9905
 8829SOL    HW238124   1.374   4.257   4.115  0.7648  2.0674 -1.6307
 8830SOL     OW38125   3.273   0.596   3.823  0.2069  0.0512 -0.4884
 8830SOL    HW138126   3.206   0.605   3.891  0.9850  1.1571  0.1217
 8830SOL    HW238127   3.317   0.514   3.846 -0.5654 -0.1464  0.3108
 8831SOL     OW38128   4.633   1.177   1.269 -0.6750  0.5612  0.0471
 8831SOL    HW138129   4.718   1.150   1.234 -0.0587  2.4239  0.1126
 8831SOL    HW238130   4.601   1.100   1.316 -1.5612  2.8498  3.1985
 8832SOL     OW38131   2.733   2.239  14.254 -0.2364 -0.2987  0.5931
 8832SOL    HW138132   2.761   2.313  14.308  1.2067 -0.5332  0.1579
 8832SOL    HW238133   2.805   2.178  14.271 -0.4476 -0.7826 -0.2524
 8833SOL     OW38134   0.904   3.349  11.425  0.0258 -0.2865 -0.0100
 8833SOL    HW138135   0.984   3.400  11.413  0.1338 -0.0904  1.4798
 8833SOL    HW238136   0.937   3.265  11.394 -2.6781 -0.0085 -3.5425
 8834SOL     OW38137   1.073   0.520   4.178  0.4608 -0.4526  0.7736
 8834SOL    HW138138   0.997   0.565   4.216  0.5166  0.6476 -0.3822
 8834SOL    HW238139   1.145   0.570   4.216  0.4041 -1.3861  2.1103
 8835SOL     OW38140   2.792   3.234   9.763  0.2365  0.2579 -0.1022
 8835SOL    HW138141   2.818   3.252   9.853  1.2663 -1.4999 -0.0529
 8835SOL    HW238142   2.744   3.316   9.757 -0.2088 -0.0423 -0.6553
 8836SOL     OW38143   2.283   1.028   8.217 -0.0971  0.7088 -0.0891
 8836SOL    HW138144   2.211   1.086   8.239  0.0642  0.9957 -0.3070
 8836SOL    HW238145   2.309   1.000   8.305  1.2284  1.2735 -0.2909
 8837SOL     OW38146   4.596   1.901   9.102 -0.2016 -0.5636  0.1764
 8837SOL    HW138147   4.623   1.832   9.163  1.4283 -0.7579 -0.7666
 8837SOL    HW238148   4.626   1.866   9.018  1.5499 -0.2269  0.6568
 8838SOL     OW38149   0.964   4.093   8.884 -0.2557  0.3963 -0.6245
 8838SOL    HW138150   0.909   4.039   8.942  0.7154 -0.4270 -0.4822
 8838SOL    HW238151   1.032   4.128   8.942  0.4137  0.5949 -1.5304
 8839SOL     OW38152   1.055   0.377   2.805  0.0992 -0.4219  0.2910
 8839SOL    HW138153   1.063   0.286   2.774  0.8668 -0.7751  1.5309
 8839SOL    HW238154   1.131   0.425   2.773  0.2654 -0.5403  0.5083
 8840SOL     OW38155   4.604   1.037   9.756  0.0282 -0.4275 -0.2580
 8840SOL    HW138156   4.624   1.031   9.662  1.7987  0.9636  0.0340
 8840SOL    HW238157   4.554   0.956   9.765  2.6315 -2.0009  0.1937
 8841SOL     OW38158   0.438   3.702  11.662  0.1865 -0.0355  0.0198
 8841SOL    HW138159   0.385   3.665  11.592 -1.6049  0.1751  1.2562
 8841SOL    HW238160   0.428   3.796  11.647  0.9663  0.0356 -0.0927
 8842SOL     OW38161   4.215   3.839  14.191  0.5253 -0.2392 -0.3316
 8842SOL    HW138162   4.185   3.891  14.116 -3.0530 -0.7720  0.7662
 8842SOL    HW238163   4.182   3.750  14.181 -0.7387  0.3815 -1.6124
 8843SOL     OW38164   4.665   1.768  11.975  0.4300  0.2745 -0.4808
 8843SOL    HW138165   4.586   1.795  12.022 -0.2762 -0.8909 -0.9953
 8843SOL    HW238166   4.658   1.674  11.990  2.6606  0.5380  2.1342
 8844SOL     OW38167   2.199   2.946   1.853  0.1952  0.0238 -0.8512
 8844SOL    HW138168   2.108   2.926   1.834  0.7174 -2.5924 -0.6091
 8844SOL    HW238169   2.236   2.877   1.799  1.9649 -0.1260  0.5411
 8845SOL     OW38170   0.517   1.274   6.040 -0.2018  0.0643 -0.0352
 8845SOL    HW138171   0.597   1.242   6.000 -0.2720  0.0422 -0.1585
 8845SOL    HW238172   0.551   1.341   6.100 -1.5346  1.7343 -1.1362
 8846SOL     OW38173   4.484   3.748   8.919 -0.2963  0.1868 -0.4314
 8846SOL    HW138174   4.469   3.831   8.874 -0.1267 -0.1681 -1.1503
 8846SOL    HW238175   4.458   3.680   8.857 -2.0580  0.0529  0.4644
 8847SOL     OW38176   1.867   3.345   1.933 -0.4189  0.3530  0.1817
 8847SOL    HW138177   1.943   3.395   1.964  0.8703 -0.4141 -1.7868
 8847SOL    HW238178   1.901   3.260   1.907  0.0156  0.8064 -0.7325
 8848SOL     OW38179   3.514   0.677   4.521  0.1028 -0.3891  0.1076
 8848SOL    HW138180   3.579   0.692   4.452  0.0811 -0.7377  0.0097
 8848SOL    HW238181   3.540   0.753   4.572 -0.5199 -0.7531  0.9545
 8849SOL     OW38182   2.753   2.980   2.516 -0.1636  0.0685 -0.0108
 8849SOL    HW138183   2.725   3.066   2.485 -3.1694 -0.9355 -0.1426
 8849SOL    HW238184   2.783   3.000   2.604 -0.7659  0.6685  0.0575
 8850SOL     OW38185   3.856   0.127   5.614  0.3530 -0.1286 -0.5747
 8850SOL    HW138186   3.879   0.217   5.587 -0.4771 -0.9361 -4.0659
 8850SOL    HW238187   3.836   0.125   5.707  2.3125 -1.0299 -0.1698
 8851SOL     OW38188   1.626   2.567  12.892 -0.0047  0.3529 -0.0446
 8851SOL    HW138189   1.639   2.540  12.983 -1.1243 -0.7481 -0.2174
 8851SOL    HW238190   1.621   2.663  12.901  0.2909  0.5874 -2.4081
 8852SOL     OW38191   4.536   4.447   3.961  0.1193  0.0077  0.1823
 8852SOL    HW138192   4.441   4.444   3.970  0.2777  1.4851  2.4390
 8852SOL    HW238193   4.551   4.540   3.978  0.1251 -0.3146  1.8701
 8853SOL     OW38194   4.444   3.793  11.724  0.3269 -0.2782 -0.1906
 8853SOL    HW138195   4.449   3.828  11.635 -3.0281 -0.8406 -0.6037
 8853SOL    HW238196   4.499   3.714  11.726  2.7658  1.4155 -0.4446
 8854SOL     OW38197   4.520   0.168  15.367 -0.2168 -0.5503  0.5793
 8854SOL    HW138198   4.555   0.126  15.289 -1.9385 -2.6339  0.9128
 8854SOL    HW238199   4.593   0.176  15.429  0.6811 -1.5665 -0.3636
 8855SOL     OW38200   4.023   3.610   3.310  0.0012 -0.2290  0.1766
 8855SOL    HW138201   3.967   3.547   3.355  1.0590 -1.5394 -0.3453
 8855SOL    HW238202   4.090   3.631   3.375  1.8077  0.7965 -2.0271
 8856SOL     OW38203   3.617   0.930   0.036  0.2792  0.2312  0.1752
 8856SOL    HW138204   3.541   0.880   0.009 -0.0557  1.2656 -0.8136
 8856SOL    HW238205   3.671   0.947  17.717  0.9507  0.1451  0.6231
 8857SOL     OW38206   1.159   2.628  12.693 -0.4137  0.5608 -0.3778
 8857SOL    HW138207   1.158   2.627  12.789 -2.1168 -1.3588 -0.4317
 8857SOL    HW238208   1.169   2.719  12.664 -0.4872 -0.0456 -2.2758
 8858SOL     OW38209   2.240   1.335   1.503  0.3132 -0.2841  0.1398
 8858SOL    HW138210   2.216   1.420   1.542 -0.8224 -0.2311 -0.6549
 8858SOL    HW238211   2.194   1.276   1.563 -1.3917 -0.3837 -1.2477
 8859SOL     OW38212   0.680   4.168   3.349 -0.0412  0.0073 -0.1346
 8859SOL    HW138213   0.668   4.242   3.408 -1.2072 -0.1374 -0.1997
 8859SOL    HW238214   0.703   4.102   3.414 -0.5891 -1.1876 -1.1361
 8860SOL     OW38215   2.928   0.286  15.834  0.3479 -0.4017 -0.2007
 8860SOL    HW138216   2.994   0.221  15.811 -0.3576 -1.6425  1.2728
 8860SOL    HW238217   2.848   0.233  15.834 -1.0654  1.7345  1.6999
 8861SOL     OW38218   3.280   1.865   0.024  0.3738 -0.4247 -0.0927
 8861SOL    HW138219   3.316   1.777   0.033  0.2039 -0.6023 -1.1528
 8861SOL    HW238220   3.204   1.849  17.727  1.8526 -0.5921 -2.0701
 8862SOL     OW38221   1.961   1.543   5.463 -0.2968 -0.6452  0.3960
 8862SOL    HW138222   1.949   1.623   5.413  2.2597 -0.5325  0.0044
 8862SOL    HW238223   1.883   1.552   5.518  0.4541  0.8327  1.2108
 8863SOL     OW38224   3.940   0.021   0.513 -0.3099  0.6920  0.6627
 8863SOL    HW138225   3.997   0.091   0.480  0.2514  0.5385  1.3089
 8863SOL    HW238226   3.884   0.070   0.573 -1.2445  0.4224  0.0023
 8864SOL     OW38227   2.970   0.574   5.511 -0.4217 -0.5119 -0.1823
 8864SOL    HW138228   2.954   0.493   5.560  1.2923 -1.0608 -0.5347
 8864SOL    HW238229   3.023   0.631   5.567 -2.1184  1.4557 -0.5948
 8865SOL     OW38230   0.588   1.706   8.911 -0.0891 -0.2209  0.2377
 8865SOL    HW138231   0.656   1.722   8.976  1.9817 -1.1610 -1.7057
 8865SOL    HW238232   0.516   1.751   8.956 -0.9074 -0.9670 -0.3269
 8866SOL     OW38233   1.424   0.158   3.432  0.2509 -0.5331  0.4576
 8866SOL    HW138234   1.455   0.079   3.477  1.0756 -0.4580  0.0241
 8866SOL    HW238235   1.409   0.212   3.509 -0.6109 -0.2834  0.1094
 8867SOL     OW38236   4.442   0.699   7.554  0.1104 -0.4972 -0.2865
 8867SOL    HW138237   4.536   0.692   7.572 -0.0253  1.1189  1.0481
 8867SOL    HW238238   4.394   0.660   7.627 -0.9834 -0.8543 -1.2005
 8868SOL     OW38239   0.709   2.788  10.664  0.1263 -0.1089  0.0740
 8868SOL    HW138240   0.754   2.710  10.694  2.6151  1.4638  0.4579
 8868SOL    HW238241   0.710   2.776  10.569  1.8219 -0.9682  0.2041
 8869SOL     OW38242   2.332   4.414   5.040 -0.3027 -0.3300 -0.1166
 8869SOL    HW138243   2.311   4.414   4.947  1.6558 -1.0278 -0.5544
 8869SOL    HW238244   2.300   4.502   5.060 -0.0675 -0.5331  1.1712
 8870SOL     OW38245   4.737   1.629   7.565  0.5334 -0.3975  0.2239
 8870SOL    HW138246   0.040   1.701   7.520  1.7266 -0.2997  1.5339
 8870SOL    HW238247   4.705   1.574   7.493 -0.4890  0.1572  0.2485
 8871SOL     OW38248   3.596   4.640  12.762 -0.5106  0.2303  0.3954
 8871SOL    HW138249   3.636   4.701  12.701 -2.4569 -0.4582 -1.5606
 8871SOL    HW238250   3.648   4.560  12.757 -1.1326 -0.1519  0.0575
 8872SOL     OW38251   4.357   2.264  16.209  0.2297 -0.6175 -0.2464
 8872SOL    HW138252   4.296   2.237  16.278  1.0845  2.2105  1.5891
 8872SOL    HW238253   4.297   2.319  16.158  0.3880  0.3688  0.6338
 8873SOL     OW38254   1.188   3.870  14.088 -0.0157  0.2654  0.2253
 8873SOL    HW138255   1.248   3.797  14.076 -0.2477  0.1714 -0.3282
 8873SOL    HW238256   1.201   3.920  14.008  1.3789 -2.2517 -1.1161
 8874SOL     OW38257   1.410   2.074   6.852  0.1891 -0.4286 -0.0472
 8874SOL    HW138258   1.404   2.143   6.918  0.8428 -0.7590  0.3610
 8874SOL    HW238259   1.442   2.000   6.904  1.5842  0.1121 -0.1439
 8875SOL     OW38260   4.034   4.471   6.563 -1.0157 -0.0973 -0.2999
 8875SOL    HW138261   4.084   4.404   6.610  0.2068  1.7611  1.0699
 8875SOL    HW238262   3.952   4.423   6.556  0.2063 -2.4743  1.4921
 8876SOL     OW38263   0.563   2.575   7.400  0.3480 -0.1674 -0.8650
 8876SOL    HW138264   0.580   2.669   7.393  0.0929 -0.0038  0.7351
 8876SOL    HW238265   0.502   2.582   7.474  1.4552 -0.8496  0.1245
 8877SOL     OW38266   2.395   0.732   5.996  0.2592 -0.3294  0.3652
 8877SOL    HW138267   2.481   0.698   5.973  0.2708  0.0950 -0.2051
 8877SOL    HW238268   2.423   0.804   6.053 -1.5068  0.8058 -0.1927
 8878SOL     OW38269   0.088   3.766   8.800  0.2046 -0.8706 -0.2578
 8878SOL    HW138270   0.162   3.809   8.842  0.2268 -0.4574 -0.7180
 8878SOL    HW238271   0.017   3.764   8.864  2.2964 -2.3709  1.9849
 8879SOL     OW38272   4.009   3.698   1.284  0.3314  0.3058 -0.2947
 8879SOL    HW138273   4.098   3.685   1.317 -0.3185 -0.1316  1.2796
 8879SOL    HW238274   3.986   3.779   1.329  1.7932 -0.1290  1.1934
 8880SOL     OW38275   0.299   4.003   5.763 -0.8497 -0.6938  0.4344
 8880SOL    HW138276   0.254   4.072   5.715  2.7043 -0.8325 -3.0740
 8880SOL    HW238277   0.325   3.958   5.683  0.4816 -0.8709  0.9633
 8881SOL     OW38278   1.467   1.344   2.822 -0.5861 -0.3528 -0.2136
 8881SOL    HW138279   1.460   1.440   2.817  0.7201 -0.2380  0.2519
 8881SOL    HW238280   1.491   1.332   2.730 -0.4970  3.1358 -0.6752
 8882SOL     OW38281   4.518   1.182   8.069  0.5269  0.3068 -0.3035
 8882SOL    HW138282   4.546   1.161   8.158 -1.2975 -0.2083  0.1544
 8882SOL    HW238283   4.517   1.093   8.035 -1.0980  0.7472 -1.4249
 8883SOL     OW38284   3.672   4.618   3.156  0.5416 -0.0801 -0.1729
 8883SOL    HW138285   3.639   4.707   3.172 -1.1143 -1.3639  3.4513
 8883SOL    HW238286   3.603   4.569   3.201  0.1472  0.2200 -0.4412
 8884SOL     OW38287   1.793   4.262   1.073 -0.6966  0.8913 -0.4152
 8884SOL    HW138288   1.776   4.168   1.065 -2.3195  1.0520  1.2976
 8884SOL    HW238289   1.849   4.276   1.149  0.4455 -0.6719 -0.9723
 8885SOL     OW38290   2.106   2.976   7.531  0.4061  0.2081  0.0135
 8885SOL    HW138291   2.150   3.040   7.587  3.0308 -1.4622 -0.0965
 8885SOL    HW238292   2.141   3.014   7.450 -0.1509 -0.5643 -0.5914
 8886SOL     OW38293   1.792   0.966   3.289 -0.0911  0.0775  0.3578
 8886SOL    HW138294   1.707   0.924   3.275 -1.8367  3.6954  0.0513
 8886SOL    HW238295   1.799   1.036   3.225 -2.2841 -0.0808 -0.0713
 8887SOL     OW38296   1.346   0.421   4.923 -0.2720  0.2003  0.2639
 8887SOL    HW138297   1.291   0.369   4.865  1.1063 -1.1483  0.1384
 8887SOL    HW238298   1.416   0.458   4.869  0.7770 -1.2838  0.5878
 8888SOL     OW38299   3.904   2.110  15.845  0.4648 -0.0114  0.2130
 8888SOL    HW138300   3.921   2.039  15.906 -1.3155  0.2223  0.9773
 8888SOL    HW238301   3.970   2.172  15.876  0.2678 -0.3781  1.3524
 8889SOL     OW38302   1.813   2.091   7.396  0.3027 -0.1188  0.0789
 8889SOL    HW138303   1.778   2.176   7.372  4.4927  1.3658 -0.7274
 8889SOL    HW238304   1.796   2.047   7.312 -2.9319  1.3596 -0.0318
 8890SOL     OW38305   2.811   4.177  15.164 -0.2887  0.0458 -0.2398
 8890SOL    HW138306   2.739   4.201  15.106 -1.3428 -0.9242  0.6766
 8890SOL    HW238307   2.860   4.117  15.108  0.6837  1.1939 -0.6342
 8891SOL     OW38308   1.083   2.629  12.960 -0.2018 -0.0469  0.5132
 8891SOL    HW138309   1.077   2.609  13.053  1.8459 -0.8093  0.4842
 8891SOL    HW238310   1.106   2.722  12.956  0.5696 -0.1850  1.6741
 8892SOL     OW38311   3.203   4.669   8.749  0.3865  0.0987  0.2345
 8892SOL    HW138312   3.262   0.004   8.741  0.1642  0.2660  0.1938
 8892SOL    HW238313   3.162   4.689   8.832 -2.0168 -2.1703 -0.4067
 8893SOL     OW38314   1.471   3.586   9.486 -0.2563 -0.0013  0.5032
 8893SOL    HW138315   1.516   3.667   9.460  0.2543 -0.8849 -1.4061
 8893SOL    HW238316   1.401   3.602   9.422 -0.1101  0.8491  0.5498
 8894SOL     OW38317   1.451   0.431   6.402  0.2026 -0.1343  0.4669
 8894SOL    HW138318   1.512   0.375   6.450 -1.7270 -0.8475  2.1095
 8894SOL    HW238319   1.454   0.502   6.466  0.2671 -1.3848  1.8783
 8895SOL     OW38320   0.103   3.070  11.535 -0.4382 -0.7379  0.0072
 8895SOL    HW138321   0.033   3.077  11.471  1.3262 -1.0484 -1.9376
 8895SOL    HW238322   0.066   3.122  11.606  0.3744 -2.7471  1.9053
 8896SOL     OW38323   0.764   0.029   1.751  0.2685 -0.0510  0.1669
 8896SOL    HW138324   0.796   0.105   1.801 -2.8233  1.7828 -0.6307
 8896SOL    HW238325   0.851   4.740   1.724 -0.3336 -0.1840 -1.5892
 8897SOL     OW38326   2.137   2.009   4.702  0.1856  0.2877  0.0156
 8897SOL    HW138327   2.045   2.015   4.729  0.5572 -2.7898  2.0476
 8897SOL    HW238328   2.133   2.076   4.634 -0.6293 -1.8768 -2.0850
 8898SOL     OW38329   3.181   1.605   4.284 -0.0387  0.0669  0.0698
 8898SOL    HW138330   3.122   1.644   4.348 -0.1465 -0.6212  0.3902
 8898SOL    HW238331   3.207   1.688   4.244 -0.7241  0.5171  0.5522
 8899SOL     OW38332   1.987   3.020   5.749  0.2116 -0.2766 -0.0608
 8899SOL    HW138333   1.947   2.938   5.778 -0.5791 -0.2140 -0.9939
 8899SOL    HW238334   1.948   3.038   5.663  2.3156  0.1959 -0.9115
 8900SOL     OW38335   3.620   0.556   3.700 -0.0227 -0.3539  0.0449
 8900SOL    HW138336   3.684   0.492   3.669  0.9400  0.0722  1.1527
 8900SOL    HW238337   3.673   0.630   3.730  2.1695 -1.6277 -0.6667
 8901SOL     OW38338   0.163   1.856  12.108 -0.0265  0.1337 -0.1201
 8901SOL    HW138339   0.222   1.902  12.048  1.8749  0.2178  1.8268
 8901SOL    HW238340   0.076   1.869  12.071  1.5671  0.1646 -3.8120
 8902SOL     OW38341   3.833   4.092   4.393 -1.0097  0.3685 -0.5737
 8902SOL    HW138342   3.863   4.073   4.304  0.4782  0.7787 -0.1621
 8902SOL    HW238343   3.919   4.077   4.433 -0.9748  1.1985 -0.3193
 8903SOL     OW38344   2.393   0.321   4.026 -0.0097 -0.5446  0.0914
 8903SOL    HW138345   2.417   0.274   4.106  0.3767 -1.2188 -0.4330
 8903SOL    HW238346   2.408   0.414   4.042  0.3550 -0.6958  0.6079
 8904SOL     OW38347   0.025   4.401   9.300  0.3303  0.0523 -0.3134
 8904SOL    HW138348   4.725   4.463   9.240 -2.2303 -2.4538 -1.1754
 8904SOL    HW238349   4.701   4.390   9.370  1.2967  0.7377  0.6838
 8905SOL     OW38350   2.331   3.714  15.179 -0.6322 -0.3796  0.3132
 8905SOL    HW138351   2.295   3.791  15.222  0.6000  0.8184 -0.8070
 8905SOL    HW238352   2.306   3.735  15.089  0.0337  0.9051  0.4301
 8906SOL     OW38353   0.416   2.427   4.073  0.0744 -0.3203 -0.0916
 8906SOL    HW138354   0.412   2.461   4.162 -0.0364  2.6425 -1.2459
 8906SOL    HW238355   0.429   2.509   4.027  1.5222 -0.3388  0.2796
 8907SOL     OW38356   2.207   2.948   9.370 -0.0443 -0.3238 -0.4662
 8907SOL    HW138357   2.148   3.016   9.336  0.1388 -0.8121 -1.7513
 8907SOL    HW238358   2.153   2.887   9.421  2.9891 -2.2109  0.4487
 8908SOL     OW38359   1.867   0.633   0.507  0.2298 -0.2021  0.1021
 8908SOL    HW138360   1.905   0.722   0.506 -1.9573  0.7509  2.1231
 8908SOL    HW238361   1.817   0.630   0.426  1.0383  0.7145 -0.4321
 8909SOL     OW38362   4.509   3.659  15.900  0.3079 -0.2685 -0.0269
 8909SOL    HW138363   4.555   3.583  15.865  3.4712  0.6038  2.2591
 8909SOL    HW238364   4.566   3.671  15.976  0.2741 -0.1878 -0.0148
 8910SOL     OW38365   2.678   3.889   2.501 -0.4392  0.3686 -0.6151
 8910SOL    HW138366   2.651   3.874   2.411 -2.1414  0.6156 -0.1451
 8910SOL    HW238367   2.773   3.901   2.507 -0.4703  1.0007 -1.4934
 8911SOL     OW38368   1.276   2.549   5.957  0.2289 -0.4770 -0.2940
 8911SOL    HW138369   1.222   2.490   5.904 -0.4291  0.8918 -1.1543
 8911SOL    HW238370   1.207   2.582   6.015  0.4462 -2.1744  0.9444
 8912SOL     OW38371   0.764   0.861  14.797 -0.6265  0.0087 -0.2903
 8912SOL    HW138372   0.765   0.802  14.873  2.5904  0.9446  0.3958
 8912SOL    HW238373   0.764   0.943  14.847  1.2448 -0.6904  0.8536
 8913SOL     OW38374   0.958   1.961  11.913  0.5530  0.5345  0.1371
 8913SOL    HW138375   0.867   1.931  11.921  0.5959  0.5241  0.5878
 8913SOL    HW238376   0.984   1.945  12.003 -2.1996 -0.2091  0.8047
 8914SOL     OW38377   4.085   0.762  17.640 -0.2198 -0.4870  0.2633
 8914SOL    HW138378   3.993   0.742  17.661 -0.4966 -0.5307 -1.0012
 8914SOL    HW238379   4.097   0.728  17.552  0.9075 -0.0328  0.2470
 8915SOL     OW38380   1.337   2.981   3.004  0.0175 -0.1650 -0.0078
 8915SOL    HW138381   1.394   2.926   3.058  1.4467  0.3443 -0.9955
 8915SOL    HW238382   1.332   3.054   3.066  1.1184  0.5699 -0.7760
 8916SOL     OW38383   1.646   1.931   6.494  0.0856  0.6816 -0.6710
 8916SOL    HW138384   1.569   1.876   6.483 -0.0812  0.6059  0.9045
 8916SOL    HW238385   1.700   1.921   6.416 -0.4630  2.7480 -1.3272
 8917SOL     OW38386   0.673   4.737   7.134  0.0312 -0.1858  0.1882
 8917SOL    HW138387   0.687   4.689   7.216 -0.1580 -1.5425 -0.5758
 8917SOL    HW238388   0.686   0.087   7.165  0.9083 -0.3063  0.1772
 8918SOL     OW38389   1.350   4.284   3.114 -0.4715 -0.3001  0.0005
 8918SOL    HW138390   1.278   4.225   3.094 -0.3004  0.1289 -1.8145
 8918SOL    HW238391   1.385   4.253   3.197 -1.9545  3.0437  1.9134
 8919SOL     OW38392   1.446   0.392   7.475  0.2947  0.2389 -0.7671
 8919SOL    HW138393   1.397   0.421   7.552 -0.6730  0.4888 -1.4826
 8919SOL    HW238394   1.523   0.355   7.519  2.2307  0.3517 -4.1071
 8920SOL     OW38395   3.553   4.519   1.197 -0.0165  0.3293 -0.1142
 8920SOL    HW138396   3.542   4.471   1.115 -0.3855 -1.3475  0.9233
 8920SOL    HW238397   3.578   4.456   1.263  0.6705  0.0655 -0.6276
 8921SOL     OW38398   1.000   4.661   7.325  0.2756 -0.1711 -0.0235
 8921SOL    HW138399   1.082   4.685   7.369  1.1867 -1.3454 -1.0883
 8921SOL    HW238400   1.026   4.590   7.266  0.4652  0.1198 -0.2905
 8922SOL     OW38401   2.250   2.785   9.041 -0.4825  0.6255  0.3654
 8922SOL    HW138402   2.316   2.770   9.109  0.0104 -0.2400 -0.3016
 8922SOL    HW238403   2.300   2.837   8.979 -0.1778 -1.4282 -1.1206
 8923SOL     OW38404   4.597   4.153   3.991  0.0952  0.0348  0.1940
 8923SOL    HW138405   4.582   4.241   4.026 -1.3582 -0.2609  0.3037
 8923SOL    HW238406   4.678   4.132   4.038  1.6760 -0.4679 -2.7374
 8924SOL     OW38407   0.619   3.271   2.224  0.3760  0.2041  1.1610
 8924SOL    HW138408   0.569   3.340   2.266 -0.1511  0.9104 -0.6600
 8924SOL    HW238409   0.712   3.295   2.229  0.2220  0.8988  0.6474
 8925SOL     OW38410   3.639   4.475   1.460  0.1884 -0.0981  0.0511
 8925SOL    HW138411   3.730   4.505   1.466 -0.8673  3.2260 -0.6391
 8925SOL    HW238412   3.648   4.387   1.495  1.5511  0.3291  0.7686
 8926SOL     OW38413   2.624   3.909   3.423 -0.6617 -0.0466  0.0952
 8926SOL    HW138414   2.549   3.861   3.456  1.4269 -3.8477 -0.7270
 8926SOL    HW238415   2.575   3.961   3.359  0.3291  0.7487 -0.0164
 8927SOL     OW38416   1.175   1.050   5.949 -0.4514 -0.4422  0.1771
 8927SOL    HW138417   1.258   1.010   5.971  0.2319  0.9327  0.0688
 8927SOL    HW238418   1.180   1.130   6.001 -2.2006 -0.0853 -0.1983
 8928SOL     OW38419   2.624   2.925   1.136 -0.0639  0.1197 -0.1157
 8928SOL    HW138420   2.532   2.943   1.156 -0.0089 -0.6677  0.8472
 8928SOL    HW238421   2.633   2.833   1.159 -0.0121  0.8402  2.8029
 8929SOL     OW38422   4.097   1.416   7.903  0.9328  0.2035  0.0557
 8929SOL    HW138423   4.150   1.375   7.835  0.5481 -1.2818  0.6513
 8929SOL    HW238424   4.164   1.443   7.965  0.6246 -0.0560  0.5054
 8930SOL     OW38425   1.812   2.817   4.871 -0.0419 -0.1745 -0.1336
 8930SOL    HW138426   1.785   2.797   4.961  2.0785 -0.4923  0.4532
 8930SOL    HW238427   1.868   2.894   4.879 -0.8588  0.5099 -1.1161
 8931SOL     OW38428   1.143   3.706   8.727 -0.5003  0.0378  0.4126
 8931SOL    HW138429   1.154   3.616   8.694 -2.0332  0.3482 -0.9145
 8931SOL    HW238430   1.072   3.699   8.790 -1.6020  2.3791 -0.5947
 8932SOL     OW38431   2.087   1.604   7.893 -0.8116 -0.3206  0.6219
 8932SOL    HW138432   2.136   1.674   7.936 -2.4434  1.1023  0.1553
 8932SOL    HW238433   2.082   1.631   7.802 -3.3743  2.0874  1.4730
 8933SOL     OW38434   0.939   1.423   2.013  0.4323  0.0039  0.9627
 8933SOL    HW138435   1.033   1.406   2.007  0.2138 -0.6886 -0.3990
 8933SOL    HW238436   0.900   1.337   2.028  1.4947 -0.6218  0.1726
 8934SOL     OW38437   3.484   0.408   3.896 -0.3159 -0.4280 -0.3809
 8934SOL    HW138438   3.526   0.329   3.933  1.0877  0.2638 -0.5120
 8934SOL    HW238439   3.529   0.440   3.818  1.8102  1.7901  1.7759
 8935SOL     OW38440   2.385   1.602   3.025 -0.4608  0.1473  0.1748
 8935SOL    HW138441   2.402   1.573   3.115  2.6826 -0.1452 -0.4916
 8935SOL    HW238442   2.334   1.681   3.040 -0.1790  1.0120 -3.5760
 8936SOL     OW38443   0.435   0.121   2.968 -0.0660 -0.1262  0.1188
 8936SOL    HW138444   0.438   0.026   2.967  1.6514 -0.0513 -1.0408
 8936SOL    HW238445   0.507   0.150   2.913  0.2950  0.1165  0.7115
 8937SOL     OW38446   4.280   0.726   2.470 -0.0363 -0.5969  0.2598
 8937SOL    HW138447   4.304   0.807   2.515 -0.6216  0.4596 -1.3369
 8937SOL    HW238448   4.352   0.674   2.506  1.7320 -0.2662 -2.8070
 8938SOL     OW38449   2.256   0.930   7.672  0.2931  0.2980  0.1231
 8938SOL    HW138450   2.213   0.865   7.615 -0.3342  1.5648 -0.8478
 8938SOL    HW238451   2.348   0.903   7.664  0.8135  1.1951  3.4416
 8939SOL     OW38452   3.794   0.325   2.619 -0.1446  0.1604 -0.0647
 8939SOL    HW138453   3.864   0.359   2.563  0.9628 -3.6061 -0.9174
 8939SOL    HW238454   3.734   0.399   2.628 -0.5013 -0.3090  1.3776
 8940SOL     OW38455   0.819   0.553   9.356  0.4192  0.1787 -0.8005
 8940SOL    HW138456   0.810   0.599   9.272  4.4589 -0.3033 -1.4975
 8940SOL    HW238457   0.741   0.589   9.397  0.1041 -0.6036 -0.7143
 8941SOL     OW38458   0.268   1.046   8.448  0.5405 -0.0690 -0.0540
 8941SOL    HW138459   0.346   0.991   8.457 -0.7275 -1.9778 -0.9485
 8941SOL    HW238460   0.253   1.062   8.541 -1.4020  0.5660 -0.4909
 8942SOL     OW38461   1.177   0.604  15.050  0.1225  0.2652  0.5545
 8942SOL    HW138462   1.236   0.535  15.079  0.0328 -0.6021 -1.3483
 8942SOL    HW238463   1.097   0.571  15.090  0.5901 -0.8738  0.5435
 8943SOL     OW38464   1.360   4.599  12.879 -0.3780 -0.0255 -0.4997
 8943SOL    HW138465   1.282   4.548  12.858  0.8712 -1.7626 -0.9207
 8943SOL    HW238466   1.424   4.533  12.908  1.3465  1.4164 -1.0447
 8944SOL     OW38467   0.982   0.665  12.880 -0.0791 -0.9257 -0.3184
 8944SOL    HW138468   0.935   0.749  12.886 -0.5102 -1.1105 -1.1023
 8944SOL    HW238469   0.988   0.655  12.975  3.0639  0.5763 -0.3631
 8945SOL     OW38470   0.480   0.798   3.781  0.7097 -0.5101  0.3070
 8945SOL    HW138471   0.390   0.813   3.755 -0.2935  2.0036  5.1991
 8945SOL    HW238472   0.520   0.769   3.699 -0.2870  0.4579 -0.5153
 8946SOL     OW38473   4.308   1.483   5.601  0.5737 -0.4144 -0.3077
 8946SOL    HW138474   4.347   1.547   5.661  0.3579 -0.7864  0.2318
 8946SOL    HW238475   4.224   1.518   5.570 -0.3286 -1.4295  0.9750
 8947SOL     OW38476   0.313   1.130  15.882 -0.2435 -0.7898 -0.3324
 8947SOL    HW138477   0.223   1.134  15.912 -0.4696  0.6874 -1.1966
 8947SOL    HW238478   0.297   1.111  15.789  1.4541 -1.0298 -0.5717
 8948SOL     OW38479   1.821   2.647   4.667  0.1664 -0.3627  0.7354
 8948SOL    HW138480   1.798   2.703   4.592  0.0192 -1.4482 -0.0339
 8948SOL    HW238481   1.821   2.714   4.735  0.1510 -0.0873  0.4642
 8949SOL     OW38482   0.255   4.493   8.687  0.0844  0.5424  0.0368
 8949SOL    HW138483   0.220   4.546   8.616 -1.1487  1.6579  1.4914
 8949SOL    HW238484   0.347   4.518   8.680  0.4261 -0.9993 -0.9415
 8950SOL     OW38485   4.270   1.048  15.271  0.5455  0.3330  0.1483
 8950SOL    HW138486   4.299   0.963  15.238 -0.0815 -0.0754  0.6681
 8950SOL    HW238487   4.201   1.031  15.335 -0.8040  0.5820 -1.2595
 8951SOL     OW38488   0.680   2.979   4.372  0.3748  0.1700 -0.5264
 8951SOL    HW138489   0.743   2.981   4.301 -0.1108  0.1417 -0.9611
 8951SOL    HW238490   0.680   3.069   4.404 -0.6846 -0.7641  2.1100
 8952SOL     OW38491   2.803   3.143   8.210  0.1950 -0.1644  0.7736
 8952SOL    HW138492   2.860   3.203   8.162  0.3145 -0.4224  0.5955
 8952SOL    HW238493   2.865   3.075   8.236 -0.0244 -1.5281 -2.3469
 8953SOL     OW38494   4.519   3.777   7.397  0.2620 -0.1096  0.3274
 8953SOL    HW138495   4.501   3.870   7.380 -1.4362 -0.2107  1.6396
 8953SOL    HW238496   4.613   3.793   7.410  0.1223  1.3975 -0.4983
 8954SOL     OW38497   1.967   3.662   3.680 -0.0309  0.0513  0.2840
 8954SOL    HW138498   2.007   3.598   3.621  1.3377  0.3152  0.9256
 8954SOL    HW238499   2.042   3.720   3.693  1.2325 -1.3943 -0.5625
 8955SOL     OW38500   0.336   1.887  10.908  0.2312 -0.2289 -0.2843
 8955SOL    HW138501   0.409   1.833  10.939  0.9206  1.4886  1.1098
 8955SOL    HW238502   0.305   1.936  10.984 -0.9828 -0.2993 -0.7348
 8956SOL     OW38503   3.709   3.276   2.390  0.4034 -0.1149 -0.0277
 8956SOL    HW138504   3.684   3.302   2.301  1.4443  1.7411  0.2149
 8956SOL    HW238505   3.686   3.352   2.444 -0.3060 -0.4794  0.1916
 8957SOL     OW38506   3.917   3.382   3.409  0.1954  0.2938  0.6409
 8957SOL    HW138507   3.954   3.333   3.483  0.7221 -0.1116  0.1095
 8957SOL    HW238508   3.932   3.320   3.338 -0.7347 -1.3434  1.8771
 8958SOL     OW38509   1.648   1.783  11.765 -0.7260  0.6623 -0.2847
 8958SOL    HW138510   1.645   1.865  11.716  0.1226 -0.7125 -2.6506
 8958SOL    HW238511   1.681   1.719  11.702  0.8671 -1.3835  2.6043
 8959SOL     OW38512   2.570   0.507   4.099 -0.2492  0.0503 -0.3232
 8959SOL    HW138513   2.583   0.460   4.182  1.5790 -0.0442 -0.6746
 8959SOL    HW238514   2.581   0.597   4.128 -1.3853  0.4159 -1.0510
 8960SOL     OW38515   3.225   1.264   8.216 -0.5462  0.0467  0.2943
 8960SOL    HW138516   3.217   1.278   8.121 -0.4319  1.4524  0.4892
 8960SOL    HW238517   3.300   1.316   8.245  0.4523 -1.8204  1.0638
 8961SOL     OW38518   0.150   2.977   3.125  0.0128 -0.7823  0.2240
 8961SOL    HW138519   0.190   2.996   3.209 -0.3061 -0.5692  0.3266
 8961SOL    HW238520   0.085   3.047   3.126 -0.4778 -1.2053 -0.8715
 8962SOL     OW38521   0.737   4.172   7.974  0.9735  0.8488  0.2659
 8962SOL    HW138522   0.812   4.114   7.985 -0.7765 -1.7311 -1.5219
 8962SOL    HW238523   0.739   4.236   8.045 -1.1416  1.4167 -0.1851
 8963SOL     OW38524   0.817   3.871   8.592  0.1036 -0.3500 -0.0153
 8963SOL    HW138525   0.900   3.840   8.628 -0.0955 -0.1851  0.5914
 8963SOL    HW238526   0.780   3.792   8.554  1.4381 -0.6359 -0.7105
 8964SOL     OW38527   2.161   1.431   8.759 -0.3553 -0.1124  0.6090
 8964SOL    HW138528   2.197   1.519   8.763  2.1491 -1.1179  0.6070
 8964SOL    HW238529   2.078   1.448   8.714  0.7654  3.1231 -0.2097
 8965SOL     OW38530   3.340   3.209  12.711  0.0058  0.1643  0.4320
 8965SOL    HW138531   3.335   3.166  12.796 -2.5458  0.3502  0.3981
 8965SOL    HW238532   3.289   3.287  12.733 -1.2592 -0.9190  1.3595
 8966SOL     OW38533   1.685   3.039   2.256 -0.0127  0.1073  0.4444
 8966SOL    HW138534   1.690   3.021   2.350 -1.1738 -0.6607  0.3714
 8966SOL    HW238535   1.593   3.024   2.235  0.8259 -3.2551 -0.7931
 8967SOL     OW38536   1.097   4.336   9.961  0.4196  0.3410 -0.3937
 8967SOL    HW138537   1.101   4.425   9.998  1.2033  0.6861 -1.3045
 8967SOL    HW238538   1.172   4.300  10.009 -0.6322 -0.1728  0.8814
 8968SOL     OW38539   0.774   4.332   8.197 -0.2428  0.3235  0.5995
 8968SOL    HW138540   0.686   4.367   8.210 -1.0174 -1.8967  1.3374
 8968SOL    HW238541   0.799   4.288   8.278  0.3785 -0.0947  0.1843
 8969SOL     OW38542   4.480   3.729   6.065  0.2597 -0.3718  0.3470
 8969SOL    HW138543   4.492   3.810   6.114 -0.7402  0.4300 -0.7548
 8969SOL    HW238544   4.450   3.751   5.977  0.4904 -1.7965 -0.0915
 8970SOL     OW38545   3.175   4.513   2.377 -0.3873 -0.3387 -0.2098
 8970SOL    HW138546   3.139   4.601   2.359  0.2438 -0.4670 -2.1038
 8970SOL    HW238547   3.270   4.511   2.374 -0.2291  0.0912  4.2697
 8971SOL     OW38548   1.504   1.254   6.910  0.3984 -0.1680 -0.0523
 8971SOL    HW138549   1.468   1.313   6.976 -1.1800 -1.5077  0.2775
 8971SOL    HW238550   1.597   1.261   6.932 -0.1628  2.4990  1.4758
 8972SOL     OW38551   0.257   2.869   3.435 -0.1823 -0.1056  0.0418
 8972SOL    HW138552   0.312   2.859   3.358 -0.7297 -1.6400 -0.1373
 8972SOL    HW238553   0.259   2.963   3.454 -1.7450 -0.6771  3.0202
 8973SOL     OW38554   0.508   0.673   2.041  0.1652 -0.8004  0.5300
 8973SOL    HW138555   0.439   0.683   1.976 -1.0760 -2.1188  1.6377
 8973SOL    HW238556   0.560   0.753   2.034  2.2272 -2.1039  0.8899
 8974SOL     OW38557   2.992   1.554  10.951 -0.1055  0.5725 -0.2067
 8974SOL    HW138558   2.989   1.632  10.895 -0.0876  1.2494  0.7280
 8974SOL    HW238559   2.968   1.599  11.032 -1.7125 -2.8542  1.2216
 8975SOL     OW38560   3.076   0.540   3.626 -0.3794  0.0600  0.3411
 8975SOL    HW138561   3.144   0.560   3.690 -0.0524  0.0293 -0.0010
 8975SOL    HW238562   2.999   0.568   3.677 -0.8520  1.6056 -1.2143
 8976SOL     OW38563   0.785   0.125   3.009  0.0343 -0.5546  0.1219
 8976SOL    HW138564   0.838   0.125   3.088 -2.0302 -1.7544  1.5131
 8976SOL    HW238565   0.759   0.216   2.998  0.0936 -0.6729 -1.0744
 8977SOL     OW38566   3.384   3.384   8.278 -0.2319  0.1431 -0.3457
 8977SOL    HW138567   3.355   3.293   8.274 -0.1492  0.2131 -2.3011
 8977SOL    HW238568   3.310   3.441   8.301 -0.7271 -0.7889  0.3956
 8978SOL     OW38569   3.414   3.496   0.350 -0.1223 -0.2023  0.3822
 8978SOL    HW138570   3.356   3.430   0.313 -0.3889 -0.2741  0.9302
 8978SOL    HW238571   3.428   3.545   0.270 -0.2036  1.3290  1.3109
 8979SOL     OW38572   2.651   0.232  15.414  0.1434 -0.1852 -0.7210
 8979SOL    HW138573   2.698   0.204  15.492  1.1499 -4.9402 -3.0331
 8979SOL    HW238574   2.714   0.221  15.343  0.6371 -1.0130 -0.1384
 8980SOL     OW38575   1.946   2.412   6.414 -0.6126  0.6387  0.1685
 8980SOL    HW138576   1.934   2.467   6.492  1.3520  0.9390  0.2752
 8980SOL    HW238577   1.911   2.327   6.438 -1.5056  1.3331  1.3394
 8981SOL     OW38578   0.420   1.197  17.731 -0.2430 -0.1228  0.0123
 8981SOL    HW138579   0.327   1.212  17.719 -0.2046  0.5060  0.5289
 8981SOL    HW238580   0.431   1.252   0.050 -0.2948 -1.3105  0.8617
 8982SOL     OW38581   3.236   0.057  12.090 -0.3147 -0.0486  0.1899
 8982SOL    HW138582   3.161   0.003  12.067  1.0535 -1.0877 -1.8314
 8982SOL    HW238583   3.189   0.120  12.145  0.3857  1.8720 -1.4290
 8983SOL     OW38584   1.046   2.091   8.260  0.1165 -0.2509 -0.2441
 8983SOL    HW138585   1.027   2.169   8.206  1.0682  0.1571  0.0126
 8983SOL    HW238586   0.997   2.113   8.340  0.5781 -0.7969  0.1852
 8984SOL     OW38587   0.303   0.055   7.398 -0.3892 -0.1214 -0.0133
 8984SOL    HW138588   0.301   4.702   7.419 -0.2752 -0.1490 -0.1220
 8984SOL    HW238589   0.232   0.063   7.334 -0.1861 -1.2001 -0.3879
 8985SOL     OW38590   0.132   1.260   1.848 -0.1583 -0.4992 -0.1438
 8985SOL    HW138591   0.181   1.288   1.925  0.5370  0.2898 -0.8687
 8985SOL    HW238592   0.147   1.166   1.852 -1.4961 -0.7796 -1.7801
 8986SOL     OW38593   3.588   0.371   4.239  0.1380  0.9461  0.0202
 8986SOL    HW138594   3.597   0.289   4.191  0.3540  1.6831 -1.1836
 8986SOL    HW238595   3.650   0.432   4.199 -0.7600  1.0961 -1.1145
 8987SOL     OW38596   4.214   2.654   3.267 -0.2095  0.2701  0.3424
 8987SOL    HW138597   4.304   2.643   3.298  0.5794 -1.5020 -2.5301
 8987SOL    HW238598   4.199   2.748   3.276 -0.4607  0.4279 -1.6373
 8988SOL     OW38599   2.153   2.919  16.664  0.1909  0.3789 -0.1895
 8988SOL    HW138600   2.121   2.919  16.574  0.0865  3.9633 -0.1702
 8988SOL    HW238601   2.228   2.859  16.656 -1.1264 -1.6653  2.9657
 8989SOL     OW38602   3.609   3.051   9.164 -0.2553 -0.0546 -0.5045
 8989SOL    HW138603   3.551   3.006   9.225  0.3893  0.5980  0.5747
 8989SOL    HW238604   3.623   2.984   9.097 -1.1527 -1.0056  0.2715
 8990SOL     OW38605   3.151   2.328  12.330  0.1514 -0.1090  0.2833
 8990SOL    HW138606   3.132   2.236  12.347 -0.3327 -0.1199 -0.3185
 8990SOL    HW238607   3.067   2.364  12.358 -0.2431  1.2774 -2.6664
 8991SOL     OW38608   0.559   4.388   3.810  0.2973 -0.4027 -0.4622
 8991SOL    HW138609   0.639   4.351   3.845  0.9426  3.2094  1.8013
 8991SOL    HW238610   0.500   4.314   3.825  0.7434 -0.6675 -0.0352
 8992SOL     OW38611   2.901   0.077   8.811  0.1784 -0.3628  0.0871
 8992SOL    HW138612   2.904   0.171   8.794  0.0371 -0.1000  1.5165
 8992SOL    HW238613   2.873   0.075   8.903  0.2478  1.8702  0.1561
 8993SOL     OW38614   2.536   2.286  16.068 -0.0046  0.7673 -0.0767
 8993SOL    HW138615   2.565   2.341  15.995  2.4515  2.7543  2.3963
 8993SOL    HW238616   2.611   2.225  16.066 -0.7664 -0.1941  0.7968
 8994SOL     OW38617   3.101   2.943   5.069 -0.2527  0.4042  0.0292
 8994SOL    HW138618   3.146   2.902   5.143  0.3913 -0.8768 -1.0634
 8994SOL    HW238619   3.163   2.924   4.999 -1.6063  0.3833 -1.1653
 8995SOL     OW38620   3.887   0.341   0.551 -0.3130  1.0039 -0.1435
 8995SOL    HW138621   3.958   0.398   0.577 -0.4875  1.4234 -0.5880
 8995SOL    HW238622   3.842   0.395   0.486 -0.0990  0.8802 -0.3924
 8996SOL     OW38623   1.423   0.154   3.145 -0.0649  0.4724 -0.8178
 8996SOL    HW138624   1.421   0.118   3.233 -1.7966  1.6598 -0.3658
 8996SOL    HW238625   1.464   0.238   3.166 -0.2122 -0.0762  1.7156
 8997SOL     OW38626   3.494   1.331  16.851 -0.1764 -0.0952  0.3072
 8997SOL    HW138627   3.557   1.263  16.877  1.3111  0.9729 -0.5339
 8997SOL    HW238628   3.412   1.283  16.863 -0.5162  0.3096 -0.3937
 8998SOL     OW38629   4.267   3.149  15.636 -0.2281 -0.1854  0.3675
 8998SOL    HW138630   4.248   3.074  15.580 -0.6319  2.2679 -2.7828
 8998SOL    HW238631   4.203   3.129  15.704  0.0721 -0.1375  0.6704
 8999SOL     OW38632   0.734   1.034   0.888 -0.3443  0.4437  0.6441
 8999SOL    HW138633   0.711   1.043   0.981 -0.3793  1.0180  0.5806
 8999SOL    HW238634   0.683   0.960   0.854  1.8115 -1.0581  0.6369
 9000SOL     OW38635   0.997   3.809   9.472 -0.6390  0.6508  0.2972
 9000SOL    HW138636   1.039   3.816   9.386 -0.6730  1.1211  0.3202
 9000SOL    HW238637   0.975   3.897   9.501  0.3576  0.7147  0.8665
 9001SOL     OW38638   2.779   0.093   5.580  0.5922  0.1478 -0.0722
 9001SOL    HW138639   2.719   0.150   5.533  0.9818 -0.3855 -1.2160
 9001SOL    HW238640   2.854   0.121   5.527  1.0582 -0.2635  0.3684
 9002SOL     OW38641   0.657   0.601   8.731  0.1722  0.0924  0.0523
 9002SOL    HW138642   0.631   0.687   8.697  1.2243 -0.5370 -2.3482
 9002SOL    HW238643   0.723   0.572   8.668 -0.0713  0.1001 -0.2030
 9003SOL     OW38644   3.886   4.674   6.916  0.4586 -0.1518 -0.7768
 9003SOL    HW138645   3.895   4.579   6.915 -1.8376 -0.4093  2.1775
 9003SOL    HW238646   3.819   4.695   6.851  0.1402  0.3074 -0.3081
 9004SOL     OW38647   3.781   2.430  13.732 -0.1734  0.9692  0.3671
 9004SOL    HW138648   3.845   2.500  13.716 -1.4946  2.0644 -0.1602
 9004SOL    HW238649   3.720   2.477  13.789  0.2416  0.8015  0.9515
 9005SOL     OW38650   0.178   3.553  15.465 -0.1025  0.1565 -0.0620
 9005SOL    HW138651   0.189   3.477  15.523  0.2996  1.0649  1.0678
 9005SOL    HW238652   0.242   3.610  15.507  0.0431 -0.4138  0.4930
 9006SOL     OW38653   0.358   3.963   4.846 -0.3401  0.4031  0.0077
 9006SOL    HW138654   0.431   3.952   4.785 -0.0593 -1.4132  0.6464
 9006SOL    HW238655   0.342   4.056   4.830  3.9870  1.0548 -0.4605
 9007SOL     OW38656   0.220   3.344  12.355 -0.3534  0.5109  0.4893
 9007SOL    HW138657   0.219   3.388  12.270  1.7906 -0.2332  0.0892
 9007SOL    HW238658   0.149   3.283  12.335  0.3757 -0.7529  1.7514
 9008SOL     OW38659   0.410   1.033   9.664  0.1288  0.8561 -0.2226
 9008SOL    HW138660   0.499   1.017   9.696  0.1836  0.1286 -0.7266
 9008SOL    HW238661   0.344   0.977   9.705  0.3129  0.8559  0.0769
 9009SOL     OW38662   0.937   3.918  11.729 -0.4841 -0.3575 -0.1539
 9009SOL    HW138663   0.998   3.892  11.660 -1.3356 -1.6046 -0.4263
 9009SOL    HW238664   0.857   3.908  11.677  0.0307 -1.2279 -0.7724
 9010SOL     OW38665   3.614   2.529  16.258 -0.0950  0.1442 -0.7858
 9010SOL    HW138666   3.562   2.605  16.284  0.5754 -0.1022  1.2682
 9010SOL    HW238667   3.704   2.554  16.276  0.2404 -2.3431  1.0180
 9011SOL     OW38668   2.429   1.109   4.573  0.1337  0.1676 -0.0193
 9011SOL    HW138669   2.470   1.188   4.608 -0.8941  0.4122  0.6535
 9011SOL    HW238670   2.502   1.058   4.540 -0.6703 -1.7404  1.1418
 9012SOL     OW38671   3.404   3.058   7.952  0.5657 -0.3950 -0.0121
 9012SOL    HW138672   3.334   3.014   7.904 -0.0874  0.9694 -0.3236
 9012SOL    HW238673   3.357   3.138   7.976 -1.4070 -1.5406 -0.0791
 9013SOL     OW38674   1.273   1.211   7.315 -0.4105  0.1284 -0.5390
 9013SOL    HW138675   1.207   1.188   7.380  0.9176 -2.6125 -0.1728
 9013SOL    HW238676   1.316   1.126   7.308 -1.2438 -0.1209 -2.6292
 9014SOL     OW38677   2.069   2.133   3.795  0.4290 -0.2809  0.6772
 9014SOL    HW138678   2.019   2.087   3.863 -2.1770  0.5333 -0.6626
 9014SOL    HW238679   2.008   2.106   3.726  1.1715  1.2515 -0.5866
 9015SOL     OW38680   2.607   3.751   8.351  0.0131  0.5445 -0.6397
 9015SOL    HW138681   2.596   3.657   8.365 -0.1207  0.2011 -3.1204
 9015SOL    HW238682   2.519   3.786   8.349 -0.7995 -1.3813  0.4817
 9016SOL     OW38683   0.785   2.494   2.937  0.0626 -0.4807 -0.1366
 9016SOL    HW138684   0.706   2.536   2.971 -1.1264 -0.3459 -3.1073
 9016SOL    HW238685   0.827   2.457   3.014 -0.9967 -0.3374  0.5092
 9017SOL     OW38686   2.885   0.656   4.040 -0.1114 -0.3540 -0.5192
 9017SOL    HW138687   2.926   0.582   4.084  0.7280  0.6307  0.3358
 9017SOL    HW238688   2.873   0.724   4.106 -0.7102 -0.7789 -0.1920
 9018SOL     OW38689   4.571   1.168  11.369  0.2128 -0.0631 -0.4991
 9018SOL    HW138690   4.495   1.111  11.372  1.2882 -1.5294 -1.1034
 9018SOL    HW238691   4.638   1.100  11.359 -1.0984 -1.5553  0.7997
 9019SOL     OW38692   1.582   1.060   6.179 -0.1890  0.2605  0.4052
 9019SOL    HW138693   1.668   1.042   6.141 -0.9786 -1.5408 -0.5393
 9019SOL    HW238694   1.598   1.132   6.240 -1.0093  0.3990  0.4583
 9020SOL     OW38695   3.141   4.583   3.711 -0.4532  0.0208 -0.1326
 9020SOL    HW138696   3.050   4.564   3.734 -0.8234  1.2363 -0.5736
 9020SOL    HW238697   3.182   4.497   3.719 -0.0472  0.3301  1.0913
 9021SOL     OW38698   0.369   2.585   9.219 -0.1452 -0.4949 -0.0986
 9021SOL    HW138699   0.280   2.607   9.247 -0.6310 -2.7537  0.1694
 9021SOL    HW238700   0.353   2.541   9.135 -0.8556  0.7456 -0.6185
 9022SOL     OW38701   3.531   1.145   1.168 -0.0367  0.1718 -0.3726
 9022SOL    HW138702   3.560   1.134   1.078  2.4743  1.7408  0.2456
 9022SOL    HW238703   3.518   1.239   1.172  0.6553  0.1849  1.8181
 9023SOL     OW38704   3.194   0.224   4.861 -0.1800  0.3653 -0.1953
 9023SOL    HW138705   3.120   0.173   4.829 -1.2659  0.6397  1.9260
 9023SOL    HW238706   3.247   0.220   4.781  0.3217  1.7510  0.0548
 9024SOL     OW38707   3.947   1.350   7.284  0.8473  0.6215  0.2678
 9024SOL    HW138708   3.865   1.389   7.314 -1.1997 -1.1559 -2.9534
 9024SOL    HW238709   3.927   1.356   7.191 -1.1598  1.1146  0.7191
 9025SOL     OW38710   2.002   0.765   2.388  0.2147 -0.7354 -0.1076
 9025SOL    HW138711   2.078   0.718   2.423 -0.5844 -3.1500 -1.6189
 9025SOL    HW238712   1.950   0.705   2.335 -0.7974 -1.1709  1.3717
 9026SOL     OW38713   0.468   0.120   3.587  0.0213 -0.2285  0.5997
 9026SOL    HW138714   0.427   0.048   3.636 -1.1720 -1.3374 -2.0081
 9026SOL    HW238715   0.561   0.101   3.597  0.6675  1.0377 -3.1035
 9027SOL     OW38716   4.566   2.234   4.513  0.6092  0.1156  0.3588
 9027SOL    HW138717   4.516   2.153   4.513 -0.9093  1.0518 -1.2007
 9027SOL    HW238718   4.497   2.299   4.529  0.3635  0.8611 -3.7036
 9028SOL     OW38719   2.357   2.750   6.943 -0.2016  0.4740 -0.0701
 9028SOL    HW138720   2.322   2.762   7.032  3.6572 -3.0685  1.9235
 9028SOL    HW238721   2.451   2.758   6.953 -0.0446  0.0432 -1.2718
 9029SOL     OW38722   4.261   2.026   8.766 -0.3360 -0.2458 -0.4090
 9029SOL    HW138723   4.252   1.969   8.690 -0.4065 -0.3748 -0.3042
 9029SOL    HW238724   4.248   1.963   8.837  0.6188  1.8534  1.6751
 9030SOL     OW38725   2.637   0.170  15.907 -0.0855  0.8210 -0.3001
 9030SOL    HW138726   2.646   0.090  15.959 -1.6794 -0.1406 -1.5179
 9030SOL    HW238727   2.590   0.138  15.830 -1.4950  0.4988  0.6948
 9031SOL     OW38728   4.705   0.569   6.775  0.0866 -0.3664 -0.0657
 9031SOL    HW138729   4.675   0.488   6.734  1.1409 -0.3259 -0.9306
 9031SOL    HW238730   4.622   0.600   6.811 -0.1608 -1.8749  0.6484
 9032SOL     OW38731   3.715   3.623   7.530 -0.3937 -0.2822  0.3100
 9032SOL    HW138732   3.635   3.676   7.521  0.2372  0.5621 -0.2450
 9032SOL    HW238733   3.775   3.674   7.583 -0.7643  1.5436 -1.0300
 9033SOL     OW38734   1.282   2.872   4.954  0.0474  0.7327 -0.0832
 9033SOL    HW138735   1.266   2.820   4.876  2.4377 -2.3254  1.4620
 9033SOL    HW238736   1.198   2.911   4.978 -0.5924 -0.7837  0.1042
 9034SOL     OW38737   4.678   1.979  16.306  0.1496 -0.0065  0.2434
 9034SOL    HW138738   4.639   1.958  16.222  1.1581  0.5633 -0.3738
 9034SOL    HW238739   4.619   1.944  16.372 -0.2911 -0.1037 -0.2032
 9035SOL     OW38740   0.796   4.188   7.359  0.2579  0.5379 -0.1795
 9035SOL    HW138741   0.885   4.156   7.345  0.4456  0.5337  0.9937
 9035SOL    HW238742   0.808   4.232   7.443 -2.4804  0.1026  0.4602
 9036SOL     OW38743   4.407   0.620   6.281  0.1745 -0.7990  0.2608
 9036SOL    HW138744   4.383   0.711   6.263  1.0576 -0.5336  0.4501
 9036SOL    HW238745   4.376   0.610   6.371 -1.9007  0.9825 -0.2504
 9037SOL     OW38746   3.934   3.237   8.858  0.0439 -0.3620 -0.6692
 9037SOL    HW138747   4.005   3.282   8.903 -0.0977 -1.8016  0.9890
 9037SOL    HW238748   3.936   3.160   8.915  1.7876 -0.9781 -1.5658
 9038SOL     OW38749   2.759   4.578   6.907  0.0566  0.4247 -0.1153
 9038SOL    HW138750   2.834   4.541   6.859  0.9160  1.2335  0.5927
 9038SOL    HW238751   2.747   4.514   6.977 -0.7166 -0.4104 -1.0139
 9039SOL     OW38752   2.331   4.374   3.444  0.0106 -0.0847  0.2940
 9039SOL    HW138753   2.269   4.379   3.518  0.1759  0.6557  0.3829
 9039SOL    HW238754   2.345   4.466   3.422 -1.9371  0.2575  0.4424
 9040SOL     OW38755   0.661   1.896   2.949  0.1295  0.1836 -0.5758
 9040SOL    HW138756   0.585   1.860   2.904  0.4438 -1.1206 -0.0661
 9040SOL    HW238757   0.728   1.836   2.916  2.4070  1.3480  1.9337
 9041SOL     OW38758   2.546   3.032  16.235 -0.1680 -0.1520 -0.6335
 9041SOL    HW138759   2.549   3.079  16.151  0.0296 -0.6134 -0.8785
 9041SOL    HW238760   2.462   3.048  16.279  1.4449  0.6591  2.2061
 9042SOL     OW38761   2.036   3.697   7.587 -0.8281  0.0046 -0.3575
 9042SOL    HW138762   1.995   3.783   7.592  0.6956  0.7156 -0.0682
 9042SOL    HW238763   1.972   3.628   7.606  1.6115 -1.9345  1.0473
 9043SOL     OW38764   4.716   3.809   2.524  0.2756  0.7584  0.2851
 9043SOL    HW138765   0.046   3.854   2.571  1.5943 -2.4672  1.4045
 9043SOL    HW238766   4.686   3.886   2.475  1.9501  0.8561 -0.6143
 9044SOL     OW38767   1.106   1.248   3.532 -0.0009 -0.1606  0.4009
 9044SOL    HW138768   1.184   1.214   3.576 -0.1492 -0.9980  0.0262
 9044SOL    HW238769   1.077   1.306   3.601 -0.2620  1.9589 -1.4927
 9045SOL     OW38770   1.431   4.723   7.171  0.0374 -0.4461 -0.7702
 9045SOL    HW138771   1.418   4.678   7.087  0.5928  0.0802 -1.1326
 9045SOL    HW238772   1.346   0.025   7.175 -0.4100 -1.4148 -0.0035
 9046SOL     OW38773   1.245   2.534   6.814 -0.5569 -0.1765 -0.2084
 9046SOL    HW138774   1.255   2.463   6.751 -1.6022 -2.4907  2.2108
 9046SOL    HW238775   1.334   2.563   6.836  0.4827 -0.6614 -3.6998
 9047SOL     OW38776   3.016   4.470   0.918 -0.1496  0.3489  0.5366
 9047SOL    HW138777   2.958   4.497   0.989 -1.0276  0.0595 -0.0702
 9047SOL    HW238778   3.004   4.544   0.858  0.0612 -0.8252 -0.9383
 9048SOL     OW38779   2.653   4.692   2.807  0.4569  0.1461  0.0175
 9048SOL    HW138780   2.642   4.660   2.718 -1.7639 -1.9491  1.0556
 9048SOL    HW238781   2.693   0.038   2.803  1.6190 -0.4069 -0.3213
 9049SOL     OW38782   3.999   2.020   8.588 -0.5066 -0.3431 -0.1971
 9049SOL    HW138783   4.045   1.978   8.515  2.2701  2.5242 -0.0618
 9049SOL    HW238784   3.947   2.091   8.550 -0.4402 -0.8249 -1.1839
 9050SOL     OW38785   2.157   2.629  16.936  0.4386 -0.3975  0.2680
 9050SOL    HW138786   2.154   2.615  16.841  1.0970  2.2904 -0.1281
 9050SOL    HW238787   2.206   2.710  16.944 -2.6319  1.3525  1.2254
 9051SOL     OW38788   2.664   2.320   3.704 -0.3368 -0.1460  0.4816
 9051SOL    HW138789   2.634   2.230   3.699  0.5573 -0.5377  2.3769
 9051SOL    HW238790   2.662   2.339   3.798 -1.1687 -1.0224  0.6443
 9052SOL     OW38791   2.999   2.837   1.015  0.6731  0.0103  0.1274
 9052SOL    HW138792   3.006   2.795   0.929  0.8914  2.4517 -1.0441
 9052SOL    HW238793   3.086   2.834   1.055  0.7151  4.4671  0.2979
 9053SOL     OW38794   0.266   2.948   4.528  0.1615  0.2132 -0.3254
 9053SOL    HW138795   0.267   3.041   4.551  1.7142  0.3754 -1.1015
 9053SOL    HW238796   0.276   2.908   4.615 -1.9173 -1.0383 -0.6599
 9054SOL     OW38797   2.811   0.576  17.247  0.3250 -0.0506  0.4075
 9054SOL    HW138798   2.733   0.520  17.251  0.5022 -0.3866 -1.0489
 9054SOL    HW238799   2.881   0.517  17.272  0.9561  1.0592  1.2603
 9055SOL     OW38800   0.366   3.295   8.176  0.1093 -0.6661  0.2188
 9055SOL    HW138801   0.322   3.357   8.235 -1.0458 -0.4907 -0.8199
 9055SOL    HW238802   0.407   3.356   8.114 -0.3356 -0.1537  0.4314
 9056SOL     OW38803   0.306   2.697   2.015 -0.5002 -0.1383 -0.0907
 9056SOL    HW138804   0.375   2.759   1.992  0.3634 -1.4641 -1.0136
 9056SOL    HW238805   0.368   2.625   2.026 -0.1790  0.6959  3.8720
 9057SOL     OW38806   1.227   1.872   4.994  0.0332  0.2497 -0.3104
 9057SOL    HW138807   1.164   1.829   4.935  0.6659  1.3288 -1.7575
 9057SOL    HW238808   1.301   1.895   4.938 -0.1629 -0.7867 -1.0061
 9058SOL     OW38809   0.342   1.389   3.512  0.4896 -0.2869 -1.0985
 9058SOL    HW138810   0.425   1.344   3.529  0.5230  0.4598  0.7804
 9058SOL    HW238811   0.350   1.456   3.580 -0.3190 -0.8913 -0.4179
 9059SOL     OW38812   3.125   2.043   8.984  0.3086 -0.3372 -0.2010
 9059SOL    HW138813   3.177   2.123   8.996  0.2090 -0.2282 -0.4904
 9059SOL    HW238814   3.182   1.977   9.023 -0.2757 -0.3477  0.6516
 9060SOL     OW38815   3.536   1.526   3.329  0.0732  0.2822 -0.3462
 9060SOL    HW138816   3.561   1.436   3.349 -1.8230 -0.3308 -0.6850
 9060SOL    HW238817   3.533   1.514   3.234  0.1025  0.3250 -0.3524
 9061SOL     OW38818   1.311   1.000   8.250  0.4362  0.0920 -0.4571
 9061SOL    HW138819   1.330   1.046   8.331 -0.2823 -0.5231  0.0564
 9061SOL    HW238820   1.230   1.043   8.221  0.2502 -0.0104 -0.0843
 9062SOL     OW38821   2.064   4.607  16.172  0.4886 -0.0203  0.4977
 9062SOL    HW138822   2.037   4.618  16.081  0.0433 -3.9832  0.1527
 9062SOL    HW238823   2.042   4.695  16.202  0.3594  0.1586 -0.1090
 9063SOL     OW38824   3.910   2.233   3.646 -0.8743  0.0126  0.2565
 9063SOL    HW138825   3.891   2.273   3.561  1.2436  2.1018  0.7779
 9063SOL    HW238826   3.847   2.287   3.693 -0.1650 -2.2997  3.8760
 9064SOL     OW38827   0.966   3.602  15.021 -0.4045  0.0865 -0.1510
 9064SOL    HW138828   0.872   3.600  15.035 -0.5753 -0.3126 -1.3926
 9064SOL    HW238829   0.968   3.559  14.936 -2.5971  0.3485 -0.3149
 9065SOL     OW38830   4.600   4.327  14.407  0.0599  0.3305  0.0719
 9065SOL    HW138831   4.655   4.400  14.378  0.9029  0.2071  1.3928
 9065SOL    HW238832   4.558   4.364  14.485  0.9503  0.5393  0.4532
 9066SOL     OW38833   2.838   0.129   9.659 -0.0889  0.0568  0.4677
 9066SOL    HW138834   2.769   0.123   9.726 -0.4780 -1.2810 -0.0372
 9066SOL    HW238835   2.915   0.155   9.708  0.0030 -1.5020  1.1347
 9067SOL     OW38836   1.565   3.802   2.469 -0.0203 -0.7451  0.3155
 9067SOL    HW138837   1.605   3.876   2.515 -0.1646 -0.7300  0.4182
 9067SOL    HW238838   1.622   3.779   2.397 -2.2117 -3.8359 -0.4335
 9068SOL     OW38839   0.680   2.105   5.098  0.2883  0.0889  0.7146
 9068SOL    HW138840   0.724   2.109   5.013 -1.0283 -0.5439 -0.0006
 9068SOL    HW238841   0.748   2.125   5.162  0.1861  0.8040  0.6002
 9069SOL     OW38842   4.532   1.670   6.802 -0.2510 -0.4131  0.2763
 9069SOL    HW138843   4.483   1.752   6.793 -2.2819 -1.6017  0.5517
 9069SOL    HW238844   4.569   1.659   6.714 -1.7747 -2.3807 -0.1252
 9070SOL     OW38845   2.052   0.296   2.693 -0.3801  0.3312 -0.3842
 9070SOL    HW138846   2.126   0.336   2.739  0.2805  1.2801 -2.2294
 9070SOL    HW238847   2.100   0.218   2.666  2.0532  1.6208  0.2505
 9071SOL     OW38848   0.272   1.978   3.354 -0.5646 -1.1767  0.3876
 9071SOL    HW138849   0.288   1.991   3.261  0.9022  1.2359  0.9710
 9071SOL    HW238850   0.356   1.950   3.389  0.6184  1.2893 -0.4908
 9072SOL     OW38851   4.062   0.534  14.885  0.2713  0.3779 -0.1083
 9072SOL    HW138852   4.131   0.589  14.922  0.2508  2.5840 -3.3143
 9072SOL    HW238853   4.087   0.519  14.794 -1.1740 -2.4538 -0.0594
 9073SOL     OW38854   1.386   0.524   4.012  0.1486 -0.2380  0.6257
 9073SOL    HW138855   1.350   0.566   4.090 -0.7993 -1.0782  0.6456
 9073SOL    HW238856   1.440   0.462   4.062  0.1233 -0.2740  0.6086
 9074SOL     OW38857   0.982   3.230  10.885 -0.7915 -0.2186 -0.4811
 9074SOL    HW138858   1.039   3.234  10.962 -2.6246 -0.1945  0.8775
 9074SOL    HW238859   1.048   3.263  10.824 -0.4075 -2.5626 -1.3560
 9075SOL     OW38860   4.102   2.670  15.575 -0.1718 -0.5051  0.1484
 9075SOL    HW138861   4.118   2.587  15.530 -1.4908 -1.0010  0.5907
 9075SOL    HW238862   4.087   2.627  15.659 -1.3896 -0.2502  0.0667
 9076SOL     OW38863   1.215   2.640   9.964  0.1853  0.0241  0.0735
 9076SOL    HW138864   1.295   2.589   9.981 -0.3634 -0.4870  1.0987
 9076SOL    HW238865   1.167   2.633  10.046 -1.9095 -1.1518 -1.2572
 9077SOL     OW38866   0.255   3.947   9.207 -0.2374  0.4983 -0.0346
 9077SOL    HW138867   0.250   4.034   9.246  0.9365  1.1532 -1.3507
 9077SOL    HW238868   0.287   3.965   9.119 -1.6649 -1.7086 -1.0137
 9078SOL     OW38869   1.243   1.827   4.674 -0.3200  0.2206  0.5817
 9078SOL    HW138870   1.258   1.755   4.734 -2.2446 -2.9392 -2.7479
 9078SOL    HW238871   1.159   1.804   4.634  1.3281 -0.3319 -2.5868
 9079SOL     OW38872   3.840   4.708   2.931 -0.4364  0.2059  0.0214
 9079SOL    HW138873   3.806   0.045   2.885 -0.2468  0.9049  1.0555
 9079SOL    HW238874   3.787   4.685   3.007 -1.7238 -2.0134 -1.5525
 9080SOL     OW38875   2.896   0.025   1.796  0.7215 -0.0337  0.0651
 9080SOL    HW138876   2.973   0.013   1.852  1.8456  0.1991 -1.4396
 9080SOL    HW238877   2.908   0.107   1.749  1.1035 -0.5763 -0.7966
 9081SOL     OW38878   0.040   0.685   5.341  0.1191  0.0154  0.0540
 9081SOL    HW138879   0.046   0.601   5.296  0.0585 -0.5010  1.0234
 9081SOL    HW238880   0.002   0.660   5.425  3.2702 -1.1110  1.1587
 9082SOL     OW38881   0.028   0.937  17.596  0.1250 -0.0448 -0.2280
 9082SOL    HW138882   4.679   0.907  17.575 -0.4801  1.6217  0.0066
 9082SOL    HW238883   0.045   0.986  17.516 -0.1054 -1.0103 -0.8731
 9083SOL     OW38884   4.607   4.215   5.585  0.0316  0.0501 -0.2622
 9083SOL    HW138885   4.540   4.283   5.591  0.2883  0.4369 -1.8625
 9083SOL    HW238886   4.674   4.243   5.523  0.1546  0.4606  0.0585
 9084SOL     OW38887   2.011   4.251   2.972  0.3662  0.7274 -0.3908
 9084SOL    HW138888   2.055   4.176   3.012 -1.7356 -0.3065  0.0046
 9084SOL    HW238889   2.070   4.321   2.999 -0.8688  1.5943  0.0829
 9085SOL     OW38890   2.738   2.461   7.252  0.1182  0.3069  0.1169
 9085SOL    HW138891   2.676   2.410   7.200 -0.3011  0.2481  0.6767
 9085SOL    HW238892   2.761   2.525   7.185  2.8991  1.4037  2.1287
 9086SOL     OW38893   1.525   4.641   9.419 -0.0433 -0.2712 -0.1350
 9086SOL    HW138894   1.536   4.649   9.325 -0.3906  0.4790 -0.1101
 9086SOL    HW238895   1.594   4.575   9.427 -1.3400 -1.4581  1.4038
 9087SOL     OW38896   0.971   0.638  15.737 -0.5133 -0.6310 -0.6224
 9087SOL    HW138897   1.061   0.632  15.707 -0.6119  1.8894 -1.4553
 9087SOL    HW238898   0.948   0.726  15.767 -0.3784 -0.7732 -0.1045
 9088SOL     OW38899   3.272   2.068   2.835 -0.2780  0.0804 -0.3887
 9088SOL    HW138900   3.244   1.995   2.890 -0.5763  1.7119  1.6349
 9088SOL    HW238901   3.322   2.118   2.900  0.7154 -1.1328 -0.2212
 9089SOL     OW38902   2.061   4.200   6.362 -0.1391 -0.8868 -0.4798
 9089SOL    HW138903   1.995   4.269   6.365  0.3948 -0.3182 -1.8251
 9089SOL    HW238904   2.140   4.254   6.362 -1.3973  0.9322 -0.8817
 9090SOL     OW38905   3.979   3.660   8.617 -0.6086 -0.3058  0.2143
 9090SOL    HW138906   3.923   3.673   8.694 -0.9619 -1.2384  0.1103
 9090SOL    HW238907   4.020   3.574   8.633 -0.3821  0.1224  1.9489
 9091SOL     OW38908   3.561   1.703   1.949  0.3663 -0.3650  0.8424
 9091SOL    HW138909   3.513   1.662   2.020 -0.0653  1.0202  1.3526
 9091SOL    HW238910   3.649   1.714   1.985  0.3169  3.2365 -0.0970
 9092SOL     OW38911   3.134   2.637   1.349  0.0214  0.7655  0.0658
 9092SOL    HW138912   3.112   2.729   1.357 -0.4259  0.6335  0.3330
 9092SOL    HW238913   3.227   2.662   1.357 -0.0800  0.5796  1.8199
 9093SOL     OW38914   2.843   3.360   2.181  0.0828 -0.2288 -0.5268
 9093SOL    HW138915   2.905   3.373   2.110  0.9541 -1.2436  0.0525
 9093SOL    HW238916   2.861   3.428   2.245 -2.2908  0.0379 -0.1202
 9094SOL     OW38917   0.104   3.907  15.816  0.1049  0.5777 -0.3886
 9094SOL    HW138918   0.153   3.980  15.779  1.6882  0.0608  0.6563
 9094SOL    HW238919   0.013   3.932  15.804 -0.2927 -1.4147 -1.4770
 9095SOL     OW38920   2.979   3.357   5.166 -0.0253 -0.2542  0.7213
 9095SOL    HW138921   2.918   3.286   5.146  0.1461  0.1481 -1.2490
 9095SOL    HW238922   3.060   3.307   5.182 -0.7024 -1.1130  1.4704
 9096SOL     OW38923   1.370   1.868   9.040  0.2698  0.1894 -0.4268
 9096SOL    HW138924   1.436   1.852   9.107 -1.0582 -0.9717  0.6066
 9096SOL    HW238925   1.390   1.797   8.978 -0.6007 -0.9403  0.5769
 9097SOL     OW38926   4.298   4.075   0.203  0.1901 -0.0458 -0.0401
 9097SOL    HW138927   4.386   4.107   0.223  1.4411 -3.9875  0.8843
 9097SOL    HW238928   4.297   4.113   0.115  0.4104  0.2115  0.0711
 9098SOL     OW38929   3.459   0.253   2.504  0.2204 -0.0903 -0.1851
 9098SOL    HW138930   3.543   0.228   2.464  0.4174  2.0405 -1.1089
 9098SOL    HW238931   3.417   0.319   2.449  0.9752  1.3527  0.9741
 9099SOL     OW38932   0.047   4.698   9.063  0.1417 -0.1082  0.3450
 9099SOL    HW138933   0.014   4.739   9.143 -0.0503 -2.7911  1.6439
 9099SOL    HW238934   4.712   4.643   9.042 -0.1855  0.4113  0.1378
 9100SOL     OW38935   3.479   0.880   1.798  0.5234  0.2261  0.0258
 9100SOL    HW138936   3.469   0.788   1.773 -0.3955  0.6913 -1.3368
 9100SOL    HW238937   3.393   0.893   1.837  0.3926 -0.1063 -0.1510
 9101SOL     OW38938   2.044   0.972  14.677  0.2225  0.3137  0.1821
 9101SOL    HW138939   2.098   0.908  14.724  1.6495  1.1796 -0.3055
 9101SOL    HW238940   2.087   0.977  14.592  1.1193 -1.0648  0.5611
 9102SOL     OW38941   2.342   3.443  15.242  0.5377 -0.1245 -0.8046
 9102SOL    HW138942   2.433   3.428  15.215  0.7090  0.4894 -0.5747
 9102SOL    HW238943   2.339   3.535  15.215 -0.1349  0.2836  0.7188
 9103SOL     OW38944   0.032   4.341   3.198  0.1212  0.3419  0.6572
 9103SOL    HW138945   0.065   4.424   3.231  0.6576 -0.7376  2.8308
 9103SOL    HW238946   0.117   4.302   3.176 -0.9218 -1.3163 -0.4773
 9104SOL     OW38947   1.539   4.406   3.828 -0.1965  0.2543 -0.1754
 9104SOL    HW138948   1.599   4.400   3.902 -2.7306  1.0668  1.9292
 9104SOL    HW238949   1.591   4.385   3.750 -0.1882  2.3077 -0.7304
 9105SOL     OW38950   1.410   0.633   1.773 -0.3515 -0.0130 -0.3572
 9105SOL    HW138951   1.443   0.680   1.850 -0.2740  0.1585 -0.4962
 9105SOL    HW238952   1.482   0.573   1.753 -0.7081 -0.7447  0.5062
 9106SOL     OW38953   2.825   2.625   3.538 -0.1280 -0.5572 -0.1286
 9106SOL    HW138954   2.818   2.687   3.611 -2.8903  0.1937 -1.0399
 9106SOL    HW238955   2.753   2.652   3.480 -1.6418 -1.6320  1.2451
 9107SOL     OW38956   4.460   4.731   7.145  0.3758  0.3048 -0.7536
 9107SOL    HW138957   4.398   0.045   7.096 -1.0986 -1.2735 -0.6258
 9107SOL    HW238958   4.412   4.701   7.222  0.1096  0.9347 -0.6773
 9108SOL     OW38959   0.924   2.793   8.065 -0.4452 -0.3663 -0.6986
 9108SOL    HW138960   0.828   2.799   8.064 -0.5105 -1.0947  2.3751
 9108SOL    HW238961   0.943   2.837   8.147  0.6946 -2.0217 -0.0834
 9109SOL     OW38962   0.743   0.918  11.768  0.4980 -0.2416 -0.0657
 9109SOL    HW138963   0.676   0.971  11.811 -1.0869  0.0736 -2.9412
 9109SOL    HW238964   0.786   0.992  11.726  0.0860 -1.5751 -2.8052
 9110SOL     OW38965   3.566   3.654   7.139 -0.1687  0.4257 -0.4560
 9110SOL    HW138966   3.587   3.743   7.169 -0.1049  0.0883  0.5197
 9110SOL    HW238967   3.648   3.625   7.099 -0.1890 -0.5802  0.2348
 9111SOL     OW38968   2.755   1.312   2.136 -0.0766  0.1049 -0.2356
 9111SOL    HW138969   2.811   1.389   2.128 -0.4994  0.3905 -0.4648
 9111SOL    HW238970   2.721   1.289   2.049 -1.6599  0.8973  0.1712
 9112SOL     OW38971   2.673   1.817   3.178  0.2729  0.2145 -0.3203
 9112SOL    HW138972   2.707   1.851   3.261 -0.9019 -0.0734  0.2861
 9112SOL    HW238973   2.659   1.899   3.130 -2.1513  0.9837  1.6384
 9113SOL     OW38974   4.326   1.615   8.228  0.0864  0.7115 -0.1647
 9113SOL    HW138975   4.413   1.636   8.262 -0.2705  0.3211  0.9860
 9113SOL    HW238976   4.352   1.565   8.150 -0.2385 -1.3944  1.0741
 9114SOL     OW38977   4.233   3.648   1.407 -0.7948 -0.0850 -0.2060
 9114SOL    HW138978   4.227   3.663   1.501 -2.1296 -0.6134 -0.2120
 9114SOL    HW238979   4.315   3.599   1.395 -1.0053 -0.3775 -0.4636
 9115SOL     OW38980   1.241   3.918   4.002 -0.2157  0.1426 -0.6345
 9115SOL    HW138981   1.305   3.857   3.964 -0.8385  0.6347 -2.4720
 9115SOL    HW238982   1.254   3.987   3.937  0.0819 -0.5474 -1.3105
 9116SOL     OW38983   3.633   3.037   2.475 -0.1255 -0.0985  0.0701
 9116SOL    HW138984   3.649   3.128   2.450  0.5860 -0.0213  0.7774
 9116SOL    HW238985   3.664   3.026   2.565 -0.7197 -0.3802  0.2439
 9117SOL     OW38986   2.094   0.144   1.224 -0.5379 -0.3030  0.0793
 9117SOL    HW138987   2.103   0.097   1.141  1.2468 -0.3412  0.2998
 9117SOL    HW238988   2.043   0.085   1.279  0.6259 -0.8831  0.5316
 9118SOL     OW38989   2.612   2.804   4.230 -0.6412  0.5261  0.3241
 9118SOL    HW138990   2.677   2.811   4.300 -1.0142  0.1220  0.7092
 9118SOL    HW238991   2.604   2.897   4.210  1.1725 -0.2912 -4.2361
 9119SOL     OW38992   1.464   3.497   8.434 -0.2491  0.4692  0.2022
 9119SOL    HW138993   1.409   3.571   8.461 -2.8570 -1.4680  0.2524
 9119SOL    HW238994   1.525   3.549   8.381  2.1485 -0.3273  2.2530
 9120SOL     OW38995   1.614   0.954  16.956 -0.2067 -0.5174 -0.2910
 9120SOL    HW138996   1.560   0.972  17.033 -1.1555 -1.9510 -0.6322
 9120SOL    HW238997   1.585   0.865  16.938 -2.0728 -0.3156  1.7338
 9121SOL     OW38998   3.088   0.481   3.208  0.1144  0.1528 -0.3067
 9121SOL    HW138999   3.024   0.512   3.144  0.1354  0.6227 -0.0949
 9121SOL    HW239000   3.096   0.554   3.269 -3.0962 -0.0380  0.3621
 9122SOL     OW39001   4.398   2.814   5.648  0.1225  0.3034  0.5194
 9122SOL    HW139002   4.448   2.743   5.687  0.9235  0.4427 -0.2349
 9122SOL    HW239003   4.421   2.804   5.556 -2.1612 -0.2707  0.0117
 9123SOL     OW39004   3.204   1.660   7.608 -0.2758  0.1297 -0.0817
 9123SOL    HW139005   3.224   1.687   7.518  1.5689  2.2440  0.9643
 9123SOL    HW239006   3.241   1.731   7.660  0.2323 -0.2588  0.0767
 9124SOL     OW39007   0.926   1.378  12.214 -0.0625  0.3147 -0.2219
 9124SOL    HW139008   1.020   1.377  12.196  0.0911 -2.5730  0.7493
 9124SOL    HW239009   0.918   1.301  12.270  2.6363  0.1253 -0.0882
 9125SOL     OW39010   1.933   1.372   0.812 -0.1690  0.0564 -0.1795
 9125SOL    HW139011   1.851   1.384   0.764  0.1536 -0.2375 -0.7923
 9125SOL    HW239012   1.921   1.284   0.848  0.3347 -0.6518 -1.7352
 9126SOL     OW39013   2.457   0.641  10.574 -0.4268 -0.1410 -0.0126
 9126SOL    HW139014   2.451   0.571  10.509 -2.4531  0.2953 -0.2972
 9126SOL    HW239015   2.384   0.697  10.549 -1.3269 -1.8264 -1.1720
 9127SOL     OW39016   0.101   3.470   2.952 -0.3990 -0.0372 -0.1394
 9127SOL    HW139017   0.185   3.426   2.962  0.0395  0.9131  0.2960
 9127SOL    HW239018   0.115   3.515   2.869  1.3697 -0.2224  0.0621
 9128SOL     OW39019   4.488   4.506  10.382  0.0843  0.6421  0.4790
 9128SOL    HW139020   4.438   4.585  10.403 -0.1887  0.7949 -0.7019
 9128SOL    HW239021   4.454   4.469  10.301  1.4365 -1.1799  0.7442
 9129SOL     OW39022   3.228   4.089   3.733  0.1624  0.2167  0.1482
 9129SOL    HW139023   3.208   4.094   3.639 -0.3203  0.8427  0.2821
 9129SOL    HW239024   3.194   4.000   3.746 -1.7508  0.7878 -0.9082
 9130SOL     OW39025   1.794   3.380   7.520  0.3122 -0.2347  0.0098
 9130SOL    HW139026   1.781   3.352   7.611 -0.3400  1.6621  0.5058
 9130SOL    HW239027   1.887   3.365   7.503  0.5419  1.8877 -0.6229
 9131SOL     OW39028   1.510   2.192   5.428 -0.4356 -0.2159 -0.5336
 9131SOL    HW139029   1.589   2.138   5.433  0.1801  0.7720  0.5082
 9131SOL    HW239030   1.506   2.203   5.333  1.0196 -1.0802 -0.6834
 9132SOL     OW39031   2.589   4.628   3.917  0.6567 -0.1206  0.4897
 9132SOL    HW139032   2.669   4.649   3.868 -1.1462  2.7561 -1.2074
 9132SOL    HW239033   2.564   4.552   3.864  1.5596 -0.8756  1.1523
 9133SOL     OW39034   0.509   0.535  10.388 -0.0545 -0.3350  0.2017
 9133SOL    HW139035   0.425   0.523  10.433  0.2732  0.3306  1.0033
 9133SOL    HW239036   0.533   0.455  10.342  0.9887 -0.8880  1.7245
 9134SOL     OW39037   2.383   3.118   8.846  0.0295  0.7994 -0.3087
 9134SOL    HW139038   2.403   3.098   8.937  4.2897 -0.2001 -1.4808
 9134SOL    HW239039   2.462   3.088   8.802  0.9899  1.5725  0.9068
 9135SOL     OW39040   4.650   2.232  17.320  0.5688 -0.1654  0.4766
 9135SOL    HW139041   4.593   2.273  17.386  0.9230 -1.0892  1.3609
 9135SOL    HW239042   4.597   2.244  17.241  0.7303  0.5958  0.4835
 9136SOL     OW39043   1.543   4.726   2.044 -0.2010  0.0725 -0.3626
 9136SOL    HW139044   1.505   0.067   2.079  0.1216  0.9415 -2.0267
 9136SOL    HW239045   1.638   4.739   2.036  0.3516 -1.6848  3.2988
 9137SOL     OW39046   0.571   3.705   5.030 -0.1884 -0.0580  1.1973
 9137SOL    HW139047   0.602   3.711   4.940  0.3153  0.8612  1.4336
 9137SOL    HW239048   0.605   3.619   5.054  0.5882 -0.0388  0.1877
 9138SOL     OW39049   2.651   1.522   3.511  0.0366  0.6683  0.3636
 9138SOL    HW139050   2.665   1.480   3.596 -2.3896 -0.3863  0.2428
 9138SOL    HW239051   2.661   1.613   3.537  1.4294  0.2958  1.0657
 9139SOL     OW39052   3.320   0.947  17.438 -0.2523 -0.1302 -0.0074
 9139SOL    HW139053   3.355   0.989  17.517 -1.2076 -1.2397  1.0000
 9139SOL    HW239054   3.351   1.006  17.369 -0.9118 -0.8232 -0.8999
 9140SOL     OW39055   0.716   1.590  11.293 -0.3946 -0.4474  0.0187
 9140SOL    HW139056   0.748   1.653  11.357 -0.1314 -1.8376  1.2482
 9140SOL    HW239057   0.789   1.529  11.294  0.9571  1.2030  2.0962
 9141SOL     OW39058   0.234   2.719  14.705 -0.2223  0.2500  0.3121
 9141SOL    HW139059   0.252   2.810  14.682  1.2405  0.2429  1.4420
 9141SOL    HW239060   0.276   2.710  14.790 -0.6292 -1.5343  0.3351
 9142SOL     OW39061   1.667   0.236   2.962  0.5390  0.0157  0.3865
 9142SOL    HW139062   1.702   0.216   2.875  0.2301  1.1535 -0.0012
 9142SOL    HW239063   1.627   0.323   2.962  1.7900  0.5769 -0.8682
 9143SOL     OW39064   2.237   0.834   7.003 -0.3361 -0.3743  0.4571
 9143SOL    HW139065   2.282   0.786   7.072  0.8718 -0.7469 -0.5840
 9143SOL    HW239066   2.175   0.883   7.057  1.7535  1.6800  0.9752
 9144SOL     OW39067   1.741   2.055  13.883 -0.0881  0.1219 -0.0378
 9144SOL    HW139068   1.821   2.107  13.891 -1.6227  2.3263  1.0498
 9144SOL    HW239069   1.672   2.122  13.881  1.0572  1.4037  2.6855
 9145SOL     OW39070   0.755   1.911   0.843 -0.5093 -0.1584 -0.1296
 9145SOL    HW139071   0.784   1.952   0.925  2.1920 -1.5419 -0.3785
 9145SOL    HW239072   0.662   1.897   0.860 -0.2606 -0.7234  0.7568
 9146SOL     OW39073   3.744   2.018   2.008 -0.1233  0.2329  0.2206
 9146SOL    HW139074   3.765   1.934   2.048  0.0634  0.6497  1.0093
 9146SOL    HW239075   3.834   2.042   1.984 -0.0078  1.6458  2.0693
 9147SOL     OW39076   1.304   2.348   8.294 -0.4052 -0.1291  0.1773
 9147SOL    HW139077   1.247   2.372   8.221 -2.0358 -2.5149  0.6721
 9147SOL    HW239078   1.243   2.317   8.362 -2.3211  1.1838 -0.9337
 9148SOL     OW39079   4.718   2.013  11.559  0.2783  0.2699 -0.7715
 9148SOL    HW139080   4.661   2.071  11.609 -0.7632 -0.4228 -1.1522
 9148SOL    HW239081   4.698   1.932  11.606 -1.2796  0.3346 -1.3355
 9149SOL     OW39082   2.919   3.696   3.511 -0.3830  0.1272 -0.0233
 9149SOL    HW139083   2.947   3.728   3.425  0.9191 -0.5020  0.1620
 9149SOL    HW239084   2.937   3.603   3.500 -0.7595  0.0062  0.4171
 9150SOL     OW39085   0.583   0.625  13.896  0.1106  0.0171 -0.1121
 9150SOL    HW139086   0.643   0.627  13.971 -1.2465  2.9288  0.9093
 9150SOL    HW239087   0.513   0.685  13.919 -0.8665 -1.3818  0.5406
 9151SOL     OW39088   2.681   3.273   6.342  0.4544 -0.0124 -0.1842
 9151SOL    HW139089   2.663   3.345   6.282 -0.3318 -0.0177  0.0454
 9151SOL    HW239090   2.683   3.207   6.272 -1.9692  2.5894 -2.7002
 9152SOL     OW39091   4.230   0.120  17.638  0.0590 -0.0775 -0.2473
 9152SOL    HW139092   4.192   0.197  17.682 -0.7546 -0.1280 -0.8699
 9152SOL    HW239093   4.259   0.162  17.557 -1.8468 -0.6217 -1.1969
 9153SOL     OW39094   3.329   2.104   6.488  0.6342  0.5060 -0.0301
 9153SOL    HW139095   3.267   2.121   6.558 -0.2352  0.3854 -0.7652
 9153SOL    HW239096   3.271   2.122   6.414 -0.0721 -0.8081  0.2145
 9154SOL     OW39097   4.390   2.156  15.622 -0.7276 -0.7935 -0.1632
 9154SOL    HW139098   4.380   2.113  15.707 -0.8242 -0.6400 -0.0955
 9154SOL    HW239099   4.429   2.078  15.584 -0.4779 -0.5834 -0.3336
 9155SOL     OW39100   3.611   4.462   9.226 -0.2931  0.3770  0.0437
 9155SOL    HW139101   3.600   4.539   9.171  0.5151  0.1948 -0.3698
 9155SOL    HW239102   3.549   4.475   9.298 -2.5139  0.4096 -1.8798
 9156SOL     OW39103   4.147   3.714   6.266  0.1469 -0.0340 -0.4024
 9156SOL    HW139104   4.118   3.786   6.210 -0.0013  0.0926 -0.1643
 9156SOL    HW239105   4.078   3.708   6.333  0.4933 -2.0169 -0.2193
 9157SOL     OW39106   1.944   0.858   7.636  0.3242 -0.2971  0.3307
 9157SOL    HW139107   1.855   0.846   7.667 -0.6599  2.0875 -1.5906
 9157SOL    HW239108   1.993   0.807   7.701 -2.5335 -1.3349  1.6332
 9158SOL     OW39109   0.875   2.933   4.934  0.1966 -0.0014 -0.7411
 9158SOL    HW139110   0.817   2.857   4.939 -0.1250  0.1783 -1.8214
 9158SOL    HW239111   0.879   2.970   5.022  2.2505  0.4015 -0.9936
 9159SOL     OW39112   4.540   2.765   8.096 -0.3581  0.0553 -0.4385
 9159SOL    HW139113   4.492   2.811   8.027  2.4745  0.3773 -2.2165
 9159SOL    HW239114   4.600   2.725   8.033  1.9150 -0.9955  2.3887
 9160SOL     OW39115   3.022   3.275   8.105  0.7514 -0.4347  0.3682
 9160SOL    HW139116   3.013   3.235   8.019  0.3023 -1.8951  1.1030
 9160SOL    HW239117   3.052   3.364   8.083  0.1282 -0.0681  0.9885
 9161SOL     OW39118   3.075   0.097   3.072 -0.2543  0.2264 -0.1949
 9161SOL    HW139119   3.146   0.033   3.062 -0.0339  0.7113 -1.7598
 9161SOL    HW239120   3.052   0.082   3.164  0.0185  0.2519 -0.1229
 9162SOL     OW39121   3.060   1.927   2.410 -0.0121 -0.2846  0.5225
 9162SOL    HW139122   3.063   1.997   2.475  1.2047 -0.2821  0.4574
 9162SOL    HW239123   3.140   1.879   2.428 -1.2459 -3.5216 -2.6569
 9163SOL     OW39124   4.696   3.752   4.674  0.2424 -0.3783 -0.5729
 9163SOL    HW139125   4.720   3.781   4.762 -1.3604 -1.0583  0.1004
 9163SOL    HW239126   0.005   3.811   4.617 -0.7208  0.5037 -0.5052
 9164SOL     OW39127   4.024   4.220   8.034 -0.2021  0.1664  0.0431
 9164SOL    HW139128   4.004   4.147   8.092  0.0993  0.8266  0.9750
 9164SOL    HW239129   4.022   4.290   8.100  1.2692  1.4823 -1.2923
 9165SOL     OW39130   4.657   1.300   3.123  0.8782  0.6826 -0.3866
 9165SOL    HW139131   4.572   1.336   3.148 -0.3191 -1.6789 -1.0897
 9165SOL    HW239132   4.715   1.341   3.188 -0.9407  1.4621  0.7388
 9166SOL     OW39133   1.345   4.240   9.290 -0.0702  0.0946 -0.1566
 9166SOL    HW139134   1.323   4.324   9.330 -3.1871 -0.4173 -0.8277
 9166SOL    HW239135   1.361   4.276   9.202 -0.3321 -3.3558 -1.6115
 9167SOL     OW39136   2.622   3.199   5.298  0.2446  0.4209 -0.0121
 9167SOL    HW139137   2.565   3.122   5.306 -0.4061  0.8189 -0.7697
 9167SOL    HW239138   2.706   3.158   5.316 -0.1315  0.7622  2.5731
 9168SOL     OW39139   1.637   2.583   9.602  0.2433 -0.2052 -0.3196
 9168SOL    HW139140   1.637   2.579   9.697 -1.1707 -1.6236 -0.3675
 9168SOL    HW239141   1.665   2.673   9.589  0.4047  0.0562  1.9686
 9169SOL     OW39142   1.458   0.498   2.464 -0.5754 -0.3051  0.1215
 9169SOL    HW139143   1.498   0.497   2.551 -0.7952  1.0750  0.2360
 9169SOL    HW239144   1.504   0.562   2.410 -0.7822 -0.6828 -0.5016
 9170SOL     OW39145   2.733   1.586   2.620 -0.6837  0.5912 -0.1506
 9170SOL    HW139146   2.737   1.515   2.684 -1.2126 -0.9299 -1.7768
 9170SOL    HW239147   2.709   1.541   2.538 -2.5860 -0.4076  0.9545
 9171SOL     OW39148   1.383   3.393  15.203  0.0770 -0.2648  0.3303
 9171SOL    HW139149   1.440   3.328  15.162  1.0487  0.2236  0.9102
 9171SOL    HW239150   1.429   3.395  15.286  2.5310  1.4199 -1.0817
 9172SOL     OW39151   0.098   3.342  17.546  0.0410  0.3634  0.0330
 9172SOL    HW139152   0.159   3.372  17.479  0.5169 -0.0490  0.2810
 9172SOL    HW239153   0.151   3.372  17.620  1.4040 -0.9207 -0.4287
 9173SOL     OW39154   1.439   2.460   7.778  0.2553 -0.0352 -0.2758
 9173SOL    HW139155   1.435   2.376   7.823 -0.5000 -0.4003 -1.0158
 9173SOL    HW239156   1.470   2.510   7.854 -2.8520 -0.6080  1.3780
 9174SOL     OW39157   1.651   2.122  16.975  0.1199 -0.2531  0.0782
 9174SOL    HW139158   1.563   2.110  17.010 -0.1900 -1.6952 -1.1714
 9174SOL    HW239159   1.690   2.193  17.025 -2.7766  2.9771 -2.2324
 9175SOL     OW39160   3.846   0.441   8.373  0.3640  0.1574 -0.2227
 9175SOL    HW139161   3.751   0.455   8.376  0.4132 -0.1127  2.9883
 9175SOL    HW239162   3.850   0.403   8.285 -3.6969 -0.7142 -0.0430
 9176SOL     OW39163   1.986   0.074   9.646  0.1795  0.4258 -0.4736
 9176SOL    HW139164   2.003   4.724   9.673  0.1606 -0.0856 -2.1614
 9176SOL    HW239165   1.934   0.057   9.567 -2.3929  1.6281  0.9429
 9177SOL     OW39166   0.846   0.699   4.195 -0.4812  0.4062 -0.0431
 9177SOL    HW139167   0.778   0.662   4.251  0.5499 -1.3717  0.0297
 9177SOL    HW239168   0.817   0.680   4.105  0.1192 -1.3143  0.1203
 9178SOL     OW39169   3.013   3.587  13.903  0.2533 -0.1845 -0.1347
 9178SOL    HW139170   2.931   3.600  13.857  0.1601 -0.9062 -0.1724
 9178SOL    HW239171   3.066   3.660  13.872 -0.2356 -0.6455 -2.0507
 9179SOL     OW39172   0.062   0.419  12.235 -0.1338 -0.3632  0.6260
 9179SOL    HW139173   0.139   0.392  12.285  0.2543  1.7046  1.1519
 9179SOL    HW239174   0.064   0.512  12.254  0.7892 -0.6195  1.7531
 9180SOL     OW39175   3.437   1.634  11.412  0.0589 -1.0059 -0.2459
 9180SOL    HW139176   3.392   1.607  11.333 -1.8053 -2.7977  1.4273
 9180SOL    HW239177   3.523   1.669  11.386 -0.3000  0.4342  0.5281
 9181SOL     OW39178   4.060   0.738   1.883  0.3215 -0.1461  0.3057
 9181SOL    HW139179   4.140   0.772   1.844  1.1097 -1.2380  0.9790
 9181SOL    HW239180   4.020   0.813   1.926 -1.4866 -0.1620 -1.3321
 9182SOL     OW39181   4.216   1.133   8.133 -0.1686  0.2192  0.0216
 9182SOL    HW139182   4.145   1.197   8.134 -1.1659 -0.8481 -1.2501
 9182SOL    HW239183   4.238   1.122   8.226 -1.3338  0.3614  0.3193
 9183SOL     OW39184   4.633   0.341  13.064 -0.2717 -0.1330 -0.4370
 9183SOL    HW139185   4.591   0.420  13.031 -0.6575 -0.2692 -0.2767
 9183SOL    HW239186   4.557   0.290  13.093 -0.8904  0.5527 -0.8580
 9184SOL     OW39187   1.555   4.576   5.900 -0.5036 -1.0243  0.3516
 9184SOL    HW139188   1.634   4.524   5.884 -0.2293 -0.2616 -0.8099
 9184SOL    HW239189   1.588   4.653   5.853 -4.1635 -0.3136 -1.1051
 9185SOL     OW39190   0.853   3.357   5.699 -0.1111 -0.1419 -0.0338
 9185SOL    HW139191   0.818   3.279   5.656  1.8456  0.4626 -2.6823
 9185SOL    HW239192   0.860   3.324   5.789  0.8029 -0.3546 -0.1788
 9186SOL     OW39193   0.248   3.522   5.813 -0.1093 -0.9299 -0.0046
 9186SOL    HW139194   0.203   3.599   5.777  0.4421 -1.1406 -1.1432
 9186SOL    HW239195   0.178   3.460   5.832  1.4470 -2.4122  0.9171
 9187SOL     OW39196   1.013   4.096   3.489 -0.3301 -0.6561  0.0275
 9187SOL    HW139197   1.099   4.083   3.450  1.3419 -0.0914  3.4879
 9187SOL    HW239198   0.995   4.188   3.469 -1.6272 -1.3008 -1.7210
 9188SOL     OW39199   0.426   3.267   6.354 -0.0292 -0.3193  0.1702
 9188SOL    HW139200   0.471   3.297   6.433  1.8179  0.2861 -1.1197
 9188SOL    HW239201   0.337   3.301   6.362 -1.3907 -3.7877 -0.4737
 9189SOL     OW39202   0.799   2.038  12.225  0.6153  0.2580 -0.0255
 9189SOL    HW139203   0.837   2.126  12.221 -0.0362  0.5201 -0.5384
 9189SOL    HW239204   0.786   2.026  12.319  0.4558  1.5923  0.1287
 9190SOL     OW39205   4.064   2.021   5.940  0.1614  0.2401  0.4709
 9190SOL    HW139206   4.117   2.090   5.981 -1.3077  2.8191 -2.0248
 9190SOL    HW239207   4.057   2.050   5.849 -0.7821  0.6079  0.6628
 9191SOL     OW39208   0.933   4.418   4.744  0.1957  0.4095 -0.0768
 9191SOL    HW139209   0.892   4.375   4.819 -0.4671 -2.5431 -2.1119
 9191SOL    HW239210   1.009   4.458   4.785  0.3836 -1.1472  1.0865
 9192SOL     OW39211   3.900   2.575   4.193  0.2749  0.6493  0.0228
 9192SOL    HW139212   3.889   2.480   4.204  0.0627  0.6063 -0.5693
 9192SOL    HW239213   3.824   2.617   4.235  0.5187  0.1316  0.9889
 9193SOL     OW39214   3.505   2.183   8.152  0.2921 -0.2271 -0.3901
 9193SOL    HW139215   3.488   2.147   8.065  0.8487 -1.0236 -0.1752
 9193SOL    HW239216   3.504   2.103   8.205 -1.1502  0.5342  0.7234
 9194SOL     OW39217   3.867   2.279   8.104  0.1893 -1.0205 -0.5516
 9194SOL    HW139218   3.801   2.284   8.173  0.2200 -3.0185 -0.3753
 9194SOL    HW239219   3.932   2.338   8.143 -1.9635 -0.4422  2.1202
 9195SOL     OW39220   2.095   4.069   1.658  0.4809  0.2128  0.0072
 9195SOL    HW139221   2.105   4.159   1.688 -1.8525  0.4082  0.2092
 9195SOL    HW239222   2.022   4.086   1.598  1.2967 -1.0483 -1.3738
 9196SOL     OW39223   3.510   2.828  11.470  0.4033 -0.1780  0.3076
 9196SOL    HW139224   3.468   2.836  11.555  0.0163  4.3445 -0.3205
 9196SOL    HW239225   3.559   2.910  11.473 -1.9274  1.1707  0.9621
 9197SOL     OW39226   4.132   1.990   9.071  0.1285 -0.2244 -0.3938
 9197SOL    HW139227   4.214   2.039   9.081 -0.3359  0.4585  0.0928
 9197SOL    HW239228   4.153   1.921   9.009  1.0974 -0.9706  0.7702
 9198SOL     OW39229   1.860   1.660   2.551  0.4276  0.4783 -0.0238
 9198SOL    HW139230   1.879   1.653   2.457 -1.1872 -2.1105 -0.1673
 9198SOL    HW239231   1.932   1.607   2.586 -0.2245  1.1266  2.2698
 9199SOL     OW39232   1.908   4.690   8.933  0.1993 -0.5783  0.4287
 9199SOL    HW139233   1.924   4.687   9.027  0.1068 -2.1148  0.3830
 9199SOL    HW239234   1.836   0.013   8.927  0.1829 -0.4867  1.5243
 9200SOL     OW39235   2.150   4.711   4.421 -0.5082  0.5249 -0.0063
 9200SOL    HW139236   2.126   4.698   4.329 -0.5697  2.5594 -0.2654
 9200SOL    HW239237   2.138   4.620   4.448  0.2464  0.3807 -0.1458
 9201SOL     OW39238   2.085   3.011   0.228 -0.5474  0.0716 -0.3032
 9201SOL    HW139239   2.098   2.960   0.307  0.7224  0.0415 -0.5157
 9201SOL    HW239240   2.087   3.100   0.264 -1.8655 -0.5016  1.1164
 9202SOL     OW39241   0.990   4.234  16.577  0.4288  0.2741 -0.4128
 9202SOL    HW139242   0.995   4.314  16.628 -0.2089  1.2961 -1.9482
 9202SOL    HW239243   0.896   4.226  16.566  0.4347 -1.4830  0.8616
 9203SOL     OW39244   3.284   4.540   6.292 -0.4406  0.1338 -0.5329
 9203SOL    HW139245   3.360   4.521   6.236 -0.6057  2.1960 -1.4561
 9203SOL    HW239246   3.259   4.450   6.310 -1.1788  0.0673 -1.8986
 9204SOL     OW39247   0.112   0.887   6.961  0.7992 -0.0412  0.5626
 9204SOL    HW139248   0.115   0.960   7.022 -4.4765 -0.0492  0.8234
 9204SOL    HW239249   0.060   0.921   6.888 -0.7318 -1.8770  0.8008
 9205SOL     OW39250   0.986   1.206   8.023 -1.1498 -0.0571 -0.0363
 9205SOL    HW139251   0.925   1.266   7.981  1.1746  0.5985 -2.4766
 9205SOL    HW239252   1.067   1.252   8.003 -2.0591  1.1280 -1.0289
 9206SOL     OW39253   2.521   2.393  15.790 -0.1771 -0.6439 -0.1140
 9206SOL    HW139254   2.517   2.394  15.694  0.2360  3.0303 -0.1077
 9206SOL    HW239255   2.475   2.474  15.809  2.3029  1.0974 -1.4732
 9207SOL     OW39256   4.201   1.235   3.103  0.1368 -0.3962  0.3999
 9207SOL    HW139257   4.134   1.170   3.122  0.5325 -0.4918  1.4985
 9207SOL    HW239258   4.238   1.207   3.019  3.6229  1.5223  1.2899
 9208SOL     OW39259   3.984   0.352   1.587 -0.1175 -0.1224 -0.0700
 9208SOL    HW139260   4.001   0.441   1.618 -0.8908 -0.5334  1.5792
 9208SOL    HW239261   4.060   0.314   1.632 -0.4862  0.6870  1.2335
 9209SOL     OW39262   3.303   4.266   1.667 -0.1179 -0.3969  0.1594
 9209SOL    HW139263   3.279   4.180   1.632  0.5568 -0.3128 -0.5085
 9209SOL    HW239264   3.256   4.324   1.607 -1.9247 -0.2203  1.7547
 9210SOL     OW39265   1.131   4.446   2.933  0.0990  0.1251  0.0759
 9210SOL    HW139266   1.198   4.393   2.889  2.0200  1.7514  1.0102
 9210SOL    HW239267   1.097   4.498   2.859 -1.8883  0.7873  1.4867
 9211SOL     OW39268   2.270   4.588   2.357  0.0463 -0.0757 -0.3731
 9211SOL    HW139269   2.190   4.573   2.307  0.5000 -0.4553 -0.9806
 9211SOL    HW239270   2.304   4.670   2.321 -0.2870 -0.7812 -2.2626
 9212SOL     OW39271   2.015   0.367  16.524 -0.1116 -0.1496 -0.0487
 9212SOL    HW139272   2.038   0.350  16.615 -0.1628  0.4369  0.0771
 9212SOL    HW239273   2.054   0.451  16.500  2.4410 -1.8266 -1.7517
 9213SOL     OW39274   1.123   0.405   6.089 -0.4372 -0.1541 -0.4575
 9213SOL    HW139275   1.153   0.445   6.170  1.7510 -2.2048 -0.2429
 9213SOL    HW239276   1.172   0.323   6.081  2.7761  1.7656 -0.4513
 9214SOL     OW39277   3.156   3.559   9.611  0.4322 -0.2634 -0.3009
 9214SOL    HW139278   3.188   3.603   9.690  1.2147 -0.0073 -0.7554
 9214SOL    HW239279   3.213   3.482   9.611  0.6058 -0.1557  1.7404
 9215SOL     OW39280   0.325   2.076   4.279 -0.4913 -0.2191  0.0406
 9215SOL    HW139281   0.364   2.106   4.198  0.2278  2.2591  1.3016
 9215SOL    HW239282   0.232   2.099   4.272 -0.6264 -0.3107  1.3790
 9216SOL     OW39283   4.349   2.026   3.956 -0.1557 -0.2922  0.2893
 9216SOL    HW139284   4.284   2.039   3.887 -1.2090  0.9432  1.5220
 9216SOL    HW239285   4.394   1.944   3.934  0.0640 -0.3380  0.9307
 9217SOL     OW39286   3.796   0.813   8.675 -0.5644 -0.1758  0.4085
 9217SOL    HW139287   3.810   0.908   8.681 -0.1788 -0.1665 -0.7733
 9217SOL    HW239288   3.835   0.775   8.754 -0.5533 -1.0758 -0.0386
 9218SOL     OW39289   3.503   3.080   6.338 -0.1841  0.2447 -0.0769
 9218SOL    HW139290   3.463   2.994   6.325 -2.0283  0.7770  2.2039
 9218SOL    HW239291   3.516   3.085   6.432  5.4249  0.4790 -0.8910
 9219SOL     OW39292   2.950   4.271   8.266  0.3068  0.3900 -0.2295
 9219SOL    HW139293   2.953   4.359   8.227  2.4576  0.3087 -0.2617
 9219SOL    HW239294   2.952   4.290   8.359  2.1386 -0.8226 -0.0236
 9220SOL     OW39295   4.607   1.379   2.649 -0.2228 -0.1918  0.9106
 9220SOL    HW139296   4.539   1.446   2.649  0.0571  0.0854 -0.2223
 9220SOL    HW239297   4.674   1.421   2.595  2.0561 -0.8320  3.2460
 9221SOL     OW39298   4.489   3.985   5.028  0.3530  0.3539 -0.1279
 9221SOL    HW139299   4.416   3.962   4.971  1.7192  0.5620 -1.9506
 9221SOL    HW239300   4.489   4.080   5.032  0.6496  0.4236 -1.7996
 9222SOL     OW39301   4.098   4.571   5.419  0.5334  0.2369  0.3824
 9222SOL    HW139302   4.043   4.623   5.361  1.8514  0.4226 -0.7186
 9222SOL    HW239303   4.046   4.491   5.411  1.2448 -0.5705  3.8277
 9223SOL     OW39304   4.525   4.684  16.698  0.2102 -0.1148 -0.1329
 9223SOL    HW139305   4.499   4.654  16.785  0.7081 -1.2595 -0.3815
 9223SOL    HW239306   4.614   4.649  16.699  0.1317 -0.3914 -3.2703
 9224SOL     OW39307   3.567   2.604   3.359 -0.1393  0.0243 -0.2568
 9224SOL    HW139308   3.593   2.644   3.442  2.2846 -1.2310 -0.4171
 9224SOL    HW239309   3.574   2.510   3.373 -1.2448  0.4755  3.2258
 9225SOL     OW39310   4.376   1.987   8.113  0.2337 -0.0113 -0.0040
 9225SOL    HW139311   4.321   2.041   8.056 -1.3263 -0.9506  0.6011
 9225SOL    HW239312   4.379   1.901   8.072  0.3585 -0.4183  0.8636
 9226SOL     OW39313   3.512   1.254   7.826 -0.3984  0.1248  0.0715
 9226SOL    HW139314   3.555   1.216   7.750 -0.3436 -1.5662  0.9298
 9226SOL    HW239315   3.470   1.327   7.782 -1.9756 -0.0751  1.2253
 9227SOL     OW39316   2.112   1.076   5.939  0.2023 -0.2871 -0.8165
 9227SOL    HW139317   2.132   1.169   5.943  0.0075 -0.2421 -0.8691
 9227SOL    HW239318   2.116   1.057   6.033 -3.1647  3.3378  0.0513
 9228SOL     OW39319   3.128   2.675   8.560  0.0973 -0.4542  0.4939
 9228SOL    HW139320   3.124   2.761   8.602  1.2744  0.3362 -1.0178
 9228SOL    HW239321   3.161   2.694   8.472  0.1858 -0.4400  0.5312
 9229SOL     OW39322   4.476   4.262   6.155  0.2761 -0.2067 -0.5438
 9229SOL    HW139323   4.557   4.285   6.199  1.1116 -1.7280 -1.3007
 9229SOL    HW239324   4.476   4.313   6.073 -0.2180 -0.6890 -0.8427
 9230SOL     OW39325   0.083   0.165   5.445 -0.1037 -0.0958 -0.2191
 9230SOL    HW139326   0.012   0.164   5.381  0.7937  1.8312 -1.2181
 9230SOL    HW239327   0.032   0.146   5.525 -0.6161  0.9728 -0.2962
 9231SOL     OW39328   1.301   3.737   7.358 -0.0716 -0.5836  0.0472
 9231SOL    HW139329   1.267   3.651   7.381 -2.3957 -0.1171 -1.6121
 9231SOL    HW239330   1.385   3.713   7.318  0.1969  0.2287  0.1160
 9232SOL     OW39331   4.700   2.580   4.533  0.2449 -0.7396 -0.1317
 9232SOL    HW139332   4.621   2.616   4.573 -0.2600 -0.8377 -1.0476
 9232SOL    HW239333   4.677   2.572   4.440 -0.1332 -1.7598  0.0484
 9233SOL     OW39334   3.355   1.616   5.324 -0.1868 -0.2676  0.3635
 9233SOL    HW139335   3.388   1.556   5.391 -0.0433 -0.9751 -0.3328
 9233SOL    HW239336   3.368   1.704   5.359 -2.0804 -0.3752  1.3321
 9234SOL     OW39337   3.105   3.636   2.809 -0.0446 -0.3144 -0.2733
 9234SOL    HW139338   3.190   3.593   2.798 -0.4005 -0.5948 -1.8767
 9234SOL    HW239339   3.128   3.697   2.879 -0.8000 -2.8080  2.1423
 9235SOL     OW39340   1.035   1.293   0.020  0.0200 -0.2658  0.0442
 9235SOL    HW139341   0.962   1.289  17.716  1.4859  0.1092 -1.6981
 9235SOL    HW239342   1.066   1.202   0.012  1.0051  0.0357  0.5586
 9236SOL     OW39343   0.186   3.648   1.992 -0.1496  0.3379  0.1306
 9236SOL    HW139344   0.107   3.670   1.941 -0.3227 -0.7132 -0.0560
 9236SOL    HW239345   0.152   3.607   2.072  0.2781  0.8672  0.5793
 9237SOL     OW39346   4.225   0.922   3.297  0.3051 -0.0142  0.3235
 9237SOL    HW139347   4.184   1.003   3.266  2.6562  0.7241 -0.8350
 9237SOL    HW239348   4.178   0.862   3.239 -2.6879  1.3451  1.3030
 9238SOL     OW39349   1.739   0.209   4.906  0.2421 -0.3243  0.4128
 9238SOL    HW139350   1.695   0.293   4.913 -0.5061 -0.6609 -0.2926
 9238SOL    HW239351   1.829   0.233   4.886 -0.2686 -0.8399 -2.5439
 9239SOL     OW39352   3.525   2.444   4.367  0.8437 -0.3054 -0.1991
 9239SOL    HW139353   3.509   2.426   4.460 -0.3669 -0.3159 -0.4187
 9239SOL    HW239354   3.451   2.396   4.331 -0.8088  0.0912  2.6956
 9240SOL     OW39355   4.545   0.961  14.869 -0.1755  0.5351 -0.2249
 9240SOL    HW139356   4.550   1.048  14.908 -0.4374 -0.2039  1.4600
 9240SOL    HW239357   4.617   0.921  14.918  1.7627  0.8441 -2.8653
 9241SOL     OW39358   2.038   4.205   4.651 -0.3279 -0.2752 -0.3523
 9241SOL    HW139359   2.134   4.210   4.652 -0.3659 -0.0162  2.1731
 9241SOL    HW239360   2.023   4.117   4.617 -0.5209 -0.0868 -0.7617
 9242SOL     OW39361   3.422   4.346  13.008  0.4373 -0.8933 -0.0399
 9242SOL    HW139362   3.459   4.413  13.066 -2.0245 -0.4190  0.9821
 9242SOL    HW239363   3.416   4.266  13.061  0.0702 -1.0790 -0.3608
 9243SOL     OW39364   2.216   4.408  16.266 -0.0779  0.3735  0.1213
 9243SOL    HW139365   2.281   4.466  16.307 -0.1211  1.3826 -1.2319
 9243SOL    HW239366   2.179   4.473  16.206  1.3564 -0.0846 -1.2464
 9244SOL     OW39367   1.324   0.135   0.332  0.1702 -0.7321 -0.4867
 9244SOL    HW139368   1.286   0.098   0.412 -1.6414  0.4663 -0.7896
 9244SOL    HW239369   1.369   0.059   0.297 -2.3076 -3.1614  1.5233
 9245SOL     OW39370   3.743   2.404   9.576 -0.5411 -0.1175 -1.1702
 9245SOL    HW139371   3.777   2.325   9.616 -2.1808  0.4811  1.4248
 9245SOL    HW239372   3.767   2.399   9.484  1.6800 -0.7405 -0.5514
 9246SOL     OW39373   3.512   3.026  13.052  0.0513  0.2706 -0.3858
 9246SOL    HW139374   3.418   3.015  13.034 -0.1641 -1.8556  2.0999
 9246SOL    HW239375   3.536   3.101  12.998 -0.2487  1.1526  0.7271
 9247SOL     OW39376   2.013   1.689   3.233  0.2577  0.2527  0.4295
 9247SOL    HW139377   1.943   1.694   3.298 -2.3304  0.1564 -2.3510
 9247SOL    HW239378   1.980   1.621   3.174  1.1400  1.0282 -0.9549
 9248SOL     OW39379   2.443   2.860   9.241 -0.3636 -0.0037  0.2168
 9248SOL    HW139380   2.463   2.773   9.275  1.1971  0.3000  0.0730
 9248SOL    HW239381   2.365   2.883   9.291  0.6776  0.6551  1.5374
 9249SOL     OW39382   2.874   4.149   6.955  0.9301  0.2330  0.1697
 9249SOL    HW139383   2.967   4.163   6.969  1.1135  0.2673 -1.1097
 9249SOL    HW239384   2.833   4.212   7.015  1.3533  0.0397  0.6550
 9250SOL     OW39385   1.043   1.634   7.010 -0.2559 -0.3522  0.1127
 9250SOL    HW139386   0.948   1.643   7.009 -0.2462 -0.4006 -1.6958
 9250SOL    HW239387   1.049   1.557   7.067 -0.4446  0.2377  0.9321
 9251SOL     OW39388   3.680   0.101  12.577  0.2554  0.5983 -0.4379
 9251SOL    HW139389   3.688   0.181  12.629  2.1814  0.2709 -0.2434
 9251SOL    HW239390   3.612   0.120  12.512 -1.1196 -0.2497  0.7600
 9252SOL     OW39391   4.187   0.555   5.842 -0.0009 -0.2530  0.0866
 9252SOL    HW139392   4.203   0.507   5.924 -0.0737  1.4124  1.0857
 9252SOL    HW239393   4.164   0.483   5.783 -1.5632 -0.9011  1.4786
 9253SOL     OW39394   2.034   0.208   2.031 -0.2778  0.1042  0.3939
 9253SOL    HW139395   2.097   0.189   1.961  0.2914  1.1294  0.6209
 9253SOL    HW239396   2.093   0.216   2.106 -0.4995  0.8575  0.4864
 9254SOL     OW39397   2.918   2.939   6.034 -0.4153 -0.2793 -0.1617
 9254SOL    HW139398   2.830   2.959   6.067 -0.2792  0.3628 -0.1899
 9254SOL    HW239399   2.957   2.909   6.116 -0.1168  1.0859  0.1819
 9255SOL     OW39400   4.609   3.688   1.296  0.3144 -0.0077  0.3989
 9255SOL    HW139401   4.623   3.761   1.356 -0.7315  0.7930 -0.3272
 9255SOL    HW239402   4.700   3.665   1.279  0.0634 -1.9803  1.8426
 9256SOL     OW39403   2.059   0.051   5.720  0.2627  0.2977 -0.0235
 9256SOL    HW139404   2.137   0.103   5.700  0.0573 -0.0762 -1.7575
 9256SOL    HW239405   2.088   4.700   5.722 -0.5099  0.0759  1.2052
 9257SOL     OW39406   4.344   1.792  17.416 -0.4650  0.3908 -0.1596
 9257SOL    HW139407   4.351   1.886  17.436  2.4937 -0.1666  1.3268
 9257SOL    HW239408   4.420   1.788  17.358 -0.2318  1.9088  0.0405
 9258SOL     OW39409   3.691   0.649   7.994  0.3285  0.2239 -0.9989
 9258SOL    HW139410   3.748   0.656   8.071  1.7895 -1.0976 -1.9496
 9258SOL    HW239411   3.672   0.742   7.987  1.3638  0.3565 -1.9732
 9259SOL     OW39412   0.175   1.883   5.106 -0.2211  0.2528 -1.0864
 9259SOL    HW139413   0.210   1.965   5.072 -2.2245  1.6948  0.3228
 9259SOL    HW239414   0.084   1.902   5.083 -0.1145  2.0277 -0.0195
 9260SOL     OW39415   4.286   3.592  13.711  0.6221  0.1961  0.1897
 9260SOL    HW139416   4.347   3.643  13.657 -0.3071  2.1239  0.9446
 9260SOL    HW239417   4.339   3.517  13.737  1.8555  0.7855 -0.6647
 9261SOL     OW39418   2.580   3.554  15.787 -0.1796  0.4930 -0.2091
 9261SOL    HW139419   2.622   3.638  15.769  3.0182 -0.9630  0.5898
 9261SOL    HW239420   2.611   3.505  15.710  3.3112  0.3830  1.2680
 9262SOL     OW39421   2.688   1.642   8.591  0.1115  0.5014 -0.1457
 9262SOL    HW139422   2.664   1.599   8.509  0.3336 -0.7213  0.4280
 9262SOL    HW239423   2.783   1.635   8.581  0.2496  1.1348  0.7128
 9263SOL     OW39424   0.863   3.021  13.411  0.0517 -0.0312 -0.2612
 9263SOL    HW139425   0.820   3.102  13.384 -0.8697 -0.9031 -1.4702
 9263SOL    HW239426   0.780   2.981  13.437 -0.7444  0.3434 -2.1812
 9264SOL     OW39427   3.795   0.340   6.854 -0.4637 -0.5078  0.1063
 9264SOL    HW139428   3.846   0.374   6.928 -0.1485 -1.1314  0.1757
 9264SOL    HW239429   3.737   0.410   6.825 -2.2513 -1.9917  0.0823
 9265SOL     OW39430   0.504   2.246   2.555  0.3817 -0.0663 -0.7986
 9265SOL    HW139431   0.484   2.157   2.585  0.9676  0.5569  1.4271
 9265SOL    HW239432   0.576   2.265   2.614  0.0011  0.8746 -0.6304
 9266SOL     OW39433   1.933   4.132   0.706  0.7276 -0.6049 -0.8956
 9266SOL    HW139434   1.955   4.152   0.615  0.8330  2.0638 -0.3033
 9266SOL    HW239435   1.847   4.090   0.704  0.2036  0.4336 -0.6460
 9267SOL     OW39436   4.224   2.708   7.458  0.3721  0.4630  0.0903
 9267SOL    HW139437   4.206   2.754   7.376 -2.2056  1.4460  1.2263
 9267SOL    HW239438   4.294   2.764   7.492  0.2576  0.9086 -0.4128
 9268SOL     OW39439   3.444   1.563  15.351 -0.3818 -0.0623  0.5233
 9268SOL    HW139440   3.414   1.651  15.329 -0.5761  0.1209  1.5275
 9268SOL    HW239441   3.537   1.581  15.333 -0.1082 -0.3552  1.6383
 9269SOL     OW39442   1.724   3.942  17.249  0.6256  0.1313  0.3911
 9269SOL    HW139443   1.715   4.020  17.304  0.0078 -0.0732  0.5710
 9269SOL    HW239444   1.699   3.988  17.169 -2.6913 -1.9101  0.2423
 9270SOL     OW39445   2.082   3.884   2.798 -0.4277  0.5041 -0.1500
 9270SOL    HW139446   1.989   3.873   2.779 -0.6017  1.3469  0.2102
 9270SOL    HW239447   2.075   3.971   2.838 -0.2174  1.6986 -2.6491
 9271SOL     OW39448   4.214   3.804   8.781 -0.6390 -0.2387 -0.7113
 9271SOL    HW139449   4.189   3.733   8.840  3.0177 -0.9977 -0.0553
 9271SOL    HW239450   4.141   3.865   8.777 -0.2004  0.3975  0.9123
 9272SOL     OW39451   1.127   1.442   5.025  0.2874  0.2741 -0.8540
 9272SOL    HW139452   1.083   1.400   4.950 -0.1730 -0.0795 -0.3913
 9272SOL    HW239453   1.168   1.371   5.074 -2.2806 -1.6496 -1.4670
 9273SOL     OW39454   1.272   4.253   6.475 -0.4469 -0.3329  0.0359
 9273SOL    HW139455   1.268   4.197   6.553 -0.4857  0.7694  0.8175
 9273SOL    HW239456   1.309   4.325   6.526  1.8210 -1.5020  0.0460
 9274SOL     OW39457   2.941   1.812   1.189 -0.0066  0.3786  0.0493
 9274SOL    HW139458   3.004   1.740   1.184 -0.0157  0.2476  1.6036
 9274SOL    HW239459   2.998   1.878   1.228  0.0143 -0.6101  1.7177
 9275SOL     OW39460   3.315   2.917   1.982 -0.3715 -0.4115  0.1282
 9275SOL    HW139461   3.357   2.853   2.039  0.9344 -1.3731 -1.9188
 9275SOL    HW239462   3.311   2.866   1.901  1.5719  0.5115 -0.5377
 9276SOL     OW39463   2.999   0.013   7.502 -0.4601 -0.1850  0.1248
 9276SOL    HW139464   3.029   4.677   7.453 -2.1685 -0.8447  0.1297
 9276SOL    HW239465   2.998   0.083   7.436  1.1270 -0.3498 -0.0733
 9277SOL     OW39466   2.998   2.580   3.889  0.5144  0.7777 -0.1325
 9277SOL    HW139467   2.993   2.566   3.984 -0.7725 -0.3220 -0.3525
 9277SOL    HW239468   2.912   2.566   3.850  0.3606  0.2885  0.3708
 9278SOL     OW39469   1.038   2.363  12.850 -0.3017  0.4335 -0.4296
 9278SOL    HW139470   1.084   2.443  12.877 -3.4970  1.6599  1.3968
 9278SOL    HW239471   0.970   2.390  12.788 -1.1737  0.8407  0.6991
 9279SOL     OW39472   4.309   3.929   4.820 -0.0388 -0.3463 -0.6632
 9279SOL    HW139473   4.311   3.895   4.730 -1.2336 -1.2161 -0.3631
 9279SOL    HW239474   4.220   3.963   4.824 -0.2503 -0.8216 -1.3467
 9280SOL     OW39475   1.711   3.772   4.886  0.4201 -0.1616 -0.0933
 9280SOL    HW139476   1.723   3.821   4.967  1.3502 -2.8964  1.4255
 9280SOL    HW239477   1.670   3.694   4.925  0.7891 -0.2063  0.2055
 9281SOL     OW39478   3.020   4.572  13.276 -0.4571  0.1178 -0.4069
 9281SOL    HW139479   2.983   4.485  13.292 -3.9319  1.7984  0.6841
 9281SOL    HW239480   2.947   4.627  13.303  0.3258  1.8339 -1.7834
 9282SOL     OW39481   1.039   0.418   2.133  0.0026  0.0661 -0.0996
 9282SOL    HW139482   1.051   0.328   2.104 -1.9660 -0.9054  2.0773
 9282SOL    HW239483   0.986   0.458   2.065  0.0391 -0.0995 -0.2254
 9283SOL     OW39484   2.859   0.778   9.065  0.0636  0.3160  0.0731
 9283SOL    HW139485   2.913   0.760   9.142  0.1228 -1.6950 -0.4513
 9283SOL    HW239486   2.778   0.747   9.105  0.2799 -1.9081 -1.2254
 9284SOL     OW39487   1.323   1.798   5.514  0.2528  0.5468 -0.1563
 9284SOL    HW139488   1.371   1.715   5.515 -1.5469 -0.5004  0.0411
 9284SOL    HW239489   1.301   1.808   5.421 -0.3710  2.3724  0.1913
 9285SOL     OW39490   4.472   2.765   6.608 -0.6540 -0.5423 -0.0433
 9285SOL    HW139491   4.413   2.840   6.615 -0.3042 -0.3718  1.2090
 9285SOL    HW239492   4.546   2.804   6.654 -1.0920  1.4832 -1.0881
 9286SOL     OW39493   3.870   0.965   9.976  0.0873 -0.0766  0.5540
 9286SOL    HW139494   3.871   0.934   9.885  4.4520  3.5403 -0.6159
 9286SOL    HW239495   3.795   1.025   9.977 -0.9576 -1.3507 -0.3838
 9287SOL     OW39496   3.659   0.113   6.796 -0.5839 -0.3354 -0.0734
 9287SOL    HW139497   3.619   0.136   6.880 -1.0266  0.9407 -0.6460
 9287SOL    HW239498   3.731   0.177   6.798  1.3349 -2.5155  1.5369
 9288SOL     OW39499   4.007   0.766   5.741  0.4572  0.3132 -0.1200
 9288SOL    HW139500   4.047   0.681   5.755  1.4000  0.5298 -1.5017
 9288SOL    HW239501   4.067   0.812   5.800 -0.0328  1.0228 -0.1739
 9289SOL     OW39502   1.770   3.519   2.113 -0.0286 -0.2311 -0.4767
 9289SOL    HW139503   1.732   3.469   2.185  1.1665 -0.0685  0.2656
 9289SOL    HW239504   1.811   3.452   2.059  1.1907 -0.2147  0.4382
 9290SOL     OW39505   1.954   4.240  16.242  0.2531 -0.5146  0.3383
 9290SOL    HW139506   1.965   4.250  16.147 -0.5639  0.6039  0.3600
 9290SOL    HW239507   2.031   4.288  16.274 -0.1938  1.0826 -0.9595
 9291SOL     OW39508   2.359   1.825  16.996 -0.9499  0.3641 -0.3403
 9291SOL    HW139509   2.311   1.906  16.976  1.8274  1.3310 -3.1004
 9291SOL    HW239510   2.372   1.836  17.090 -2.2571  0.5822 -0.1917
 9292SOL     OW39511   4.582   4.120   7.861  0.0863 -0.0432 -0.4097
 9292SOL    HW139512   4.517   4.122   7.790  0.5503  3.0122 -0.7330
 9292SOL    HW239513   4.596   4.025   7.872 -0.1462  0.1136  1.1924
 9293SOL     OW39514   4.080   1.558   3.419 -0.3060  0.5308 -0.0544
 9293SOL    HW139515   4.058   1.489   3.481 -1.9987  1.3656  0.2642
 9293SOL    HW239516   3.990   1.591   3.416 -0.5989 -0.4082 -1.5659
 9294SOL     OW39517   3.113   3.276  10.143 -0.3611 -0.3898  0.2330
 9294SOL    HW139518   3.108   3.283  10.238  0.7707 -1.8050  0.3981
 9294SOL    HW239519   3.120   3.365  10.110  0.5083 -0.3621  0.5108
 9295SOL     OW39520   2.284   1.071   6.625 -0.1317 -0.3230 -0.2020
 9295SOL    HW139521   2.268   1.141   6.560 -0.3768  0.2266  0.4510
 9295SOL    HW239522   2.206   1.052   6.677  0.9620  0.4266  1.7206
 9296SOL     OW39523   1.563   1.909  10.052  0.3498  0.1176 -0.6375
 9296SOL    HW139524   1.519   1.984  10.011  2.1443  0.7496 -1.4376
 9296SOL    HW239525   1.546   1.838   9.991 -0.2807  1.8379 -2.4965
 9297SOL     OW39526   1.782   4.305  12.130 -0.1158  0.2621 -0.1053
 9297SOL    HW139527   1.757   4.241  12.197  3.0766 -1.1841 -0.2933
 9297SOL    HW239528   1.708   4.304  12.069  0.5451 -0.8182 -0.8866
 9298SOL     OW39529   0.522   3.563   3.744 -0.1785  0.2429 -0.2643
 9298SOL    HW139530   0.540   3.474   3.774  1.4725  0.4023 -0.7674
 9298SOL    HW239531   0.595   3.615   3.778  1.0599 -0.7308 -1.4388
 9299SOL     OW39532   0.514   1.684   6.835  0.2880 -0.1862  0.2153
 9299SOL    HW139533   0.556   1.603   6.803 -1.7615 -0.8318 -0.8480
 9299SOL    HW239534   0.492   1.659   6.924 -3.3594 -0.0084 -0.6307
 9300SOL     OW39535   1.262   4.058   3.373  0.5873 -0.7782  0.1978
 9300SOL    HW139536   1.357   4.044   3.375  0.8272  0.7360 -0.9266
 9300SOL    HW239537   1.236   4.012   3.294 -1.0644  2.3171 -1.0632
 9301SOL     OW39538   0.283   2.114   4.721 -0.1814  0.5260  0.7818
 9301SOL    HW139539   0.335   2.173   4.667  1.0067  0.0396  1.3999
 9301SOL    HW239540   0.355   2.065   4.762  1.0617  2.6595  1.1491
 9302SOL     OW39541   3.731   1.493   1.194  0.2585 -0.3528 -0.5478
 9302SOL    HW139542   3.659   1.454   1.144 -0.5134  1.7755 -1.1064
 9302SOL    HW239543   3.761   1.414   1.240  1.7934  0.4626 -0.1561
 9303SOL     OW39544   0.722   2.471   5.758 -0.2474  0.3317 -0.0267
 9303SOL    HW139545   0.666   2.536   5.716  0.1862 -0.3896 -1.7324
 9303SOL    HW239546   0.707   2.397   5.699  0.9228  0.6056 -0.6745
 9304SOL     OW39547   2.906   1.977   2.866 -0.3043 -0.5485  0.2779
 9304SOL    HW139548   2.878   2.022   2.786  1.0063 -0.6523 -0.2441
 9304SOL    HW239549   2.893   1.886   2.841  1.8125 -0.8536  0.2334
 9305SOL     OW39550   3.745   0.639   6.599  0.3902 -0.5783  0.2534
 9305SOL    HW139551   3.675   0.643   6.534 -0.7127 -0.1200  1.4789
 9305SOL    HW239552   3.813   0.581   6.564 -0.3888 -0.9517 -0.6199
 9306SOL     OW39553   4.591   0.076   5.212  0.0326  0.6406  0.4315
 9306SOL    HW139554   4.580   4.724   5.234  0.0614  1.0677  2.2708
 9306SOL    HW239555   4.632   0.073   5.126 -1.9716 -1.8423 -0.4295
 9307SOL     OW39556   2.893   4.006   2.017 -0.6920 -0.4240 -0.1250
 9307SOL    HW139557   2.909   3.922   2.060 -2.6385 -0.9471 -0.4007
 9307SOL    HW239558   2.798   4.010   2.027 -0.5284  1.4441  0.7426
 9308SOL     OW39559   3.949   3.381   8.548  0.1734  0.4112  0.5392
 9308SOL    HW139560   3.955   3.300   8.598 -0.2471 -0.1308 -0.2791
 9308SOL    HW239561   4.034   3.405   8.584  0.9856  1.1243 -1.8348
 9309SOL     OW39562   4.346   3.701   6.787 -0.2755 -0.5693  0.5492
 9309SOL    HW139563   4.374   3.722   6.698 -2.7102  1.2100  0.2034
 9309SOL    HW239564   4.408   3.746   6.844  1.7272  0.6083 -2.5402
 9310SOL     OW39565   1.509   1.151   9.188 -0.2315  0.4132  0.2515
 9310SOL    HW139566   1.550   1.206   9.255 -1.5653 -0.1896  1.5619
 9310SOL    HW239567   1.499   1.221   9.122 -0.9413  0.1502  0.0831
 9311SOL     OW39568   3.878   0.384   5.840  0.0517  0.9099  0.1051
 9311SOL    HW139569   3.967   0.367   5.810  1.0320  1.0403  2.9615
 9311SOL    HW239570   3.833   0.413   5.761  1.5050  2.1384 -0.2668
 9312SOL     OW39571   2.198   0.367   8.972  0.2730  0.2726  0.6649
 9312SOL    HW139572   2.103   0.372   8.966  0.1693 -0.2103  1.9100
 9312SOL    HW239573   2.226   0.448   9.013 -0.6605  1.2611 -0.6647
 9313SOL     OW39574   1.741   2.025   5.366 -0.0550  0.0389 -0.2893
 9313SOL    HW139575   1.806   2.079   5.321  0.9115 -0.2738  0.7314
 9313SOL    HW239576   1.697   2.003   5.284  1.0705 -0.8144 -0.6613
 9314SOL     OW39577   0.827   1.984   7.860 -0.3849 -0.0093 -0.4183
 9314SOL    HW139578   0.746   2.001   7.812  0.7420  2.6026 -1.3899
 9314SOL    HW239579   0.875   1.924   7.803  0.8354  0.9075 -0.3564
 9315SOL     OW39580   2.211   3.311  13.783 -0.3529  0.1960  0.0781
 9315SOL    HW139581   2.234   3.259  13.860 -0.5451 -0.8849 -0.5894
 9315SOL    HW239582   2.239   3.261  13.706  2.1517 -2.1473  2.4922
 9316SOL     OW39583   1.832   2.167   0.148  0.1376  0.1233  0.2814
 9316SOL    HW139584   1.899   2.182   0.215  0.3026 -0.1452  0.1780
 9316SOL    HW239585   1.755   2.146   0.202  1.8705  0.3011  2.8442
 9317SOL     OW39586   2.162   4.166  14.786  0.0494  0.0562 -0.2755
 9317SOL    HW139587   2.140   4.211  14.705 -0.4926  1.0206  0.4048
 9317SOL    HW239588   2.255   4.148  14.775 -0.2357 -0.3564 -1.8882
 9318SOL     OW39589   1.425   4.685  13.830  0.4057  0.6653 -0.0424
 9318SOL    HW139590   1.405   4.727  13.746  0.7470  0.3188 -0.2930
 9318SOL    HW239591   1.514   4.652  13.820  0.7974  1.7273 -0.1173
 9319SOL     OW39592   3.505   1.738   3.708 -0.1497  0.2569  0.1118
 9319SOL    HW139593   3.434   1.674   3.716 -0.8857  1.1829  1.0724
 9319SOL    HW239594   3.501   1.799   3.782 -0.2846  0.9374 -0.4587
 9320SOL     OW39595   0.980   4.418   6.732  0.4719 -0.0230 -0.1476
 9320SOL    HW139596   1.044   4.435   6.663 -1.5806  1.8512 -1.6109
 9320SOL    HW239597   0.909   4.445   6.674 -1.3736  0.5480  2.3534
 9321SOL     OW39598   2.226   0.623   0.812 -0.5721 -0.2780  0.1975
 9321SOL    HW139599   2.205   0.530   0.819  1.2898 -0.6728  0.4195
 9321SOL    HW239600   2.265   0.627   0.724  1.3333 -1.4954  0.9874
 9322SOL     OW39601   1.241   4.139   5.441 -0.3933  0.1740 -0.2524
 9322SOL    HW139602   1.158   4.097   5.422  0.6839 -1.7944 -0.5715
 9322SOL    HW239603   1.219   4.198   5.513  1.3328  0.7933 -0.2297
 9323SOL     OW39604   3.001   4.289   1.645  0.1553  0.2157  0.3873
 9323SOL    HW139605   2.982   4.262   1.555 -1.5326  0.7730  0.5783
 9323SOL    HW239606   3.011   4.205   1.689 -0.6403 -0.7053 -1.2034
 9324SOL     OW39607   4.466   3.653   7.645  0.1607 -0.2194  0.4380
 9324SOL    HW139608   4.476   3.678   7.554  0.6824 -0.8297  0.3267
 9324SOL    HW239609   4.371   3.644   7.646  0.2240 -0.8988  0.3442
 9325SOL     OW39610   1.827   4.596   7.533  0.2093  0.2314  0.7199
 9325SOL    HW139611   1.877   4.678   7.537 -1.3837  1.2622 -0.4358
 9325SOL    HW239612   1.745   4.626   7.571  0.4806 -1.1295  2.3910
 9326SOL     OW39613   4.116   3.912  10.460  0.5871  0.1800  0.0435
 9326SOL    HW139614   4.180   3.927  10.390  1.2930  0.1449  0.6866
 9326SOL    HW239615   4.134   3.822  10.484  0.1108 -0.1359 -0.7766
 9327SOL     OW39616   2.016   3.614   5.475 -0.1525 -0.2854  0.0543
 9327SOL    HW139617   2.083   3.679   5.455  2.1393 -3.0665 -1.2335
 9327SOL    HW239618   2.056   3.557   5.541 -1.6923 -1.8523 -0.3513
 9328SOL     OW39619   1.656   4.143   2.573  0.2915  0.2208  0.0125
 9328SOL    HW139620   1.700   4.207   2.518  1.4904 -1.1504 -0.6225
 9328SOL    HW239621   1.718   4.155   2.645  1.4686  0.8181 -1.1102
 9329SOL     OW39622   4.226   1.391   8.739 -0.2982  0.6718 -0.3906
 9329SOL    HW139623   4.152   1.371   8.797 -0.5740  2.5167 -0.1074
 9329SOL    HW239624   4.287   1.320   8.755  0.1753  1.0720 -0.4268
 9330SOL     OW39625   3.267   0.794   4.812 -0.8704  0.4316  0.2791
 9330SOL    HW139626   3.357   0.819   4.832 -0.9014 -0.3907  1.4519
 9330SOL    HW239627   3.250   0.755   4.898 -2.2343 -0.5432 -0.4364
 9331SOL     OW39628   1.125   1.104   6.945 -0.2472 -0.5942 -0.3200
 9331SOL    HW139629   1.138   1.058   6.863  3.5410  1.0324 -0.6289
 9331SOL    HW239630   1.203   1.072   6.991  0.8422 -0.0488 -1.7847
 9332SOL     OW39631   0.204   2.739   5.293  0.0343  0.6356  0.5405
 9332SOL    HW139632   0.156   2.749   5.211  1.1420 -1.7894 -0.4348
 9332SOL    HW239633   0.284   2.692   5.269 -0.2769  0.0953  0.5393
 9333SOL     OW39634   2.797   1.611   4.001  0.2890  0.1719  0.5528
 9333SOL    HW139635   2.833   1.593   3.914 -0.5641  0.6231  0.1056
 9333SOL    HW239636   2.797   1.522   4.037  1.1544  1.4638  3.6970
 9334SOL     OW39637   3.098   1.923   4.340 -0.0998  0.1245 -0.8201
 9334SOL    HW139638   3.149   1.931   4.421 -0.1164  0.2159 -0.8185
 9334SOL    HW239639   3.164   1.900   4.274  0.3984 -1.8947  0.3847
 9335SOL     OW39640   3.975   4.490  12.557  0.2996 -0.1928 -0.3280
 9335SOL    HW139641   3.949   4.550  12.486 -2.6744  0.0275  0.9308
 9335SOL    HW239642   4.026   4.425  12.510  1.7968  0.7006  0.0499
 9336SOL     OW39643   1.122   0.812   3.050  0.2175  0.7164 -0.4249
 9336SOL    HW139644   1.066   0.783   3.122  0.2799 -0.8245 -0.9756
 9336SOL    HW239645   1.056   0.859   3.000 -0.4007 -1.2396 -1.4800
 9337SOL     OW39646   1.243   1.504   8.571  0.2188  0.5645 -0.3846
 9337SOL    HW139647   1.326   1.540   8.603  0.6613 -0.0646 -0.8374
 9337SOL    HW239648   1.243   1.568   8.501  2.2468  2.7276  1.5939
 9338SOL     OW39649   2.927   2.494   8.000  0.3938  0.2134 -0.2675
 9338SOL    HW139650   2.920   2.401   7.979 -1.6039  0.3366 -0.2036
 9338SOL    HW239651   2.905   2.535   7.916  1.0851 -1.2060 -1.1389
 9339SOL     OW39652   1.399   2.888   5.235 -0.7048 -0.0766  0.2401
 9339SOL    HW139653   1.489   2.872   5.208 -0.5386  0.5772  0.3960
 9339SOL    HW239654   1.350   2.891   5.152  0.2068  1.4743 -0.2457
 9340SOL     OW39655   2.282   2.549   7.776  0.0791  0.1097 -0.3601
 9340SOL    HW139656   2.235   2.617   7.728  1.5042  1.1831 -0.2215
 9340SOL    HW239657   2.223   2.476   7.758  0.5917 -0.0100 -1.5641
 9341SOL     OW39658   1.399   1.431  13.691 -0.3504  0.1850  0.4111
 9341SOL    HW139659   1.411   1.429  13.596 -0.7017  0.0108  0.3700
 9341SOL    HW239660   1.477   1.380  13.713  0.8403  0.7165 -2.5323
 9342SOL     OW39661   1.648   0.642   2.355  0.0497 -0.5358  0.5235
 9342SOL    HW139662   1.698   0.626   2.435  0.7106  0.7773  0.3812
 9342SOL    HW239663   1.721   0.653   2.295  0.3281 -1.5263  0.6890
 9343SOL     OW39664   1.606   3.219   2.943  0.3553  0.3119  0.1997
 9343SOL    HW139665   1.637   3.158   3.011 -0.1143  0.4936  0.5782
 9343SOL    HW239666   1.606   3.306   2.983 -2.4358  0.1289  0.5845
 9344SOL     OW39667   3.665   3.305   8.268 -0.2725  0.2694  1.0600
 9344SOL    HW139668   3.626   3.364   8.332 -0.3531  1.2744  0.0705
 9344SOL    HW239669   3.582   3.298   8.220 -0.4330 -2.0409  1.6705
 9345SOL     OW39670   3.424   4.537   3.893 -0.4355  0.0393  0.2383
 9345SOL    HW139671   3.357   4.479   3.856  2.3981 -1.8677 -1.8930
 9345SOL    HW239672   3.430   4.609   3.830  0.2430  1.7584  2.2651
 9346SOL     OW39673   1.314   3.468   4.403  0.2052 -0.4592  0.6032
 9346SOL    HW139674   1.250   3.529   4.366  0.6025 -1.1912 -1.3014
 9346SOL    HW239675   1.370   3.527   4.454 -1.1768  3.1030 -1.9422
 9347SOL     OW39676   3.465   1.681   4.071  0.2329 -0.1382 -0.1431
 9347SOL    HW139677   3.460   1.604   4.015 -1.7245 -0.9632  1.1887
 9347SOL    HW239678   3.486   1.656   4.161  1.9159 -0.2770 -0.5692
 9348SOL     OW39679   1.849   0.783   8.842  0.3829 -0.5242 -0.2027
 9348SOL    HW139680   1.857   0.694   8.875 -0.0349 -0.6536 -0.4411
 9348SOL    HW239681   1.812   0.778   8.753 -1.2965 -1.7873  0.5713
 9349SOL     OW39682   2.696   3.007   1.739  0.0158 -0.5189 -0.1465
 9349SOL    HW139683   2.744   2.926   1.719 -1.6608 -0.8372 -2.9177
 9349SOL    HW239684   2.628   2.962   1.789  1.1163 -3.1045 -0.9502
 9350SOL     OW39685   0.293   4.071   5.340 -0.1371  0.1936  0.8574
 9350SOL    HW139686   0.363   4.011   5.316 -1.4981 -0.5292 -1.3477
 9350SOL    HW239687   0.311   4.158   5.304 -1.1669 -0.0181 -0.2107
 9351SOL     OW39688   4.336   4.460  16.775 -0.0661 -0.1842  0.0348
 9351SOL    HW139689   4.403   4.421  16.830  0.6646  1.0178  0.0039
 9351SOL    HW239690   4.254   4.420  16.803  0.1662  0.0410  1.0181
 9352SOL     OW39691   2.523   0.162   2.486 -0.6486  0.2182 -0.3680
 9352SOL    HW139692   2.567   0.239   2.450  3.4026 -1.9668 -0.0336
 9352SOL    HW239693   2.502   0.196   2.573  0.5723  0.7601 -0.2830
 9353SOL     OW39694   0.926   0.451  15.348 -0.0547 -0.1076 -0.1799
 9353SOL    HW139695   0.851   0.412  15.303 -0.0257 -1.7185  1.1478
 9353SOL    HW239696   0.917   0.542  15.320  0.6526 -0.5890 -1.9803
 9354SOL     OW39697   3.822   2.463   0.767  0.3808 -0.3435 -0.0493
 9354SOL    HW139698   3.848   2.372   0.778  1.0864 -0.5817 -3.6993
 9354SOL    HW239699   3.799   2.470   0.674 -0.3844  1.0407  0.2427
 9355SOL     OW39700   3.767   2.633  15.613 -0.0689 -0.1204 -0.7601
 9355SOL    HW139701   3.830   2.685  15.562  0.1485  1.0863  0.7039
 9355SOL    HW239702   3.832   2.575  15.652  1.7199  0.8120 -2.3452
 9356SOL     OW39703   0.544   0.596  15.439  0.0832  0.4816 -0.0817
 9356SOL    HW139704   0.608   0.655  15.480  1.5018  0.4143 -2.2034
 9356SOL    HW239705   0.578   0.599  15.350 -0.1113  0.2541 -0.1611
 9357SOL     OW39706   4.623   4.420   5.918 -0.0944  0.5766 -0.3809
 9357SOL    HW139707   4.669   4.456   5.993  0.4227 -0.5113 -0.1795
 9357SOL    HW239708   4.684   4.353   5.887  0.4470  1.3569 -1.0242
 9358SOL     OW39709   0.681   0.380  15.185  0.1606  0.2374 -0.1910
 9358SOL    HW139710   0.700   0.372  15.092 -3.0761  0.2276 -0.8497
 9358SOL    HW239711   0.586   0.389  15.185  0.1289 -0.0776 -0.0063
 9359SOL     OW39712   3.276   3.969  16.708  0.4538  0.0058  0.0275
 9359SOL    HW139713   3.272   4.065  16.714  1.2608  0.0398 -0.0228
 9359SOL    HW239714   3.188   3.945  16.679  1.1451 -1.2326 -1.0040
 9360SOL     OW39715   1.150   2.965   9.436 -0.2046  0.4977  0.0489
 9360SOL    HW139716   1.094   3.000   9.504 -1.0242  1.5550 -1.1772
 9360SOL    HW239717   1.191   2.886   9.472 -1.0496  0.8852  1.8343
 9361SOL     OW39718   4.701   4.262   4.316 -0.0139 -0.3040 -0.2579
 9361SOL    HW139719   0.033   4.268   4.378 -0.8865 -0.5220  0.7788
 9361SOL    HW239720   0.010   4.209   4.253  1.6352  1.5126 -0.5009
 9362SOL     OW39721   4.038   1.289   0.214 -0.1269 -0.1482  0.1127
 9362SOL    HW139722   3.984   1.222   0.171  1.6582  0.1652 -2.6236
 9362SOL    HW239723   4.123   1.247   0.198  1.4225  2.2884  2.1092
 9363SOL     OW39724   2.148   4.062   0.861 -0.3457  0.3839 -0.2086
 9363SOL    HW139725   2.103   4.020   0.934 -0.9311  0.7760 -0.3449
 9363SOL    HW239726   2.097   4.131   0.819 -0.3690  0.4940 -0.0014
 9364SOL     OW39727   3.682   3.892   3.990  0.0021 -1.0721  0.1739
 9364SOL    HW139728   3.650   3.973   3.951  0.3838 -1.5358 -1.0918
 9364SOL    HW239729   3.601   3.841   3.987  0.2462 -1.3341 -1.6862
 9365SOL     OW39730   3.740   4.226   4.032 -0.9311  0.3323 -0.0155
 9365SOL    HW139731   3.681   4.187   3.968 -0.9864 -1.4125  1.0884
 9365SOL    HW239732   3.781   4.150   4.074 -2.6848 -0.0187  1.0446
 9366SOL     OW39733   0.108   3.580   3.940 -0.5273  0.0634 -0.1824
 9366SOL    HW139734   0.163   3.521   3.889 -0.9455 -0.6289  0.1567
 9366SOL    HW239735   0.083   3.649   3.879  0.1476 -0.9362 -1.5945
 9367SOL     OW39736   1.175   0.134   2.678  0.5162  0.1401  0.3117
 9367SOL    HW139737   1.232   0.166   2.608  1.9345 -0.5697  1.1640
 9367SOL    HW239738   1.236   0.137   2.751 -1.2935  0.2229  1.8129
 9368SOL     OW39739   3.229   2.299   9.049 -0.1956 -0.0397 -0.0033
 9368SOL    HW139740   3.187   2.385   9.050  2.2244  1.1507 -1.0353
 9368SOL    HW239741   3.318   2.313   9.016  0.5576 -1.7242  1.3185
 9369SOL     OW39742   2.380   0.234   9.971  0.1996  0.5040 -0.1409
 9369SOL    HW139743   2.321   0.307   9.953 -0.7562 -0.5511 -1.2643
 9369SOL    HW239744   2.339   0.175   9.908 -0.6915  0.5414  0.4127
 9370SOL     OW39745   4.138   4.476   4.318 -0.0699 -0.1829  0.0107
 9370SOL    HW139746   4.091   4.402   4.280 -0.2717  1.0071 -2.0768
 9370SOL    HW239747   4.225   4.435   4.323 -0.5380 -0.9471  1.9433
 9371SOL     OW39748   1.712   2.323   0.495  0.3683 -0.7710  0.4226
 9371SOL    HW139749   1.716   2.231   0.470 -2.6178  0.0275 -2.9583
 9371SOL    HW239750   1.803   2.341   0.520  1.0689 -3.4027 -0.1724
 9372SOL     OW39751   2.117   1.992  13.907 -0.3441  0.6496 -0.0476
 9372SOL    HW139752   2.201   2.034  13.921 -0.8484  0.9004  2.2202
 9372SOL    HW239753   2.060   2.068  13.898  0.8528  1.6221  0.6733
 9373SOL     OW39754   4.170   4.622   8.840 -0.2145 -0.6234  0.2889
 9373SOL    HW139755   4.141   4.701   8.795 -0.9730 -1.0106  0.1029
 9373SOL    HW239756   4.115   4.623   8.919  3.0582 -0.4728  2.5486
 9374SOL     OW39757   2.738   1.683  17.737 -0.3164 -0.0177 -0.0080
 9374SOL    HW139758   2.801   1.612  17.745 -2.2760 -1.5267  1.6960
 9374SOL    HW239759   2.710   1.680   0.069 -0.7570 -0.3065 -0.1578
 9375SOL     OW39760   4.068   3.191   2.792  0.4168  0.3632  0.1035
 9375SOL    HW139761   4.047   3.208   2.700  0.8781 -1.9700 -0.4353
 9375SOL    HW239762   4.012   3.252   2.840 -0.8495  0.1778 -1.1283
 9376SOL     OW39763   3.679   0.534   7.440  0.0402  0.6004  0.1923
 9376SOL    HW139764   3.651   0.591   7.512 -0.5118 -0.4476  0.8024
 9376SOL    HW239765   3.684   0.456   7.495  0.6973  0.5546  0.0660
 9377SOL     OW39766   1.774   4.487  13.457  0.5276 -0.5061  0.3889
 9377SOL    HW139767   1.682   4.507  13.474  0.1588 -0.8191 -1.2238
 9377SOL    HW239768   1.779   4.477  13.362  0.5538 -0.4202  0.3813
 9378SOL     OW39769   4.717   3.489   3.416  0.0857  0.2468  0.3243
 9378SOL    HW139770   0.042   3.526   3.476 -1.5632  0.5860  1.9116
 9378SOL    HW239771   4.713   3.547   3.340 -0.5737  0.4847  0.5452
 9379SOL     OW39772   0.311   2.528  12.216  0.1600 -0.0851 -0.0054
 9379SOL    HW139773   0.402   2.508  12.239  0.1929 -1.0946 -0.9784
 9379SOL    HW239774   0.270   2.519  12.302 -1.7529  1.8491 -0.7521
 9380SOL     OW39775   2.041   0.427   2.407 -0.4324 -0.0261  0.4156
 9380SOL    HW139776   2.017   0.410   2.498 -0.6973 -0.7027  0.2229
 9380SOL    HW239777   2.111   0.490   2.425  1.3167 -2.0369  0.7160
 9381SOL     OW39778   3.892   1.861   5.621  0.3230  0.1561  0.1336
 9381SOL    HW139779   3.923   1.933   5.567 -0.8249  0.7587  0.2797
 9381SOL    HW239780   3.975   1.820   5.646  0.9472  0.2571 -1.7680
 9382SOL     OW39781   3.097   1.645   1.710 -1.0343 -0.0106 -0.2907
 9382SOL    HW139782   3.146   1.686   1.782 -0.8593 -1.7612  0.5903
 9382SOL    HW239783   3.167   1.593   1.671 -1.3727 -0.6990  0.0068
 9383SOL     OW39784   4.602   3.767  10.921  0.7077  0.5652  0.3924
 9383SOL    HW139785   4.547   3.720  10.858  1.2041 -0.8023  0.9847
 9383SOL    HW239786   4.557   3.851  10.921  0.1473  0.2627 -1.3500
 9384SOL     OW39787   0.437   4.673   7.720 -0.1152  0.6152  0.7378
 9384SOL    HW139788   0.357   4.721   7.741 -1.5340 -0.5044 -2.0992
 9384SOL    HW239789   0.452   4.729   7.643  0.5346  1.8969  1.7924
 9385SOL     OW39790   2.540   1.545   4.561 -0.0962  0.0545  0.7003
 9385SOL    HW139791   2.505   1.623   4.518 -0.2614 -0.1771  0.4109
 9385SOL    HW239792   2.624   1.574   4.597  0.7108 -1.0250 -0.3118
 9386SOL     OW39793   4.725   0.924   5.796 -0.1605  0.3291  0.8486
 9386SOL    HW139794   0.009   0.872   5.873  2.9370  1.5420  0.7012
 9386SOL    HW239795   4.629   0.916   5.799  0.0127 -1.8960 -0.0642
 9387SOL     OW39796   3.535   1.903  11.617 -0.2623 -0.2398 -0.0282
 9387SOL    HW139797   3.589   1.879  11.541 -0.3069 -1.9504  0.4929
 9387SOL    HW239798   3.445   1.893  11.587  0.1392  2.3104 -2.1185
 9388SOL     OW39799   2.228   1.733  14.010 -0.4575  0.7044 -0.4658
 9388SOL    HW139800   2.293   1.774  14.067 -0.9049 -2.1787  2.0949
 9388SOL    HW239801   2.185   1.809  13.971 -1.0615  0.4579 -0.2799
 9389SOL     OW39802   0.737   0.021   2.588 -0.3282  0.2694  1.2796
 9389SOL    HW139803   0.719   4.678   2.543 -0.2952  0.5314  0.7850
 9389SOL    HW239804   0.793   4.733   2.660 -0.3289  1.8729  1.9009
 9390SOL     OW39805   0.304   3.416   3.206  0.1744 -0.2965  0.1091
 9390SOL    HW139806   0.348   3.419   3.121 -0.4276  2.5140 -0.1077
 9390SOL    HW239807   0.370   3.376   3.262  2.0136  1.4902 -0.7857
 9391SOL     OW39808   0.689   0.566   3.973 -0.2096  0.0622  0.1401
 9391SOL    HW139809   0.699   0.656   3.942 -1.1432 -0.3427 -1.3400
 9391SOL    HW239810   0.603   0.569   4.014 -1.2808  0.6853 -2.1360
 9392SOL     OW39811   1.068   2.672  10.199 -0.1298  0.2652 -0.0962
 9392SOL    HW139812   1.046   2.757  10.160 -2.1898  0.4252  1.3967
 9392SOL    HW239813   1.119   2.697  10.276  0.7559 -1.9788  0.0466
 9393SOL     OW39814   0.461   3.125   3.632  0.2248  0.4385 -0.2893
 9393SOL    HW139815   0.467   3.041   3.587 -1.1012  1.0346 -1.5507
 9393SOL    HW239816   0.548   3.162   3.616  1.1137 -1.5845 -0.1475
 9394SOL     OW39817   2.729   3.390   4.814  0.1339  0.5562 -1.0386
 9394SOL    HW139818   2.802   3.444   4.843 -2.1883  3.6379 -0.8590
 9394SOL    HW239819   2.769   3.323   4.760  0.5070 -2.7329  3.2722
 9395SOL     OW39820   2.653   4.727   6.650 -0.5837 -0.4063 -0.6150
 9395SOL    HW139821   2.693   4.643   6.675  0.6431  0.4827  0.4435
 9395SOL    HW239822   2.646   0.023   6.738  3.7217 -0.7072 -0.1483
 9396SOL     OW39823   2.211   0.352   1.566  0.3139 -0.1284 -0.0826
 9396SOL    HW139824   2.216   0.259   1.542  1.9715  0.3289 -1.4696
 9396SOL    HW239825   2.276   0.377   1.501  1.0764 -0.2430  0.6298
 9397SOL     OW39826   1.752   0.772  14.020  0.6998 -0.1252 -0.2529
 9397SOL    HW139827   1.760   0.695  13.962  3.6725 -0.5526  0.7160
 9397SOL    HW239828   1.694   0.825  13.966 -1.0442  0.3967  2.1490
 9398SOL     OW39829   4.454   3.608   6.315  0.4164 -0.4262  0.1822
 9398SOL    HW139830   4.459   3.643   6.226  0.1942  2.0559  1.1383
 9398SOL    HW239831   4.373   3.561   6.296  0.3817  0.0586 -0.9020
 9399SOL     OW39832   0.578   0.950   2.292 -0.5230 -0.2791  0.6503
 9399SOL    HW139833   0.624   0.911   2.217 -0.1027 -1.9497  1.7699
 9399SOL    HW239834   0.588   0.878   2.355  3.5706 -0.3760 -0.1251
 9400SOL     OW39835   1.633   2.017  11.641 -0.5752 -0.4676  0.5517
 9400SOL    HW139836   1.660   2.092  11.694 -1.8604  2.0327 -2.2969
 9400SOL    HW239837   1.543   2.046  11.628  0.3001  2.4285  0.8591
 9401SOL     OW39838   2.762   0.319   3.205 -0.6749 -0.1774  0.1714
 9401SOL    HW139839   2.670   0.325   3.180 -1.1161  2.5392  2.4288
 9401SOL    HW239840   2.801   0.399   3.171  0.6791 -0.6616  0.6083
 9402SOL     OW39841   0.002   3.402   5.801  0.3096 -0.0618  0.1253
 9402SOL    HW139842   4.662   3.394   5.853  1.3084  0.1428  1.6789
 9402SOL    HW239843   4.728   3.493   5.776  2.5180  0.7960  1.9894
 9403SOL     OW39844   3.879   0.268  15.678 -0.0293  0.0584 -1.0157
 9403SOL    HW139845   3.872   0.341  15.740  0.1555 -0.5291 -0.2940
 9403SOL    HW239846   3.922   0.314  15.607 -1.6618  0.9665 -1.4134
 9404SOL     OW39847   1.508   3.016   7.856  0.5657 -0.6301  0.3569
 9404SOL    HW139848   1.551   2.933   7.838 -0.3755 -1.0283 -0.0488
 9404SOL    HW239849   1.577   3.067   7.898 -1.5299 -0.5663  3.7757
 9405SOL     OW39850   3.858   3.855   5.918  0.0912 -0.4537 -0.3914
 9405SOL    HW139851   3.939   3.842   5.967  0.8782 -0.2913 -1.6544
 9405SOL    HW239852   3.799   3.809   5.978  0.8854 -1.7377 -0.5918
 9406SOL     OW39853   0.948   0.939   5.142 -0.6392  0.5946  0.0171
 9406SOL    HW139854   0.898   0.956   5.222  0.4062  0.8933  0.6120
 9406SOL    HW239855   0.926   0.847   5.127 -1.1692  0.6222  0.6335
 9407SOL     OW39856   3.483   3.242   8.918 -1.0853  0.1703 -0.4801
 9407SOL    HW139857   3.559   3.249   8.976  0.7072 -1.3144 -2.6533
 9407SOL    HW239858   3.475   3.330   8.881 -1.6190  0.5476  0.5210
 9408SOL     OW39859   2.581   4.615   2.479 -0.8023  0.0167 -0.1259
 9408SOL    HW139860   2.597   4.584   2.390  1.5711  0.0526  0.2886
 9408SOL    HW239861   2.563   4.708   2.467  2.1141  0.8602  2.0178
 9409SOL     OW39862   0.443   2.008  13.217  0.2643 -0.0772 -0.2629
 9409SOL    HW139863   0.436   2.095  13.177 -2.7201  0.1887  0.8246
 9409SOL    HW239864   0.428   1.949  13.143 -3.5063 -0.6201  0.9589
 9410SOL     OW39865   0.493   0.831  12.505  0.4622  0.3286  0.4579
 9410SOL    HW139866   0.540   0.810  12.586 -0.4516  0.3249  0.9840
 9410SOL    HW239867   0.493   0.741  12.474 -2.2230  1.2186 -2.0152
 9411SOL     OW39868   2.541   1.296  17.566 -0.3135 -0.5356  0.0458
 9411SOL    HW139869   2.542   1.390  17.548 -1.4549 -0.2132  1.6409
 9411SOL    HW239870   2.628   1.275  17.534  0.0759 -2.3831  2.3274
 9412SOL     OW39871   2.745   4.490   1.573 -0.7583 -0.6059  0.2436
 9412SOL    HW139872   2.814   4.424   1.566  2.1983  2.6629 -1.9030
 9412SOL    HW239873   2.680   4.446   1.519  1.0559 -1.8711 -0.9102
 9413SOL     OW39874   3.811   0.918  15.318 -0.1079 -0.0232  0.4309
 9413SOL    HW139875   3.846   0.829  15.319  1.4163  0.5916  0.8746
 9413SOL    HW239876   3.724   0.889  15.347 -0.4249  0.5968  0.1086
 9414SOL     OW39877   3.838   3.975  10.420 -0.6328  0.6510  0.2067
 9414SOL    HW139878   3.929   3.952  10.435 -0.9033  0.7659  2.0700
 9414SOL    HW239879   3.812   3.913  10.353  0.7670 -0.3785  0.6106
 9415SOL     OW39880   4.563   4.029   2.425 -0.2896 -0.3688 -0.2311
 9415SOL    HW139881   4.473   4.010   2.452  0.1004 -1.2306  0.4744
 9415SOL    HW239882   4.569   4.117   2.461  1.0697  0.3076 -2.1148
 9416SOL     OW39883   2.276   0.633   1.778  0.2055 -0.3796 -0.2869
 9416SOL    HW139884   2.231   0.670   1.702  0.7039  3.8047  1.4456
 9416SOL    HW239885   2.363   0.618   1.741  0.0102 -1.8157 -0.1786
 9417SOL     OW39886   0.788   3.267   4.083  0.5037 -0.5252  0.5838
 9417SOL    HW139887   0.774   3.276   4.177 -1.3870  0.7307  0.1790
 9417SOL    HW239888   0.840   3.343   4.058  0.9774 -1.4810 -1.3257
 9418SOL     OW39889   4.339   1.112  16.938  0.4571 -0.6196 -0.1258
 9418SOL    HW139890   4.331   1.073  16.851 -1.0211  0.5592 -0.5116
 9418SOL    HW239891   4.394   1.043  16.977 -0.2774  0.0908  2.1888
 9419SOL     OW39892   4.000   0.719  15.278 -0.2341  0.5232  0.2571
 9419SOL    HW139893   4.013   0.771  15.199 -1.3468 -0.7038 -0.7306
 9419SOL    HW239894   3.960   0.641  15.239  1.2331  0.7088 -1.5803
 9420SOL     OW39895   3.868   2.624   9.334  0.9584 -0.1754 -0.3011
 9420SOL    HW139896   3.808   2.637   9.407  1.4752 -1.5497  0.3820
 9420SOL    HW239897   3.828   2.549   9.288 -0.5525 -1.0374  2.4258
 9421SOL     OW39898   2.808   4.715  10.789 -0.0190  0.2046  1.0150
 9421SOL    HW139899   2.874   4.681  10.729 -0.5076  1.5910 -0.3247
 9421SOL    HW239900   2.843   0.060  10.815 -0.9900  0.9058 -0.0161
 9422SOL     OW39901   0.749   4.642   5.970 -0.0162  0.0279  0.2521
 9422SOL    HW139902   0.678   4.610   6.026 -0.0332 -0.6498 -0.1548
 9422SOL    HW239903   0.819   4.635   6.035  1.0269  0.5608 -0.8258
 9423SOL     OW39904   4.172   3.150   1.857  0.0487  0.2882 -0.2019
 9423SOL    HW139905   4.217   3.076   1.817 -0.1393 -0.3617  0.7665
 9423SOL    HW239906   4.143   3.196   1.778  0.5297 -0.2352 -0.6844
 9424SOL     OW39907   4.351   3.650   7.210  0.3331  0.3204 -0.5354
 9424SOL    HW139908   4.422   3.595   7.177 -1.1644 -0.5410 -2.2941
 9424SOL    HW239909   4.402   3.691   7.279  2.5562  0.2328 -2.1272
 9425SOL     OW39910   3.513   1.426   9.658  0.2807 -0.4403 -0.1714
 9425SOL    HW139911   3.420   1.404   9.664  0.5660 -1.8837 -1.1383
 9425SOL    HW239912   3.532   1.391   9.745  1.0233  1.1891  0.3364
 9426SOL     OW39913   3.377   3.239   3.323 -0.0162 -0.7660 -0.4853
 9426SOL    HW139914   3.298   3.291   3.308 -0.8388 -2.0836 -0.7319
 9426SOL    HW239915   3.406   3.274   3.408 -0.7141 -0.5973 -0.3193
 9427SOL     OW39916   2.910   0.375  14.303  0.2212  0.2370  0.4709
 9427SOL    HW139917   2.836   0.361  14.245 -0.8397 -0.4847  1.9940
 9427SOL    HW239918   2.941   0.286  14.321  0.7284  0.3261  0.0340
 9428SOL     OW39919   4.129   0.299   5.165 -0.0155 -0.2780 -0.0655
 9428SOL    HW139920   4.044   0.275   5.204  0.7566 -1.0246  1.1611
 9428SOL    HW239921   4.128   0.394   5.179  1.5025 -0.2153 -0.4326
 9429SOL     OW39922   1.065   2.939   8.543  0.1992 -0.0059  0.3512
 9429SOL    HW139923   0.972   2.918   8.540 -0.0637  1.4144 -1.1561
 9429SOL    HW239924   1.086   2.897   8.627  0.6193 -1.1848 -0.3410
 9430SOL     OW39925   3.021   3.075  11.564 -0.3402  0.2123  0.2101
 9430SOL    HW139926   3.015   3.099  11.471 -1.3603  0.1043  0.2501
 9430SOL    HW239927   2.991   2.984  11.557  1.2669 -0.3106  0.0671
 9431SOL     OW39928   0.040   0.063   8.775  0.0956 -0.9202  0.2017
 9431SOL    HW139929   4.707   0.079   8.834  0.1837 -1.3160  0.4213
 9431SOL    HW239930   0.116   0.090   8.826  1.0543 -0.9420 -1.2287
 9432SOL     OW39931   2.852   3.097   6.742 -0.3871 -0.0649 -0.1832
 9432SOL    HW139932   2.789   3.109   6.813 -0.4232  0.7189 -0.3483
 9432SOL    HW239933   2.921   3.156   6.774 -0.1510 -0.6052  0.2925
 9433SOL     OW39934   3.324   1.556   3.745 -0.0250  0.0229  0.1205
 9433SOL    HW139935   3.383   1.492   3.705 -0.2552 -0.4318  0.5098
 9433SOL    HW239936   3.276   1.497   3.802 -0.1744 -0.7926 -0.8473
 9434SOL     OW39937   2.936   0.646   0.083 -0.0124  0.7860 -0.3645
 9434SOL    HW139938   2.872   0.611   0.145  0.4493 -0.6141 -0.6894
 9434SOL    HW239939   2.962   0.727   0.127 -0.7831  0.5462  0.5279
 9435SOL     OW39940   1.087   0.457  12.730 -0.5660  0.3351 -0.2581
 9435SOL    HW139941   1.089   0.393  12.802 -1.4317  0.4260 -0.1577
 9435SOL    HW239942   1.052   0.534  12.774  1.2172  1.4620 -0.7836
 9436SOL     OW39943   4.200   0.972   7.634  0.6612  0.3004  0.3983
 9436SOL    HW139944   4.275   0.958   7.577  0.0644  0.5855 -0.4521
 9436SOL    HW239945   4.163   1.057   7.611 -1.0670 -1.0901 -1.9731
 9437SOL     OW39946   2.348   0.249   9.207 -0.2434 -0.5311  0.1664
 9437SOL    HW139947   2.280   0.238   9.273  0.2395 -0.5502  0.6542
 9437SOL    HW239948   2.308   0.265   9.121  1.6681 -1.4799 -0.9034
 9438SOL     OW39949   3.175   3.510   8.416  0.0790 -0.7683 -0.1109
 9438SOL    HW139950   3.090   3.476   8.442  0.8378 -3.9909 -1.7597
 9438SOL    HW239951   3.240   3.460   8.466  0.1317 -0.0415  0.5342
 9439SOL     OW39952   0.692   3.303   2.817 -0.1109 -0.1595 -0.2105
 9439SOL    HW139953   0.651   3.280   2.733 -1.4770 -0.5488  0.5597
 9439SOL    HW239954   0.737   3.220   2.830 -2.9013 -1.2533  2.5541
 9440SOL     OW39955   0.756   3.114   3.835 -0.0166  0.2005 -0.2186
 9440SOL    HW139956   0.756   3.161   3.919  0.7243  0.8293 -0.5670
 9440SOL    HW239957   0.787   3.186   3.780  1.9314 -0.3042  0.2004
 9441SOL     OW39958   0.228   3.065   7.838 -0.2128 -0.0249 -0.3952
 9441SOL    HW139959   0.284   3.064   7.915  0.3464  0.9016 -0.7919
 9441SOL    HW239960   0.181   2.981   7.833  1.0908 -0.7232 -0.9178
 9442SOL     OW39961   0.354   0.944  16.082  0.7973 -0.1852  0.0468
 9442SOL    HW139962   0.367   0.856  16.047 -0.2147 -0.6375  0.7884
 9442SOL    HW239963   0.371   1.004  16.010  2.0119 -0.8248 -0.2038
 9443SOL     OW39964   1.293   3.649  10.630  0.1291 -0.0903 -0.0967
 9443SOL    HW139965   1.256   3.629  10.544  0.4409  1.3212 -0.5659
 9443SOL    HW239966   1.223   3.622  10.688 -0.6553  1.0948 -0.4900
 9444SOL     OW39967   3.749   0.777   6.835  0.3972 -0.4419 -0.1892
 9444SOL    HW139968   3.705   0.861   6.824  0.1537 -0.2976  1.9677
 9444SOL    HW239969   3.748   0.747   6.744 -2.2243 -0.6056 -0.1038
 9445SOL     OW39970   0.797   2.323   7.574 -0.2749 -0.6665 -0.6383
 9445SOL    HW139971   0.732   2.390   7.593  3.5743  2.9169  0.0370
 9445SOL    HW239972   0.756   2.237   7.575 -1.7669  0.0612  1.2467
 9446SOL     OW39973   4.671   2.293   3.173 -0.3884  0.1473 -0.1712
 9446SOL    HW139974   4.624   2.377   3.172  0.2160  0.4722 -0.9941
 9446SOL    HW239975   0.014   2.318   3.133 -1.2595  1.3743 -1.2405
 9447SOL     OW39976   0.468   3.800   9.388  0.1518  0.2170  0.5904
 9447SOL    HW139977   0.503   3.889   9.381 -1.6365  0.9193  0.3376
 9447SOL    HW239978   0.386   3.831   9.349  0.7995  2.2973  0.8723
 9448SOL     OW39979   3.560   1.275   1.488  0.0015 -0.3839  0.1262
 9448SOL    HW139980   3.478   1.230   1.471  0.4541 -0.6643 -1.3091
 9448SOL    HW239981   3.527   1.364   1.476 -0.8791 -0.8582 -0.9817
 9449SOL     OW39982   3.131   1.231   1.332  0.3966 -0.0615  0.1217
 9449SOL    HW139983   3.044   1.214   1.366  0.0577  1.8984  0.2600
 9449SOL    HW239984   3.118   1.300   1.267  0.0091 -0.1900  0.0667
 9450SOL     OW39985   3.897   2.263   1.914 -0.1405 -0.4624 -0.1290
 9450SOL    HW139986   3.903   2.319   1.992  1.7849 -1.6730  0.5836
 9450SOL    HW239987   3.983   2.277   1.875  0.1502 -2.1629 -0.0968
 9451SOL     OW39988   4.325   0.653   7.996  0.2897  0.1302 -0.2109
 9451SOL    HW139989   4.250   0.621   8.046 -0.1500  1.1949 -0.1859
 9451SOL    HW239990   4.299   0.745   7.990 -1.3168 -0.2479  1.0827
 9452SOL     OW39991   2.835   0.408   8.582  0.0583 -0.3399  0.3743
 9452SOL    HW139992   2.887   0.352   8.640 -0.6477 -0.9145  0.4439
 9452SOL    HW239993   2.902   0.441   8.521  0.2005  0.3645  0.9053
 9453SOL     OW39994   3.388   2.878   9.285 -0.2904 -0.4903 -0.1221
 9453SOL    HW139995   3.399   2.869   9.380  1.4026 -0.0035 -0.2768
 9453SOL    HW239996   3.325   2.951   9.290 -0.3485 -0.5657  0.2642
 9454SOL     OW39997   2.873   1.937  10.872  0.4399  0.2925  0.5092
 9454SOL    HW139998   2.867   1.872  10.943  0.1551  0.4633  0.6419
 9454SOL    HW239999   2.927   1.889  10.809  0.0447 -0.3415  0.6546
 9455SOL     OW40000   0.090   2.929   8.497  0.4181 -0.5639 -0.3622
 9455SOL    HW140001   0.116   2.898   8.410 -0.6940  0.2202 -0.9761
 9455SOL    HW240002   0.010   2.876   8.499  0.4982 -0.6516  0.4013
 9456SOL     OW40003   3.495   1.896   2.310  0.0649  0.0102 -0.2095
 9456SOL    HW140004   3.427   1.871   2.372  0.5370 -1.4991 -0.2773
 9456SOL    HW240005   3.552   1.818   2.316 -1.0461 -0.9939 -2.3615
 9457SOL     OW40006   3.448   1.972   4.897 -0.2525 -0.2736 -0.0527
 9457SOL    HW140007   3.362   1.931   4.906 -0.8750  0.5957 -1.9231
 9457SOL    HW240008   3.507   1.898   4.910 -1.5127 -0.9994  1.4725
 9458SOL     OW40009   1.789   3.584   2.640 -0.0042 -0.2495 -0.4274
 9458SOL    HW140010   1.808   3.623   2.725  1.3004  0.1774 -0.9263
 9458SOL    HW240011   1.727   3.645   2.600 -1.9920 -1.5059  0.6928
 9459SOL     OW40012   1.476   1.592   5.357 -0.0210  0.2219 -0.6333
 9459SOL    HW140013   1.432   1.518   5.315  0.1654  1.5460 -3.2131
 9459SOL    HW240014   1.526   1.625   5.282 -2.4750  0.0400 -2.3940
 9460SOL     OW40015   2.460   2.340  15.402  0.4522  0.0978  0.0441
 9460SOL    HW140016   2.427   2.250  15.396  3.4715 -1.2688  4.2117
 9460SOL    HW240017   2.398   2.378  15.464  1.4704  0.2590  0.9479
 9461SOL     OW40018   2.504   4.502  17.418 -0.9654  0.6993 -0.0090
 9461SOL    HW140019   2.424   4.551  17.438 -1.6011 -0.7159  0.9346
 9461SOL    HW240020   2.534   4.493  17.509 -1.2018 -2.4665 -0.2395
 9462SOL     OW40021   0.006   4.691  17.186  0.8955  0.0702 -0.3879
 9462SOL    HW140022   4.725   0.042  17.207  0.9562  0.3727 -1.6362
 9462SOL    HW240023   0.099   4.696  17.164  0.9591  0.3426 -0.0527
 9463SOL     OW40024   4.168   0.765  14.211  0.0538  0.1833  0.4193
 9463SOL    HW140025   4.246   0.808  14.176 -1.2841  2.4316  0.2174
 9463SOL    HW240026   4.110   0.778  14.136 -1.2199 -2.1538  0.9944
 9464SOL     OW40027   4.388   0.392   8.977 -0.2523  0.2734  0.2829
 9464SOL    HW140028   4.406   0.468   8.921 -1.6851  1.2822  1.2110
 9464SOL    HW240029   4.365   0.330   8.908  0.6387  1.0317 -0.7106
 9465SOL     OW40030   0.039   1.941   4.297 -0.6976  0.3309 -0.3674
 9465SOL    HW140031   4.694   1.963   4.260 -0.4679 -1.3097 -1.8800
 9465SOL    HW240032   0.054   1.988   4.379  0.1016  1.0486 -0.9264
 9466SOL     OW40033   3.355   3.489  13.288  0.7765 -0.3334 -0.3277
 9466SOL    HW140034   3.286   3.471  13.225  1.1553  2.0232 -1.4272
 9466SOL    HW240035   3.340   3.582  13.305 -4.4846 -1.1338 -0.6981
 9467SOL     OW40036   1.005   2.811   9.198 -0.5522 -0.4142  0.0665
 9467SOL    HW140037   1.016   2.849   9.110  0.1424  1.0934  0.8199
 9467SOL    HW240038   1.058   2.867   9.254 -1.6084  2.0625 -1.3914
 9468SOL     OW40039   0.750   1.889   9.093 -0.1705 -0.0642  0.1899
 9468SOL    HW140040   0.661   1.886   9.129 -0.2428  1.0021  0.1111
 9468SOL    HW240041   0.804   1.896   9.172  0.4303 -2.9105  0.0283
 9469SOL     OW40042   4.492   3.333   5.326 -0.7111 -0.1089  0.0261
 9469SOL    HW140043   4.574   3.339   5.377 -1.7528  0.0044  1.6969
 9469SOL    HW240044   4.502   3.268   5.257 -1.8614 -1.9633  1.6134
 9470SOL     OW40045   3.907   0.732  10.844  0.2705 -0.7149 -0.6018
 9470SOL    HW140046   3.982   0.753  10.788  1.2097 -3.1413 -0.2813
 9470SOL    HW240047   3.865   0.818  10.845 -1.6535 -1.6486 -0.1042
 9471SOL     OW40048   4.667   0.053   4.806  0.1066  0.7997  0.0896
 9471SOL    HW140049   4.711   0.101   4.876 -0.4888  0.6550  0.5664
 9471SOL    HW240050   4.614   0.118   4.760  0.1131  2.8300  2.9599
 9472SOL     OW40051   1.151   3.517   6.106  0.5898  0.5158 -0.3813
 9472SOL    HW140052   1.102   3.539   6.185 -1.8694  0.1161 -1.7598
 9472SOL    HW240053   1.107   3.435   6.084 -0.7893  0.9438  0.7289
 9473SOL     OW40054   4.327   3.135   7.515  0.0654  0.2112  0.3395
 9473SOL    HW140055   4.362   3.046   7.527 -0.3896 -0.3306 -2.2853
 9473SOL    HW240056   4.391   3.169   7.452  0.0926  0.9028  0.7416
 9474SOL     OW40057   2.980   0.976   8.701  0.1226 -0.7975  0.1014
 9474SOL    HW140058   2.902   0.977   8.645 -0.2281  0.6022  0.6202
 9474SOL    HW240059   3.048   1.010   8.643  1.9310 -1.6853  1.6981
 9475SOL     OW40060   1.941   0.760   3.984 -0.3177 -0.4939  0.0875
 9475SOL    HW140061   2.023   0.788   3.943 -1.6816  0.6139 -1.8548
 9475SOL    HW240062   1.915   0.842   4.026 -0.3754 -0.2230 -0.4791
 9476SOL     OW40063   0.324   4.072   7.184  0.1030 -0.1381 -0.7509
 9476SOL    HW140064   0.364   3.985   7.188 -0.1147 -0.3385 -2.9535
 9476SOL    HW240065   0.383   4.123   7.238 -2.0511 -0.5301  1.9767
 9477SOL     OW40066   0.847   0.988   2.751 -0.5545  0.6087 -0.4083
 9477SOL    HW140067   0.760   0.953   2.734  0.2415 -1.4336 -0.3284
 9477SOL    HW240068   0.866   0.919   2.815  0.3647  2.3507  1.2009
 9478SOL     OW40069   2.804   2.820  16.668  0.1433 -0.3863 -0.3563
 9478SOL    HW140070   2.776   2.729  16.676 -0.6316 -0.1257 -0.1459
 9478SOL    HW240071   2.748   2.853  16.598 -1.5115 -0.5206  0.9148
 9479SOL     OW40072   2.140   3.910   7.354  0.3916 -0.0089  0.2170
 9479SOL    HW140073   2.088   3.830   7.339 -1.2271  0.6915  2.1016
 9479SOL    HW240074   2.095   3.948   7.430  0.5900  1.6118 -0.4801
 9480SOL     OW40075   0.880   1.700   9.467  0.3389  0.5354 -0.6708
 9480SOL    HW140076   0.889   1.697   9.562 -1.4250  0.1150 -0.5114
 9480SOL    HW240077   0.792   1.738   9.458  0.3161  1.2713  2.7488
 9481SOL     OW40078   0.795   0.414   2.700  0.4935  0.4845 -0.2733
 9481SOL    HW140079   0.754   0.434   2.784  1.3844  4.1854 -0.7237
 9481SOL    HW240080   0.885   0.389   2.724 -0.1715 -1.4439  0.2148
 9482SOL     OW40081   1.944   2.576   5.614  0.0083  0.6250 -0.0462
 9482SOL    HW140082   1.857   2.535   5.610  0.5948 -0.5409 -1.1573
 9482SOL    HW240083   2.006   2.513   5.651  0.7892  0.7430 -1.1617
 9483SOL     OW40084   4.373   0.004   4.600 -0.0306 -0.0213 -0.1309
 9483SOL    HW140085   4.436   0.046   4.659 -1.4428 -1.2838  2.2881
 9483SOL    HW240086   4.314   4.698   4.660  0.1242  0.4279  0.3689
 9484SOL     OW40087   2.103   3.495   7.168  0.2489  0.1103 -0.2775
 9484SOL    HW140088   2.137   3.448   7.092 -0.2475  1.8519 -1.5599
 9484SOL    HW240089   2.130   3.584   7.146  0.8575  0.1193  0.4761
 9485SOL     OW40090   0.963   4.346  16.114  0.2129 -0.8655 -0.3168
 9485SOL    HW140091   0.889   4.305  16.158 -2.0445  0.5021 -2.8396
 9485SOL    HW240092   0.937   4.437  16.124  1.9869 -0.5741  1.8632
 9486SOL     OW40093   4.332   2.968   1.709 -0.4031 -0.1689 -0.1087
 9486SOL    HW140094   4.239   2.952   1.691  0.0055  0.3782 -2.6296
 9486SOL    HW240095   4.356   2.879   1.684 -0.7776  0.0260 -1.1643
 9487SOL     OW40096   3.988   4.274   4.676 -0.5910 -0.0493 -0.0825
 9487SOL    HW140097   4.027   4.360   4.660 -0.0647  0.1283  2.2322
 9487SOL    HW240098   3.965   4.243   4.588 -0.7219  0.4601 -0.2278
 9488SOL     OW40099   0.348   4.029  17.311 -0.2849 -0.3129 -0.3988
 9488SOL    HW140100   0.370   3.937  17.301 -1.4886 -0.6869  0.4116
 9488SOL    HW240101   0.426   4.073  17.276 -0.1092 -0.6603 -0.4395
 9489SOL     OW40102   2.981   2.983   7.277  0.8579 -0.2983 -0.2225
 9489SOL    HW140103   2.991   3.018   7.365  2.7185 -0.0395 -0.5487
 9489SOL    HW240104   3.014   3.054   7.222 -0.6419 -1.4594 -2.6406
 9490SOL     OW40105   3.709   3.801  11.153 -0.6750  0.3010 -0.2236
 9490SOL    HW140106   3.645   3.733  11.171  0.7110 -1.0392 -0.3753
 9490SOL    HW240107   3.778   3.751  11.110 -0.6791  0.8340 -0.8523
 9491SOL     OW40108   3.569   4.338   2.244 -0.6199 -0.3759 -0.4615
 9491SOL    HW140109   3.634   4.269   2.234 -0.0482  0.3316 -1.6470
 9491SOL    HW240110   3.627   4.407   2.276 -0.8969 -0.7372  0.7842
 9492SOL     OW40111   2.035   4.453   7.425 -0.0366  0.0379 -0.3754
 9492SOL    HW140112   2.011   4.404   7.503 -0.3631 -0.6378 -0.9006
 9492SOL    HW240113   1.983   4.531   7.443 -2.1322 -1.6449  0.8786
 9493SOL     OW40114   2.734   1.231   9.163  0.3364 -0.5591 -0.1824
 9493SOL    HW140115   2.824   1.258   9.145 -0.2020  1.5340  0.2844
 9493SOL    HW240116   2.734   1.247   9.258 -0.6232 -1.7451  0.0157
 9494SOL     OW40117   3.033   1.931   8.523  0.5937 -0.5729 -0.3734
 9494SOL    HW140118   3.029   1.884   8.606 -0.0741 -1.1882 -0.7498
 9494SOL    HW240119   3.119   1.974   8.527  0.8176 -0.8683 -1.8295
 9495SOL     OW40120   2.582   1.112  17.168 -0.0633 -0.7183  0.7425
 9495SOL    HW140121   2.631   1.047  17.219 -0.4412 -0.8084  0.9954
 9495SOL    HW240122   2.498   1.109  17.215 -0.3935  0.1425  0.1960
 9496SOL     OW40123   2.449   2.143   9.124 -0.2903 -0.1696  0.1434
 9496SOL    HW140124   2.533   2.176   9.094 -0.5214 -1.4417 -1.9062
 9496SOL    HW240125   2.394   2.157   9.047 -0.3863  0.8616  0.4040
 9497SOL     OW40126   3.514   1.764   6.727  0.2916  0.5396  0.0292
 9497SOL    HW140127   3.455   1.768   6.652  0.4716  1.7713 -0.0519
 9497SOL    HW240128   3.511   1.673   6.758  2.6486 -0.1157 -1.5796
 9498SOL     OW40129   2.071   0.448  13.280 -0.3855  0.3181  0.3210
 9498SOL    HW140130   2.139   0.382  13.297  2.3508  3.4117  1.3275
 9498SOL    HW240131   2.122   0.522  13.311 -0.9723  0.2353  1.5144
 9499SOL     OW40132   4.344   3.089   2.977  0.5557 -0.2941  0.5245
 9499SOL    HW140133   4.254   3.056   2.972  1.0932 -1.4110 -1.6858
 9499SOL    HW240134   4.352   3.124   2.888  0.7307 -0.7391  0.3673
 9500SOL     OW40135   2.719   4.487  11.714  0.3501 -0.0420 -0.2048
 9500SOL    HW140136   2.704   4.407  11.663  1.0780  0.0494 -0.5561
 9500SOL    HW240137   2.688   4.560  11.660 -0.5237 -0.2215  0.0479
 9501SOL     OW40138   4.189   3.217  13.642 -0.5064 -0.2871 -0.8465
 9501SOL    HW140139   4.269   3.175  13.672  0.6683  1.3432 -1.7311
 9501SOL    HW240140   4.124   3.189  13.706 -0.7863  1.0479 -0.5466
 9502SOL     OW40141   1.926   2.990  10.206 -0.3476  0.0533  0.8455
 9502SOL    HW140142   1.938   2.988  10.111  0.0489 -3.0300  0.9822
 9502SOL    HW240143   1.951   3.081  10.222 -1.6485  0.6218 -0.3404
 9503SOL     OW40144   0.590   0.523   5.135  0.2152  0.1769 -0.3012
 9503SOL    HW140145   0.503   0.504   5.171  0.4438 -1.4030 -0.5545
 9503SOL    HW240146   0.643   0.445   5.155 -0.5187  0.0650  1.1938
 9504SOL     OW40147   1.660   2.121  13.521  0.3520 -0.0908  0.1456
 9504SOL    HW140148   1.593   2.182  13.489 -0.3264  0.4586  2.5725
 9504SOL    HW240149   1.738   2.171  13.498 -1.2821  3.0541  1.4558
 9505SOL     OW40150   2.725   3.676   3.146 -0.1988  0.4572 -0.3659
 9505SOL    HW140151   2.722   3.746   3.081  0.2983  0.6554 -0.1837
 9505SOL    HW240152   2.815   3.690   3.178 -0.6057  3.0452 -0.3519
 9506SOL     OW40153   2.068   2.829   6.965 -0.1300  0.3346 -0.5594
 9506SOL    HW140154   2.154   2.793   6.944 -0.5328 -0.5106 -0.7266
 9506SOL    HW240155   2.051   2.798   7.054  0.7240  0.6480 -0.2923
 9507SOL     OW40156   3.678   0.983   0.289  0.5053 -0.2628 -0.4052
 9507SOL    HW140157   3.655   0.972   0.197  0.0463  1.8192 -0.5460
 9507SOL    HW240158   3.766   0.945   0.290  0.3036 -0.7183  1.2345
 9508SOL     OW40159   3.086   1.139   7.243  0.4642  0.7026 -0.0153
 9508SOL    HW140160   3.049   1.057   7.276  0.3138  0.6767 -0.2442
 9508SOL    HW240161   3.042   1.133   7.157 -0.7601 -0.3058  0.6809
 9509SOL     OW40162   0.160   1.389   2.509 -0.1783 -0.2360  0.0511
 9509SOL    HW140163   0.112   1.333   2.448 -0.6629  1.2181 -0.8979
 9509SOL    HW240164   0.155   1.473   2.464  0.0397 -0.3037 -0.0998
 9510SOL     OW40165   2.425   2.095   5.041  0.5417 -0.1360 -0.1197
 9510SOL    HW140166   2.446   2.002   5.038  0.8639 -0.1758  2.8805
 9510SOL    HW240167   2.487   2.133   5.104  0.5472  0.6473 -0.5954
 9511SOL     OW40168   2.065   1.731   4.820 -0.4579  0.4333  0.4615
 9511SOL    HW140169   2.025   1.650   4.850  0.1952 -0.2071 -0.3838
 9511SOL    HW240170   2.052   1.723   4.725 -0.0132  2.1476  0.2497
 9512SOL     OW40171   1.340   0.996   2.533  0.1808  0.1848 -0.0299
 9512SOL    HW140172   1.355   0.924   2.594  0.3805  2.3702  2.5476
 9512SOL    HW240173   1.309   1.063   2.595 -0.0155 -0.0191  0.0901
 9513SOL     OW40174   0.989   0.896  15.837 -0.4499 -0.7540  0.0675
 9513SOL    HW140175   0.921   0.964  15.838 -0.0185 -0.3336  0.6222
 9513SOL    HW240176   1.042   0.927  15.763 -2.2509 -0.4192 -1.0960
 9514SOL     OW40177   1.837   2.945   7.285  0.6577  0.3622  0.3072
 9514SOL    HW140178   1.867   3.035   7.281 -0.1905  0.6026 -0.8013
 9514SOL    HW240179   1.759   2.936   7.340 -0.2264 -1.0993 -1.1657
 9515SOL     OW40180   0.344   4.426   6.856  0.0164 -0.6677  0.7797
 9515SOL    HW140181   0.428   4.462   6.885  0.0171 -0.8420  0.9926
 9515SOL    HW240182   0.316   4.363   6.922 -0.4661 -0.7365  0.5039
 9516SOL     OW40183   3.126   4.529   0.201 -1.1199 -0.1174 -0.0357
 9516SOL    HW140184   3.112   4.543   0.295  1.6115 -0.4123  0.4086
 9516SOL    HW240185   3.221   4.535   0.211 -0.9449 -3.7163  0.2127
 9517SOL     OW40186   1.613   0.888   2.983 -0.1270  0.6748  0.0695
 9517SOL    HW140187   1.521   0.880   2.958 -0.2229  1.2615  0.2376
 9517SOL    HW240188   1.621   0.823   3.054 -2.2093  1.3495  0.9232
 9518SOL     OW40189   1.155   2.922  16.693  0.0966  0.1766 -0.0630
 9518SOL    HW140190   1.196   2.837  16.711  0.6738 -0.3274 -3.8471
 9518SOL    HW240191   1.217   2.983  16.654  1.4143 -0.9455  0.2599
 9519SOL     OW40192   0.178   2.320  16.213  0.2306  0.5418 -0.4342
 9519SOL    HW140193   0.083   2.317  16.223  0.2350  1.3089 -0.1597
 9519SOL    HW240194   0.196   2.233  16.250 -2.5461  0.2465  0.2247
 9520SOL     OW40195   1.528   0.853  16.306 -0.6651  0.2084  0.0128
 9520SOL    HW140196   1.575   0.890  16.232  0.1510  0.6870  0.7634
 9520SOL    HW240197   1.447   0.823  16.264  0.2033  0.7917 -2.0768
 9521SOL     OW40198   2.372   0.161  14.909  0.5377 -0.0187  0.2462
 9521SOL    HW140199   2.282   0.190  14.924  0.4330 -1.2092  1.9836
 9521SOL    HW240200   2.403   0.240  14.866  1.7286 -1.1574 -0.9920
 9522SOL     OW40201   2.345   0.567  15.736  0.2425 -0.1296  0.5758
 9522SOL    HW140202   2.421   0.510  15.726  0.5481  0.5630 -1.0522
 9522SOL    HW240203   2.383   0.623  15.804  0.5919  0.1280  0.1692
 9523SOL     OW40204   1.656   4.089   2.090  0.6322  0.3349  0.1694
 9523SOL    HW140205   1.656   4.004   2.133 -1.3651  0.6554  0.8056
 9523SOL    HW240206   1.568   4.123   2.109  0.0918 -0.3730 -1.0314
 9524SOL     OW40207   0.341   2.631   2.609  0.1310 -0.2673  0.7887
 9524SOL    HW140208   0.293   2.697   2.558  0.6339 -1.8190 -1.6789
 9524SOL    HW240209   0.287   2.553   2.599 -0.6648  0.3466  0.2667
 9525SOL     OW40210   4.042   1.645   2.040  0.0485  0.4055 -0.3401
 9525SOL    HW140211   4.016   1.558   2.071 -0.1193 -0.1862 -2.1246
 9525SOL    HW240212   4.084   1.680   2.118  0.5209 -0.2906 -0.2813
 9526SOL     OW40213   1.272   0.032   2.196 -0.1377 -0.0609  0.4179
 9526SOL    HW140214   1.220   0.089   2.253  1.4870 -0.7317  2.5626
 9526SOL    HW240215   1.343   0.091   2.171 -0.9429  0.2094 -1.2730
 9527SOL     OW40216   1.878   1.256   8.479  0.1884 -0.4122  0.2081
 9527SOL    HW140217   1.942   1.282   8.413 -1.9625 -0.6025 -1.9262
 9527SOL    HW240218   1.831   1.189   8.430  0.6182 -0.4080 -0.2087
 9528SOL     OW40219   0.853   3.611   6.794  0.1181  0.3670  0.4749
 9528SOL    HW140220   0.914   3.619   6.868 -0.7534  1.4227  1.0821
 9528SOL    HW240221   0.831   3.704   6.788  0.4803  0.4166 -0.1099
 9529SOL     OW40222   3.194   3.406   1.728  0.3662 -0.0400 -0.2728
 9529SOL    HW140223   3.278   3.363   1.742 -0.0489 -0.1060  1.9151
 9529SOL    HW240224   3.172   3.350   1.653 -0.5898 -0.6019  0.4299
 9530SOL     OW40225   2.389   1.339   5.430 -0.3303 -0.0412  0.2913
 9530SOL    HW140226   2.414   1.257   5.387 -0.2400 -1.0201  2.2184
 9530SOL    HW240227   2.295   1.327   5.443 -0.6957  1.1008 -1.1967
 9531SOL     OW40228   1.832   2.865   9.010  0.1190  0.6244  0.6168
 9531SOL    HW140229   1.862   2.895   8.924  1.4217  0.4381  1.0024
 9531SOL    HW240230   1.736   2.871   9.010 -0.0455 -1.7898  3.0812
 9532SOL     OW40231   2.911   2.055   4.198  0.7860  0.2507  0.0503
 9532SOL    HW140232   2.855   2.092   4.266  1.7652  1.9066 -0.0430
 9532SOL    HW240233   2.986   2.016   4.244  1.3513  2.1810  0.7569
 9533SOL     OW40234   2.120   0.624  16.485  0.5290  0.2777 -0.3501
 9533SOL    HW140235   2.076   0.709  16.482 -0.5616 -0.3490 -2.1404
 9533SOL    HW240236   2.214   0.644  16.488  0.0525  2.4518 -0.5770
 9534SOL     OW40237   0.377   1.797   6.506 -0.0369  0.5977 -0.1288
 9534SOL    HW140238   0.417   1.881   6.528  1.4965 -0.1122 -0.1954
 9534SOL    HW240239   0.454   1.739   6.510  0.6051  1.3690 -1.4525
 9535SOL     OW40240   3.471   0.134   6.102  0.1181  0.1724 -0.2233
 9535SOL    HW140241   3.420   0.113   6.181  2.7999  1.3043  1.8020
 9535SOL    HW240242   3.465   0.230   6.095 -3.3585  0.0167  0.5827
 9536SOL     OW40243   0.438   0.208   1.448  0.2211 -1.1834 -0.3061
 9536SOL    HW140244   0.371   0.250   1.502 -1.4149 -2.4482 -1.3423
 9536SOL    HW240245   0.385   0.168   1.379 -1.0336  1.6128 -0.9622
 9537SOL     OW40246   3.279   2.624   3.921  0.1124  0.2341 -0.1041
 9537SOL    HW140247   3.349   2.560   3.929  0.0459  0.1325 -0.3155
 9537SOL    HW240248   3.220   2.566   3.873 -0.5147 -0.6982  1.8287
 9538SOL     OW40249   0.984   4.437   4.245  0.5863 -0.0882  0.3454
 9538SOL    HW140250   1.020   4.351   4.266  3.1994  1.4348  2.1215
 9538SOL    HW240251   1.066   4.475   4.213 -0.5430  1.3269 -0.8793
 9539SOL     OW40252   2.235   2.773   6.323  0.2756  0.0886  0.1556
 9539SOL    HW140253   2.262   2.705   6.385 -1.5273 -2.0075 -1.3695
 9539SOL    HW240254   2.169   2.722   6.276 -0.3865  0.8248  0.2926
 9540SOL     OW40255   3.067   1.495   7.133  0.3991  0.3296  0.0595
 9540SOL    HW140256   2.997   1.519   7.071  2.0501  1.9079 -1.1901
 9540SOL    HW240257   3.125   1.443   7.078  0.7063  0.1905  0.5261
 9541SOL     OW40258   2.027   1.613  16.864 -0.0747  0.1931 -0.1141
 9541SOL    HW140259   2.031   1.707  16.845 -2.2507  0.5739  1.4266
 9541SOL    HW240260   1.940   1.612  16.903  0.6332 -0.5272  1.4431
 9542SOL     OW40261   0.460   1.687  12.365 -0.2993 -0.2422  0.0811
 9542SOL    HW140262   0.518   1.751  12.324  3.2787 -3.3005  0.3816
 9542SOL    HW240263   0.462   1.606  12.314  0.2331 -0.8757  1.1320
 9543SOL     OW40264   2.593   0.914   5.480 -0.4087 -0.1920  0.7749
 9543SOL    HW140265   2.663   0.852   5.459 -0.6576  0.6792 -2.6701
 9543SOL    HW240266   2.561   0.873   5.560 -2.3316 -0.6300 -0.2063
 9544SOL     OW40267   2.887   2.425  14.409 -0.5368 -0.2029 -1.2401
 9544SOL    HW140268   2.955   2.464  14.355  0.4981  2.0353  1.6881
 9544SOL    HW240269   2.903   2.466  14.494 -3.0845 -1.7506  0.0126
 9545SOL     OW40270   2.546   3.011   8.185 -0.1591  0.3087  0.4549
 9545SOL    HW140271   2.597   3.089   8.207  0.7729 -0.0596 -0.4295
 9545SOL    HW240272   2.597   2.939   8.221  3.5039  1.7703 -1.8355
 9546SOL     OW40273   3.027   3.763   9.470  0.0100  0.6173 -0.3805
 9546SOL    HW140274   2.945   3.720   9.495  0.3534 -0.4048 -0.9982
 9546SOL    HW240275   3.090   3.703   9.509 -0.1900  0.8460  0.2940
 9547SOL     OW40276   3.132   0.080   3.886 -0.4115  0.0975 -0.1341
 9547SOL    HW140277   3.140   0.005   3.827 -1.6374 -0.3495  0.2608
 9547SOL    HW240278   3.095   0.133   3.816  0.7898  1.4124  0.2368
 9548SOL     OW40279   3.674   4.386   8.541  0.3009  0.5286 -0.5588
 9548SOL    HW140280   3.593   4.405   8.494  0.0583  2.1651  0.5074
 9548SOL    HW240281   3.643   4.395   8.631  0.0150 -1.4374 -0.4588
 9549SOL     OW40282   4.503   0.918  17.058  0.3084 -0.1424 -0.2143
 9549SOL    HW140283   4.589   0.951  17.084  0.6035  0.3996 -1.8694
 9549SOL    HW240284   4.462   0.911  17.144 -2.3504  2.1065 -1.3106
 9550SOL     OW40285   4.506   3.696  13.186 -0.1562 -0.1154  0.4305
 9550SOL    HW140286   4.438   3.636  13.156 -0.9757  0.3569  1.3317
 9550SOL    HW240287   4.564   3.693  13.110  0.7075 -0.2665  1.0955
 9551SOL     OW40288   2.677   0.751   6.195 -0.1114 -0.2162  0.3922
 9551SOL    HW140289   2.697   0.721   6.106  0.7660 -0.0326  0.5352
 9551SOL    HW240290   2.622   0.827   6.177  1.5536  1.1652  1.2508
 9552SOL     OW40291   4.606   4.297  10.516 -0.1715 -0.3172  0.3297
 9552SOL    HW140292   4.589   4.389  10.494  1.0722 -0.2854 -0.5719
 9552SOL    HW240293   4.624   4.258  10.430  2.5188  0.3122  0.6036
 9553SOL     OW40294   4.165   0.357   2.853  0.1472 -0.1402  0.0610
 9553SOL    HW140295   4.141   0.420   2.784  1.2040 -1.0870 -1.1593
 9553SOL    HW240296   4.109   0.284   2.828  1.4730 -0.5220 -1.7805
 9554SOL     OW40297   2.617   0.629  16.548 -0.0613 -0.0812  0.1390
 9554SOL    HW140298   2.550   0.577  16.503 -1.3903  1.2905  0.5394
 9554SOL    HW240299   2.583   0.716  16.527  0.3894 -0.3029 -1.5444
 9555SOL     OW40300   2.217   3.558  14.807  0.6053  0.1122  0.1234
 9555SOL    HW140301   2.136   3.606  14.823 -0.2853 -0.7890 -1.7180
 9555SOL    HW240302   2.200   3.500  14.881 -1.7335  0.6931  0.0401
 9556SOL     OW40303   1.992   1.875  16.798  0.0202  0.3031  0.3716
 9556SOL    HW140304   2.024   1.962  16.823 -0.4953  0.5049  0.3260
 9556SOL    HW240305   2.010   1.874  16.704  0.2402  4.0924  0.3682
 9557SOL     OW40306   0.342   1.094   0.249 -0.6816  0.0461  0.2119
 9557SOL    HW140307   0.264   1.099   0.305 -0.9351 -0.4890 -0.0959
 9557SOL    HW240308   0.376   1.182   0.265  0.5876 -0.5151  0.5044
 9558SOL     OW40309   1.701   4.149   4.457 -0.1323 -0.1792  0.2243
 9558SOL    HW140310   1.766   4.125   4.523 -0.2635  1.7021  1.0420
 9558SOL    HW240311   1.653   4.067   4.447 -0.2913 -0.0182 -0.3301
 9559SOL     OW40312   3.841   1.769  17.676  0.2080 -0.7357  0.6260
 9559SOL    HW140313   3.911   1.730  17.622  0.7771  1.0662  0.0640
 9559SOL    HW240314   3.889   1.774  17.758 -0.6982  0.7569  1.0532
 9560SOL     OW40315   1.966   3.120  12.298  0.4823  0.2828 -0.2375
 9560SOL    HW140316   1.917   3.038  12.293  0.5679  0.1628  0.8882
 9560SOL    HW240317   1.949   3.145  12.207  2.3434  1.5420 -0.2252
 9561SOL     OW40318   4.538   1.171   5.970  0.2335 -1.0534 -0.6817
 9561SOL    HW140319   4.614   1.226   5.987 -0.6818  0.2259 -0.7327
 9561SOL    HW240320   4.511   1.229   5.899 -0.4007 -0.4738  0.0310
 9562SOL     OW40321   0.367   3.236   7.482  0.0381 -0.1970 -0.3380
 9562SOL    HW140322   0.398   3.191   7.561  1.5698 -0.1820 -0.9240
 9562SOL    HW240323   0.453   3.276   7.469  0.4121 -0.7530  0.4788
 9563SOL     OW40324   3.920   2.451   2.683  0.5881  0.2367 -0.0859
 9563SOL    HW140325   3.953   2.437   2.594 -0.3342 -0.6157 -0.2924
 9563SOL    HW240326   3.854   2.383   2.680 -1.3481  2.1292 -0.5870
 9564SOL     OW40327   1.570   1.424   8.588  0.0357  0.0415 -0.8656
 9564SOL    HW140328   1.633   1.404   8.658 -0.5586 -0.9488 -0.6090
 9564SOL    HW240329   1.520   1.488   8.638  1.1794  0.0184  0.3177
 9565SOL     OW40330   2.804   2.790   4.444  0.3009  0.0164  0.9389
 9565SOL    HW140331   2.886   2.798   4.395 -1.4143  0.3355 -1.8438
 9565SOL    HW240332   2.785   2.884   4.453  0.7714  0.3143 -1.0718
 9566SOL     OW40333   3.571   3.267   4.461  0.2867 -0.1036 -0.2913
 9566SOL    HW140334   3.509   3.195   4.457 -0.7997  0.8455 -0.4812
 9566SOL    HW240335   3.513   3.336   4.429 -1.1017 -0.9538  0.3988
 9567SOL     OW40336   1.327   0.502  13.617 -0.9167  0.3004  0.3282
 9567SOL    HW140337   1.363   0.569  13.559 -0.9005 -0.3320 -0.3947
 9567SOL    HW240338   1.270   0.558  13.669  0.3349  2.1868 -0.2972
 9568SOL     OW40339   1.930   4.270   7.632 -0.2294  0.0379 -0.1625
 9568SOL    HW140340   1.835   4.263   7.633 -0.1634 -0.7791  0.2466
 9568SOL    HW240341   1.944   4.322   7.711  2.0641  0.1741 -0.6613
 9569SOL     OW40342   1.508   1.406   1.486 -0.4341 -0.2883 -0.7998
 9569SOL    HW140343   1.470   1.321   1.462  1.1456 -0.1695 -3.7686
 9569SOL    HW240344   1.554   1.381   1.566 -0.0958 -1.1576 -1.2552
   4.74027   4.74027  17.75858
