Membrane in water
40344
    1TMC1    C1    1   2.230   2.325  11.934 -0.0517  0.0077  0.8821
    1TMC1    C2    2   2.204   2.463  11.948 -0.0111  0.4932 -0.0774
    1TMC1    C3    3   2.284   2.551  11.878 -0.4262 -0.2071 -0.1557
    1TMC1    C4    4   2.339   2.285  11.864 -0.2875 -0.8535 -0.0834
    1TMC1    C5    5   2.421   2.377  11.801  0.4712  0.1499  0.8088
    1TMC1    C6    6   2.389   2.512  11.800 -0.3798 -0.8273 -0.4493
    1TMC1     C    7   2.123   2.230  11.976 -0.0936 -0.2863 -0.7542
    1TMC1     O    8   2.034   2.279  12.043 -0.8645  0.3954 -0.3388
    1TMC1     H    9   2.112   2.490  11.999 -0.0502 -1.3423  0.8230
    1TMC1    H1   10   2.379   2.185  11.875 -1.5144 -1.4941 -1.4812
    1TMC1    H2   11   2.438   2.581  11.732  2.3435 -0.2398  2.1044
    1TMC1    C7   12   2.515   2.329  11.705  0.0233 -0.4473 -0.1704
    1TMC1    C8   13   2.219   2.672  11.838  0.2839  0.5206  0.7193
    1TMC1    O1   14   2.518   2.213  11.676 -0.6524  0.4192 -0.2021
    1TMC1    O2   15   2.245   2.720  11.731  0.4131  0.1606  0.2673
    1TMC1    O3   16   2.605   2.415  11.661  0.7169 -0.6004 -0.0314
    1TMC1    H3   17   2.613   2.501  11.708  0.4399 -1.7880  2.1821
    1TMC1    O5   18   2.180   2.747  11.944  0.3802 -0.3603  0.7424
    1TMC1    H5   19   2.187   2.698  12.028  0.8101 -1.1177  0.2712
    2MPD2     C   20   1.889   1.777  12.002 -0.4588 -0.4988 -0.1815
    2MPD2    C1   21   1.829   1.904  12.019 -0.3902  0.5258  0.2455
    2MPD2    C2   22   1.912   2.016  11.996  0.7958  0.4759 -0.7270
    2MPD2    C3   23   2.044   1.997  11.950 -0.0040 -0.0784 -0.1105
    2MPD2    C4   24   2.091   1.874  11.917 -0.4314 -0.5347 -0.3122
    2MPD2    C5   25   2.017   1.761  11.953 -0.1320 -0.1890 -0.1002
    2MPD2     H   26   1.864   2.113  12.006  0.8294  0.7247 -2.8361
    2MPD2    H1   27   2.193   1.862  11.883 -0.9878 -0.3795 -2.0830
    2MPD2    H2   28   1.838   1.685  12.029  1.3689 -1.3603  0.3550
    2MPD2    H3   29   2.063   1.665  11.934  1.4341  0.1105  2.2055
    2MPD2     N   30   2.143   2.103  11.936 -0.3328  0.1751  0.1206
    2MPD2    H5   31   2.225   2.076  11.883 -0.9778  0.9433 -1.2602
    2MPD2    N1   32   1.701   1.922  12.070 -0.2602  0.2438 -0.0052
    2MPD2    H7   33   1.672   2.015  12.097 -1.0720 -0.4613  1.5299
    3TMC1    C1   34   1.370   4.153  10.950  0.0800 -0.0868 -0.7595
    3TMC1    C2   35   1.435   4.137  10.829 -0.1805  0.0683  0.0708
    3TMC1    C3   36   1.456   4.253  10.751  0.3716  0.4936 -0.4921
    3TMC1    C4   37   1.348   4.279  10.998  0.5563 -0.1549  0.0886
    3TMC1    C5   38   1.377   4.392  10.926  0.0243  0.5672  0.2222
    3TMC1    C6   39   1.424   4.385  10.799 -0.3998  0.2561  0.6431
    3TMC1     C   40   1.350   4.036  11.039  0.1244 -0.7493 -0.7183
    3TMC1     O   41   1.366   3.928  10.984 -0.1859  0.7731  0.0933
    3TMC1     H   42   1.466   4.041  10.788 -3.1848 -1.2906  0.9892
    3TMC1    H1   43   1.289   4.301  11.087  1.6455 -2.9152  1.4845
    3TMC1    H2   44   1.416   4.468  10.729 -0.6086 -0.8013 -0.5861
    3TMC1    C7   45   1.389   4.520  10.991 -0.2576 -0.5491 -0.1187
    3TMC1    C8   46   1.530   4.234  10.631  0.5312 -0.0759 -0.2520
    3TMC1    O1   47   1.392   4.620  10.916  0.6762 -0.5222 -0.2009
    3TMC1    O2   48   1.516   4.319  10.547 -0.2795 -0.0760  0.2835
    3TMC1    O3   49   1.494   4.490  11.078  0.5796 -0.5024 -0.1997
    3TMC1    H3   50   1.507   4.394  11.093  0.9944 -0.4391 -0.1508
    3TMC1    O5   51   1.643   4.165  10.659  0.0694  0.7407 -0.4368
    3TMC1    H5   52   1.635   4.110  10.740 -1.3651  1.5234 -0.0402
    4MPD2     C   53   1.386   3.856  11.528  0.8715 -0.0769  0.1123
    4MPD2    C1   54   1.311   3.974  11.526 -0.3803 -0.1451  0.4891
    4MPD2    C2   55   1.284   4.038  11.405  0.9252  0.3366 -0.5244
    4MPD2    C3   56   1.334   3.993  11.285  0.3877  0.3754  0.6410
    4MPD2    C4   57   1.398   3.872  11.284 -0.1263  0.0526  0.2054
    4MPD2    C5   58   1.423   3.800  11.403 -0.5327 -0.2935  1.1455
    4MPD2     H   59   1.219   4.124  11.400  0.2182 -0.1586  0.0872
    4MPD2    H1   60   1.436   3.826  11.194 -1.4620  0.9038 -0.7863
    4MPD2    H2   61   1.404   3.807  11.623  0.8484 -0.7357 -0.2279
    4MPD2    H3   62   1.472   3.704  11.408  0.5661  0.1414 -1.3912
    4MPD2     N   63   1.323   4.072  11.170 -0.6892 -0.1216 -0.4570
    4MPD2    H5   64   1.321   4.171  11.187  1.1477  0.3139 -2.7316
    4MPD2    N1   65   1.260   4.035  11.642  0.2383 -0.1763 -0.4632
    4MPD2    H7   66   1.211   4.122  11.622  1.2802  0.4189 -0.4186
    5TCq1    O1   67   2.109   4.625  12.630  0.1216 -0.1123 -0.0852
    5TCq1    C1   68   2.116   4.618  12.495 -0.3845 -0.5348 -0.2329
    5TCq1    O2   69   2.211   4.643  12.422  0.4548  0.3917  0.0113
    5TCq1    C2   70   1.983   4.601  12.443 -0.4075  0.0158 -0.5616
    5TCq1    C3   71   1.879   4.633  12.528 -0.5127  0.6876 -0.1170
    5TCq1    C4   72   1.752   4.620  12.487  0.3334 -0.2329 -0.3251
    5TCq1    C5   73   1.729   4.560  12.362 -0.6781 -0.8729  0.3383
    5TCq1    C6   74   1.838   4.534  12.278  0.4356 -0.2487  0.0501
    5TCq1    C7   75   1.966   4.558  12.321 -0.4309  0.6450 -0.5750
    5TCq1    C8   76   1.827   4.486  12.142  0.8135  0.2712 -0.9692
    5TCq1    O4   77   1.934   4.482  12.078  0.0221 -0.5093  0.5147
    5TCq1    C9   78   1.651   4.642  12.580  0.9295  0.6792  0.0372
    5TCq1    O5   79   1.535   4.635  12.537  0.1026 -0.2126 -0.2349
    5TCq1    O6   80   1.683   4.694  12.688  0.1512  0.2233  0.0151
    5TCq1    H1   81   2.035   4.571  12.665 -0.6563  0.6483 -0.5693
    5TCq1    H2   82   1.882   4.665  12.631  0.6782 -0.5031  0.2162
    5TCq1    H3   83   1.628   4.532  12.337 -0.2017 -2.7773  0.5606
    5TCq1    H4   84   2.050   4.553  12.253 -1.1002 -1.0003 -1.2824
    6MPD2     C   85   1.516   4.511  11.930 -0.4544 -0.9196 -0.9891
    6MPD2    C1   86   1.649   4.473  11.962  0.3430  0.2010 -0.7792
    6MPD2    C2   87   1.706   4.373  11.884  0.1648  0.0428  0.5703
    6MPD2    C3   88   1.643   4.325  11.773  0.6662  0.0166 -0.0638
    6MPD2    C4   89   1.513   4.361  11.742 -0.1602 -0.2024  0.7474
    6MPD2    C5   90   1.455   4.457  11.818 -0.1483  0.2081  0.5905
    6MPD2     H   91   1.803   4.335  11.914  0.3611  0.8506  0.9631
    6MPD2    H1   92   1.445   4.337  11.661  0.3690 -0.0618  0.2643
    6MPD2    H2   93   1.458   4.580  11.990  1.0410 -1.5868  1.2476
    6MPD2    H3   94   1.351   4.476  11.793  0.4597  1.2136 -1.1536
    6MPD2     N   95   1.695   4.221  11.694  0.2760  0.1464  0.1030
    6MPD2    H5   96   1.785   4.189  11.730  1.3384  1.7908 -1.1085
    6MPD2    N1   97   1.698   4.499  12.093  0.4136 -0.2807  0.1842
    6MPD2    H7   98   1.634   4.542  12.159  0.2523 -0.1278 -0.0720
    7TCq1    O1   99   3.254   3.789  13.018  0.7543  0.2551 -0.0697
    7TCq1    C1  100   3.377   3.753  13.068 -0.4060  0.2163 -0.3324
    7TCq1    O2  101   3.414   3.637  13.056  0.2157 -0.2713  0.1594
    7TCq1    C2  102   3.402   3.819  13.193 -0.0577  0.2447  0.0721
    7TCq1    C3  103   3.348   3.944  13.220  0.0212  0.5260 -0.0086
    7TCq1    C4  104   3.355   3.988  13.351 -0.0255  0.5420  0.2763
    7TCq1    C5  105   3.413   3.921  13.452  0.2484  0.0472  0.2211
    7TCq1    C6  106   3.470   3.795  13.412  0.3103 -0.0841 -0.0612
    7TCq1    C7  107   3.464   3.745  13.285 -0.1238 -0.4622 -0.2935
    7TCq1    C8  108   3.536   3.710  13.508  0.0867 -0.2265 -0.0903
    7TCq1    O4  109   3.583   3.607  13.471  0.2272 -0.0470  0.3410
    7TCq1    C9  110   3.320   4.126  13.375 -0.5425  0.5576 -0.5040
    7TCq1    O5  111   3.315   4.199  13.267 -0.1281  0.0098 -0.1235
    7TCq1    O6  112   3.288   4.171  13.489  0.4246  0.2907 -0.2981
    7TCq1    H1  113   3.224   3.868  13.067  1.3622 -0.3216  1.2442
    7TCq1    H2  114   3.309   4.009  13.143 -1.5522 -2.1607 -1.5145
    7TCq1    H3  115   3.423   3.968  13.549 -1.7313 -2.4810  1.6569
    7TCq1    H4  116   3.502   3.644  13.273 -1.2090 -1.2472  2.7515
    8MPD2     C  117   3.703   3.571  13.970 -0.1447 -0.5799 -0.2011
    8MPD2    C1  118   3.691   3.491  13.857  0.2966 -0.0832  0.1457
    8MPD2    C2  119   3.631   3.550  13.749 -0.8139  0.5754  0.2631
    8MPD2    C3  120   3.590   3.685  13.749 -0.4875  0.1206 -0.0827
    8MPD2    C4  121   3.592   3.754  13.871 -0.2092  0.4897 -0.1337
    8MPD2    C5  122   3.647   3.695  13.980 -0.1716  0.6053  0.2818
    8MPD2     H  123   3.624   3.505  13.650 -0.6408  0.5116  0.2787
    8MPD2    H1  124   3.562   3.857  13.892  2.4185  1.3688 -0.6669
    8MPD2    H2  125   3.748   3.536  14.062 -1.4685 -1.8238 -0.0291
    8MPD2    H3  126   3.658   3.753  14.071 -1.0008  0.0404  0.7456
    8MPD2     N  127   3.523   3.751  13.644 -0.2080  0.5546 -0.2322
    8MPD2    H5  128   3.482   3.841  13.667  2.2568  1.3021  1.2388
    8MPD2    N1  129   3.756   3.366  13.851 -0.6162  0.0030  0.5667
    8MPD2    H7  130   3.819   3.346  13.927 -2.0777 -2.5138  1.0894
    9TMC1    C1  131   1.973   2.730  11.451  0.7480  0.5992  0.0997
    9TMC1    C2  132   1.990   2.868  11.462 -0.5839 -0.1818 -0.2716
    9TMC1    C3  133   2.101   2.913  11.394 -0.4190  0.2366 -0.2736
    9TMC1    C4  134   2.048   2.652  11.368 -0.0012  0.7304  0.4739
    9TMC1    C5  135   2.157   2.712  11.302 -0.0687 -0.1974  0.4915
    9TMC1    C6  136   2.193   2.840  11.317 -0.1694  0.3671  0.1520
    9TMC1     C  137   1.892   2.661  11.546  0.5533 -0.4160  0.2033
    9TMC1     O  138   1.834   2.557  11.507  0.4102  0.6430  0.0088
    9TMC1     H  139   1.937   2.935  11.529  1.5605  1.5587 -0.3084
    9TMC1    H1  140   2.014   2.550  11.353  1.6335  0.1405  0.8195
    9TMC1    H2  141   2.279   2.893  11.278 -0.0896 -1.2575 -1.8641
    9TMC1    C7  142   2.277   2.630  11.283  0.5178 -0.1979  0.1655
    9TMC1    C8  143   2.151   3.049  11.428 -0.2509  0.0538  0.1438
    9TMC1    O1  144   2.387   2.662  11.321  0.1990  0.4066  0.1339
    9TMC1    O2  145   2.193   3.125  11.338  0.0910 -0.9597  0.2399
    9TMC1    O3  146   2.250   2.523  11.201 -0.2947  0.8860  0.3220
    9TMC1    H3  147   2.154   2.525  11.182 -0.0612  0.6573 -0.8551
    9TMC1    O5  148   2.096   3.095  11.540 -0.4636  0.3020 -0.3920
    9TMC1    H5  149   2.082   3.027  11.610  1.0669 -1.5986 -1.9091
   10MPD2     C  150   1.805   2.517  11.789  0.3770 -0.1329  0.0635
   10MPD2    C1  151   1.825   2.654  11.783 -0.0436 -0.2030  0.0091
   10MPD2    C2  152   1.789   2.731  11.892  0.4536  0.0985  0.1827
   10MPD2    C3  153   1.727   2.672  11.999 -0.2131  0.1168 -0.1006
   10MPD2    C4  154   1.708   2.534  12.004 -0.2478 -0.3805 -0.3622
   10MPD2    C5  155   1.747   2.457  11.897 -0.0367 -0.1731  0.0098
   10MPD2     H  156   1.808   2.838  11.892  2.4793 -0.2574 -1.3976
   10MPD2    H1  157   1.661   2.485  12.089  0.9041  0.2577  0.6402
   10MPD2    H2  158   1.835   2.453  11.707  0.9482 -0.5722  0.6207
   10MPD2    H3  159   1.734   2.350  11.887  1.4256 -0.3818  0.3407
   10MPD2     N  160   1.689   2.743  12.117 -0.5822 -0.3346 -0.6198
   10MPD2    H5  161   1.626   2.690  12.176  1.1401 -0.6637  0.9142
   10MPD2    N1  162   1.894   2.712  11.675 -0.4369  0.1318  0.2913
   10MPD2    H7  163   1.931   2.805  11.690  1.7240 -1.1382  2.6494
   11TCq1    O1  164   2.550   3.032  15.198 -0.5638  0.1064  0.1047
   11TCq1    C1  165   2.607   3.049  15.075  0.4418  1.1964 -0.0840
   11TCq1    O2  166   2.685   3.136  15.043  0.3303  0.3263  0.2309
   11TCq1    C2  167   2.550   2.945  14.991  0.4806 -0.0984 -0.3962
   11TCq1    C3  168   2.630   2.902  14.889  0.3587  0.5410 -0.7632
   11TCq1    C4  169   2.573   2.814  14.805  0.5206 -0.1380  0.1570
   11TCq1    C5  170   2.444   2.775  14.810 -0.1855  0.0347 -0.5237
   11TCq1    C6  171   2.360   2.838  14.905 -0.2422  0.4146  0.0423
   11TCq1    C7  172   2.414   2.926  14.995  0.1123 -0.1127 -0.0676
   11TCq1    C8  173   2.229   2.781  14.932 -0.1701  0.6180 -0.4899
   11TCq1    O4  174   2.187   2.798  15.043 -0.2064 -0.2489 -0.9881
   11TCq1    C9  175   2.659   2.751  14.712 -0.3664 -0.3974 -0.2539
   11TCq1    O5  176   2.610   2.655  14.649  0.2004  0.2824  0.1854
   11TCq1    O6  177   2.772   2.802  14.696 -0.2792 -0.9404  0.8492
   11TCq1    H1  178   2.501   2.947  15.193 -1.5839  0.6120  1.5432
   11TCq1    H2  179   2.732   2.939  14.891  1.1577 -1.4614 -4.7507
   11TCq1    H3  180   2.419   2.685  14.755 -1.3899 -0.9395  1.6157
   11TCq1    H4  181   2.354   2.979  15.068  1.7395 -1.6266  2.3375
   12MPD2     C  182   1.948   2.696  14.913  0.1015  0.0938 -0.2645
   12MPD2    C1  183   2.029   2.704  14.805 -0.3538  0.4572  0.2511
   12MPD2    C2  184   1.980   2.676  14.677 -0.2384 -0.2731 -0.0938
   12MPD2    C3  185   1.853   2.634  14.659  0.7454 -0.0364  0.2780
   12MPD2    C4  186   1.771   2.629  14.775  0.7545 -0.4496  0.5109
   12MPD2    C5  187   1.821   2.664  14.895  0.3517  0.0024  0.0198
   12MPD2     H  188   2.048   2.678  14.592  0.5750  1.2761  0.5844
   12MPD2    H1  189   1.669   2.594  14.781  0.7568 -0.4187  0.7191
   12MPD2    H2  190   1.984   2.706  15.014  3.8231 -2.0873 -1.3684
   12MPD2    H3  191   1.757   2.650  14.982 -0.0082  2.0190  0.0991
   12MPD2     N  192   1.798   2.613  14.530  0.2044 -0.5488  0.7078
   12MPD2    H5  193   1.865   2.626  14.454 -2.3386 -0.3854 -1.4975
   12MPD2    N1  194   2.166   2.735  14.814  0.4866 -0.3592  0.0049
   12MPD2    H7  195   2.227   2.742  14.733 -1.4104  1.7537 -1.2344
   13TCq1    O1  196   2.201   2.722  10.755 -0.2603 -0.1494 -0.5217
   13TCq1    C1  197   2.173   2.619  10.677 -1.1182 -0.8128  0.2809
   13TCq1    O2  198   2.177   2.625  10.553 -0.2695 -0.5454  0.3382
   13TCq1    C2  199   2.184   2.497  10.752  0.0896 -0.2038 -0.5602
   13TCq1    C3  200   2.233   2.388  10.689  0.0406 -0.4933 -0.0538
   13TCq1    C4  201   2.229   2.269  10.755 -0.0768  0.6759 -0.0144
   13TCq1    C5  202   2.176   2.264  10.884 -0.1886  0.4389  0.6760
   13TCq1    C6  203   2.134   2.378  10.949  0.0494 -0.6426  0.5622
   13TCq1    C7  204   2.135   2.502  10.884 -0.0969  0.5801 -0.0222
   13TCq1    C8  205   2.027   2.373  11.055 -0.4259 -0.0780  0.1548
   13TCq1    O4  206   1.991   2.478  11.111 -0.1881  0.3839  0.0206
   13TCq1    C9  207   2.266   2.147  10.688 -0.0095  0.2362 -0.3976
   13TCq1    O5  208   2.216   2.042  10.734  0.6212  0.2511 -0.2962
   13TCq1    O6  209   2.323   2.165  10.582  0.9692  0.2400  0.1014
   13TCq1    H1  210   2.215   2.701  10.849 -1.1192  1.4443 -0.0227
   13TCq1    H2  211   2.274   2.386  10.589  0.8910  0.6404  0.2730
   13TCq1    H3  212   2.174   2.166  10.932  0.5494 -1.7334 -3.7471
   13TCq1    H4  213   2.084   2.589  10.925  0.7181  1.2612 -0.4642
   14MPD2     C  214   1.838   2.076  11.144  0.0970 -0.1170 -0.5727
   14MPD2    C1  215   1.886   2.203  11.164  0.1195 -0.3311 -0.5056
   14MPD2    C2  216   1.841   2.270  11.274 -0.5920  0.3024  0.5931
   14MPD2    C3  217   1.739   2.224  11.356  0.1934 -0.9719 -0.2569
   14MPD2    C4  218   1.686   2.104  11.324  0.0619 -0.1666 -0.5608
   14MPD2    C5  219   1.735   2.033  11.222  0.1938 -0.2077  0.5968
   14MPD2     H  220   1.887   2.365  11.301 -0.9443  0.0396  2.1028
   14MPD2    H1  221   1.605   2.065  11.386  0.8464 -1.1011 -0.1277
   14MPD2    H2  222   1.875   2.007  11.069  1.7894 -1.9844  1.9843
   14MPD2    H3  223   1.705   1.930  11.207  1.0606 -0.4125  0.2554
   14MPD2     N  224   1.682   2.306  11.460  0.5829 -0.3509 -0.0756
   14MPD2    H5  225   1.717   2.401  11.468  1.1717 -0.7201  1.6951
   14MPD2    N1  226   1.992   2.246  11.081 -0.5013  0.8049 -0.1412
   14MPD2    H7  227   2.022   2.176  11.013  1.3785  1.4472  0.0465
   15TCq1    O1  228   3.279   2.123   2.340 -0.4190 -0.1107 -0.0540
   15TCq1    C1  229   3.289   2.106   2.203  0.5023  0.3013 -0.5151
   15TCq1    O2  230   3.388   2.125   2.125  0.2854  0.1498  0.2852
   15TCq1    C2  231   3.177   2.021   2.181 -0.6960 -0.0340  0.3969
   15TCq1    C3  232   3.052   2.055   2.231 -0.5354  0.4372  0.0511
   15TCq1    C4  233   2.947   1.973   2.194  0.1701 -0.4110  0.4388
   15TCq1    C5  234   2.967   1.865   2.119  0.6459  0.4754 -0.0057
   15TCq1    C6  235   3.090   1.834   2.065 -0.0999 -0.2549  0.2698
   15TCq1    C7  236   3.191   1.918   2.093  0.2656  0.1077  0.0185
   15TCq1    C8  237   3.106   1.749   1.944  0.0377 -0.5665 -0.5521
   15TCq1    O4  238   3.207   1.754   1.873 -0.0684  0.1093 -0.0438
   15TCq1    C9  239   2.814   1.995   2.251  0.7386 -0.1378  0.6420
   15TCq1    O5  240   2.821   2.076   2.346 -0.2653  0.1439 -0.0184
   15TCq1    O6  241   2.715   1.968   2.183  0.2610 -0.0843 -0.0174
   15TCq1    H1  242   3.189   2.115   2.378 -0.4432  3.2894  0.5940
   15TCq1    H2  243   3.040   2.151   2.279 -1.3629  0.0673  0.5854
   15TCq1    H3  244   2.887   1.792   2.111  0.3031  0.8669 -0.1411
   15TCq1    H4  245   3.281   1.910   2.034  0.8449 -0.4840  0.9751
   16MPD2     C  246   2.854   1.523   1.806 -0.5946  0.0646  0.4421
   16MPD2    C1  247   2.981   1.568   1.830  0.5834  0.5568 -0.2596
   16MPD2    C2  248   3.086   1.513   1.759  0.2765 -0.2434 -0.2421
   16MPD2    C3  249   3.070   1.413   1.660 -0.0097 -0.2837  0.0694
   16MPD2    C4  250   2.940   1.369   1.644 -0.2206 -0.6838 -0.6262
   16MPD2    C5  251   2.831   1.422   1.711 -0.4431 -0.0090  0.5633
   16MPD2     H  252   3.190   1.537   1.782 -0.9232  1.1214  3.8181
   16MPD2    H1  253   2.918   1.286   1.578 -0.8593 -0.6432 -0.4717
   16MPD2    H2  254   2.771   1.560   1.866 -1.3169  2.1499 -1.8253
   16MPD2    H3  255   2.729   1.395   1.687  0.4548 -1.6558 -1.4266
   16MPD2     N  256   3.177   1.371   1.580  0.1617  0.3257 -0.1338
   16MPD2    H5  257   3.267   1.408   1.607 -0.1365 -0.6957  2.2498
   16MPD2    N1  258   2.993   1.670   1.929  0.0230 -0.4004 -0.0535
   16MPD2    H7  259   2.913   1.696   1.986 -0.0068  1.6668 -1.0156
   17TMC1    C1  260   1.791   1.960  11.645  0.3761  0.4351  0.4502
   17TMC1    C2  261   1.849   1.849  11.597  0.0544  0.5233 -0.2507
   17TMC1    C3  262   1.785   1.725  11.593  0.4218 -0.6487  1.0996
   17TMC1    C4  263   1.669   1.955  11.705  0.3411  0.2496 -0.6300
   17TMC1    C5  264   1.606   1.837  11.689 -0.0676  0.2791 -0.7953
   17TMC1    C6  265   1.651   1.724  11.629 -0.1260 -0.6362 -0.0412
   17TMC1     C  266   1.881   2.077  11.655  0.2215 -0.2200 -0.5177
   17TMC1     O  267   1.833   2.166  11.729 -0.0610  0.0920  0.0916
   17TMC1     H  268   1.957   1.844  11.584 -0.1103 -1.0480 -1.0693
   17TMC1    H1  269   1.628   2.036  11.765  3.1184  2.6031 -1.8698
   17TMC1    H2  270   1.598   1.630  11.637 -0.5098 -0.4555 -0.4951
   17TMC1    C7  271   1.471   1.840  11.724 -0.9160  0.0382  0.1526
   17TMC1    C8  272   1.863   1.603  11.565  0.1103 -0.1469 -0.2523
   17TMC1    O1  273   1.415   1.741  11.765 -0.0070 -0.3299  0.4765
   17TMC1    O2  274   1.974   1.606  11.508  0.0452  0.8139 -0.1659
   17TMC1    O3  275   1.431   1.965  11.726  0.7422 -0.3613 -0.3896
   17TMC1    H3  276   1.485   2.026  11.670 -0.6342  0.0699 -1.2633
   17TMC1    O5  277   1.814   1.493  11.630  0.3920  0.2445  0.6628
   17TMC1    H5  278   1.748   1.517  11.698  0.1534 -0.1622  0.5769
   18MPD2     C  279   2.065   2.290  11.600  0.3601  0.4609  0.0415
   18MPD2    C1  280   2.069   2.176  11.528  0.0036 -0.2463  0.2972
   18MPD2    C2  281   2.161   2.152  11.436  0.1040  0.3310  0.9594
   18MPD2    C3  282   2.261   2.242  11.415  0.4008 -0.1209 -0.2237
   18MPD2    C4  283   2.264   2.358  11.494 -0.2552 -0.5604 -0.3823
   18MPD2    C5  284   2.160   2.377  11.582  0.4223  0.0440  0.0791
   18MPD2     H  285   2.155   2.063  11.375  1.9392 -0.2722  1.6549
   18MPD2    H1  286   2.326   2.442  11.464 -0.7205 -0.5160 -1.2137
   18MPD2    H2  287   1.992   2.315  11.677  0.5394  0.0526  0.3480
   18MPD2    H3  288   2.147   2.470  11.638 -0.3339 -1.1194  1.8283
   18MPD2     N  289   2.370   2.218  11.324  0.1839 -0.3264  0.1589
   18MPD2    H5  290   2.438   2.292  11.310  0.1057 -0.0089  1.5002
   18MPD2    N1  291   1.969   2.076  11.557  0.2715  0.8920  0.3644
   18MPD2    H7  292   1.960   2.001  11.490  0.3616  1.0030  0.2287
   19TMC2    C1  293   3.156   2.584  14.496  0.6111 -0.0439 -0.4628
   19TMC2    C2  294   3.117   2.713  14.486 -0.4407 -0.5464  0.1495
   19TMC2    C3  295   2.984   2.731  14.481 -0.6491 -0.3898  0.0321
   19TMC2    C4  296   3.066   2.481  14.506 -0.5856 -0.2333  0.4888
   19TMC2    C5  297   2.930   2.507  14.498 -0.3083  0.4833  0.3388
   19TMC2    C6  298   2.890   2.636  14.475  0.7588 -0.2958  0.0324
   19TMC2     C  299   3.291   2.570  14.550  0.9479 -0.0051  0.5069
   19TMC2     O  300   3.350   2.679  14.556  0.3289 -0.6500 -0.2081
   19TMC2     H  301   3.177   2.801  14.509 -0.8068 -0.1906 -0.2461
   19TMC2    H1  302   3.093   2.383  14.543 -0.9593  0.1211  1.6712
   19TMC2    H2  303   2.786   2.656  14.451  0.6227 -1.2259 -0.1593
   19TMC2    C7  304   2.844   2.399  14.470 -0.1232 -0.1489 -0.2545
   19TMC2    C8  305   2.954   2.859  14.424 -1.1345 -0.1213 -0.9231
   19TMC2    O1  306   2.895   2.290  14.446 -0.5663  0.4127 -0.0239
   19TMC2    O2  307   3.029   2.922  14.348  0.1663  0.9822 -0.1718
   19TMC2    O5  308   2.819   2.885  14.437  0.5210 -0.3471  0.2034
   19TMC2    H5  309   2.800   2.851  14.527 -1.8135 -0.9926 -0.5210
   20MPD2     C  310   3.551   2.482  14.692  0.3138 -0.2555  0.3853
   20MPD2    C1  311   3.458   2.392  14.639  0.7413 -0.8076  0.6781
   20MPD2    C2  312   3.473   2.256  14.646  0.0092 -0.5301 -0.0935
   20MPD2    C3  313   3.580   2.197  14.701  0.8393 -0.2131 -0.3235
   20MPD2    C4  314   3.672   2.291  14.758  0.5399  0.5959 -0.6148
   20MPD2    C5  315   3.655   2.427  14.761  0.5483 -0.4912 -0.7372
   20MPD2     H  316   3.395   2.188  14.616 -0.2072 -0.6943  0.8495
   20MPD2    H1  317   3.755   2.243  14.809 -2.9895 -3.0858  1.7061
   20MPD2    H2  318   3.544   2.590  14.681  2.9529 -0.0801  0.2851
   20MPD2    H3  319   3.732   2.483  14.813  2.9231 -3.2124 -1.3327
   20MPD2     N  320   3.605   2.060  14.702  0.0835 -0.5429  0.3098
   20MPD2    H5  321   3.689   2.038  14.754 -2.7946 -2.0475  4.3402
   20MPD2    N1  322   3.334   2.438  14.586 -0.9081  0.1054  0.5132
   20MPD2    H7  323   3.273   2.364  14.553 -1.3311  0.6332  0.1048
   21TMC2    C1  324   0.730   2.430  14.239 -0.1975 -0.1418  1.1344
   21TMC2    C2  325   0.800   2.312  14.220 -0.1752 -0.4231 -0.3285
   21TMC2    C3  326   0.871   2.256  14.322  0.2143  0.4286  0.3786
   21TMC2    C4  327   0.730   2.487  14.367 -0.2784 -0.4217  0.8759
   21TMC2    C5  328   0.809   2.426  14.469  0.5215  0.2286  0.3107
   21TMC2    C6  329   0.883   2.310  14.451 -0.4046 -0.9080  0.6952
   21TMC2     C  330   0.706   2.507  14.113  0.1404  0.2463  0.5769
   21TMC2     O  331   0.671   2.440  14.015 -0.3666  0.4076 -0.0358
   21TMC2     H  332   0.781   2.252  14.132 -1.8676 -0.9547  0.3845
   21TMC2    H1  333   0.669   2.575  14.383  1.3014  0.9787 -0.8189
   21TMC2    H2  334   0.929   2.260  14.536  1.1280 -0.2206  0.2820
   21TMC2    C7  335   0.840   2.494  14.594 -0.4681  0.3438 -0.7015
   21TMC2    C8  336   0.916   2.131  14.302 -0.6247  0.4712 -0.7377
   21TMC2    O1  337   0.875   2.435  14.696 -0.0737  0.1202 -0.1013
   21TMC2    O2  338   0.855   2.064  14.224  0.0759  0.0699 -0.0558
   21TMC2    O5  339   0.991   2.078  14.400 -0.4438  0.4596 -0.0526
   21TMC2    H5  340   1.043   2.154  14.433 -2.2802  1.8726 -0.4648
   22MPD2     C  341   0.934   2.867  14.368 -0.4856 -0.3511 -0.1010
   22MPD2    C1  342   0.985   2.750  14.324 -0.3826  0.1198 -0.0434
   22MPD2    C2  343   0.908   2.678  14.228 -0.3811  0.7458  0.1153
   22MPD2    C3  344   0.786   2.729  14.190  0.2582  0.2533  0.0304
   22MPD2    C4  345   0.741   2.852  14.232  0.3561  0.5270 -0.0388
   22MPD2    C5  346   0.820   2.919  14.315  0.4304  0.6805  0.9686
   22MPD2     H  347   0.940   2.580  14.197  1.9649  1.6370 -0.3186
   22MPD2    H1  348   0.648   2.895  14.198 -0.5635  0.9201  2.9439
   22MPD2    H2  349   0.983   2.935  14.437 -0.6925 -0.3303  0.0256
   22MPD2    H3  350   0.788   3.020  14.339 -2.2795 -0.3749  1.8358
   22MPD2     N  351   0.693   2.644  14.125  0.3788 -0.2731 -0.7576
   22MPD2    H5  352   0.624   2.697  14.073 -0.2577  1.7133  2.0606
   22MPD2    N1  353   1.096   2.695  14.390 -0.2443 -0.5690  0.1856
   22MPD2    H7  354   1.120   2.603  14.353 -0.1286 -0.7238  0.6483
   23TMC2    C1  355   2.029   3.757  14.965  0.6393 -0.4646 -0.2963
   23TMC2    C2  356   2.068   3.861  14.888  0.6151  0.1211 -0.1424
   23TMC2    C3  357   2.007   3.876  14.762 -0.1735 -0.4205  0.2064
   23TMC2    C4  358   1.928   3.678  14.923  0.3854 -0.4299 -0.2579
   23TMC2    C5  359   1.866   3.692  14.803 -0.4967  0.0911 -0.2101
   23TMC2    C6  360   1.911   3.789  14.713  0.1997  0.5680  0.1107
   23TMC2     C  361   2.085   3.729  15.092  0.0081  0.1112 -0.7539
   23TMC2     O  362   2.011   3.674  15.170  0.5524  0.2566 -0.7831
   23TMC2     H  363   2.118   3.950  14.925  1.2785 -0.5942  0.6689
   23TMC2    H1  364   1.914   3.586  14.978  1.2109  0.1071  0.8568
   23TMC2    H2  365   1.875   3.799  14.611  2.7980  0.5893 -0.8088
   23TMC2    C7  366   1.767   3.589  14.760 -0.2056 -0.7380 -0.4831
   23TMC2    C8  367   2.080   3.960  14.679 -0.4459 -0.0963 -0.1546
   23TMC2    O1  368   1.786   3.475  14.802  0.0633 -0.9754  0.6027
   23TMC2    O2  369   2.200   3.982  14.705  0.6513 -0.3069 -0.3551
   23TMC2    O5  370   2.020   3.981  14.562  0.6250  0.1813 -0.3237
   23TMC2    H5  371   1.922   3.977  14.562  0.6364 -0.1547  0.1343
   24MPD2     C  372   2.431   3.816  15.489  0.6595  0.3005 -0.4513
   24MPD2    C1  373   2.337   3.715  15.479  0.1679  0.8328 -0.4227
   24MPD2    C2  374   2.259   3.707  15.355  0.5517 -0.6361 -0.1288
   24MPD2    C3  375   2.272   3.798  15.249 -0.2081 -0.5593 -0.3752
   24MPD2    C4  376   2.365   3.897  15.272 -0.1417 -0.4289 -0.1499
   24MPD2    C5  377   2.444   3.907  15.389 -0.5211  0.0234  0.3123
   24MPD2     H  378   2.178   3.635  15.354 -0.7627  0.8516 -0.6750
   24MPD2    H1  379   2.371   3.980  15.203  1.1145 -1.2238 -0.9944
   24MPD2    H2  380   2.507   3.823  15.566  0.0067  0.1978  0.1970
   24MPD2    H3  381   2.516   3.988  15.395 -1.2169  0.7476 -1.2960
   24MPD2     N  382   2.188   3.813  15.130 -0.0395  0.4114  0.3979
   24MPD2    H5  383   2.236   3.874  15.064  2.2471 -2.2519 -0.3912
   24MPD2    N1  384   2.317   3.619  15.574  0.1792  0.2316  0.4921
   24MPD2    H7  385   2.263   3.536  15.553 -1.5806  2.2745 -2.9606
   25TMC2    C1  386   1.257   1.442  11.652 -0.0520 -0.0205  0.7593
   25TMC2    C2  387   1.364   1.361  11.666 -0.2274 -0.2150 -0.1355
   25TMC2    C3  388   1.418   1.335  11.792 -1.3589  0.2910 -0.5777
   25TMC2    C4  389   1.218   1.512  11.765 -0.5157 -0.0184 -0.2833
   25TMC2    C5  390   1.290   1.502  11.883  0.6479 -0.3867  0.2298
   25TMC2    C6  391   1.383   1.405  11.901 -0.5428  0.2456  0.4676
   25TMC2     C  392   1.162   1.424  11.550  0.2829  0.1523  0.1866
   25TMC2     O  393   1.154   1.311  11.504  0.6043 -0.4355 -0.2342
   25TMC2     H  394   1.394   1.296  11.584  0.0611  0.0561 -0.2463
   25TMC2    H1  395   1.132   1.579  11.765  0.0667  0.7246 -0.7299
   25TMC2    H2  396   1.446   1.403  11.989 -1.1607 -1.0336  0.8833
   25TMC2    C7  397   1.232   1.568  11.995  0.0567  0.4975  0.6320
   25TMC2    C8  398   1.536   1.247  11.790 -0.3310  0.2870 -0.5453
   25TMC2    O1  399   1.224   1.500  12.095  0.1106 -0.4163  0.0706
   25TMC2    O2  400   1.593   1.204  11.687 -0.1258 -0.1381 -0.2024
   25TMC2    O5  401   1.547   1.181  11.904 -0.3901  0.4160 -0.2968
   25TMC2    H5  402   1.505   1.227  11.980 -0.5013  2.5915 -1.6744
   26MPD2     C  403   0.757   1.553  11.285 -0.0463  0.3370  0.4605
   26MPD2    C1  404   0.799   1.430  11.332  0.1900 -0.0529 -0.5022
   26MPD2    C2  405   0.902   1.427  11.420 -0.0244  0.6065 -0.1768
   26MPD2    C3  406   0.971   1.546  11.444 -0.0687 -0.8678 -0.0259
   26MPD2    C4  407   0.928   1.669  11.399 -0.0459 -0.1172 -0.3877
   26MPD2    C5  408   0.820   1.669  11.312  0.1056 -0.9155 -0.7083
   26MPD2     H  409   0.937   1.336  11.469  3.0683  1.8765 -0.0296
   26MPD2    H1  410   0.968   1.765  11.430 -2.6135  0.6981  0.4193
   26MPD2    H2  411   0.669   1.553  11.222  0.4426 -0.1285 -0.2123
   26MPD2    H3  412   0.782   1.757  11.261  0.1557  0.8982  2.4427
   26MPD2     N  413   1.080   1.533  11.527  0.1490 -0.3562 -0.3777
   26MPD2    H5  414   1.109   1.623  11.565  0.5942 -0.6366 -0.0611
   26MPD2    N1  415   0.728   1.316  11.290 -0.0715 -0.0144 -0.3551
   26MPD2    H7  416   0.638   1.334  11.249  0.6636  2.6909 -0.7921
   27TMC2    C1  417   0.098   2.858  12.382  0.1085 -0.0697 -0.7536
   27TMC2    C2  418   0.147   2.741  12.331 -0.1711 -0.3305 -0.0504
   27TMC2    C3  419   0.131   2.729  12.197 -0.0743 -0.4739  0.3331
   27TMC2    C4  420   0.034   2.953  12.305 -0.2998  0.5899 -0.2143
   27TMC2    C5  421   0.004   2.929  12.173 -0.5921 -0.4531 -0.3314
   27TMC2    C6  422   0.061   2.818  12.118 -0.8570 -0.9122  0.7074
   27TMC2     C  423   0.130   2.882  12.520 -0.7016 -0.1904 -0.0767
   27TMC2     O  424   0.199   2.792  12.574 -0.1072 -0.2417 -0.3695
   27TMC2     H  425   0.216   2.671  12.377 -0.3722  0.0735  0.8481
   27TMC2    H1  426   4.713   3.029  12.359 -0.0705  0.4747  0.1933
   27TMC2    H2  427   0.052   2.794  12.013 -0.5780  1.2945  0.1779
   27TMC2    C7  428   4.696   3.038  12.092  0.2230 -0.1413 -0.0213
   27TMC2    C8  429   0.136   2.602  12.141  0.1871 -0.3842  0.4125
   27TMC2    O1  430   4.670   3.012  11.975  0.5956  0.5256  0.6036
   27TMC2    O2  431   0.175   2.576  12.028  0.3767 -0.9131  0.0118
   27TMC2    O5  432   0.055   2.526  12.218  0.0162 -0.7256  0.4507
   27TMC2    H5  433   0.018   2.584  12.288 -0.2151 -1.0407  0.5862
   28MPD2     C  434   0.059   3.113  12.975 -0.5708  0.2137 -0.0027
   28MPD2    C1  435   4.702   3.161  12.886 -0.5868 -0.0574  0.4469
   28MPD2    C2  436   4.713   3.129  12.753 -0.2430 -0.2702  0.2549
   28MPD2    C3  437   0.071   3.033  12.714  0.1181  0.2822 -0.5765
   28MPD2    C4  438   0.168   2.986  12.806  0.2237 -0.4553 -0.0843
   28MPD2    C5  439   0.157   3.028  12.936  0.8192 -0.5028  0.5606
   28MPD2     H  440   4.654   3.181  12.679  1.0813  1.0688  0.1421
   28MPD2    H1  441   0.245   2.910  12.792  0.6268 -0.1949  0.7584
   28MPD2    H2  442   0.040   3.124  13.081 -3.1000  3.2813 -0.7565
   28MPD2    H3  443   0.216   2.974  13.010  1.3074  0.9983  1.2606
   28MPD2     N  444   0.069   2.991  12.577  0.3103  0.2704  0.0240
   28MPD2    H5  445   0.009   3.041  12.511 -0.6464 -0.6858  0.1711
   28MPD2    N1  446   4.591   3.236  12.927 -0.7229  0.1816 -0.3979
   28MPD2    H7  447   4.528   3.253  12.849 -0.9529  0.4894 -0.1460
   29TMC2    C1  448   4.625   0.980  14.409  0.4002 -0.0181 -0.4193
   29TMC2    C2  449   0.023   0.956  14.418  0.1159 -0.1406  0.0442
   29TMC2    C3  450   0.109   1.066  14.442  0.6575  0.0173  0.2958
   29TMC2    C4  451   4.566   1.100  14.416 -0.2187  0.1864  0.1334
   29TMC2    C5  452   4.653   1.203  14.439 -0.1329  0.1333  1.4323
   29TMC2    C6  453   0.056   1.192  14.460 -0.0459 -0.6501  0.1372
   29TMC2     C  454   4.538   0.866  14.379  0.3025 -0.0392 -0.4435
   29TMC2     O  455   4.591   0.765  14.326 -0.3402  0.2717  0.2573
   29TMC2     H  456   0.058   0.854  14.427  1.2453  0.4491  2.1820
   29TMC2    H1  457   4.459   1.112  14.419 -0.2710  0.5657 -4.7131
   29TMC2    H2  458   0.122   1.275  14.480 -0.5392  0.0379 -1.0425
   29TMC2    C7  459   4.593   1.335  14.442  0.7927 -0.2788 -0.5932
   29TMC2    C8  460   0.206   1.037  14.545 -0.1098  0.4757 -0.3931
   29TMC2    O1  461   4.480   1.350  14.394 -0.1351  0.5351  0.4599
   29TMC2    O2  462   0.299   1.118  14.567 -0.5871 -0.3683 -0.6554
   29TMC2    O5  463   0.114   1.012  14.641  0.3463 -0.2962 -0.2289
   29TMC2    H5  464   0.046   0.949  14.610  0.5864 -0.4750 -0.3922
   30MPD2     C  465   4.096   0.608  14.372  0.0136 -0.2570  0.2178
   30MPD2    C1  466   4.222   0.565  14.363  0.1474 -0.0227 -0.3316
   30MPD2    C2  467   4.326   0.654  14.370 -0.1084 -0.4463  0.3252
   30MPD2    C3  468   4.302   0.786  14.408 -0.1424 -0.5850  0.0872
   30MPD2    C4  469   4.175   0.829  14.437 -0.1639 -0.5875  0.5300
   30MPD2    C5  470   4.070   0.739  14.411  0.2601  0.0058 -0.5349
   30MPD2     H  471   4.425   0.612  14.363  0.3275  0.8437 -1.3428
   30MPD2    H1  472   4.151   0.932  14.461 -2.5156 -0.9389 -0.3038
   30MPD2    H2  473   4.011   0.541  14.368  0.1169 -0.3920  0.2992
   30MPD2    H3  474   3.969   0.764  14.442  0.6013  1.8989 -0.9651
   30MPD2     N  475   4.405   0.880  14.423  0.2389 -0.3390 -0.1066
   30MPD2    H5  476   4.385   0.971  14.463 -2.7113 -1.7608  1.6828
   30MPD2    N1  477   4.249   0.433  14.334  0.2478  0.5166 -0.6714
   30MPD2    H7  478   4.349   0.418  14.327  0.5601  2.1108  0.3323
   31TMC2    C1  479   1.757   4.102  15.949 -0.4066 -0.2490  0.3361
   31TMC2    C2  480   1.623   4.100  15.922 -0.9375 -0.3736 -0.6712
   31TMC2    C3  481   1.548   4.067  16.034  0.0732  0.3982 -0.2153
   31TMC2    C4  482   1.819   4.091  16.069  0.3015  0.1426 -0.0464
   31TMC2    C5  483   1.732   4.077  16.173  0.0975  0.3343 -0.3863
   31TMC2    C6  484   1.600   4.055  16.154 -0.5937  0.2861  0.1383
   31TMC2     C  485   1.843   4.139  15.838 -0.1711 -0.7298  0.0060
   31TMC2     O  486   1.780   4.182  15.745 -0.3129 -0.3449  0.5079
   31TMC2     H  487   1.576   4.115  15.825  1.7364  3.6443 -1.3834
   31TMC2    H1  488   1.925   4.098  16.086 -0.2785 -1.9020  4.2768
   31TMC2    H2  489   1.540   4.043  16.244 -0.9112 -0.6999 -0.1947
   31TMC2    C7  490   1.775   4.000  16.288  0.5244  0.0581  0.4486
   31TMC2    C8  491   1.408   4.079  16.034 -0.0449 -0.0628  0.2758
   31TMC2    O1  492   1.694   3.924  16.339 -0.3313  0.4243  0.8379
   31TMC2    O2  493   1.334   4.023  16.116  0.4843  0.4960  0.0412
   31TMC2    O5  494   1.381   4.173  15.944 -0.4538  0.8639 -0.4457
   31TMC2    H5  495   1.458   4.220  15.905  1.7036 -0.1215  2.6491
   32MPD2     C  496   2.295   4.155  15.572 -0.4920 -0.3116 -0.0129
   32MPD2    C1  497   2.182   4.226  15.548 -0.9664  0.4781  0.3710
   32MPD2    C2  498   2.073   4.203  15.636  0.0982  0.3440 -0.4960
   32MPD2    C3  499   2.079   4.107  15.734  0.0276  0.2676 -0.0598
   32MPD2    C4  500   2.195   4.036  15.756  0.6042 -1.0519 -0.4936
   32MPD2    C5  501   2.297   4.058  15.671 -0.3388  0.7087 -0.2573
   32MPD2     H  502   1.981   4.260  15.629 -1.9226 -2.7688  0.6741
   32MPD2    H1  503   2.203   3.964  15.837 -0.6577  1.2817  1.7072
   32MPD2    H2  504   2.390   4.171  15.522 -0.6186  0.6183  0.0477
   32MPD2    H3  505   2.386   3.998  15.689 -1.3061 -1.0586 -1.4427
   32MPD2     N  506   1.974   4.093  15.835  0.3190  0.6144  0.4496
   32MPD2    H5  507   2.019   4.039  15.909  0.3786  0.0989  0.0362
   32MPD2    N1  508   2.184   4.310  15.440 -0.0787 -0.3510 -0.2510
   32MPD2    H7  509   2.272   4.313  15.390  0.9120  0.8616  1.5782
   33TMC2    C1  510   2.418   2.612  10.307 -0.0703  0.3059  0.3365
   33TMC2    C2  511   2.336   2.521  10.250  0.0306 -0.4143 -0.1666
   33TMC2    C3  512   2.257   2.558  10.141 -0.1852  0.2887 -0.5576
   33TMC2    C4  513   2.409   2.740  10.263  0.1721 -0.3017 -0.0253
   33TMC2    C5  514   2.326   2.769  10.159  0.2239 -0.2765 -0.4811
   33TMC2    C6  515   2.251   2.680  10.092  0.1033 -0.0564 -0.8116
   33TMC2     C  516   2.467   2.573  10.436 -0.0618 -0.5684 -0.3369
   33TMC2     O  517   2.461   2.454  10.467 -0.3822  0.2406  0.0930
   33TMC2     H  518   2.327   2.419  10.286  1.5080 -0.2462  0.7029
   33TMC2    H1  519   2.484   2.814  10.286 -2.2554  2.8084 -2.0996
   33TMC2    H2  520   2.178   2.708  10.017  0.1284  0.3803 -0.6709
   33TMC2    C7  521   2.333   2.906  10.113 -0.5222  0.0081  0.0345
   33TMC2    C8  522   2.193   2.452  10.075 -0.0186  0.3892  0.2480
   33TMC2    O1  523   2.359   2.986  10.201  0.0759 -0.5296  0.0925
   33TMC2    O2  524   2.167   2.346  10.129  0.3581 -0.3712 -0.8003
   33TMC2    O5  525   2.191   2.482   9.937 -0.1091 -0.7710  0.2856
   33TMC2    H5  526   2.242   2.561   9.911  2.4170 -2.2844  0.6712
   34MPD2     C  527   2.691   2.662  10.884 -0.3441 -0.1340 -0.5513
   34MPD2    C1  528   2.625   2.546  10.838  0.6518  0.5572  0.4342
   34MPD2    C2  529   2.569   2.552  10.712 -0.0090 -0.3078  0.5253
   34MPD2    C3  530   2.576   2.668  10.636 -0.0586 -0.2363  0.3242
   34MPD2    C4  531   2.635   2.781  10.691  0.3671 -0.5792  0.1222
   34MPD2    C5  532   2.692   2.773  10.810  0.8751 -0.1452  0.4889
   34MPD2     H  533   2.508   2.470  10.676 -0.2911 -0.4254  1.2835
   34MPD2    H1  534   2.651   2.875  10.639  0.5941 -1.6617 -1.7508
   34MPD2    H2  535   2.726   2.669  10.987  1.5454 -3.2778 -0.9978
   34MPD2    H3  536   2.730   2.863  10.857 -0.0956  0.5482 -0.0518
   34MPD2     N  537   2.525   2.675  10.505  0.1535  0.2067 -0.5393
   34MPD2    H5  538   2.532   2.766  10.461  0.2300  0.9987  1.0811
   34MPD2    N1  539   2.621   2.436  10.922  0.7639 -0.2618  0.3671
   34MPD2    H7  540   2.649   2.451  11.019 -1.9564 -0.5518  1.2000
   35TMC2    C1  541   3.534   3.990  11.811  1.1291 -0.7216 -0.0860
   35TMC2    C2  542   3.425   4.046  11.865 -0.0793 -0.1825  0.1041
   35TMC2    C3  543   3.311   3.974  11.871 -0.1407 -0.6895 -0.0140
   35TMC2    C4  544   3.544   3.861  11.776 -0.3120  0.3456  0.1769
   35TMC2    C5  545   3.429   3.787  11.797  0.3265  0.2419 -0.8576
   35TMC2    C6  546   3.305   3.843  11.833  0.0559 -0.9112  0.0921
   35TMC2     C  547   3.651   4.081  11.809  0.2911  0.6717  0.1648
   35TMC2     O  548   3.632   4.200  11.793 -0.0093  0.1471 -0.0035
   35TMC2     H  549   3.427   4.152  11.886 -0.8118  0.2488 -1.9706
   35TMC2    H1  550   3.635   3.820  11.732 -0.5630 -0.5862  0.5154
   35TMC2    H2  551   3.218   3.785  11.862 -1.5069 -0.4508 -3.5711
   35TMC2    C7  552   3.434   3.645  11.785  0.4997 -0.3481  0.3198
   35TMC2    C8  553   3.195   4.037  11.934  0.0919  0.2340  0.0074
   35TMC2    O1  554   3.335   3.596  11.741 -0.2752 -0.4260  0.4195
   35TMC2    O2  555   3.214   4.142  11.996 -0.1737 -0.3129 -0.3240
   35TMC2    O5  556   3.096   4.005  11.854 -0.1443  0.2784  0.0119
   35TMC2    H5  557   3.111   3.919  11.809 -1.0672 -0.2970  0.7987
   36MPD2     C  558   4.154   4.164  11.880  0.3722  0.0944 -0.2192
   36MPD2    C1  559   4.123   4.043  11.939  0.3296  0.8132 -0.3318
   36MPD2    C2  560   3.992   4.001  11.914  0.0758 -0.2426 -0.1564
   36MPD2    C3  561   3.894   4.083  11.851  0.3271 -0.1314 -1.0415
   36MPD2    C4  562   3.932   4.202  11.794 -0.3816  0.5361 -0.2225
   36MPD2    C5  563   4.067   4.244  11.806 -0.1052  0.6274 -0.1978
   36MPD2     H  564   3.955   3.902  11.938  0.7016 -0.0882  1.4370
   36MPD2    H1  565   3.863   4.272  11.748 -0.5387 -0.1005 -0.9608
   36MPD2    H2  566   4.253   4.202  11.900 -0.6073  1.3762  2.0979
   36MPD2    H3  567   4.100   4.334  11.757 -1.0060  1.5908  0.9777
   36MPD2     N  568   3.764   4.021  11.848 -1.0043 -0.4817  0.3855
   36MPD2    H5  569   3.766   3.926  11.883  3.1085 -0.1998  0.9329
   36MPD2    N1  570   4.229   3.981  12.013  0.5860 -0.0841 -0.4828
   36MPD2    H7  571   4.319   4.028  12.010 -0.3116  1.6123 -1.3544
   37TMC2    C1  572   0.809   3.747  11.710 -0.4435 -0.7195  0.5300
   37TMC2    C2  573   0.788   3.813  11.590  0.1360 -0.4803  0.2185
   37TMC2    C3  574   0.875   3.789  11.483 -0.9200 -0.3304  0.0149
   37TMC2    C4  575   0.915   3.662  11.717  0.2791 -1.0925  0.4977
   37TMC2    C5  576   0.986   3.627  11.608 -0.0584 -0.0478 -0.5364
   37TMC2    C6  577   0.974   3.689  11.491  0.7099  0.1537  0.5705
   37TMC2     C  578   0.762   3.815  11.835 -0.7641  0.5007  0.7225
   37TMC2     O  579   0.654   3.872  11.830  0.2011  0.1767 -0.5473
   37TMC2     H  580   0.708   3.885  11.578  0.3209 -0.2294  0.5105
   37TMC2    H1  581   0.927   3.605  11.808  0.4254 -1.5006  0.2235
   37TMC2    H2  582   1.031   3.668  11.401  1.4775  0.0646  1.0757
   37TMC2    C7  583   1.124   3.600  11.648 -0.0911 -0.1619 -0.2690
   37TMC2    C8  584   0.839   3.837  11.347  0.0296  0.2789 -0.6346
   37TMC2    O1  585   1.145   3.626  11.765 -0.1533 -0.0660 -0.5541
   37TMC2    O2  586   0.862   3.770  11.246  0.1497 -0.4966  0.4142
   37TMC2    O5  587   0.802   3.968  11.346  0.2732 -0.1192  0.4470
   37TMC2    H5  588   0.811   4.017  11.431 -1.3661  0.2051  0.4344
   38MPD2     C  589   0.847   4.038  12.279 -0.7542  0.1916  0.3333
   38MPD2    C1  590   0.972   4.000  12.233 -1.0768 -0.1962  0.0158
   38MPD2    C2  591   0.972   3.939  12.109  0.2937  0.4050 -0.4214
   38MPD2    C3  592   0.864   3.907  12.038 -0.1931  0.1639  0.1504
   38MPD2    C4  593   0.739   3.938  12.094  0.0644 -0.5899 -0.3357
   38MPD2    C5  594   0.731   4.004  12.214 -0.6817 -0.0957 -0.2552
   38MPD2     H  595   1.069   3.906  12.074 -0.7137 -1.1545 -1.7235
   38MPD2    H1  596   0.642   3.916  12.051  0.2433 -3.6522  0.8253
   38MPD2    H2  597   0.830   4.078  12.379  0.8005 -1.5453  1.3050
   38MPD2    H3  598   0.630   4.018  12.251 -1.1239 -3.2376 -0.2916
   38MPD2     N  599   0.876   3.843  11.913 -0.5421 -1.1340 -0.6144
   38MPD2    H5  600   0.967   3.819  11.877 -0.0998  0.0487 -0.2589
   38MPD2    N1  601   1.098   4.005  12.314  0.0609 -0.8013  0.4090
   38MPD2    H7  602   1.172   3.946  12.276  0.9042  1.9671 -2.2588
   39TMC2    C1  603   3.216   1.158   1.848  0.4910 -0.1216  0.0864
   39TMC2    C2  604   3.094   1.144   1.907 -0.0864 -0.3581  0.5109
   39TMC2    C3  605   3.081   1.228   2.018 -0.3052 -0.4780 -0.1172
   39TMC2    C4  606   3.319   1.237   1.887 -0.4844  0.3083  0.5772
   39TMC2    C5  607   3.296   1.324   1.993  0.3456 -0.7522 -0.0663
   39TMC2    C6  608   3.176   1.321   2.055  0.4698  0.6215 -0.2337
   39TMC2     C  609   3.247   1.062   1.741  0.2976 -0.1216 -0.7404
   39TMC2     O  610   3.154   0.992   1.704 -0.2161  0.4181  0.0353
   39TMC2     H  611   3.009   1.093   1.864 -1.5589  1.9239  0.7451
   39TMC2    H1  612   3.413   1.251   1.836 -1.4126  1.6985 -0.7695
   39TMC2    H2  613   3.152   1.396   2.129 -2.3798  0.3729 -0.9073
   39TMC2    C7  614   3.398   1.431   2.016 -0.2319 -0.0961  0.6659
   39TMC2    C8  615   2.949   1.233   2.076 -0.0464 -0.8500  0.9346
   39TMC2    O1  616   3.494   1.428   1.941 -0.4909 -0.0282  0.2402
   39TMC2    O2  617   2.916   1.336   2.137  0.3475  0.3523  0.8615
   39TMC2    O5  618   2.888   1.113   2.088 -0.1317  0.0964  0.6932
   39TMC2    H5  619   2.924   1.031   2.049 -1.2668  0.1024 -0.3613
   40MPD2     C  620   3.560   0.902   1.673 -0.5924  0.0995 -0.1024
   40MPD2    C1  621   3.427   0.929   1.654 -0.4406 -0.0048 -0.3215
   40MPD2    C2  622   3.370   0.893   1.541 -1.0364  0.1873 -0.5369
   40MPD2    C3  623   3.423   0.793   1.458 -0.1005  0.6470 -0.7718
   40MPD2    C4  624   3.549   0.741   1.491  0.7885  0.8522 -0.5670
   40MPD2    C5  625   3.617   0.809   1.590  0.4541 -0.1532  0.2374
   40MPD2     H  626   3.280   0.948   1.515 -1.5417 -0.7477 -0.8022
   40MPD2    H1  627   3.600   0.665   1.433 -0.8548 -0.9793  0.3860
   40MPD2    H2  628   3.608   0.932   1.765  0.9002  2.0720 -1.5135
   40MPD2    H3  629   3.715   0.768   1.614  0.0210 -0.7070  1.0471
   40MPD2     N  630   3.361   0.734   1.346 -0.8575  0.0447  0.4536
   40MPD2    H5  631   3.413   0.666   1.292 -1.0353 -0.0142  0.3576
   40MPD2    N1  632   3.380   1.033   1.733  0.0869 -0.5961  0.0922
   40MPD2    H7  633   3.442   1.078   1.799 -2.3840  1.9227  0.6801
   41TMC2    C1  634   3.042   4.221  13.097  0.2452 -0.0585 -0.8657
   41TMC2    C2  635   2.947   4.308  13.130  1.1585 -0.7280  0.4392
   41TMC2    C3  636   2.956   4.433  13.085 -0.2930 -0.7859  0.2251
   41TMC2    C4  637   3.150   4.252  13.022 -0.1301  0.7005 -1.1475
   41TMC2    C5  638   3.165   4.387  12.987 -0.3903  0.1734 -0.1914
   41TMC2    C6  639   3.063   4.473  13.005 -0.3532  0.2096 -0.0537
   41TMC2     C  640   3.029   4.082  13.140  0.1952 -0.4030 -0.6889
   41TMC2     O  641   3.066   3.999  13.061  0.9267  0.0309 -0.0952
   41TMC2     H  642   2.860   4.294  13.193  0.0109  2.2793 -0.4993
   41TMC2    H1  643   3.221   4.177  12.991 -0.6793 -0.3091  0.0089
   41TMC2    H2  644   3.068   4.571  12.958  0.5278 -0.3755 -1.1784
   41TMC2    C7  645   3.301   4.431  12.977 -0.1304  0.4306  0.4933
   41TMC2    C8  646   2.824   4.506  13.076  0.2398  0.2335 -0.2261
   41TMC2    O1  647   3.323   4.549  12.959 -0.0055 -0.0653 -0.6273
   41TMC2    O2  648   2.722   4.463  13.024  0.3074 -0.4082  0.4111
   41TMC2    O5  649   2.867   4.630  13.060 -0.8796  0.0414 -0.2853
   41TMC2    H5  650   2.957   4.647  13.094 -1.0745 -0.1651  0.3332
   42MPD2     C  651   2.981   3.809  13.259 -0.8981 -0.3481  0.3545
   42MPD2    C1  652   2.933   3.934  13.314 -0.6657 -0.2839 -0.3754
   42MPD2    C2  653   2.895   3.932  13.445 -0.0271  0.3822  0.2532
   42MPD2    C3  654   2.888   3.806  13.520 -0.0865  0.4269 -0.1530
   42MPD2    C4  655   2.925   3.693  13.457 -0.0433  0.4786  0.7737
   42MPD2    C5  656   2.963   3.691  13.327  0.2027  0.1646 -0.0029
   42MPD2     H  657   2.859   4.025  13.486 -0.1816  0.6936 -0.5925
   42MPD2    H1  658   2.926   3.598  13.509  1.1629  0.7407  1.2370
   42MPD2    H2  659   3.030   3.803  13.162  0.9738  3.0320  1.1075
   42MPD2    H3  660   2.996   3.603  13.273 -0.5528 -0.3294  0.3239
   42MPD2     N  661   2.844   3.794  13.654  0.4568  0.2306  0.0678
   42MPD2    H5  662   2.857   3.700  13.689 -0.1170  0.1424  0.0537
   42MPD2    N1  663   2.956   4.057  13.255  0.4199 -0.5418  0.0510
   42MPD2    H7  664   2.925   4.133  13.315 -0.1416 -0.2399 -0.6243
   43TMC2    C1  665   3.559   1.740   1.026  0.9529 -0.4891 -0.1906
   43TMC2    C2  666   3.456   1.816   0.982 -0.2216 -0.3349 -0.0868
   43TMC2    C3  667   3.412   1.913   1.073  0.4037 -0.4138 -0.0346
   43TMC2    C4  668   3.624   1.764   1.134  0.2140 -0.2792  0.4050
   43TMC2    C5  669   3.580   1.856   1.223  0.6577 -0.4809 -0.5142
   43TMC2    C6  670   3.472   1.942   1.196 -0.3437  0.5811  0.5221
   43TMC2     C  671   3.626   1.636   0.938 -0.4099  0.3141 -0.1529
   43TMC2     O  672   3.740   1.601   0.970  0.1951 -0.5520  0.1460
   43TMC2     H  673   3.388   1.806   0.898  0.5239  0.9310 -0.8526
   43TMC2    H1  674   3.704   1.700   1.170  0.8772  1.5345  2.1342
   43TMC2    H2  675   3.439   2.023   1.259 -2.8971  0.9791 -1.3245
   43TMC2    C7  676   3.693   1.921   1.275  0.7493  0.8153 -0.5191
   43TMC2    C8  677   3.276   1.954   1.063 -0.2677 -0.1287  0.3045
   43TMC2    O1  678   3.806   1.905   1.227 -0.0680 -0.2799  0.8251
   43TMC2    O2  679   3.237   2.045   1.134  0.4624 -0.3959  0.1220
   43TMC2    O5  680   3.213   1.841   1.023  0.0097 -0.2881  0.1007
   43TMC2    H5  681   3.117   1.855   1.008 -0.3144 -0.9257  1.6874
   44MPD2     C  682   3.650   1.446   0.467 -0.0835  0.1553 -0.1172
   44MPD2    C1  683   3.748   1.463   0.563  0.8144 -0.1772 -0.5298
   44MPD2    C2  684   3.722   1.515   0.688  0.3028  0.2808 -0.2966
   44MPD2    C3  685   3.591   1.555   0.713 -0.0832  0.0022  0.1383
   44MPD2    C4  686   3.489   1.529   0.621  0.3096 -0.0902  0.3867
   44MPD2    C5  687   3.519   1.482   0.496 -0.2492 -0.8513 -0.0347
   44MPD2     H  688   3.801   1.531   0.761 -0.9977  0.1538  1.1348
   44MPD2    H1  689   3.385   1.556   0.635 -0.8201 -1.9798 -4.3002
   44MPD2    H2  690   3.667   1.392   0.375  1.2999 -0.3521  0.4192
   44MPD2    H3  691   3.446   1.459   0.419 -0.4137  2.0565 -0.7541
   44MPD2     N  692   3.544   1.611   0.831  0.3124  0.1138  0.1910
   44MPD2    H5  693   3.447   1.637   0.843 -0.1680 -2.2542  1.2951
   44MPD2    N1  694   3.881   1.421   0.541  0.1723 -0.1493 -0.0307
   44MPD2    H7  695   3.948   1.433   0.616  0.4928 -1.8589 -0.0461
   45TMC2    C1  696   0.445   3.795  10.225 -0.3333 -0.7092  0.2754
   45TMC2    C2  697   0.574   3.760  10.247 -0.3800 -0.6942  0.0225
   45TMC2    C3  698   0.663   3.859  10.258  0.2175 -0.5730  0.3495
   45TMC2    C4  699   0.407   3.927  10.210 -0.3529  0.0515  0.5186
   45TMC2    C5  700   0.500   4.023  10.223 -0.7301 -0.2493  0.1936
   45TMC2    C6  701   0.630   3.990  10.246  0.8485  0.1363 -0.4652
   45TMC2     C  702   0.360   3.688  10.186  0.5240  0.2407 -0.6623
   45TMC2     O  703   0.401   3.574  10.207 -0.3631  0.4470  0.6529
   45TMC2     H  704   0.608   3.658  10.228  2.1336 -0.2057  1.8918
   45TMC2    H1  705   0.305   3.950  10.181 -0.7677 -0.0861  1.8560
   45TMC2    H2  706   0.710   4.059  10.228  0.2119  0.7700 -0.8458
   45TMC2    C7  707   0.479   4.166  10.198 -0.6272  0.9605 -0.7970
   45TMC2    C8  708   0.803   3.829  10.255 -0.1377 -0.3077 -0.1683
   45TMC2    O1  709   0.577   4.236  10.189 -0.0935  0.1467 -0.0014
   45TMC2    O2  710   0.856   3.740  10.191  0.4385 -0.8123  0.2466
   45TMC2    O5  711   0.854   3.899  10.355  0.1568  0.6888 -0.3575
   45TMC2    H5  712   0.796   3.964  10.401  2.5906  2.8108 -0.2403
   46MPD2     C  713   0.153   3.515  10.083 -0.2670  0.1403 -0.3910
   46MPD2    C1  714   0.150   3.651  10.063 -0.1266  0.0526  0.9448
   46MPD2    C2  715   0.052   3.704   9.982 -0.4599 -0.1854  0.1345
   46MPD2    C3  716   4.692   3.623   9.919 -0.8594  0.3764  1.0358
   46MPD2    C4  717   4.700   3.488   9.945 -0.2831 -0.1117  0.6591
   46MPD2    C5  718   0.050   3.441  10.035  0.1237 -0.6082  0.0275
   46MPD2     H  719   0.064   3.808   9.954  0.7673 -0.9848 -2.3790
   46MPD2    H1  720   4.624   3.416   9.917  0.9518 -1.2850  0.3445
   46MPD2    H2  721   0.221   3.463  10.151 -1.0805 -1.8377 -1.0958
   46MPD2    H3  722   0.037   3.338  10.067  0.8152 -0.3213  1.2554
   46MPD2     N  723   4.587   3.679   9.837  0.0635 -0.0397  0.1251
   46MPD2    H5  724   4.603   3.774   9.803  1.2894 -0.4185 -0.3760
   46MPD2    N1  725   0.256   3.731  10.116 -0.5810 -0.3037 -0.1664
   46MPD2    H7  726   0.255   3.829  10.091  0.0128 -0.1691  0.3283
   47TMC2    C1  727   2.065   0.376  10.213 -0.6223  0.9183 -0.3114
   47TMC2    C2  728   1.953   0.456  10.206  0.8446 -0.7068  0.1221
   47TMC2    C3  729   1.826   0.400  10.200 -0.4088  0.6066  0.2406
   47TMC2    C4  730   2.045   0.240  10.209 -0.3910 -0.6515 -0.3996
   47TMC2    C5  731   1.915   0.186  10.192 -0.3302 -0.4650 -0.9005
   47TMC2    C6  732   1.807   0.266  10.191 -0.0831  0.5026 -0.3296
   47TMC2     C  733   2.198   0.442  10.207  1.1427  0.5885 -0.6680
   47TMC2     O  734   2.186   0.564  10.194  0.2904  0.1044  0.7910
   47TMC2     H  735   1.950   0.563  10.220  0.6747 -0.8753  1.3672
   47TMC2    H1  736   2.135   0.181  10.215  0.7094  1.1876  1.1119
   47TMC2    H2  737   1.707   0.225  10.183  0.2504 -0.6313  1.1810
   47TMC2    C7  738   1.880   0.047  10.241 -0.1828  0.4263 -0.3921
   47TMC2    C8  739   1.707   0.477  10.227  0.6456  0.1604  0.3575
   47TMC2    O1  740   1.762   0.012  10.234  0.5757  0.1157  0.2000
   47TMC2    O2  741   1.616   0.416  10.283  0.2357 -0.1729  0.5087
   47TMC2    O5  742   1.729   0.608  10.247  0.2739  0.0681  0.0126
   47TMC2    H5  743   1.780   0.651  10.175  0.5770  2.1954  1.4984
   48MPD2     C  744   2.477   0.526  10.193 -0.4615  0.2467  0.1620
   48MPD2    C1  745   2.440   0.401  10.178 -0.5003  0.4507  0.5182
   48MPD2    C2  746   2.538   0.304  10.166 -0.0385  0.0099  0.0280
   48MPD2    C3  747   2.672   0.339  10.160 -1.0553 -0.7477  0.5429
   48MPD2    C4  748   2.707   0.477  10.173 -0.5723 -0.1697 -0.8384
   48MPD2    C5  749   2.608   0.566  10.175  0.4054 -0.5116  0.3076
   48MPD2     H  750   2.501   0.203  10.169 -0.1783  0.0844  0.6351
   48MPD2    H1  751   2.812   0.498  10.158 -0.7744  1.0456 -0.5622
   48MPD2    H2  752   2.407   0.606  10.213  2.4962  2.0844  3.1787
   48MPD2    H3  753   2.627   0.672  10.163  1.7697 -0.8736 -0.8140
   48MPD2     N  754   2.763   0.243  10.119 -0.4820  0.4883 -0.7379
   48MPD2    H5  755   2.728   0.156  10.079  1.8260  0.3965 -2.6059
   48MPD2    N1  756   2.307   0.359  10.201 -0.2716 -0.3198 -0.0614
   48MPD2    H7  757   2.297   0.258  10.200  0.3196 -0.3692 -1.2868
   49TMC2    C1  758   1.946   2.164  10.485 -0.1842  0.6632 -0.5901
   49TMC2    C2  759   2.070   2.163  10.432 -0.0543 -0.7011  1.2766
   49TMC2    C3  760   2.118   2.046  10.376 -0.4915 -0.3444  0.7991
   49TMC2    C4  761   1.864   2.055  10.477 -0.0820  0.2521 -0.5246
   49TMC2    C5  762   1.909   1.942  10.421 -0.0314 -0.1664 -0.1201
   49TMC2    C6  763   2.030   1.942  10.357  0.0826 -0.2403 -0.6256
   49TMC2     C  764   1.900   2.288  10.553  0.1571 -0.6992  0.5519
   49TMC2     O  765   1.955   2.391  10.518  0.2931  0.0007  0.0033
   49TMC2     H  766   2.129   2.253  10.428 -0.3951 -0.4967  0.7587
   49TMC2    H1  767   1.760   2.060  10.506  0.2264 -0.7598  0.7349
   49TMC2    H2  768   2.069   1.866  10.290  0.2275 -0.4494 -0.3091
   49TMC2    C7  769   1.814   1.830  10.398  0.6202  0.7035 -0.1154
   49TMC2    C8  770   2.234   2.055  10.290  0.7923  1.0371  0.2144
   49TMC2    O1  771   1.854   1.739  10.327  0.3996  0.1668  0.1444
   49TMC2    O2  772   2.243   1.992  10.178 -0.0842 -0.0267  0.0474
   49TMC2    O5  773   2.331   2.142  10.343  0.0736  0.2295 -0.0675
   49TMC2    H5  774   2.305   2.155  10.436  1.8390  0.2857  0.4133
   50MPD2     C  775   1.808   2.496  10.741  0.2671  0.0480 -0.5394
   50MPD2    C1  776   1.764   2.360  10.739  0.0187  0.2614 -0.6418
   50MPD2    C2  777   1.660   2.329  10.823  0.3403 -0.6806 -0.6683
   50MPD2    C3  778   1.598   2.418  10.907  0.2968  0.0695 -0.1747
   50MPD2    C4  779   1.651   2.546  10.907  0.1089  0.1655 -0.4630
   50MPD2    C5  780   1.751   2.578  10.825 -0.3887  0.6145  1.1068
   50MPD2     H  781   1.647   2.221  10.831  1.2734 -0.8473 -1.3897
   50MPD2    H1  782   1.612   2.623  10.973 -0.7700  0.6197 -1.5231
   50MPD2    H2  783   1.892   2.534  10.684  0.6679 -0.2453 -0.1504
   50MPD2    H3  784   1.783   2.682  10.831  1.1587  0.1932  0.1576
   50MPD2     N  785   1.498   2.389  10.998 -0.0728  0.5431 -0.0562
   50MPD2    H5  786   1.480   2.454  11.074  0.5441  2.6093 -1.7068
   50MPD2    N1  787   1.806   2.258  10.647 -0.0284 -0.3755  0.2965
   50MPD2    H7  788   1.776   2.163  10.668 -0.8125 -0.3022 -0.4956
   51TMC2    C1  789   2.430   4.231   1.576  0.3139  0.0256 -0.0008
   51TMC2    C2  790   2.559   4.185   1.604  0.2731  0.0248  0.2556
   51TMC2    C3  791   2.651   4.274   1.637  0.2756 -0.0766  0.4913
   51TMC2    C4  792   2.396   4.367   1.579  0.3384 -0.0821 -0.0623
   51TMC2    C5  793   2.495   4.455   1.622  0.1577 -0.0287  0.4200
   51TMC2    C6  794   2.621   4.408   1.645  0.3849 -0.1937  0.5316
   51TMC2     C  795   2.318   4.141   1.595 -0.0740 -1.1075 -0.3386
   51TMC2     O  796   2.206   4.187   1.585  0.2707 -0.0185 -0.3159
   51TMC2     H  797   2.578   4.079   1.620  2.1199  0.2834 -0.2563
   51TMC2    H1  798   2.299   4.403   1.546  0.8560  1.2066 -0.1876
   51TMC2    H2  799   2.700   4.479   1.667  1.3609 -1.2215  0.3887
   51TMC2    C7  800   2.450   4.593   1.635  0.7607 -0.5169 -0.1090
   51TMC2    C8  801   2.787   4.238   1.652 -0.6848  0.0279 -1.2018
   51TMC2    O1  802   2.331   4.616   1.611  0.1595  0.2946 -0.4640
   51TMC2    O2  803   2.863   4.293   1.729  0.9015 -1.0407 -0.6370
   51TMC2    O5  804   2.817   4.146   1.553  0.7649 -0.3950  0.0168
   51TMC2    H5  805   2.744   4.138   1.489  1.8804  0.9348 -1.4205
   52MPD2     C  806   2.110   3.670   1.686  0.7247  0.9013  0.2992
   52MPD2    C1  807   2.055   3.786   1.648  0.2616 -0.3982 -0.1405
   52MPD2    C2  808   2.138   3.893   1.620 -0.0001 -0.1725 -0.3474
   52MPD2    C3  809   2.273   3.889   1.641 -1.1176 -0.7561 -0.6042
   52MPD2    C4  810   2.326   3.773   1.689 -0.3639 -1.2350 -0.4724
   52MPD2    C5  811   2.243   3.662   1.715 -0.1418 -0.1514  1.0367
   52MPD2     H  812   2.094   3.991   1.606  0.3284 -0.0849 -0.7840
   52MPD2    H1  813   2.430   3.764   1.717  0.0974 -0.6584 -2.0006
   52MPD2    H2  814   2.053   3.583   1.716  3.3033 -0.1016  2.2335
   52MPD2    H3  815   2.281   3.577   1.768 -0.6643 -1.9483 -1.4676
   52MPD2     N  816   2.353   4.006   1.614  0.0329  0.2255 -0.2842
   52MPD2    H5  817   2.451   3.984   1.601  0.1356  1.7510 -2.2836
   52MPD2    N1  818   1.917   3.812   1.642 -0.0337  0.0820  0.8527
   52MPD2    H7  819   1.893   3.907   1.616 -0.2014  0.2251  1.5351
   53TMC2    C1  820   1.834   3.614  11.893 -0.6208 -0.1239  0.1236
   53TMC2    C2  821   1.950   3.567  11.948 -0.0465 -0.1962 -0.1876
   53TMC2    C3  822   2.019   3.647  12.035  0.2415 -0.2920  0.1018
   53TMC2    C4  823   1.779   3.739  11.929  0.2201  0.6398 -0.2599
   53TMC2    C5  824   1.858   3.813  12.012 -0.0599  0.8823  0.5234
   53TMC2    C6  825   1.970   3.768  12.067  0.6462 -0.0736  0.8697
   53TMC2     C  826   1.755   3.523  11.813  0.0583 -0.6840  0.2052
   53TMC2     O  827   1.831   3.442  11.761  0.0742  0.3278  0.1666
   53TMC2     H  828   1.989   3.474  11.909 -0.2345 -0.0230 -0.7959
   53TMC2    H1  829   1.699   3.785  11.873 -1.8612 -0.7790  1.5181
   53TMC2    H2  830   2.022   3.817  12.148 -2.3345  0.5616  2.4151
   53TMC2    C7  831   1.792   3.927  12.082  0.2837  0.8350 -0.6332
   53TMC2    C8  832   2.146   3.611  12.092  0.0529 -0.2493  0.6912
   53TMC2    O1  833   1.672   3.943  12.054  0.2865  0.3659 -0.0980
   53TMC2    O2  834   2.208   3.676  12.175 -0.1863  0.1752  0.2045
   53TMC2    O5  835   2.155   3.481  12.091  0.4083  0.5174 -0.5444
   53TMC2    H5  836   2.071   3.436  12.065  0.9530 -3.0696  4.0039
   54MPD2     C  837   1.618   3.459  11.571  0.6097 -0.0131 -0.1075
   54MPD2    C1  838   1.553   3.521  11.678 -0.2985 -0.3779 -0.4237
   54MPD2    C2  839   1.422   3.547  11.676  0.1586 -0.4135 -0.2348
   54MPD2    C3  840   1.341   3.505  11.570  1.1190 -0.3032 -0.1794
   54MPD2    C4  841   1.406   3.444  11.460  0.0143 -0.7579 -0.1162
   54MPD2    C5  842   1.539   3.427  11.463 -0.1836  0.0624  0.1876
   54MPD2     H  843   1.376   3.610  11.751  0.9174  1.9335 -1.7196
   54MPD2    H1  844   1.358   3.423  11.365  0.6114  0.1914 -0.6257
   54MPD2    H2  845   1.722   3.429  11.567  1.0746  1.6791 -0.7254
   54MPD2    H3  846   1.586   3.374  11.381 -2.9299 -4.3774  1.4638
   54MPD2     N  847   1.205   3.540  11.556 -0.2749  0.2679 -0.7523
   54MPD2    H5  848   1.161   3.520  11.467  0.1373  0.4196 -0.9873
   54MPD2    N1  849   1.630   3.566  11.784 -0.1586  0.4954 -0.1796
   54MPD2    H7  850   1.592   3.627  11.855 -2.2017 -0.2800 -0.6166
   55TMC2    C1  851   2.137   1.641  17.559 -0.0414 -0.4125 -0.1529
   55TMC2    C2  852   2.110   1.617  17.428  0.1408 -0.3622  0.0481
   55TMC2    C3  853   2.102   1.484  17.396 -0.5636  0.1739 -0.1140
   55TMC2    C4  854   2.139   1.539  17.655 -1.0144  0.3558  0.3506
   55TMC2    C5  855   2.117   1.412  17.614  0.7015  0.0546 -0.6548
   55TMC2    C6  856   2.101   1.380  17.484  0.5366 -0.8001 -0.1135
   55TMC2     C  857   2.123   1.773  17.615  0.4538  0.0687 -0.5119
   55TMC2     O  858   2.085   1.776  17.732 -0.0685 -0.1092 -0.2678
   55TMC2     H  859   2.083   1.694  17.356  1.3923  0.1998  0.1876
   55TMC2    H1  860   2.163   1.557   0.017  1.1585  3.6058 -0.7183
   55TMC2    H2  861   2.074   1.280  17.451 -0.1527 -0.3990 -0.7788
   55TMC2    C7  862   2.076   1.301  17.697 -0.2359  0.3403  0.3282
   55TMC2    C8  863   2.042   1.463  17.269  0.3210 -0.5657 -0.0966
   55TMC2    O1  864   2.081   1.191  17.645 -0.1669 -0.1528  0.6355
   55TMC2    O2  865   2.071   1.374  17.191  0.4894 -0.2965 -0.1606
   55TMC2    O5  866   1.915   1.508  17.288  0.2963  0.9354  0.3441
   55TMC2    H5  867   1.895   1.564  17.367  3.3225 -0.8588  2.3895
   56MPD2     C  868   2.144   2.115  17.462 -0.5274  0.1645  0.1826
   56MPD2    C1  869   2.119   2.019  17.556 -0.0667  0.2899  0.0574
   56MPD2    C2  870   2.053   2.064  17.669 -0.0329 -0.3523  0.1334
   56MPD2    C3  871   2.005   2.192  17.671  0.5719  0.0865  0.1194
   56MPD2    C4  872   2.029   2.280  17.570 -0.3763 -0.1696 -0.6494
   56MPD2    C5  873   2.104   2.245  17.470 -0.3250  1.0706  0.0748
   56MPD2     H  874   2.024   1.999   0.008 -0.3258 -1.3100 -0.7338
   56MPD2    H1  875   2.005   2.386  17.575  0.4751  0.0455 -1.1569
   56MPD2    H2  876   2.203   2.093  17.374 -2.6408 -2.6479 -0.5336
   56MPD2    H3  877   2.119   2.318  17.391  0.8049 -1.0279 -1.6331
   56MPD2     N  878   1.937   2.231   0.050  0.0582  0.4112  0.5754
   56MPD2    H5  879   1.931   2.155   0.118  1.6281 -0.5992 -0.4031
   56MPD2    N1  880   2.144   1.879  17.529 -0.1123  0.0116 -0.4988
   56MPD2    H7  881   2.195   1.859  17.444  1.0708  0.8987  0.0046
   57TMC2    C1  882   2.130   2.809  14.199 -0.0974  0.7450  0.6679
   57TMC2    C2  883   2.190   2.800  14.322  0.4432 -0.4064 -0.1413
   57TMC2    C3  884   2.327   2.781  14.336 -0.8625  0.3291  0.2431
   57TMC2    C4  885   2.210   2.812  14.086 -0.5436  0.0074  0.3003
   57TMC2    C5  886   2.345   2.800  14.103  0.2006  0.4693  0.1459
   57TMC2    C6  887   2.405   2.789  14.221 -0.1132  0.3588 -0.4846
   57TMC2     C  888   1.987   2.765  14.189 -0.5339 -0.7148  0.5270
   57TMC2     O  889   1.917   2.769  14.285  0.0338  0.1230 -0.3683
   57TMC2     H  890   2.123   2.784  14.406  1.8518 -1.7006  0.7429
   57TMC2    H1  891   2.168   2.814  13.986 -0.6596 -2.0060  0.3106
   57TMC2    H2  892   2.513   2.788  14.228 -0.0818 -0.4124 -1.0844
   57TMC2    C7  893   2.433   2.785  13.987 -0.0741  0.1844  0.0285
   57TMC2    C8  894   2.379   2.748  14.461 -0.4372 -0.2435 -0.4002
   57TMC2    O1  895   2.554   2.791  13.996  0.1022 -0.4094  0.2661
   57TMC2    O2  896   2.308   2.719  14.555  0.4427  0.5292 -0.2061
   57TMC2    O5  897   2.497   2.695  14.431  0.7881  0.2128 -0.2657
   57TMC2    H5  898   2.541   2.678  14.517 -3.2258 -0.9181  1.5728
   58MPD2     C  899   1.601   2.655  13.874 -0.8192  0.4554  0.3189
   58MPD2    C1  900   1.591   2.727  13.997  0.2914  1.1886  0.1126
   58MPD2    C2  901   1.708   2.753  14.063  0.0818 -0.3389 -0.1797
   58MPD2    C3  902   1.825   2.701  14.010 -0.2384  0.3573  0.4020
   58MPD2    C4  903   1.836   2.635  13.891 -0.2761 -0.2748 -0.0619
   58MPD2    C5  904   1.720   2.609  13.825  0.1377  0.4388  0.1403
   58MPD2     H  905   1.721   2.819  14.149  2.1976  3.0513 -3.0887
   58MPD2    H1  906   1.923   2.587  13.848  1.5194  2.1625  0.8604
   58MPD2    H2  907   1.512   2.644  13.814  1.4878 -2.1147 -2.6867
   58MPD2    H3  908   1.713   2.554  13.732 -0.6728  1.6366 -0.5194
   58MPD2     N  909   1.951   2.738  14.060  0.0135 -1.1819  0.4977
   58MPD2    H5  910   2.026   2.705  14.000 -0.2811 -0.1382 -0.4451
   58MPD2    N1  911   1.468   2.783  14.033 -0.1477  0.2280  0.7824
   58MPD2    H7  912   1.484   2.859  14.099  2.5669  1.5462 -1.3769
   59TMC2    C1  913   3.973   2.937  12.945  0.5151  0.0856 -0.4796
   59TMC2    C2  914   3.848   2.889  12.925 -0.2647 -0.5944  0.0203
   59TMC2    C3  915   3.800   2.866  12.800 -0.8250  0.2590 -0.0884
   59TMC2    C4  916   4.056   2.954  12.833  0.3611  0.0265  0.1458
   59TMC2    C5  917   3.999   2.926  12.709  0.0454  0.3369 -0.3217
   59TMC2    C6  918   3.879   2.867  12.689 -0.2949  0.3239 -0.1798
   59TMC2     C  919   3.985   3.022  13.063 -0.4328 -0.0005 -0.0810
   59TMC2     O  920   3.885   3.078  13.108 -0.1027 -0.2975 -0.1677
   59TMC2     H  921   3.785   2.878  13.013 -1.8796 -0.3285 -1.1121
   59TMC2    H1  922   4.149   3.007  12.853 -0.1432 -0.1917  2.9764
   59TMC2    H2  923   3.833   2.848  12.592 -1.5063  2.5110 -0.0435
   59TMC2    C7  924   4.082   2.938  12.590 -0.2730  0.1153 -0.1638
   59TMC2    C8  925   3.660   2.844  12.788 -0.4035  0.1165  0.0552
   59TMC2    O1  926   4.042   2.861  12.502 -1.2523 -0.1638  0.2469
   59TMC2    O2  927   3.572   2.909  12.842  0.6545 -0.1438 -0.2803
   59TMC2    O5  928   3.652   2.722  12.728 -0.0168 -0.0678  0.4960
   59TMC2    H5  929   3.738   2.679  12.747 -0.9874 -1.2000  2.3598
   60MPD2     C  930   4.085   3.160  13.298  0.2535  0.2423 -0.3102
   60MPD2    C1  931   4.166   3.077  13.223  0.0043  0.3477 -0.2660
   60MPD2    C2  932   4.300   3.071  13.252 -0.0483 -0.7818 -0.8016
   60MPD2    C3  933   4.352   3.140  13.359 -0.4210  0.3746 -0.2846
   60MPD2    C4  934   4.274   3.214  13.441  0.5427 -0.3302 -0.7662
   60MPD2    C5  935   4.146   3.221  13.407  0.1206  0.4387  0.6057
   60MPD2     H  936   4.365   2.996  13.208  1.3632  0.6769 -1.2136
   60MPD2    H1  937   4.313   3.277  13.520 -2.1380 -1.6052  1.5700
   60MPD2    H2  938   3.979   3.170  13.281  0.1531 -0.9439 -0.3500
   60MPD2    H3  939   4.072   3.277  13.464 -1.5722 -0.7163 -0.4653
   60MPD2     N  940   4.485   3.127  13.403  0.1344 -0.4631  0.2833
   60MPD2    H5  941   4.508   3.165  13.494 -2.6438  2.8767 -0.3776
   60MPD2    N1  942   4.115   3.014  13.111 -0.1129  0.8350 -0.3147
   60MPD2    H7  943   4.176   2.945  13.067 -0.5533 -0.5153  1.1836
   61TMC2    C1  944   2.593   4.436  15.522  0.6173  0.1415  0.1957
   61TMC2    C2  945   2.493   4.528  15.527  0.1888  0.0701 -0.0486
   61TMC2    C3  946   2.521   4.665  15.532  0.0871 -0.1584  0.0947
   61TMC2    C4  947   2.714   4.478  15.556  0.0850  0.5354  0.7657
   61TMC2    C5  948   2.739   4.609  15.591  0.5668 -0.3153 -0.4709
   61TMC2    C6  949   2.646   4.709  15.564 -0.8767 -0.3637 -0.4087
   61TMC2     C  950   2.584   4.337  15.414  0.1717  0.7053 -0.7969
   61TMC2     O  951   2.477   4.338  15.354 -0.3485 -0.7696  0.3280
   61TMC2     H  952   2.393   4.490  15.510  0.6715 -1.1092 -0.2725
   61TMC2    H1  953   2.789   4.401  15.566 -0.9223 -0.5835 -0.3120
   61TMC2    H2  954   2.681   0.075  15.570 -0.1956 -0.6419  0.3329
   61TMC2    C7  955   2.873   4.661  15.598 -0.1759  0.6935 -0.4600
   61TMC2    C8  956   2.410   0.018  15.528  0.0569  0.4210  1.0052
   61TMC2    O1  957   2.889   0.045  15.590 -0.1792  0.0304 -0.4758
   61TMC2    O2  958   2.298   4.707  15.534 -0.2831 -0.4078 -0.0936
   61TMC2    O5  959   2.452   0.144  15.547 -0.1789  0.1184 -0.2951
   61TMC2    H5  960   2.541   0.171  15.517  0.0985 -1.1088 -0.6013
   62MPD2     C  961   2.645   4.163  15.175  0.4564  0.2299  0.3759
   62MPD2    C1  962   2.733   4.247  15.243 -0.1506  0.6993 -0.0733
   62MPD2    C2  963   2.853   4.258  15.194 -1.1539 -0.4435 -0.0227
   62MPD2    C3  964   2.892   4.227  15.057 -0.1561  0.2981 -0.6381
   62MPD2    C4  965   2.801   4.144  14.987 -0.4506  0.0656 -0.5473
   62MPD2    C5  966   2.687   4.106  15.060 -0.0537  0.1830  0.2260
   62MPD2     H  967   2.921   4.300  15.267 -1.6062  0.0347  0.1266
   62MPD2    H1  968   2.806   4.110  14.884  3.3086  1.4391 -0.8361
   62MPD2    H2  969   2.552   4.137  15.223 -1.3921 -0.1118 -3.4407
   62MPD2    H3  970   2.624   4.029  15.018  3.1681 -1.9544 -0.7098
   62MPD2     N  971   3.007   4.265  14.988 -0.6515 -0.1756  0.8255
   62MPD2    H5  972   3.025   4.227  14.895  0.0625 -0.6371  1.1504
   62MPD2    N1  973   2.710   4.300  15.373 -0.4314  0.1633  0.3909
   62MPD2    H7  974   2.796   4.324  15.421  0.7728 -1.9581 -0.6818
   63TMC2    C1  975   2.653   4.571  11.554 -0.9084  0.2969  0.9889
   63TMC2    C2  976   2.736   4.620  11.648  0.1875 -1.0145 -0.1363
   63TMC2    C3  977   2.825   4.714  11.609  0.2526  0.2831  1.0827
   63TMC2    C4  978   2.660   4.611  11.421 -0.8984  0.9444  0.4762
   63TMC2    C5  979   2.746   4.714  11.392  0.5539 -0.5008 -0.4397
   63TMC2    C6  980   2.835   0.024  11.484  0.4750  0.2954  1.3294
   63TMC2     C  981   2.569   4.465  11.599  0.7519  0.7424  0.2567
   63TMC2     O  982   2.510   4.473  11.708 -0.0000  0.1110  0.6412
   63TMC2     H  983   2.741   4.563  11.741  0.7004  1.7444  1.5149
   63TMC2    H1  984   2.585   4.566  11.356  0.1739  0.6576 -0.5696
   63TMC2    H2  985   2.899   0.109  11.462 -1.7938  2.1793  2.0274
   63TMC2    C7  986   2.753   0.016  11.252  0.3278  0.1702  0.0175
   63TMC2    C8  987   2.925   0.018  11.707 -0.7862  0.3253  0.5561
   63TMC2    O1  988   2.652   4.733  11.188 -0.3123  0.4647 -0.1716
   63TMC2    O2  989   3.044   0.034  11.681 -0.4589  0.5849 -0.1466
   63TMC2    O5  990   2.869   0.017  11.827  0.0037 -0.0464 -0.7383
   63TMC2    H5  991   2.771   0.012  11.823  0.0423  0.2478 -2.1089
   64MPD2     C  992   2.420   3.972  11.552  0.1345  0.2939  0.1087
   64MPD2    C1  993   2.536   3.996  11.476 -0.4494 -0.0661  0.1411
   64MPD2    C2  994   2.576   4.129  11.462 -0.0900  0.5643  0.2121
   64MPD2    C3  995   2.522   4.228  11.536 -0.2726 -0.2647 -0.2918
   64MPD2    C4  996   2.406   4.207  11.615 -0.1353  0.4333 -0.6520
   64MPD2    C5  997   2.355   4.076  11.610 -0.0238  0.0275  0.4132
   64MPD2     H  998   2.666   4.143  11.404 -0.3609  2.4184  0.2433
   64MPD2    H1  999   2.372   4.284  11.683  1.9870 -1.1932  2.2355
   64MPD2    H2 1000   2.372   3.876  11.558  1.6353 -0.5565 -1.3827
   64MPD2    H3 1001   2.256   4.058  11.651  0.5184 -1.0743  1.2420
   64MPD2     N 1002   2.576   4.359  11.514  0.5103  0.1672 -0.1842
   64MPD2    H5 1003   2.645   4.369  11.440 -0.0180  1.3228 -0.5288
   64MPD2    N1 1004   2.609   3.896  11.415 -0.2586 -0.0493 -0.1669
   64MPD2    H7 1005   2.698   3.916  11.369 -0.2741 -1.1078 -0.6781
   65TMC2    C1 1006   4.132   3.891  15.674 -0.1939 -0.0833 -0.2058
   65TMC2    C2 1007   4.222   3.952  15.591 -0.0622 -0.6853  0.6361
   65TMC2    C3 1008   4.177   4.001  15.473  0.2718  1.0251 -0.6172
   65TMC2    C4 1009   4.002   3.896  15.643  0.1642 -0.1530 -0.5886
   65TMC2    C5 1010   3.962   3.948  15.522 -0.7065 -0.0276 -0.2843
   65TMC2    C6 1011   4.048   3.994  15.432  0.8682  0.2398 -0.5698
   65TMC2     C 1012   4.174   3.805  15.782 -0.9582 -0.7003  0.1830
   65TMC2     O 1013   4.273   3.838  15.845  0.4012 -0.0254  0.5079
   65TMC2     H 1014   4.326   3.955  15.619 -0.6811  0.0055  2.8779
   65TMC2    H1 1015   3.929   3.853  15.710  0.3684 -0.3605 -0.4994
   65TMC2    H2 1016   4.004   4.037  15.343 -2.4587  0.4971  1.2015
   65TMC2    C7 1017   3.824   3.999  15.508 -0.5851 -0.4978  0.2679
   65TMC2    C8 1018   4.258   4.119  15.433 -0.5730 -0.4607  0.4148
   65TMC2    O1 1019   3.777   4.013  15.394 -0.7712 -0.1678  0.3606
   65TMC2    O2 1020   4.309   4.204  15.509  0.0492  0.6324  0.2130
   65TMC2    O5 1021   4.241   4.132  15.300  0.8774 -0.0821 -0.2177
   65TMC2    H5 1022   4.196   4.053  15.262  0.3196 -1.4668  3.3217
   66MPD2     C 1023   4.174   3.579  15.985  0.4764  0.8555 -0.5657
   66MPD2    C1 1024   4.113   3.575  15.858  0.1593 -0.1382  0.1869
   66MPD2    C2 1025   4.034   3.469  15.823 -0.3373  0.2659 -0.3535
   66MPD2    C3 1026   4.028   3.357  15.908 -0.3884  0.1368  0.1444
   66MPD2    C4 1027   4.100   3.369  16.033  0.0360  1.2812 -0.1279
   66MPD2    C5 1028   4.166   3.475  16.071 -0.0081 -0.7478  0.5430
   66MPD2     H 1029   3.975   3.472  15.732  0.0642 -1.7041 -0.6773
   66MPD2    H1 1030   4.103   3.288  16.105  0.9737  1.9879  0.6294
   66MPD2    H2 1031   4.230   3.664  16.022  0.8640 -0.6591  2.3237
   66MPD2    H3 1032   4.211   3.479  16.169 -0.9193 -1.4697  1.0004
   66MPD2     N 1033   3.950   3.238  15.886  0.2227 -0.2589  0.1433
   66MPD2    H5 1034   3.935   3.176  15.965  0.3611 -0.4870 -0.0096
   66MPD2    N1 1035   4.110   3.681  15.765  0.1634 -0.0576  0.2048
   66MPD2    H7 1036   4.059   3.667  15.679  0.9860 -1.1429 -0.0972
   67TMC2    C1 1037   3.900   3.327  14.523  0.0916 -0.7020  0.0033
   67TMC2    C2 1038   3.828   3.416  14.442  0.1556  0.9509  0.0801
   67TMC2    C3 1039   3.812   3.538  14.498  0.0815  0.2160 -0.4429
   67TMC2    C4 1040   3.937   3.353  14.656  0.3696  0.2670 -0.1279
   67TMC2    C5 1041   3.890   3.472  14.709 -0.4550  0.4370  0.7812
   67TMC2    C6 1042   3.835   3.570  14.636 -0.5022  0.1558 -0.7585
   67TMC2     C 1043   3.949   3.207  14.465  0.4167 -0.2834  0.1937
   67TMC2     O 1044   4.040   3.150  14.522  0.3639 -0.2094 -0.5305
   67TMC2     H 1045   3.802   3.392  14.339  0.0696  0.8996  0.1139
   67TMC2    H1 1046   3.961   3.265  14.714 -0.1768 -0.5522 -1.1356
   67TMC2    H2 1047   3.792   3.656  14.684  0.5977  0.7798 -0.8891
   67TMC2    C7 1048   3.885   3.493  14.856  0.5935 -0.3560  0.2330
   67TMC2    C8 1049   3.726   3.623  14.416  0.0846  0.3573  0.0347
   67TMC2    O1 1050   3.816   3.587  14.890 -0.2306  0.1090 -0.8724
   67TMC2    O2 1051   3.675   3.576  14.311  0.9576 -0.2346 -0.1629
   67TMC2    O5 1052   3.762   3.743  14.441  0.6602 -0.4538 -0.0699
   67TMC2    H5 1053   3.833   3.767  14.504 -0.5438  1.2179  0.6647
   68MPD2     C 1054   4.021   2.966  14.301 -0.3956  0.1533  0.1572
   68MPD2    C1 1055   3.908   3.049  14.278  0.3585  0.1441  0.2166
   68MPD2    C2 1056   3.821   3.010  14.179  0.5215 -0.1975  0.6837
   68MPD2    C3 1057   3.845   2.886  14.117  0.4084  0.5043  0.4884
   68MPD2    C4 1058   3.954   2.808  14.153  0.1344  0.2254  0.4518
   68MPD2    C5 1059   4.046   2.854  14.239 -0.8246  0.0985 -0.6385
   68MPD2     H 1060   3.741   3.078  14.151 -0.5946 -2.6092 -2.0045
   68MPD2    H1 1061   3.976   2.718  14.097  2.5300  1.5859 -0.7419
   68MPD2    H2 1062   4.102   2.999  14.365  2.1841  0.0346 -3.0625
   68MPD2    H3 1063   4.128   2.789  14.269  2.5812  4.1959 -1.1838
   68MPD2     N 1064   3.774   2.841  14.007  0.4324  0.1755  0.6608
   68MPD2    H5 1065   3.803   2.750  13.971  0.0485 -0.6122  2.3493
   68MPD2    N1 1066   3.889   3.174  14.345 -0.1217  0.6232 -0.5879
   68MPD2    H7 1067   3.820   3.236  14.303 -0.0785 -0.2105 -1.8766
   69TMC2    C1 1068   1.744   4.204  13.009 -0.3863 -0.1018 -0.2699
   69TMC2    C2 1069   1.625   4.260  12.973 -0.0978  0.7321 -0.3965
   69TMC2    C3 1070   1.630   4.384  12.920  0.0630  1.2770  0.4210
   69TMC2    C4 1071   1.861   4.272  13.018  0.0176  0.3107  0.6054
   69TMC2    C5 1072   1.856   4.401  12.981  0.0974 -0.0351  0.0689
   69TMC2    C6 1073   1.741   4.462  12.925  0.1148 -0.1930  0.6100
   69TMC2     C 1074   1.738   4.084  13.095 -0.3601 -1.1146  0.3495
   69TMC2     O 1075   1.636   4.053  13.154 -0.2557 -0.4753  0.1179
   69TMC2     H 1076   1.529   4.213  12.958  0.7300 -0.8861 -0.5763
   69TMC2    H1 1077   1.956   4.240  13.060 -0.1208 -0.6003  0.2170
   69TMC2    H2 1078   1.755   4.564  12.890 -2.0388 -1.3192 -3.4572
   69TMC2    C7 1079   1.960   4.432  12.891 -0.3854  0.3883 -0.3788
   69TMC2    C8 1080   1.497   4.440  12.899  0.0119  0.0557 -0.3957
   69TMC2    O1 1081   1.939   4.437  12.772  0.0589  0.3569 -0.2341
   69TMC2    O2 1082   1.394   4.391  12.944 -0.4862 -0.1354  0.4705
   69TMC2    O5 1083   1.521   4.574  12.867  0.0698 -0.3009 -0.2871
   69TMC2    H5 1084   1.597   4.592  12.808  0.6258  0.0735  0.5530
   70MPD2     C 1085   1.994   3.822  13.133  0.0446  0.2245  0.0769
   70MPD2    C1 1086   1.877   3.889  13.162  0.2349 -0.4341 -0.1186
   70MPD2    C2 1087   1.791   3.837  13.265 -0.2657  0.2807 -0.9810
   70MPD2    C3 1088   1.819   3.713  13.315  0.9186  0.8773 -1.1133
   70MPD2    C4 1089   1.944   3.655  13.286  0.4388  0.4188 -0.4330
   70MPD2    C5 1090   2.029   3.707  13.198 -0.0208 -0.3087 -0.5940
   70MPD2     H 1091   1.703   3.891  13.298 -1.8445 -2.0825 -1.2917
   70MPD2    H1 1092   1.964   3.561  13.336 -2.9435 -0.1600 -0.1094
   70MPD2    H2 1093   2.060   3.858  13.056  0.9582 -1.6854 -0.0271
   70MPD2    H3 1094   2.123   3.655  13.182  0.3922  0.6311 -1.2729
   70MPD2     N 1095   1.736   3.646  13.407 -0.4766  0.2772 -0.4060
   70MPD2    H5 1096   1.760   3.553  13.440 -0.5536  0.2500 -0.4263
   70MPD2    N1 1097   1.848   4.008  13.085  0.3502 -0.4272 -0.1172
   70MPD2    H7 1098   1.918   4.038  13.018  0.7833  1.8478  1.3350
   71TMC2    C1 1099   3.578   0.384   1.601  0.3299  0.1095  0.2669
   71TMC2    C2 1100   3.659   0.393   1.708  0.2458 -0.6170  0.1428
   71TMC2    C3 1101   3.606   0.438   1.823 -0.1407 -1.0974 -0.0170
   71TMC2    C4 1102   3.456   0.446   1.601  0.2965  0.5250  0.2688
   71TMC2    C5 1103   3.417   0.507   1.709 -0.2061 -0.6616 -0.0566
   71TMC2    C6 1104   3.482   0.499   1.831  0.2182  0.3008  0.9196
   71TMC2     C 1105   3.641   0.364   1.471  0.3914  0.3659  0.0752
   71TMC2     O 1106   3.596   0.427   1.377 -0.4703 -0.4483  0.6335
   71TMC2     H 1107   3.757   0.348   1.712  0.3091 -0.3988  1.1014
   71TMC2    H1 1108   3.413   0.472   1.505 -0.7455 -0.6747  0.4215
   71TMC2    H2 1109   3.440   0.544   1.920 -0.2604  0.9756  0.3534
   71TMC2    C7 1110   3.293   0.578   1.715 -0.1650  0.2236  0.0533
   71TMC2    C8 1111   3.665   0.395   1.948  0.0445  0.5990  0.0163
   71TMC2    O1 1112   3.258   0.643   1.813 -0.0467 -0.2261 -0.0022
   71TMC2    O2 1113   3.784   0.362   1.957 -0.5937  0.0487 -0.6646
   71TMC2    O5 1114   3.573   0.355   2.033 -0.1016 -0.2631 -0.0002
   71TMC2    H5 1115   3.483   0.350   1.996 -0.2279  2.3477 -0.0326
   72MPD2     C 1116   3.950   0.119   1.159  0.1290  0.1047 -0.0770
   72MPD2    C1 1117   3.894   0.245   1.152 -0.3320  0.7564  0.0559
   72MPD2    C2 1118   3.831   0.298   1.266  0.1337 -0.4546 -0.2208
   72MPD2    C3 1119   3.808   0.221   1.376 -0.6580 -0.0137 -0.1256
   72MPD2    C4 1120   3.864   0.096   1.379  0.8580  0.5083 -0.2965
   72MPD2    C5 1121   3.941   0.052   1.278 -0.4728 -0.0529 -0.4774
   72MPD2     H 1122   3.816   0.405   1.255 -2.2370 -0.5717  1.8705
   72MPD2    H1 1123   3.836   0.029   1.459  2.7780  1.9396  1.5438
   72MPD2    H2 1124   3.969   0.071   1.063  1.1852  1.3221 -0.4680
   72MPD2    H3 1125   3.974   4.685   1.287  0.4600  0.4638  1.8069
   72MPD2     N 1126   3.732   0.262   1.484  0.1296  0.3797 -0.3690
   72MPD2    H5 1127   3.716   0.199   1.562  0.1698  0.1654 -0.5326
   72MPD2    N1 1128   3.878   0.316   1.038  0.1666 -1.0365 -0.8292
   72MPD2    H7 1129   3.830   0.405   1.036 -0.0175 -1.1177  0.0817
   73TMC2    C1 1130   3.007   1.857  14.136  0.1730  0.0860  0.0656
   73TMC2    C2 1131   2.930   1.846  14.248  0.4179 -0.5404 -0.4962
   73TMC2    C3 1132   2.933   1.728  14.321 -0.3398  0.7111 -0.1243
   73TMC2    C4 1133   3.091   1.755  14.110 -0.8493  0.2230  0.0769
   73TMC2    C5 1134   3.100   1.645  14.191  0.7877 -0.2640 -0.3133
   73TMC2    C6 1135   3.008   1.626  14.289  0.1035 -0.2855  0.0262
   73TMC2     C 1136   3.089   1.976  14.138  0.3127  0.2295 -0.5493
   73TMC2     O 1137   3.211   1.958  14.130 -1.1682 -0.6803 -0.4507
   73TMC2     H 1138   2.871   1.933  14.274  2.2122  0.7853 -0.8854
   73TMC2    H1 1139   3.156   1.766  14.024 -0.0421 -0.5849  0.5917
   73TMC2    H2 1140   3.014   1.528  14.335 -0.4320 -1.0889 -1.5840
   73TMC2    C7 1141   3.230   1.602  14.227 -0.2539 -0.2420 -0.1097
   73TMC2    C8 1142   2.838   1.712  14.431 -0.6908 -0.3071 -0.0358
   73TMC2    O1 1143   3.256   1.485  14.259 -0.3488  0.1516 -0.0766
   73TMC2    O2 1144   2.778   1.610  14.446 -0.8946 -0.0237  0.0165
   73TMC2    O5 1145   2.788   1.834  14.469 -0.2473 -0.2339 -0.0533
   73TMC2    H5 1146   2.846   1.913  14.462  0.1857 -0.6908 -1.4517
   74MPD2     C 1147   3.202   2.482  14.177 -0.1342 -0.1315 -0.1288
   74MPD2    C1 1148   3.282   2.368  14.191  0.5047  0.1919  0.4164
   74MPD2    C2 1149   3.226   2.240  14.186 -0.1261 -0.4361 -0.0618
   74MPD2    C3 1150   3.085   2.219  14.177  0.2904  0.1760 -0.7923
   74MPD2    C4 1151   3.009   2.333  14.176  0.4933 -0.7360 -0.0636
   74MPD2    C5 1152   3.065   2.460  14.171  0.2204  0.5592  1.0143
   74MPD2     H 1153   3.296   2.158  14.189 -0.3333 -0.5935  0.5211
   74MPD2    H1 1154   2.902   2.322  14.164  0.8187 -0.8362 -2.9886
   74MPD2    H2 1155   3.240   2.583  14.190  0.3393 -0.1435 -1.5515
   74MPD2    H3 1156   2.997   2.544  14.162  1.5211  1.4502 -0.4962
   74MPD2     N 1157   3.023   2.092  14.171 -0.1969  0.2390  0.5407
   74MPD2    H5 1158   2.921   2.090  14.170 -0.2664  3.2296  1.8703
   74MPD2    N1 1159   3.411   2.392  14.227 -0.7518 -0.0007  0.1974
   74MPD2    H7 1160   3.440   2.489  14.228 -2.3871  0.4708  1.7487
   75TMC2    C1 1161   3.625   2.863  13.823 -0.2189  0.0606  0.4604
   75TMC2    C2 1162   3.619   2.724  13.801 -0.6979  0.0933 -0.3373
   75TMC2    C3 1163   3.552   2.681  13.688  0.4989  0.0621  0.1358
   75TMC2    C4 1164   3.560   2.949  13.736  0.5795 -0.0510  0.1404
   75TMC2    C5 1165   3.497   2.896  13.628  0.2373  0.0739  0.7660
   75TMC2    C6 1166   3.485   2.761  13.608 -0.3342 -0.4908  0.0230
   75TMC2     C 1167   3.665   2.905  13.956 -0.5813  0.2227 -0.6060
   75TMC2     O 1168   3.621   3.013  13.987 -0.0638  0.1152 -0.2059
   75TMC2     H 1169   3.678   2.654  13.859 -1.9378 -0.5118  0.1979
   75TMC2    H1 1170   3.582   3.054  13.745 -0.6791  0.1884  0.2913
   75TMC2    H2 1171   3.433   2.722  13.522 -1.8115 -0.7844  1.0446
   75TMC2    C7 1172   3.426   2.986  13.538 -0.0190 -0.2500  0.3122
   75TMC2    C8 1173   3.590   2.546  13.644  0.5345  0.3316 -0.0271
   75TMC2    O1 1174   3.362   2.926  13.453  0.4838 -0.4294  0.0543
   75TMC2    O2 1175   3.625   2.451  13.714 -0.2653 -0.1320  0.1202
   75TMC2    O5 1176   3.636   2.570  13.521  0.0547 -0.0861 -0.6618
   75TMC2    H5 1177   3.617   2.659  13.484  0.5312  0.6610  0.8741
   76TMC2    C1 1178   3.190   3.549  12.109 -0.6553  0.4942  0.2308
   76TMC2    C2 1179   3.127   3.456  12.042 -0.1159 -0.0702 -0.3020
   76TMC2    C3 1180   3.189   3.338  12.027 -0.4163  0.5099 -0.1848
   76TMC2    C4 1181   3.324   3.537  12.133  0.1407 -0.2495 -0.1166
   76TMC2    C5 1182   3.389   3.424  12.099 -0.0630  0.3013  0.2091
   76TMC2    C6 1183   3.318   3.318  12.056 -0.5960 -0.0203 -0.0982
   76TMC2     C 1184   3.110   3.665  12.142  0.0266 -0.3643  0.0584
   76TMC2     O 1185   2.990   3.654  12.126  0.4370  0.0889 -0.4685
   76TMC2     H 1186   3.018   3.458  12.041 -0.1371 -0.3094  0.6168
   76TMC2    H1 1187   3.367   3.613  12.196  0.1093  0.3374 -0.7993
   76TMC2    H2 1188   3.369   3.241  11.998 -0.3126 -0.1040  0.2649
   76TMC2    C7 1189   3.535   3.413  12.108  1.1094 -0.6331  0.7136
   76TMC2    C8 1190   3.104   3.227  12.015  0.1992 -0.2353 -0.3822
   76TMC2    O1 1191   3.583   3.333  12.029 -0.1657 -0.4580  0.1203
   76TMC2    O2 1192   2.990   3.225  11.963  0.1847 -0.4592 -0.6941
   76TMC2    O5 1193   3.166   3.120  12.073 -0.0454  0.3003  0.3375
   76TMC2    H5 1194   3.251   3.141  12.116  0.5727 -1.4074 -0.0485
   77MPD2     C 1195   3.041   4.152  12.308  0.3262 -0.1411 -0.1360
   77MPD2    C1 1196   2.946   4.061  12.264  0.5297  0.3282  0.2000
   77MPD2    C2 1197   2.987   3.932  12.228  0.0833  0.1197 -0.1944
   77MPD2    C3 1198   3.125   3.898  12.228 -0.6949  0.6182 -0.0125
   77MPD2    C4 1199   3.216   3.994  12.279 -0.2992 -0.6143  0.7020
   77MPD2    C5 1200   3.170   4.117  12.318 -0.5901  0.2023  1.1596
   77MPD2     H 1201   2.914   3.862  12.188 -0.0840  0.2675 -0.1431
   77MPD2    H1 1202   3.323   3.973  12.276 -0.1698  0.0554  0.5362
   77MPD2    H2 1203   3.017   4.255  12.330 -0.4259 -0.4979  0.7535
   77MPD2    H3 1204   3.245   4.186  12.356  0.2417 -0.1430  0.1358
   77MPD2     N 1205   3.179   3.778  12.180 -0.3291 -0.5766 -0.0458
   77MPD2    H5 1206   3.280   3.765  12.189  0.0428  2.9274  1.0665
   77MPD2    N1 1207   2.808   4.095  12.254 -0.4076  0.0190  0.1483
   77MPD2    H7 1208   2.747   4.015  12.239  0.0679 -0.7810  2.4439
   78TMC2    C1 1209   3.759   2.806   1.721 -0.7171  0.0249 -0.1640
   78TMC2    C2 1210   3.729   2.763   1.595  0.2846 -1.0125 -0.2755
   78TMC2    C3 1211   3.816   2.777   1.488 -0.4370 -0.5823  0.1458
   78TMC2    C4 1212   3.889   2.836   1.748  0.0582  0.6239  0.1030
   78TMC2    C5 1213   3.986   2.829   1.648 -0.3191  0.5743 -0.0552
   78TMC2    C6 1214   3.949   2.808   1.515 -0.2589  0.8057  0.2465
   78TMC2     C 1215   3.661   2.804   1.824  0.0018  0.2318  0.1916
   78TMC2     O 1216   3.564   2.733   1.797 -0.3016 -0.1023 -0.0607
   78TMC2     H 1217   3.628   2.723   1.587  0.3001 -1.2504  0.7278
   78TMC2    H1 1218   3.925   2.858   1.848 -0.0571 -0.7045  0.4393
   78TMC2    H2 1219   4.012   2.825   1.429  1.4628 -2.0666  0.9279
   78TMC2    C7 1220   4.099   2.923   1.663 -0.1077  0.2148  0.1879
   78TMC2    C8 1221   3.806   2.677   1.389 -0.3079  0.3571  0.6380
   78TMC2    O1 1222   4.172   2.947   1.567 -0.4449 -0.0734  0.6532
   78TMC2    O2 1223   3.765   2.565   1.409  0.2440 -0.0988 -0.7253
   78TMC2    O5 1224   3.845   2.731   1.264 -0.2711  0.0164  0.6236
   78TMC2    H5 1225   3.874   2.824   1.269  0.7868 -0.3355  1.1012
   79MPD1     C 1226   3.476   2.941   2.288  0.0655  0.4879 -0.1196
   79MPD1    C1 1227   3.423   2.856   2.195 -0.1906 -0.0010 -0.1189
   79MPD1    C2 1228   3.493   2.842   2.079 -0.5835 -0.9109  0.2034
   79MPD1    C3 1229   3.619   2.895   2.052 -0.0457 -0.2916 -0.7977
   79MPD1    C4 1230   3.678   2.967   2.151 -0.7144  0.3165 -0.4698
   79MPD1    C5 1231   3.599   2.995   2.264  0.2376 -0.0738 -0.1166
   79MPD1     H 1232   3.448   2.788   1.996 -2.0700  0.7787 -0.0905
   79MPD1    H1 1233   3.777   3.010   2.144 -0.4704 -0.0525  0.7109
   79MPD1    H2 1234   3.430   2.970   2.381  1.6992 -0.6152  1.0322
   79MPD1    H3 1235   3.650   3.057   2.337  0.2647  1.1824 -1.1948
   79MPD1     N 1236   3.691   2.881   1.929 -0.3771 -0.4946  0.0721
   79MPD1    H5 1237   3.775   2.938   1.920  0.0095 -0.9114  1.0123
   79MPD1    N1 1238   3.292   2.807   2.204 -0.0330 -0.2928  0.5226
   79MPD1    H6 1239   3.258   2.780   2.296 -3.1773  2.3559  0.1202
   79MPD1    H7 1240   3.279   2.722   2.150  1.9307  0.5210 -1.2241
   80TMC2    C1 1241   1.720   3.222  12.036 -0.2640 -0.9092 -0.4485
   80TMC2    C2 1242   1.773   3.184  11.918 -0.1155  0.1800 -0.6318
   80TMC2    C3 1243   1.695   3.117  11.834 -0.4777  0.4346 -0.5833
   80TMC2    C4 1244   1.596   3.180  12.079 -0.0669 -0.4454  0.4433
   80TMC2    C5 1245   1.522   3.102  11.993  0.5893 -0.2265 -0.2867
   80TMC2    C6 1246   1.568   3.069  11.862 -0.3404 -0.2705 -0.2482
   80TMC2     C 1247   1.807   3.296  12.124  0.1843 -0.1269  0.2950
   80TMC2     O 1248   1.920   3.309  12.083 -0.5996 -0.8591 -0.3003
   80TMC2     H 1249   1.871   3.222  11.890  0.0251 -0.2454 -0.7277
   80TMC2    H1 1250   1.559   3.194  12.180  0.3132 -2.1281  0.8128
   80TMC2    H2 1251   1.504   3.011  11.796 -0.5577 -0.9775  0.5845
   80TMC2    C7 1252   1.396   3.026  12.031 -0.2597 -0.3492  0.4267
   80TMC2    C8 1253   1.756   3.083  11.704 -0.0578 -0.2320 -0.9784
   80TMC2    O1 1254   1.365   2.932  11.959  0.2256 -0.4883 -0.3677
   80TMC2    O2 1255   1.731   2.983  11.642  0.1143  0.2661  0.1066
   80TMC2    O5 1256   1.803   3.199  11.647 -0.7638  0.2864  0.3105
   80TMC2    H5 1257   1.817   3.276  11.706 -2.8469  1.1444 -0.3300
   81MPD2     C 1258   1.904   3.496  12.324  0.0475  0.9183  0.1817
   81MPD2    C1 1259   1.774   3.486  12.286 -0.3093  0.4217  0.1544
   81MPD2    C2 1260   1.690   3.585  12.334 -0.0897  0.0666 -0.4586
   81MPD2    C3 1261   1.737   3.697  12.400  0.1862 -0.0644 -0.2296
   81MPD2    C4 1262   1.866   3.698  12.444 -1.2672 -0.0671  0.0098
   81MPD2    C5 1263   1.946   3.596  12.406  0.4147  0.7691  1.1270
   81MPD2     H 1264   1.586   3.573  12.308 -0.0579 -4.2156  1.4493
   81MPD2    H1 1265   1.903   3.780  12.505 -0.5576 -1.5881  1.6045
   81MPD2    H2 1266   1.975   3.415  12.312  0.5355  1.0048  2.4641
   81MPD2    H3 1267   2.051   3.602  12.433  0.8880 -1.7157 -0.1386
   81MPD2     N 1268   1.649   3.798  12.437 -0.4370  0.2396  0.2632
   81MPD2    H5 1269   1.684   3.861  12.508  0.1071 -1.1874  1.2551
   81MPD2    N1 1270   1.727   3.375  12.213  0.1859  0.0462  0.0289
   81MPD2    H7 1271   1.627   3.363  12.206  0.2851 -0.3421 -0.7232
   82TMC2    C1 1272   4.180   2.401  10.809 -0.2562 -0.0218  0.3516
   82TMC2    C2 1273   4.142   2.354  10.690 -0.2713 -0.1619  0.7610
   82TMC2    C3 1274   4.079   2.224  10.691  0.7460  0.1113 -0.4621
   82TMC2    C4 1275   4.158   2.337  10.931 -0.0001 -0.0298 -0.0837
   82TMC2    C5 1276   4.102   2.212  10.923  0.0084 -0.4820  0.1675
   82TMC2    C6 1277   4.065   2.154  10.802 -0.2442 -0.4091 -0.3374
   82TMC2     C 1278   4.219   2.543  10.808 -0.8018 -0.6516  0.2180
   82TMC2     O 1279   4.237   2.600  10.703  0.1348 -0.0499 -0.2073
   82TMC2     H 1280   4.154   2.408  10.596 -0.3104 -1.3374  0.0868
   82TMC2    H1 1281   4.181   2.386  11.025  1.5782  0.6500 -0.8132
   82TMC2    H2 1282   4.020   2.056  10.797  1.5155 -1.3333  1.9726
   82TMC2    C7 1283   4.082   2.149  11.054 -0.5240 -0.5177 -0.0662
   82TMC2    C8 1284   4.062   2.172  10.559  0.3176 -0.0192 -0.1213
   82TMC2    O1 1285   4.077   2.222  11.155 -0.6520 -0.0550 -0.1848
   82TMC2    O2 1286   4.106   2.228  10.462  0.2967 -0.1064 -0.1117
   82TMC2    O5 1287   3.974   2.073  10.553 -0.1987 -0.1171 -0.1988
   82TMC2    H5 1288   3.926   2.060  10.637 -1.3154 -1.3005 -1.0038
   83MPD2     C 1289   4.321   2.992  11.069 -0.3862 -0.1346 -0.2048
   83MPD2    C1 1290   4.258   2.971  10.951  0.2091 -0.0737 -0.1592
   83MPD2    C2 1291   4.234   2.841  10.905  0.2104 -0.7048  0.3010
   83MPD2    C3 1292   4.279   2.728  10.976 -0.5119 -0.2539 -0.3333
   83MPD2    C4 1293   4.340   2.754  11.105 -0.3458  0.2333 -0.2560
   83MPD2    C5 1294   4.364   2.881  11.147  0.3918  0.7272  1.5690
   83MPD2     H 1295   4.181   2.827  10.812 -0.2708  0.5241  0.3906
   83MPD2    H1 1296   4.380   2.674  11.166 -4.5955 -3.7075 -2.6143
   83MPD2    H2 1297   4.348   3.090  11.105 -1.0902  0.0911 -0.3027
   83MPD2    H3 1298   4.422   2.894  11.238  1.3278  0.4319  1.0043
   83MPD2     N 1299   4.263   2.591  10.936  0.1491  0.0014  0.6504
   83MPD2    H5 1300   4.287   2.532  11.014  1.9368  1.1079  0.9540
   83MPD2    N1 1301   4.223   3.095  10.886  0.4447  0.1782 -0.2998
   83MPD2    H7 1302   4.252   3.186  10.922 -2.3120  1.6027 -1.6151
   84TMC2    C1 1303   1.271   2.308  11.335  0.0554 -0.5245 -0.2117
   84TMC2    C2 1304   1.274   2.183  11.382  0.2207 -0.5104 -0.3143
   84TMC2    C3 1305   1.318   2.084  11.303  0.5167 -0.1074 -0.1875
   84TMC2    C4 1306   1.324   2.339  11.214  0.3206 -0.1600 -0.0779
   84TMC2    C5 1307   1.391   2.241  11.145  0.3763  0.3813  0.6210
   84TMC2    C6 1308   1.390   2.109  11.192 -0.1474  0.0140  0.4685
   84TMC2     C 1309   1.178   2.403  11.398 -0.3408 -0.5159 -0.3348
   84TMC2     O 1310   1.123   2.367  11.498  0.0315  0.4873  0.1652
   84TMC2     H 1311   1.214   2.161  11.469  1.7368 -2.3885  0.2581
   84TMC2    H1 1312   1.311   2.441  11.179 -1.6375 -0.7357 -0.9771
   84TMC2    H2 1313   1.438   2.030  11.134 -0.9556  1.8331 -2.6910
   84TMC2    C7 1314   1.445   2.262  11.014  0.1538  0.4273 -0.0127
   84TMC2    C8 1315   1.341   1.955  11.367 -0.5524  0.5445 -0.0129
   84TMC2    O1 1316   1.436   2.180  10.926 -0.4859 -0.4797 -0.0049
   84TMC2    O2 1317   1.442   1.888  11.383 -0.3063 -0.5380 -0.3470
   84TMC2    O5 1318   1.217   1.920  11.417  0.0886  0.5136 -0.0067
   84TMC2    H5 1319   1.140   1.964  11.374  0.9201  0.5174 -1.5083
   85TMC2    C1 1320   1.712   0.114  16.478 -0.4147  0.5212 -0.3986
   85TMC2    C2 1321   1.720   0.013  16.570 -0.5428  0.7727  0.4893
   85TMC2    C3 1322   1.767   0.052  16.695  0.0101 -0.4225  0.5551
   85TMC2    C4 1323   1.772   0.238  16.495  0.2176  0.4644 -0.2423
   85TMC2    C5 1324   1.826   0.261  16.614  0.4444 -0.2835  0.1404
   85TMC2    C6 1325   1.826   0.173  16.719 -0.0140 -0.1286 -0.0875
   85TMC2     C 1326   1.631   0.097  16.358  0.1314  0.0106 -0.5425
   85TMC2     O 1327   1.628   0.196  16.287 -0.3998  0.6161  0.1466
   85TMC2     H 1328   1.690   4.647  16.551  3.1850 -0.2617  0.2139
   85TMC2    H1 1329   1.765   0.325  16.431 -2.3581 -0.3231 -1.0609
   85TMC2    H2 1330   1.870   0.192  16.816 -0.4292  0.1230  0.0534
   85TMC2    C7 1331   1.919   0.372  16.616  0.7739  0.3826 -0.8046
   85TMC2    C8 1332   1.781   4.688  16.800 -0.5195 -0.2995  0.0747
   85TMC2    O1 1333   1.878   0.467  16.554  0.3936  0.2580 -0.3747
   85TMC2    O2 1334   1.874   4.691  16.875  0.0224  0.1472 -0.4334
   85TMC2    O5 1335   1.677   4.597  16.788 -0.4748 -0.2149 -0.1653
   85TMC2    H5 1336   1.614   4.612  16.713 -2.5206  0.5331  1.7144
   86MPD2     C 1337   1.362   4.575  16.016 -0.2338 -0.6356 -0.4734
   86MPD2    C1 1338   1.335   4.508  16.133 -0.6320 -0.3089  0.2060
   86MPD2    C2 1339   1.413   4.542  16.238 -1.8634 -0.2623  0.6556
   86MPD2    C3 1340   1.497   4.652  16.236 -0.2654 -0.3066  0.0082
   86MPD2    C4 1341   1.508   4.726  16.117 -0.7184  0.2139 -0.2453
   86MPD2    C5 1342   1.440   4.681  16.005 -0.2503  0.0394 -0.0750
   86MPD2     H 1343   1.396   4.495  16.335 -3.8436 -0.1072  0.3785
   86MPD2    H1 1344   1.570   0.077  16.102  0.5479 -0.3471  1.7499
   86MPD2    H2 1345   1.306   4.549  15.927 -1.4035  0.6042 -0.0895
   86MPD2    H3 1346   1.452   0.005  15.915  0.6697  1.1280  0.7673
   86MPD2     N 1347   1.565   4.712  16.351 -0.2272 -0.4921 -0.4488
   86MPD2    H5 1348   1.565   4.646  16.428 -1.5851 -0.1145 -0.1144
   86MPD2    N1 1349   1.245   4.403  16.132 -0.3550  0.2782  0.0002
   86MPD2    H7 1350   1.206   4.379  16.041 -1.1201 -1.6730  0.8490
   87TMC2    C1 1351   2.729   2.759   1.133  0.2745  0.0275 -0.5821
   87TMC2    C2 1352   2.711   2.719   1.264 -0.0674 -0.1891 -0.6111
   87TMC2    C3 1353   2.625   2.789   1.347 -0.9524 -0.8056  0.3437
   87TMC2    C4 1354   2.673   2.873   1.086  0.0798  0.5609  0.2448
   87TMC2    C5 1355   2.589   2.938   1.172 -0.1511  0.0342  0.2426
   87TMC2    C6 1356   2.571   2.909   1.302  0.6330  0.0366  0.0050
   87TMC2     C 1357   2.817   2.689   1.045  0.2208 -0.3588  0.1832
   87TMC2     O 1358   2.811   2.725   0.931  1.1309  0.8627  0.3353
   87TMC2     H 1359   2.755   2.627   1.302  0.5383  1.0853  1.7759
   87TMC2    H1 1360   2.677   2.889   0.979  1.6589  2.0311  0.5186
   87TMC2    H2 1361   2.512   2.967   1.372 -0.9680 -0.5623 -0.8493
   87TMC2    C7 1362   2.495   3.031   1.116  0.6436  0.1955 -0.0254
   87TMC2    C8 1363   2.595   2.747   1.481 -0.4604  0.0038 -0.2693
   87TMC2    O1 1364   2.529   3.085   1.011 -0.3405 -0.2017  0.5480
   87TMC2    O2 1365   2.533   2.820   1.554  0.0141  0.2499 -0.1629
   87TMC2    O5 1366   2.622   2.624   1.508  0.0845 -0.8166 -0.6157
   87TMC2    H5 1367   2.605   2.564   1.432 -1.3864 -0.0922 -0.8722
   88MPD2     C 1368   2.151   3.128   1.217  0.3207  0.1493  0.4277
   88MPD2    C1 1369   2.277   3.144   1.164 -0.2627  0.5251  0.0708
   88MPD2    C2 1370   2.306   3.258   1.102  0.3464 -0.2078  0.3565
   88MPD2    C3 1371   2.218   3.365   1.097 -0.1295  0.1996 -0.2954
   88MPD2    C4 1372   2.085   3.346   1.140  0.1009 -0.5567  0.3768
   88MPD2    C5 1373   2.058   3.223   1.193  0.6737 -0.7965 -0.1363
   88MPD2     H 1374   2.403   3.276   1.058  0.0397  0.1283 -0.1922
   88MPD2    H1 1375   2.009   3.423   1.136  0.7503  0.1390  1.4503
   88MPD2    H2 1376   2.121   3.030   1.252 -1.3817  0.1143 -1.0811
   88MPD2    H3 1377   1.959   3.208   1.235 -0.2596 -2.7938 -3.0310
   88MPD2     N 1378   2.256   3.493   1.041 -0.1932 -0.1901 -0.4465
   88MPD2    H5 1379   2.179   3.559   1.030 -0.0635 -0.6307 -4.0414
   88MPD2    N1 1380   2.372   3.041   1.187 -0.4920 -0.2518  0.5030
   88MPD2    H7 1381   2.339   2.965   1.245 -1.5985  0.3649  0.6836
   89TMC2    C1 1382   3.870   2.032   1.969  0.3549 -0.0517  0.1822
   89TMC2    C2 1383   3.944   2.134   2.020 -0.6114 -0.3449 -0.2956
   89TMC2    C3 1384   4.061   2.159   1.961 -1.3361 -0.2862  0.2979
   89TMC2    C4 1385   3.926   1.943   1.876  0.4895 -0.2883 -0.4610
   89TMC2    C5 1386   4.047   1.977   1.820 -0.1469 -0.0385  0.4032
   89TMC2    C6 1387   4.121   2.083   1.866 -0.2568  0.2750 -0.6669
   89TMC2     C 1388   3.761   1.989   2.060 -0.0591  0.3600 -0.5636
   89TMC2     O 1389   3.732   2.077   2.135 -0.2436 -0.3789  0.1812
   89TMC2     H 1390   3.931   2.179   2.118  0.5272  1.5282 -1.0116
   89TMC2    H1 1391   3.868   1.868   1.824 -0.1514  0.7203 -1.2040
   89TMC2    H2 1392   4.226   2.099   1.847 -0.0322  0.2441  0.5273
   89TMC2    C7 1393   4.111   1.905   1.713  0.2536 -0.0575  0.1098
   89TMC2    C8 1394   4.151   2.243   2.026  0.7607 -0.4494  0.1595
   89TMC2    O1 1395   4.070   1.790   1.698  0.2790  0.2490  0.4356
   89TMC2    O2 1396   4.274   2.222   2.045  0.0372 -0.1875  0.2191
   89TMC2    O5 1397   4.086   2.365   2.023 -0.2052 -0.1535 -0.6182
   89TMC2    H5 1398   4.003   2.358   1.971 -1.5313 -0.1195  1.5024
   90MPD2     C 1399   3.410   1.684   2.276  0.3735 -0.1309  0.4824
   90MPD2    C1 1400   3.448   1.620   2.162 -0.0895 -1.0083 -0.8140
   90MPD2    C2 1401   3.542   1.689   2.086 -0.4253  0.4927  0.0799
   90MPD2    C3 1402   3.606   1.807   2.117  0.0323 -0.1860 -0.0779
   90MPD2    C4 1403   3.557   1.867   2.228  0.1297 -0.0329 -0.2147
   90MPD2    C5 1404   3.466   1.803   2.311 -0.9307 -0.4201 -0.1888
   90MPD2     H 1405   3.570   1.645   1.991  2.9430 -0.2116  1.3842
   90MPD2    H1 1406   3.576   1.970   2.254  0.2974  0.1447 -1.0307
   90MPD2    H2 1407   3.341   1.642   2.348 -0.3683 -1.5874 -1.0723
   90MPD2    H3 1408   3.430   1.858   2.397  0.3356  0.0879  0.0105
   90MPD2     N 1409   3.702   1.869   2.032  0.3380  0.7431  0.1897
   90MPD2    H5 1410   3.722   1.820   1.946  2.0324 -0.5359  1.2956
   90MPD2    N1 1411   3.376   1.509   2.126 -0.2482 -0.8369 -0.5354
   90MPD2    H7 1412   3.300   1.482   2.187  0.9568 -1.7543  0.5558
   91TMC2    C1 1413   1.094   1.728  16.711 -0.5579  0.5672 -0.7607
   91TMC2    C2 1414   1.030   1.833  16.770  0.4886  0.6419 -0.0502
   91TMC2    C3 1415   0.973   1.806  16.890 -0.4920 -0.2767  0.0413
   91TMC2    C4 1416   1.093   1.602  16.766 -0.7078 -0.0613 -0.1868
   91TMC2    C5 1417   1.036   1.585  16.890  0.4020 -0.3596  0.9928
   91TMC2    C6 1418   0.993   1.693  16.963  0.0768  0.3476 -0.3282
   91TMC2     C 1419   1.118   1.739  16.571  0.1617  0.4184 -0.6719
   91TMC2     O 1420   1.062   1.832  16.511 -0.4971 -0.3467  0.2701
   91TMC2     H 1421   1.014   1.926  16.717 -1.3251  0.1016 -0.4263
   91TMC2    H1 1422   1.134   1.514  16.717  0.1266  0.1669  0.1153
   91TMC2    H2 1423   0.942   1.693  17.058 -0.6930 -0.7501 -0.7380
   91TMC2    C7 1424   1.026   1.455  16.949  0.0947 -0.1531  0.3183
   91TMC2    C8 1425   0.867   1.897  16.928  0.6297 -0.1102  0.3335
   91TMC2    O1 1426   1.055   1.423  17.061  0.5551 -0.3994 -0.4447
   91TMC2    O2 1427   0.874   2.013  16.895  0.1903 -0.2319 -0.3542
   91TMC2    O5 1428   0.762   1.814  16.924  0.5593  0.0051  0.9060
   91TMC2    H5 1429   0.785   1.719  16.928 -1.4861 -0.5055  0.4754
   92MPD2     C 1430   1.229   1.711  16.301  0.3599  0.0150  0.0957
   92MPD2    C1 1431   1.265   1.636  16.403  0.2510 -0.6149  0.1081
   92MPD2    C2 1432   1.355   1.530  16.386  0.1534  0.5835  0.4213
   92MPD2    C3 1433   1.410   1.502  16.262  0.5336  0.2990  0.8192
   92MPD2    C4 1434   1.360   1.571  16.155  0.1837  0.4449  0.0072
   92MPD2    C5 1435   1.280   1.682  16.173  0.3914 -0.3723 -1.0192
   92MPD2     H 1436   1.389   1.469  16.468 -1.3474 -1.8690 -0.7869
   92MPD2    H1 1437   1.401   1.565  16.055 -0.6387  1.6156 -0.3972
   92MPD2    H2 1438   1.171   1.802  16.313  1.5740  0.7328  0.4978
   92MPD2    H3 1439   1.264   1.738  16.081  2.0458  1.0253 -0.4703
   92MPD2     N 1440   1.495   1.393  16.246  0.1996 -0.1094  0.1122
   92MPD2    H5 1441   1.528   1.344  16.329  0.2423  1.6889  1.1566
   92MPD2    N1 1442   1.215   1.651  16.534 -0.6596 -0.1533 -0.0138
   92MPD2    H7 1443   1.251   1.582  16.599  1.4202  0.4401 -0.5090
   93TMC2    C1 1444   3.215   0.653  14.343 -0.3689 -0.1804  0.5830
   93TMC2    C2 1445   3.217   0.522  14.356 -0.2582  0.3017 -0.1188
   93TMC2    C3 1446   3.339   0.465  14.337 -0.4560  0.3511  0.5442
   93TMC2    C4 1447   3.327   0.721  14.312 -0.4503  0.4940 -0.4802
   93TMC2    C5 1448   3.449   0.658  14.296 -0.7378  0.8625 -0.3763
   93TMC2    C6 1449   3.457   0.519  14.318 -0.1939 -0.0395 -0.2670
   93TMC2     C 1450   3.088   0.729  14.338  0.2056 -0.5611 -0.4408
   93TMC2     O 1451   3.106   0.853  14.332 -0.3550 -0.2114  0.0593
   93TMC2     H 1452   3.136   0.455  14.383 -1.4122  1.8572  0.2707
   93TMC2    H1 1453   3.320   0.829  14.314 -1.0545  0.3689  2.9933
   93TMC2    H2 1454   3.551   0.466  14.314 -1.5756 -2.3972 -1.0394
   93TMC2    C7 1455   3.569   0.728  14.261  0.5906 -0.5687  0.4529
   93TMC2    C8 1456   3.347   0.320  14.344  0.0409 -0.7493  0.2786
   93TMC2    O1 1457   3.666   0.657  14.239 -0.7708 -0.0359 -0.0574
   93TMC2    O2 1458   3.278   0.266  14.433 -0.6438 -0.5274  0.5271
   93TMC2    O5 1459   3.327   0.282  14.215  0.1046  0.2761  0.8326
   93TMC2    H5 1460   3.357   0.358  14.159  0.7860  1.1947  2.4505
   94MPD2     C 1461   2.728   0.638  14.407  0.2993  0.4114 -0.4015
   94MPD2    C1 1462   2.844   0.717  14.397 -0.0481 -0.1920  0.4401
   94MPD2    C2 1463   2.819   0.854  14.396 -0.4255 -0.2434  0.6825
   94MPD2    C3 1464   2.692   0.907  14.413 -0.6284 -0.0521  0.4629
   94MPD2    C4 1465   2.590   0.820  14.450 -0.0387 -0.3972 -0.1722
   94MPD2    C5 1466   2.611   0.686  14.447  0.5103 -0.3309 -0.3441
   94MPD2     H 1467   2.901   0.914  14.360  0.9638 -1.0083  2.5301
   94MPD2    H1 1468   2.495   0.864  14.478 -1.1052 -2.3916 -0.6679
   94MPD2    H2 1469   2.737   0.530  14.402  1.7190  0.4738  0.9298
   94MPD2    H3 1470   2.528   0.617  14.460  0.6289 -1.0095 -3.1570
   94MPD2     N 1471   2.656   1.035  14.406 -0.3883  0.0487  0.3450
   94MPD2    H5 1472   2.558   1.058  14.400 -0.6316 -0.8009  1.1850
   94MPD2    N1 1473   2.976   0.660  14.371 -0.2514  0.3695 -0.3757
   94MPD2    H7 1474   2.975   0.559  14.380 -2.3888  0.4875  0.7003
   95TMC2    C1 1475   3.220   2.713  16.467 -0.1085  0.0396 -0.1344
   95TMC2    C2 1476   3.117   2.629  16.494 -0.6179 -0.2865 -0.5465
   95TMC2    C3 1477   3.072   2.618  16.625 -0.1162  1.1307 -0.0948
   95TMC2    C4 1478   3.261   2.810  16.559 -0.3432  1.0249 -0.4595
   95TMC2    C5 1479   3.208   2.803  16.686 -0.0155 -1.0285 -0.2127
   95TMC2    C6 1480   3.118   2.704  16.723  0.3300 -0.2709 -0.3307
   95TMC2     C 1481   3.252   2.740  16.333 -0.2193  0.3693 -0.0043
   95TMC2     O 1482   3.301   2.850  16.313  0.2837 -0.2329  0.5010
   95TMC2     H 1483   3.080   2.557  16.422  0.3173 -1.6582  0.3375
   95TMC2    H1 1484   3.347   2.875  16.544  1.0854 -0.5194  1.0267
   95TMC2    H2 1485   3.091   2.693  16.827 -0.5745  0.7495 -0.4609
   95TMC2    C7 1486   3.256   2.900  16.789  0.4876 -0.2612  0.3510
   95TMC2    C8 1487   2.963   2.529  16.656 -0.0350 -0.2469  0.3194
   95TMC2    O1 1488   3.353   2.969  16.769  0.1971  0.6669 -0.4488
   95TMC2    O2 1489   2.943   2.427  16.588  0.3545 -0.5593 -0.0008
   95TMC2    O5 1490   2.873   2.600  16.728 -0.1794  0.4785  0.0488
   95TMC2    H5 1491   2.888   2.696  16.744 -0.4132  0.9313 -2.3473
   96MPD2     C 1492   3.295   2.645  15.845 -0.1155  0.3281  0.3873
   96MPD2    C1 1493   3.369   2.724  15.925 -0.2659  0.1314 -0.1039
   96MPD2    C2 1494   3.338   2.728  16.058 -0.3777 -0.7991 -0.6096
   96MPD2    C3 1495   3.225   2.656  16.106  0.1366 -1.0083 -0.1349
   96MPD2    C4 1496   3.153   2.580  16.018 -0.4717  0.1706 -0.1645
   96MPD2    C5 1497   3.197   2.567  15.893 -0.2104  0.1890  0.3435
   96MPD2     H 1498   3.399   2.785  16.127 -1.9867 -1.0146  1.0120
   96MPD2    H1 1499   3.064   2.527  16.049  0.0456 -0.6069 -0.0229
   96MPD2    H2 1500   3.307   2.630  15.738  1.4703 -0.3982  0.6756
   96MPD2    H3 1501   3.145   2.491  15.836 -0.2230  0.6499 -0.2686
   96MPD2     N 1502   3.190   2.662  16.242 -0.0553 -0.3614 -0.5673
   96MPD2    H5 1503   3.124   2.590  16.270 -1.4604  0.5200 -1.6017
   96MPD2    N1 1504   3.472   2.807  15.864  0.9297 -0.0228 -1.3752
   96MPD2    H7 1505   3.480   2.799  15.763  1.0327 -1.3983 -1.2620
   97TMC2    C1 1506   0.279   0.726   0.190  0.6513  1.1944 -0.2588
   97TMC2    C2 1507   0.224   0.695   0.066  0.3234  0.3102 -0.5830
   97TMC2    C3 1508   0.179   0.801  17.726  0.5751 -0.6337 -0.2743
   97TMC2    C4 1509   0.311   0.851   0.224 -0.1054  0.4691  0.0580
   97TMC2    C5 1510   0.259   0.953   0.148  0.4603 -0.4604  0.0930
   97TMC2    C6 1511   0.200   0.927   0.026  0.4698 -0.4684 -0.6046
   97TMC2     C 1512   0.328   0.624   0.275  0.5801  0.3738 -1.1637
   97TMC2     O 1513   0.349   0.659   0.391 -0.4980 -0.0150  0.3254
   97TMC2     H 1514   0.188   0.594   0.049  1.8649 -0.5481  1.3534
   97TMC2    H1 1515   0.367   0.875   0.314 -0.0919  2.7420 -0.5758
   97TMC2    H2 1516   0.174   1.010  17.704 -2.9650 -1.5246 -0.5701
   97TMC2    C7 1517   0.308   1.091   0.175  0.4235 -0.0111 -0.4323
   97TMC2    C8 1518   0.166   0.782  17.586  0.2247  1.2018  0.0873
   97TMC2    O1 1519   0.384   1.110   0.267  0.4690 -0.1330  0.3269
   97TMC2    O2 1520   0.117   0.872  17.514  0.0728 -0.0887 -0.2533
   97TMC2    O5 1521   0.281   0.720  17.563  0.3377  0.2037  0.2701
   97TMC2    H5 1522   0.295   0.650  17.630 -0.6137 -1.7405 -1.5583
   98MPD2     C 1523   0.597   0.197   0.350  0.1896  0.2763  0.0405
   98MPD2    C1 1524   0.522   0.274   0.445 -0.4624 -0.4613  0.4868
   98MPD2    C2 1525   0.440   0.380   0.399 -0.0869 -0.3351  0.3047
   98MPD2    C3 1526   0.440   0.409   0.264  1.2017 -0.0959 -0.3024
   98MPD2    C4 1527   0.502   0.319   0.173 -0.4236 -0.3037 -0.0308
   98MPD2    C5 1528   0.585   0.222   0.219 -0.0574 -0.0856 -0.1795
   98MPD2     H 1529   0.372   0.435   0.462 -0.7071 -1.9646  1.0506
   98MPD2    H1 1530   0.500   0.328   0.065  1.1547 -2.8090 -0.2865
   98MPD2    H2 1531   0.666   0.123   0.388 -1.3214 -1.5873 -0.8813
   98MPD2    H3 1532   0.639   0.164   0.144 -0.3844  1.2177 -1.4245
   98MPD2     N 1533   0.369   0.513   0.209 -0.3375 -0.5955  0.2600
   98MPD2    H5 1534   0.353   0.506   0.109 -0.7607  2.3222  0.1316
   98MPD2    N1 1535   0.520   0.230   0.585 -0.4075  0.0409 -0.3702
   98MPD2    H7 1536   0.564   0.142   0.613 -0.4558 -0.6334 -2.4320
   99TMC2    C1 1537   3.671   2.411   1.952 -0.2483 -0.4015 -0.0550
   99TMC2    C2 1538   3.725   2.483   2.053  0.3619 -0.2924  1.2477
   99TMC2    C3 1539   3.653   2.532   2.154  0.5673  0.1985  0.1078
   99TMC2    C4 1540   3.535   2.400   1.938  0.1806 -0.0498 -0.0005
   99TMC2    C5 1541   3.461   2.478   2.022 -0.4507  0.0387 -0.4596
   99TMC2    C6 1542   3.520   2.543   2.138  0.2202 -0.7985 -0.3483
   99TMC2     C 1543   3.762   2.345   1.854 -0.5597  0.3706 -0.3169
   99TMC2     O 1544   3.880   2.376   1.865 -0.7220 -0.4011  0.0371
   99TMC2     H 1545   3.833   2.488   2.065  0.3737 -0.4129  1.1852
   99TMC2    H1 1546   3.491   2.365   1.845 -1.0788  0.7340  0.2921
   99TMC2    H2 1547   3.452   2.584   2.212  1.8171  0.2375  0.5174
   99TMC2    C7 1548   3.318   2.466   2.035  0.5947 -0.0564 -0.7348
   99TMC2    C8 1549   3.713   2.623   2.243 -0.1712  1.5104  0.6854
   99TMC2    O1 1550   3.253   2.558   2.087 -0.1712  0.1967  0.2001
   99TMC2    O2 1551   3.825   2.668   2.226  0.5583  0.1021  0.0880
   99TMC2    O5 1552   3.645   2.613   2.363  0.3416  0.8289  0.2511
   99TMC2    H5 1553   3.566   2.555   2.366  0.5920  0.4000 -1.1800
  100MPD2     C 1554   3.894   2.196   1.642 -1.0410  0.7436 -0.4086
  100MPD2    C1 1555   3.761   2.193   1.665  0.0336  0.1136 -0.0866
  100MPD2    C2 1556   3.684   2.121   1.575  0.2466  0.4496 -0.0796
  100MPD2    C3 1557   3.745   2.068   1.465 -0.4109  0.0609  0.0319
  100MPD2    C4 1558   3.879   2.071   1.444  0.0283  0.6560 -0.1494
  100MPD2    C5 1559   3.954   2.133   1.537 -0.2756  0.0041 -0.4955
  100MPD2     H 1560   3.576   2.118   1.583  0.2716  1.9724  0.7794
  100MPD2    H1 1561   3.926   2.030   1.356  0.6650  1.1336 -0.0313
  100MPD2    H2 1562   3.962   2.244   1.712  0.4780  0.2493 -1.5581
  100MPD2    H3 1563   4.059   2.152   1.518 -0.2714  0.0262 -0.4512
  100MPD2     N 1564   3.658   2.006   1.379 -0.2542 -0.0510 -0.5130
  100MPD2    H5 1565   3.562   2.001   1.412  0.5576  3.0567  2.3220
  100MPD2    N1 1566   3.696   2.263   1.764  0.1690  0.0569  0.2438
  100MPD2    H7 1567   3.595   2.258   1.775  0.2996 -3.3633 -0.1768
  101TMC2    C1 1568   0.478   3.763  12.948 -0.3777  0.0487 -0.8367
  101TMC2    C2 1569   0.347   3.808  12.993 -0.1234  0.6496 -0.5341
  101TMC2    C3 1570   0.322   3.942  13.011  0.1211 -0.4545 -0.3157
  101TMC2    C4 1571   0.579   3.858  12.951 -0.3644 -0.4945  0.8089
  101TMC2    C5 1572   0.551   3.991  12.974 -0.0445  0.3343  0.1494
  101TMC2    C6 1573   0.418   4.033  12.995 -0.6206 -0.1460  0.0941
  101TMC2     C 1574   0.517   3.615  12.944  0.4865  0.0517  0.4238
  101TMC2     O 1575   0.625   3.598  12.888  0.3265  0.5389  0.1741
  101TMC2     H 1576   0.264   3.738  12.997  1.8621 -1.4505  3.5562
  101TMC2    H1 1577   0.677   3.826  12.917 -1.6137 -2.7633 -0.6553
  101TMC2    H2 1578   0.393   4.136  13.017 -0.9417 -0.4193  1.0118
  101TMC2    C7 1579   0.651   4.093  12.970  0.9826  0.1339  0.1070
  101TMC2    C8 1580   0.196   3.980  13.064  0.4136  0.2904  0.2633
  101TMC2    O1 1581   0.636   4.202  12.916 -0.1409  0.1533  0.3017
  101TMC2    O2 1582   0.137   4.086  13.033 -0.1422  0.6424  0.3037
  101TMC2    O5 1583   0.190   3.919  13.188 -0.0535 -0.2050  0.4030
  101TMC2    H5 1584   0.247   3.839  13.187  1.4134  0.8147  3.1298
  102MPD2     C 1585   0.567   3.315  13.001 -0.2926 -0.4967  0.7390
  102MPD2    C1 1586   0.474   3.405  13.057 -0.0202  0.1318 -0.4349
  102MPD2    C2 1587   0.395   3.343  13.152 -0.2739 -0.7110 -0.0069
  102MPD2    C3 1588   0.405   3.207  13.191 -0.4679 -0.1693  0.1940
  102MPD2    C4 1589   0.501   3.131  13.125  0.7236  0.2200 -0.0620
  102MPD2    C5 1590   0.585   3.185  13.039 -0.4873  1.0518  0.3463
  102MPD2     H 1591   0.323   3.399  13.210 -0.2295 -0.9934  0.3197
  102MPD2    H1 1592   0.520   3.027  13.152 -2.8436 -0.3397  0.2819
  102MPD2    H2 1593   0.622   3.356  12.917 -1.0835  2.6956  1.8044
  102MPD2    H3 1594   0.646   3.114  12.984 -0.9177  1.3287 -0.4957
  102MPD2     N 1595   0.317   3.167  13.291  0.1800  0.3053 -0.0656
  102MPD2    H5 1596   0.258   3.242  13.327  1.1729  2.0417 -2.0257
  102MPD2    N1 1597   0.444   3.539  13.024  0.4651 -0.2460 -1.0549
  102MPD2    H7 1598   0.373   3.583  13.082 -0.4840 -2.0623 -0.8167
  103TMC2    C1 1599   3.870   3.703  12.779 -0.9001 -0.2430 -0.1631
  103TMC2    C2 1600   4.009   3.726  12.778 -0.4392  0.3505  0.8375
  103TMC2    C3 1601   4.062   3.827  12.854 -0.4501 -0.1827  0.4917
  103TMC2    C4 1602   3.791   3.783  12.855  0.3258  0.1138  0.3478
  103TMC2    C5 1603   3.845   3.874  12.936 -0.8975  0.5471  0.1307
  103TMC2    C6 1604   3.984   3.901  12.943 -0.2201  0.2373  0.2231
  103TMC2     C 1605   3.799   3.643  12.662  0.4225 -0.8575 -0.1555
  103TMC2     O 1606   3.679   3.658  12.651  0.4876  0.0845  0.2502
  103TMC2     H 1607   4.084   3.658  12.738 -1.4284 -1.1061  1.4520
  103TMC2    H1 1608   3.689   3.757  12.879  0.7346 -2.8321 -1.0844
  103TMC2    H2 1609   4.018   3.979  13.010 -0.6458 -0.6077  1.4057
  103TMC2    C7 1610   3.760   3.982  12.984  1.1016  0.4674 -0.0842
  103TMC2    C8 1611   4.201   3.824  12.880 -0.2314 -1.2556  0.5289
  103TMC2    O1 1612   3.645   3.950  13.000  0.1688 -0.1906 -0.6392
  103TMC2    O2 1613   4.273   3.733  12.856 -1.2784 -0.0187  0.3966
  103TMC2    O5 1614   4.246   3.945  12.911  0.3124  0.4294 -0.0075
  103TMC2    H5 1615   4.171   4.000  12.878 -0.2274 -0.2814  0.0195
  104MPD2     C 1616   3.968   3.461  12.381  0.4581  0.0881 -0.1816
  104MPD2    C1 1617   3.867   3.526  12.452 -0.4457 -0.4209 -0.0718
  104MPD2    C2 1618   3.733   3.534  12.394  0.0966  0.0784 -0.1390
  104MPD2    C3 1619   3.714   3.474  12.271 -0.0398 -0.1411 -0.4559
  104MPD2    C4 1620   3.816   3.412  12.201  0.1771 -0.3292 -0.5247
  104MPD2    C5 1621   3.942   3.413  12.255  0.2472  0.0280 -0.1522
  104MPD2     H 1622   3.654   3.584  12.449 -0.3428  0.6982 -1.3523
  104MPD2    H1 1623   3.803   3.359  12.107  3.5668  0.7076 -1.5658
  104MPD2    H2 1624   4.062   3.430  12.423 -0.7115  0.4235  2.6379
  104MPD2    H3 1625   4.025   3.369  12.203 -0.3683 -0.1492 -0.9842
  104MPD2     N 1626   3.586   3.476  12.214  0.4011  0.6580 -0.4999
  104MPD2    H5 1627   3.512   3.505  12.278  0.7415  1.1638 -0.3341
  104MPD2    N1 1628   3.891   3.586  12.581 -0.3595  0.0833  0.2628
  104MPD2    H7 1629   3.987   3.583  12.612 -1.0050 -1.8227  2.0725
  105TMC2    C1 1630   3.361   2.434   0.302  0.4456  0.3348 -0.1358
  105TMC2    C2 1631   3.365   2.572   0.287 -1.0986  0.0481  0.6291
  105TMC2    C3 1632   3.287   2.646   0.372  0.5426  0.3014 -0.3630
  105TMC2    C4 1633   3.297   2.372   0.404  0.0549 -0.2634  0.5671
  105TMC2    C5 1634   3.243   2.450   0.501 -0.6904 -1.1158  0.1944
  105TMC2    C6 1635   3.236   2.583   0.486 -0.4774  0.3945 -0.2535
  105TMC2     C 1636   3.393   2.344   0.195 -0.0166 -0.0066 -0.3068
  105TMC2     O 1637   3.349   2.235   0.208 -0.5363 -0.5026  0.2593
  105TMC2     H 1638   3.403   2.611   0.193  0.0843  0.1608  1.1584
  105TMC2    H1 1639   3.298   2.266   0.427 -0.8471 -0.1999  0.8966
  105TMC2    H2 1640   3.187   2.649   0.558 -1.3825 -0.4379 -0.1037
  105TMC2    C7 1641   3.200   2.381   0.622 -0.0000  0.5822  0.8638
  105TMC2    C8 1642   3.303   2.785   0.390 -0.5347 -0.0660 -0.1217
  105TMC2    O1 1643   3.239   2.266   0.639 -0.1084 -0.5509  0.4250
  105TMC2    O2 1644   3.238   2.882   0.358 -0.0357  0.5280 -0.3403
  105TMC2    O5 1645   3.434   2.795   0.382  0.6607 -0.3889 -0.3642
  105TMC2    H5 1646   3.478   2.708   0.399  0.1734 -0.3117  1.2424
  106MPD2     C 1647   3.671   2.182  17.527  0.1597  0.3604 -0.3549
  106MPD2    C1 1648   3.719   2.301  17.574  0.2315 -0.1303  0.5855
  106MPD2    C2 1649   3.650   2.375  17.669 -0.5007  0.2032  0.1383
  106MPD2    C3 1650   3.553   2.322   0.003 -0.2557  0.3161 -0.1610
  106MPD2    C4 1651   3.506   2.199  17.700  0.3425 -0.3680 -0.7262
  106MPD2    C5 1652   3.554   2.133  17.591  0.5321  0.2721 -0.1984
  106MPD2     H 1653   3.675   2.478  17.692 -0.5962  0.0136  1.0631
  106MPD2    H1 1654   3.421   2.143  17.738 -0.9120  1.2466 -1.1592
  106MPD2    H2 1655   3.715   2.138  17.438 -1.7425 -0.7792 -0.7202
  106MPD2    H3 1656   3.518   2.033  17.569 -1.2605  0.7513  0.5890
  106MPD2     N 1657   3.487   2.396   0.109  0.0432  0.4167 -0.3063
  106MPD2    H5 1658   3.528   2.483   0.141 -1.4209  1.4097 -1.1602
  106MPD2    N1 1659   3.819   2.372  17.501  0.4070  0.4369  0.0426
  106MPD2    H7 1660   3.852   2.458  17.542 -3.3194  1.6326  0.5571
  107TMC2    C1 1661   0.554   2.556  11.958  0.8978  1.1725 -0.5220
  107TMC2    C2 1662   0.456   2.482  11.891 -0.3677 -0.0644  0.2363
  107TMC2    C3 1663   0.449   2.504  11.753  0.3718 -0.3604 -0.1863
  107TMC2    C4 1664   0.638   2.640  11.897 -0.5658  0.8773  0.1470
  107TMC2    C5 1665   0.629   2.650  11.760 -0.0454 -0.1583 -0.4989
  107TMC2    C6 1666   0.538   2.588  11.684  0.5041 -1.1798  0.2203
  107TMC2     C 1667   0.553   2.564  12.103 -0.3735  0.3844 -0.0013
  107TMC2     O 1668   0.612   2.664  12.144  0.4016 -0.2363 -0.3373
  107TMC2     H 1669   0.385   2.411  11.933 -0.2383 -0.9515 -1.0501
  107TMC2    H1 1670   0.731   2.680  11.936 -0.1906 -0.4794  0.6185
  107TMC2    H2 1671   0.523   2.619  11.581 -0.2683  0.3973  0.8121
  107TMC2    C7 1672   0.726   2.730  11.690 -0.4395 -0.4623 -0.1300
  107TMC2    C8 1673   0.351   2.448  11.666  0.1556  0.2183 -0.1140
  107TMC2    O1 1674   0.746   2.841  11.737  0.6949 -0.6760 -0.4660
  107TMC2    O2 1675   0.325   2.488  11.553  0.0596  0.8695  0.4732
  107TMC2    O5 1676   0.303   2.330  11.712 -0.2834  0.0680  0.2620
  107TMC2    H5 1677   0.338   2.312  11.802  1.7129 -1.4117 -0.8222
  108MPD2     C 1678   0.513   2.539  12.390 -0.0086 -0.1443 -0.2088
  108MPD2    C1 1679   0.439   2.471  12.299  0.4267 -0.4826  0.2583
  108MPD2    C2 1680   0.341   2.387  12.339  0.5256 -0.2955  0.5390
  108MPD2    C3 1681   0.308   2.375  12.473 -0.0385 -0.3273  0.0386
  108MPD2    C4 1682   0.382   2.440  12.569  0.2599 -0.3818 -0.1186
  108MPD2    C5 1683   0.483   2.526  12.525 -0.0862  0.1874 -0.0802
  108MPD2     H 1684   0.286   2.338  12.260  1.2644 -0.1562 -0.0592
  108MPD2    H1 1685   0.347   2.443  12.672 -0.8000  4.4639 -0.6014
  108MPD2    H2 1686   0.599   2.600  12.363 -0.7426  0.3339 -1.4578
  108MPD2    H3 1687   0.534   2.587  12.599  0.1687 -0.7729  0.5329
  108MPD2     N 1688   0.202   2.301  12.516  0.3702 -0.0862  0.5008
  108MPD2    H5 1689   0.178   2.309  12.614  0.9609  1.0808  0.5467
  108MPD2    N1 1690   0.460   2.486  12.159 -0.1191 -0.2984  0.0711
  108MPD2    H7 1691   0.422   2.415  12.097  0.3392 -1.1814  0.7974
  109TMC2    C1 1692   0.012   3.868   0.530 -0.1419 -0.0565 -0.6665
  109TMC2    C2 1693   0.012   3.883   0.394  0.6202  0.4340 -0.2591
  109TMC2    C3 1694   0.039   4.009   0.340  0.0841  0.1725  0.4862
  109TMC2    C4 1695   0.046   3.973   0.610 -0.1503 -0.6989 -0.1677
  109TMC2    C5 1696   0.067   4.102   0.564 -0.9424  0.1747 -0.3565
  109TMC2    C6 1697   0.065   4.119   0.424 -0.0702  0.3298 -0.0409
  109TMC2     C 1698   4.716   3.731   0.569  0.1548  0.5596 -0.5019
  109TMC2     O 1699   4.707   3.639   0.487  0.5299 -0.6308 -0.0629
  109TMC2     H 1700   4.736   3.797   0.329  3.2321 -1.2980  1.5584
  109TMC2    H1 1701   0.067   3.953   0.714  2.7451  0.2200 -0.5743
  109TMC2    H2 1702   0.076   4.218   0.380  1.9287  0.8772  1.7069
  109TMC2    C7 1703   0.063   4.231   0.645  0.1143 -0.1306 -0.7835
  109TMC2    C8 1704   0.051   4.029   0.201  0.1977  0.2186  0.0333
  109TMC2    O1 1705   0.094   4.336   0.592  0.2977  0.0747  0.8705
  109TMC2    O2 1706   0.128   4.112   0.156  0.0766  0.3387  0.4301
  109TMC2    O5 1707   4.672   3.985   0.147  0.2130  0.7871 -0.4893
  109TMC2    H5 1708   4.619   3.924   0.203  1.5412  0.0763 -0.0053
  110MPD2     C 1709   4.641   3.370   0.933 -0.2766 -0.0833  1.2180
  110MPD2    C1 1710   4.643   3.496   0.996  0.5871 -0.5020 -0.4837
  110MPD2    C2 1711   4.671   3.610   0.918 -0.0194 -0.0152 -0.1974
  110MPD2    C3 1712   4.670   3.603   0.782  0.8136 -0.1742  0.2399
  110MPD2    C4 1713   4.651   3.474   0.724 -0.2047  0.7278 -0.0432
  110MPD2    C5 1714   4.637   3.361   0.796 -1.3528 -0.8757  0.1310
  110MPD2     H 1715   4.676   3.708   0.966 -0.4543  0.3260 -0.8518
  110MPD2    H1 1716   4.670   3.449   0.620  3.3178 -3.3281  1.5673
  110MPD2    H2 1717   4.626   3.277   0.987  1.7400 -0.7216  0.6863
  110MPD2    H3 1718   4.620   3.262   0.753  0.7508 -0.8978 -0.6522
  110MPD2     N 1719   4.704   3.722   0.709 -0.3234 -0.8950  0.2941
  110MPD2    H5 1720   4.709   3.807   0.765 -0.5814  0.7782 -2.2419
  110MPD2    N1 1721   4.615   3.499   1.133  0.3912 -0.0978 -0.1491
  110MPD2    H7 1722   4.604   3.406   1.174 -1.8354 -0.6061 -1.9170
  111TMC2    C1 1723   0.872   0.259  11.682 -0.3886  0.2485 -0.5825
  111TMC2    C2 1724   0.960   0.316  11.598  0.3110  0.0567 -0.1828
  111TMC2    C3 1725   1.051   0.390  11.654 -0.0548 -0.8476 -0.4731
  111TMC2    C4 1726   0.895   0.258  11.817 -0.2576 -0.3061  0.2935
  111TMC2    C5 1727   1.008   0.311  11.864  0.5869 -0.0777  0.5038
  111TMC2    C6 1728   1.082   0.389  11.784 -0.0213 -0.6604 -0.3364
  111TMC2     C 1729   0.767   0.184  11.620 -0.5768  0.1270 -0.7632
  111TMC2     O 1730   0.761   0.183  11.500  0.2222 -0.4308  0.4779
  111TMC2     H 1731   0.952   0.316  11.490  0.0138  0.9077 -0.1600
  111TMC2    H1 1732   0.832   0.216  11.895 -2.4171  0.2630 -1.1669
  111TMC2    H2 1733   1.148   0.468  11.815 -0.4897 -0.3443 -0.1479
  111TMC2    C7 1734   1.079   0.229  11.968 -0.1002  0.6518 -0.2006
  111TMC2    C8 1735   1.118   0.479  11.558  0.4088  0.0867  0.2851
  111TMC2    O1 1736   1.015   0.140  12.030 -0.2936  0.2384 -0.0804
  111TMC2    O2 1737   1.145   0.452  11.438 -0.2983 -1.1885  0.0612
  111TMC2    O5 1738   1.069   0.600  11.590 -0.4094 -0.1831 -0.3629
  111TMC2    H5 1739   1.042   0.605  11.684 -1.3616  1.4434 -0.7168
  112MPD2     C 1740   0.315   4.690  11.642  0.1025  0.1098 -0.0931
  112MPD2    C1 1741   0.398   4.714  11.536 -0.3329  0.2067  0.6091
  112MPD2    C2 1742   0.522   0.029  11.562 -0.2213  0.1443  0.1480
  112MPD2    C3 1743   0.565   0.058  11.688  0.7908  0.3929 -0.2792
  112MPD2    C4 1744   0.479   0.034  11.798  0.1369  0.2055 -0.4293
  112MPD2    C5 1745   0.353   4.727  11.766 -0.0942  0.2708 -0.2763
  112MPD2     H 1746   0.594   0.037  11.481  0.7658  0.1197  1.0199
  112MPD2    H1 1747   0.517   0.061  11.896 -0.9189  1.4342 -0.3701
  112MPD2    H2 1748   0.209   4.665  11.641  0.4324 -1.4509  3.2959
  112MPD2    H3 1749   0.288   4.700  11.849  1.3338 -2.0371  0.1074
  112MPD2     N 1750   0.680   0.128  11.714  0.2561  0.4125  0.2206
  112MPD2    H5 1751   0.700   0.159  11.809  3.0047  1.7979 -0.8118
  112MPD2    N1 1752   0.366   4.676  11.408  0.0934 -0.9064  0.9539
  112MPD2    H7 1753   0.439   4.691  11.339 -2.2448  0.4296 -1.1937
  113TMC2    C1 1754   2.595   2.060   0.291 -0.2899  0.1627  0.1988
  113TMC2    C2 1755   2.532   2.174   0.244 -0.8606  0.2938 -0.8360
  113TMC2    C3 1756   2.439   2.154   0.152 -0.1263 -0.1280 -0.0404
  113TMC2    C4 1757   2.547   1.940   0.251  1.1301 -0.0370 -0.5133
  113TMC2    C5 1758   2.457   1.919   0.155 -0.6233 -0.7629  1.1007
  113TMC2    C6 1759   2.401   2.031   0.097  0.2221 -0.0518  0.4787
  113TMC2     C 1760   2.658   2.077   0.419  0.3279 -0.6615  0.4954
  113TMC2     O 1761   2.619   2.164   0.497 -0.1485 -0.8647 -0.2632
  113TMC2     H 1762   2.577   2.269   0.270  2.0560 -0.9981 -1.0508
  113TMC2    H1 1763   2.579   1.846   0.296 -2.8699  0.4341  3.4087
  113TMC2    H2 1764   2.342   2.003   0.010  0.7325 -0.9195  0.4060
  113TMC2    C7 1765   2.428   1.783   0.112  0.0000 -0.1127 -0.5005
  113TMC2    C8 1766   2.383   2.273   0.086  0.8243  0.3866  0.2157
  113TMC2    O1 1767   2.418   1.769  17.736  0.3773 -0.2510  0.2525
  113TMC2    O2 1768   2.434   2.383   0.103 -0.3449 -0.6235  0.2711
  113TMC2    O5 1769   2.258   2.235   0.101 -0.5726  0.3747 -0.2235
  113TMC2    H5 1770   2.246   2.138   0.111 -3.4777  0.3852 -3.5034
  114MPD2     C 1771   2.920   1.830   0.802  0.3077 -0.4123  0.0928
  114MPD2    C1 1772   2.854   1.954   0.806  0.2351  0.8289  0.2295
  114MPD2    C2 1773   2.784   2.002   0.693 -0.1062 -0.6096 -0.0249
  114MPD2    C3 1774   2.791   1.932   0.575  1.2328 -0.5939 -0.0998
  114MPD2    C4 1775   2.869   1.818   0.572 -1.3874 -0.2420  0.2197
  114MPD2    C5 1776   2.929   1.770   0.683 -0.4707  0.5063 -0.3521
  114MPD2     H 1777   2.741   2.102   0.691  0.8909 -0.1630  0.6663
  114MPD2    H1 1778   2.904   1.776   0.478 -0.0122 -2.3956  1.7090
  114MPD2    H2 1779   2.953   1.771   0.887 -0.3554 -0.1015  0.5688
  114MPD2    H3 1780   2.999   1.687   0.683 -0.6184  0.3807 -0.0605
  114MPD2     N 1781   2.741   1.971   0.446  0.1641  0.1259  0.4117
  114MPD2    H5 1782   2.766   1.905   0.373 -1.2696  1.7698 -1.6009
  114MPD2    N1 1783   2.848   2.037   0.920 -0.3556 -0.3230  0.4356
  114MPD2    H7 1784   2.811   2.130   0.910 -0.2941 -0.2672  0.7411
  115TMC2    C1 1785   3.809   4.397   0.213 -0.3534 -0.0073 -0.4078
  115TMC2    C2 1786   3.833   4.302   0.307 -0.1150  0.0731  0.5184
  115TMC2    C3 1787   3.935   4.323   0.393  0.0813  0.7364  0.9685
  115TMC2    C4 1788   3.874   4.520   0.211 -0.0223 -0.5765  0.2514
  115TMC2    C5 1789   3.983   4.535   0.300 -0.5761  0.5233  0.1903
  115TMC2    C6 1790   4.019   4.434   0.388 -0.4789 -0.1574 -0.6670
  115TMC2     C 1791   3.680   4.380   0.142  0.1521 -0.5665  0.5821
  115TMC2     O 1792   3.679   4.391   0.020  0.7769 -0.5615 -0.3199
  115TMC2     H 1793   3.778   4.209   0.302 -0.1329  0.2066 -1.8288
  115TMC2    H1 1794   3.845   4.588   0.132 -0.4872 -0.2506  0.6998
  115TMC2    H2 1795   4.107   4.442   0.451 -0.3947 -2.2313 -0.5376
  115TMC2    C7 1796   4.062   4.664   0.304  0.2603 -0.0872 -0.2707
  115TMC2    C8 1797   3.976   4.226   0.497  0.4926  0.3254  0.7365
  115TMC2    O1 1798   4.121   4.671   0.410 -0.4384  0.1269 -1.0997
  115TMC2    O2 1799   4.078   4.247   0.558 -0.6467 -0.1211  0.5700
  115TMC2    O5 1800   3.886   4.128   0.508  0.1510  0.1871 -0.3536
  115TMC2    H5 1801   3.820   4.113   0.437 -1.8380  0.4026  1.4769
  116MPD2     C 1802   3.202   4.184   0.152 -0.2696 -0.0271 -0.8311
  116MPD2    C1 1803   3.282   4.211   0.042 -0.5211 -0.0678 -0.5009
  116MPD2    C2 1804   3.405   4.279   0.059 -0.6737  0.2510 -1.0029
  116MPD2    C3 1805   3.447   4.303   0.187  0.5220  0.2794  0.2141
  116MPD2    C4 1806   3.366   4.274   0.296  0.1049  0.4280 -0.0730
  116MPD2    C5 1807   3.250   4.210   0.275  0.1957  0.2192  0.3807
  116MPD2     H 1808   3.468   4.304  17.718  0.5802  0.4912  0.0116
  116MPD2    H1 1809   3.405   4.280   0.396 -1.1350 -0.4024  0.4604
  116MPD2    H2 1810   3.110   4.129   0.141  0.1855 -1.2030  1.1534
  116MPD2    H3 1811   3.191   4.169   0.356  1.4094 -3.3030 -0.4941
  116MPD2     N 1812   3.580   4.335   0.227 -0.1800 -0.6343 -0.0035
  116MPD2    H5 1813   3.609   4.328   0.323 -0.7767 -0.4435  0.1942
  116MPD2    N1 1814   3.225   4.163  17.660 -0.3363  0.7879 -0.5892
  116MPD2    H7 1815   3.138   4.111  17.667 -0.3715  0.7711 -1.2012
  117TMC2    C1 1816   2.397   1.981  13.808 -0.2351 -0.8060 -0.2712
  117TMC2    C2 1817   2.485   1.905  13.738 -0.0119  0.0171 -0.7721
  117TMC2    C3 1818   2.608   1.884  13.790 -0.0235 -0.5218  0.5441
  117TMC2    C4 1819   2.420   2.022  13.936  0.3378  0.1861  0.5075
  117TMC2    C5 1820   2.547   1.995  13.984 -0.2159 -0.1637  0.0621
  117TMC2    C6 1821   2.642   1.931  13.916  0.2004 -0.2288 -0.5196
  117TMC2     C 1822   2.262   1.950  13.782 -0.3595 -0.1944 -0.0709
  117TMC2     O 1823   2.242   1.858  13.704 -0.1149  0.2703  0.0524
  117TMC2     H 1824   2.474   1.881  13.633 -0.2039 -3.5057  0.0561
  117TMC2    H1 1825   2.349   2.066  14.005  0.2611 -0.8105  1.0571
  117TMC2    H2 1826   2.743   1.911  13.951 -0.1302  0.4555  0.8537
  117TMC2    C7 1827   2.597   2.051  14.110 -0.4176 -0.0441  0.3203
  117TMC2    C8 1828   2.696   1.793  13.724 -0.3763 -0.2633  0.0333
  117TMC2    O1 1829   2.718   2.069  14.120  0.1206 -0.3991  0.0164
  117TMC2    O2 1830   2.655   1.719  13.635  0.2843 -0.8726 -0.4650
  117TMC2    O5 1831   2.821   1.842  13.735  0.4667 -0.6680  0.2924
  117TMC2    H5 1832   2.835   1.923  13.788 -0.5750  0.2591 -0.8413
  118MPD2     C 1833   2.390   2.202  14.367  0.4816 -0.1532 -1.1344
  118MPD2    C1 1834   2.508   2.179  14.301  0.3910 -0.6066  0.6160
  118MPD2    C2 1835   2.619   2.249  14.344  0.9303 -0.1176 -0.0622
  118MPD2    C3 1836   2.602   2.357  14.435  0.1049  0.8813  0.0938
  118MPD2    C4 1837   2.479   2.400  14.477 -1.0335  0.1122  0.5734
  118MPD2    C5 1838   2.374   2.311  14.449  0.4835  0.9783  0.5401
  118MPD2     H 1839   2.718   2.225  14.308  1.4789  0.7379  0.8864
  118MPD2    H1 1840   2.472   2.485  14.544 -1.0076  0.1381  0.5435
  118MPD2    H2 1841   2.307   2.136  14.342 -0.5533  0.8672 -0.4263
  118MPD2    H3 1842   2.272   2.339  14.468  0.6847  2.1740 -0.1274
  118MPD2     N 1843   2.713   2.432  14.482  0.6138 -0.1424 -0.3176
  118MPD2    H5 1844   2.688   2.512  14.539  0.2842 -0.2911 -0.2545
  118MPD2    N1 1845   2.500   2.078  14.203 -1.0756 -0.2087 -0.8344
  118MPD2    H7 1846   2.405   2.048  14.183 -1.4129 -0.3408  0.9195
  119TMC2    C1 1847   1.204   2.742  13.558  0.1153  0.2406 -0.0424
  119TMC2    C2 1848   1.267   2.634  13.608  0.0037 -0.0474  0.1370
  119TMC2    C3 1849   1.210   2.507  13.599 -0.0609 -0.1486 -0.1142
  119TMC2    C4 1850   1.078   2.733  13.504  0.3921  0.2672  0.7949
  119TMC2    C5 1851   1.024   2.608  13.503 -0.2116 -0.0055  0.1831
  119TMC2    C6 1852   1.088   2.494  13.547  0.4154 -0.6088  0.0918
  119TMC2     C 1853   1.222   2.859  13.641 -0.7908  0.8554 -0.4519
  119TMC2     O 1854   1.124   2.920  13.685 -0.1402  0.1226  0.2226
  119TMC2     H 1855   1.366   2.651  13.650 -0.7438  1.5280  1.2209
  119TMC2    H1 1856   1.032   2.816  13.452  0.8352 -1.6476 -2.6767
  119TMC2    H2 1857   1.037   2.399  13.546 -1.6487  0.4949 -0.7495
  119TMC2    C7 1858   0.892   2.601  13.453  0.2859  0.3884 -0.5400
  119TMC2    C8 1859   1.272   2.392  13.656 -0.8145  0.1971  0.4880
  119TMC2    O1 1860   0.848   2.688  13.377  0.0677  0.2313  0.1908
  119TMC2    O2 1861   1.269   2.293  13.582  0.3838  0.0200 -0.5922
  119TMC2    O5 1862   1.361   2.430  13.751  0.2495  0.5618  0.3679
  119TMC2    H5 1863   1.328   2.511  13.796 -0.7736  1.2505 -1.5712
  120MPD2     C 1864   1.587   3.136  13.859  0.0878 -0.0947 -0.1818
  120MPD2    C1 1865   1.453   3.138  13.880 -0.5734 -0.2147  0.5717
  120MPD2    C2 1866   1.369   3.060  13.805 -0.7379 -0.2788 -0.4512
  120MPD2    C3 1867   1.423   2.986  13.699  0.2896 -0.3616  0.3496
  120MPD2    C4 1868   1.559   2.989  13.676 -0.0899  0.2341 -0.7585
  120MPD2    C5 1869   1.641   3.068  13.754  0.1683  0.2446  0.8909
  120MPD2     H 1870   1.262   3.070  13.818 -0.6166  0.1554  0.1925
  120MPD2    H1 1871   1.602   2.937  13.591  4.2626 -1.1581  2.3299
  120MPD2    H2 1872   1.658   3.190  13.920 -1.2896  2.5565 -0.9144
  120MPD2    H3 1873   1.749   3.068  13.747  0.1649  1.9394  0.6594
  120MPD2     N 1874   1.348   2.900  13.619  0.1030  0.4253 -0.0558
  120MPD2    H5 1875   1.399   2.851  13.546 -1.4266 -1.0438 -0.1473
  120MPD2    N1 1876   1.413   3.222  13.987  0.0516  0.4414 -0.7618
  120MPD2    H7 1877   1.473   3.301  14.009 -2.3231  1.7445  1.0824
  121TMC2    C1 1878   2.539   4.617  14.657 -0.6844  0.0413 -0.6628
  121TMC2    C2 1879   2.671   4.593  14.673  0.1312 -0.4358 -0.0289
  121TMC2    C3 1880   2.692   4.468  14.730  0.1795 -0.4473 -0.1238
  121TMC2    C4 1881   2.440   4.540  14.708  0.2834  0.2118 -0.0169
  121TMC2    C5 1882   2.471   4.418  14.762 -0.2552  0.7701 -1.0083
  121TMC2    C6 1883   2.604   4.378  14.776  0.0499  0.7172  0.6925
  121TMC2     C 1884   2.495   0.017  14.627 -0.1663  0.4307 -0.3917
  121TMC2     O 1885   2.433   0.081  14.717 -0.1260 -0.2094  0.1605
  121TMC2     H 1886   2.755   4.643  14.625  1.4106 -2.7321 -0.2003
  121TMC2    H1 1887   2.342   4.586  14.712 -0.4781 -1.4143 -0.0285
  121TMC2    H2 1888   2.628   4.279  14.814 -0.5067  0.3038 -0.0057
  121TMC2    C7 1889   2.369   4.327  14.813  0.4076  0.5536 -0.2199
  121TMC2    C8 1890   2.828   4.414  14.723 -0.1766  0.5990  1.1631
  121TMC2    O1 1891   2.399   4.244  14.897 -0.0644  0.3576 -0.7999
  121TMC2    O2 1892   2.848   4.305  14.675  0.2114 -0.5374  0.2401
  121TMC2    O5 1893   2.923   4.503  14.745 -0.1102  0.1088 -0.1894
  121TMC2    H5 1894   2.899   4.589  14.786 -1.0650  1.0096 -2.6742
  122MPD2     C 1895   2.402   0.274  14.502  0.0318  0.3789 -0.1756
  122MPD2    C1 1896   2.490   0.187  14.442 -0.1031  0.1378  0.6184
  122MPD2    C2 1897   2.537   0.225  14.315 -0.2424  0.2351 -0.3778
  122MPD2    C3 1898   2.503   0.348  14.255 -0.2308 -0.1254 -0.3662
  122MPD2    C4 1899   2.412   0.432  14.327  0.0991  0.0078 -0.1218
  122MPD2    C5 1900   2.368   0.395  14.448 -0.4924  0.9634 -0.2398
  122MPD2     H 1901   2.597   0.157  14.256  0.0376  0.1927 -0.0415
  122MPD2    H1 1902   2.393   0.530  14.283  1.3498 -0.5956 -2.0229
  122MPD2    H2 1903   2.356   0.259  14.599 -0.0766 -0.9371 -0.4276
  122MPD2    H3 1904   2.299   0.466  14.491  0.1938  0.5216  1.6258
  122MPD2     N 1905   2.539   0.396  14.122 -0.5540 -0.1663 -0.4943
  122MPD2    H5 1906   2.489   0.478  14.089 -0.9134 -1.1516 -2.3822
  122MPD2    N1 1907   2.535   0.064  14.501  0.0360  0.0752 -0.1188
  122MPD2    H7 1908   2.589   0.002  14.442  0.0463 -0.2156  0.1933
  123TMC2    C1 1909   1.545   2.826  10.675 -0.2516  0.7574 -0.0405
  123TMC2    C2 1910   1.655   2.901  10.635 -0.4959 -0.2060 -0.9497
  123TMC2    C3 1911   1.732   2.864  10.525 -0.0883 -0.1765 -0.1561
  123TMC2    C4 1912   1.522   2.707  10.623  1.1045  0.7441  0.0251
  123TMC2    C5 1913   1.601   2.669  10.517 -0.3883  0.1209 -0.1898
  123TMC2    C6 1914   1.705   2.746  10.462  0.0609  0.7324 -0.1076
  123TMC2     C 1915   1.489   2.866  10.799  0.8405  0.5584 -0.2081
  123TMC2     O 1916   1.544   2.953  10.863 -0.6417 -0.1576 -0.0682
  123TMC2     H 1917   1.662   3.005  10.665  0.2000 -0.6199  0.3338
  123TMC2    H1 1918   1.449   2.634  10.655  1.3854 -0.3728 -1.8814
  123TMC2    H2 1919   1.755   2.718  10.370  2.6179 -0.5248  1.6721
  123TMC2    C7 1920   1.578   2.530  10.468 -0.1871  0.6373 -0.1804
  123TMC2    C8 1921   1.867   2.904  10.525  0.1533  0.1863 -1.0005
  123TMC2    O1 1922   1.477   2.473  10.505 -0.0734 -0.3108  0.0517
  123TMC2    O2 1923   1.914   2.948  10.626  0.3570  0.1844  0.2462
  123TMC2    O5 1924   1.927   2.889  10.406 -0.4559  0.3833  0.3932
  123TMC2    H5 1925   1.864   2.856  10.338  0.8173  0.3035 -0.7584
  124MPD2     C 1926   1.082   2.903  11.099  0.3039  0.1444  0.7821
  124MPD2    C1 1927   1.080   2.778  11.041 -0.0763 -0.4169 -0.1466
  124MPD2    C2 1928   1.170   2.745  10.947  0.3322  0.4280 -1.0718
  124MPD2    C3 1929   1.278   2.832  10.926  0.6757  0.0128  0.1027
  124MPD2    C4 1930   1.287   2.951  10.991 -0.2048  0.2994  0.3137
  124MPD2    C5 1931   1.184   2.986  11.077 -0.0414 -0.2460 -0.3333
  124MPD2     H 1932   1.165   2.649  10.897 -0.8506  0.0520 -0.2217
  124MPD2    H1 1933   1.373   3.018  10.985 -0.4794  0.3953 -2.7552
  124MPD2    H2 1934   1.004   2.925  11.170  0.6717 -0.1435  1.2730
  124MPD2    H3 1935   1.195   3.082  11.127 -1.4647  1.5921 -3.5085
  124MPD2     N 1936   1.372   2.801  10.823  0.0774  0.1387 -0.2353
  124MPD2    H5 1937   1.336   2.734  10.756 -2.8919  3.4590 -1.9324
  124MPD2    N1 1938   0.966   2.696  11.081 -0.5318 -0.3341  0.3266
  124MPD2    H7 1939   0.880   2.736  11.117  1.2897  1.0272  3.2176
  125TMC2    C1 1940   1.666   3.830  10.179  0.3951  0.0271 -0.2417
  125TMC2    C2 1941   1.544   3.868  10.201  0.1775  0.8139  0.6846
  125TMC2    C3 1942   1.528   4.000  10.256  0.0958 -0.7321  0.2078
  125TMC2    C4 1943   1.777   3.907  10.214  0.5011 -0.2693 -0.0374
  125TMC2    C5 1944   1.755   4.031  10.248 -0.0823 -0.1277  0.2979
  125TMC2    C6 1945   1.634   4.080  10.282  0.6594 -0.0761 -0.2060
  125TMC2     C 1946   1.685   3.725  10.079  0.5594  0.0253 -0.4783
  125TMC2     O 1947   1.592   3.656  10.053 -0.3426  0.1866  0.1263
  125TMC2     H 1948   1.461   3.801  10.179  0.1906  0.6465  1.1569
  125TMC2    H1 1949   1.879   3.871  10.206  0.9794  1.5181 -1.8000
  125TMC2    H2 1950   1.622   4.166  10.346  2.1733  0.5662 -0.7974
  125TMC2    C7 1951   1.867   4.115  10.279  0.3310  0.4090 -0.6157
  125TMC2    C8 1952   1.392   4.053  10.281 -0.4967  0.2569 -0.0130
  125TMC2    O1 1953   1.967   4.055  10.309  0.2125 -0.6478 -0.0927
  125TMC2    O2 1954   1.293   3.986  10.263  0.0311  0.0133  0.1189
  125TMC2    O5 1955   1.404   4.187  10.267 -0.1540 -0.0738 -0.0131
  125TMC2    H5 1956   1.489   4.224  10.235 -1.3838  3.0788  0.3449
  126MPD1     C 1957   1.991   3.416   9.789 -0.4039 -0.4408 -0.3419
  126MPD1    C1 1958   2.037   3.545   9.786  0.3148  0.0606  0.0487
  126MPD1    C2 1959   1.983   3.641   9.872  0.0234 -0.5008 -0.0510
  126MPD1    C3 1960   1.869   3.619   9.941  0.9388 -0.1641 -0.0537
  126MPD1    C4 1961   1.823   3.489   9.951 -0.5215 -0.7542  0.5048
  126MPD1    C5 1962   1.887   3.393   9.881 -0.0464 -0.4850  0.2910
  126MPD1     H 1963   2.017   3.742   9.848 -1.6788 -0.1242 -0.9033
  126MPD1    H1 1964   1.748   3.474  10.028 -0.0283 -0.3448  1.0556
  126MPD1    H2 1965   2.035   3.337   9.729  2.0713 -0.1712  1.0912
  126MPD1    H3 1966   1.844   3.293   9.879 -1.9474  0.3508 -0.6880
  126MPD1     N 1967   1.810   3.730  10.016  0.0689  0.0389 -0.4714
  126MPD1    H5 1968   1.868   3.813  10.027  1.1343 -0.4729 -2.2507
  126MPD1    N1 1969   2.134   3.572   9.685 -0.0134  0.8108  0.2201
  126MPD1    H6 1970   2.163   3.488   9.637 -0.4710  0.2912  0.8522
  126MPD1    H7 1971   2.214   3.628   9.714  1.9877 -2.5495  1.1314
  127TMC2    C1 1972   2.637   3.790  10.103 -0.0272 -0.3795 -0.0162
  127TMC2    C2 1973   2.701   3.734  10.211  0.1331  0.2762  0.3138
  127TMC2    C3 1974   2.696   3.598  10.223  0.1478  0.2202 -0.0630
  127TMC2    C4 1975   2.565   3.724  10.006 -0.2778  0.0688  0.3178
  127TMC2    C5 1976   2.562   3.588  10.022  0.0343  0.0889 -0.2503
  127TMC2    C6 1977   2.628   3.530  10.126  0.1294  0.5328  0.6669
  127TMC2     C 1978   2.649   3.934  10.103  0.1018 -0.5094 -0.4640
  127TMC2     O 1979   2.724   3.982  10.183 -0.2445 -0.1247 -0.1577
  127TMC2     H 1980   2.781   3.791  10.257 -1.5806  2.2240  0.8755
  127TMC2    H1 1981   2.542   3.776   9.914 -0.6268  1.0820  0.9704
  127TMC2    H2 1982   2.650   3.424  10.116 -1.3897  0.0289  2.5273
  127TMC2    C7 1983   2.477   3.509   9.927  0.0931 -0.2212  0.0547
  127TMC2    C8 1984   2.813   3.538  10.279 -0.3640  0.0196  0.8196
  127TMC2    O1 1985   2.456   3.567   9.820 -0.2403 -0.0726 -0.1457
  127TMC2    O2 1986   2.918   3.522  10.212 -0.6097 -1.0835 -0.6592
  127TMC2    O5 1987   2.809   3.582  10.409  0.5363  0.4635 -0.7097
  127TMC2    H5 1988   2.719   3.616  10.430 -1.2977 -1.9717 -4.6756
  128MPD2     C 1989   2.525   4.182   9.855 -0.3374  0.4251  0.0075
  128MPD2    C1 1990   2.610   4.135   9.955  0.0359  0.2138  0.1819
  128MPD2    C2 1991   2.692   4.228  10.011 -0.4923  0.6081 -0.3972
  128MPD2    C3 1992   2.695   4.361   9.966 -0.6770  0.3831  1.6390
  128MPD2    C4 1993   2.599   4.405   9.873 -0.1507 -0.2824  0.5450
  128MPD2    C5 1994   2.511   4.313   9.816  0.2969 -0.1738  0.5878
  128MPD2     H 1995   2.758   4.195  10.091  0.8281  3.8819 -0.1387
  128MPD2    H1 1996   2.594   4.507   9.837 -0.6809 -0.7682 -0.7619
  128MPD2    H2 1997   2.459   4.113   9.803 -1.7702  0.5231  1.6756
  128MPD2    H3 1998   2.434   4.341   9.746  0.1150  0.8450  1.1991
  128MPD2     N 1999   2.786   4.448  10.029 -0.1555 -0.0376  0.1889
  128MPD2    H5 2000   2.841   4.420  10.109  0.4037 -0.8626 -0.4720
  128MPD2    N1 2001   2.589   3.999   9.997  0.6807 -0.8710 -0.7380
  128MPD2    H7 2002   2.529   3.941   9.939 -0.8145  0.4757 -0.5432
  129TMC2    C1 2003   1.129   2.927   1.632 -0.2490  0.4444 -0.1888
  129TMC2    C2 2004   1.224   2.837   1.590  0.4035 -0.1676 -0.3960
  129TMC2    C3 2005   1.176   2.713   1.552 -0.2994 -0.5256 -0.5435
  129TMC2    C4 2006   0.997   2.902   1.640  0.7492  0.2727  0.0933
  129TMC2    C5 2007   0.963   2.775   1.604 -0.6173  0.1591  0.0775
  129TMC2    C6 2008   1.044   2.678   1.561  0.5801 -0.1918  0.6265
  129TMC2     C 2009   1.175   3.056   1.689  0.2701 -0.6342 -0.3909
  129TMC2     O 2010   1.296   3.080   1.668 -0.1672  0.0864 -0.4717
  129TMC2     H 2011   1.326   2.869   1.572  0.5884 -0.6624 -0.2002
  129TMC2    H1 2012   0.918   2.976   1.650  1.2334  0.8222 -0.1116
  129TMC2    H2 2013   1.012   2.575   1.554 -0.6104  0.2737 -0.6830
  129TMC2    C7 2014   0.822   2.766   1.583 -0.2038  0.0360  0.1328
  129TMC2    C8 2015   1.276   2.607   1.530 -0.4311  0.6086  0.8821
  129TMC2    O1 2016   0.752   2.836   1.654  0.4991 -0.0890 -0.0175
  129TMC2    O2 2017   1.391   2.644   1.551 -0.3217  0.0229 -0.1382
  129TMC2    O5 2018   1.225   2.527   1.431  0.5185 -0.5417 -0.3024
  129TMC2    H5 2019   1.132   2.539   1.403  0.6436 -0.6459 -0.7738
  130MPD2     C 2020   0.998   3.315   1.876  0.0289  0.3865 -0.3080
  130MPD2    C1 2021   1.096   3.263   1.791  0.2392 -0.7480 -0.0853
  130MPD2    C2 2022   1.210   3.340   1.770 -0.6820  0.1902  0.8644
  130MPD2    C3 2023   1.220   3.469   1.820 -0.1936  0.0887  0.4417
  130MPD2    C4 2024   1.123   3.517   1.901  0.3350 -0.1155 -1.4143
  130MPD2    C5 2025   1.009   3.443   1.933  0.1916  0.7930 -0.0403
  130MPD2     H 2026   1.288   3.296   1.709 -1.7523 -0.9664  0.3167
  130MPD2    H1 2027   1.122   3.620   1.936 -0.1701  0.0796 -2.0040
  130MPD2    H2 2028   0.916   3.249   1.900 -0.1807  0.9821  0.6220
  130MPD2    H3 2029   0.930   3.487   1.991  0.0822  2.4514 -1.4395
  130MPD2     N 2030   1.324   3.554   1.767 -0.5136 -0.3511  0.0524
  130MPD2    H5 2031   1.381   3.513   1.694  2.1390  2.7581  0.3491
  130MPD2    N1 2032   1.077   3.132   1.737 -0.1690  0.1664  0.0402
  130MPD2    H7 2033   0.995   3.086   1.774  2.2294 -2.3663  2.2730
  131TMC2    C1 2034   0.238   3.176  10.732 -0.1119  0.1953 -0.3163
  131TMC2    C2 2035   0.104   3.179  10.706  0.1271  0.0512  0.0138
  131TMC2    C3 2036   0.042   3.298  10.729  0.0582 -0.0881  0.3868
  131TMC2    C4 2037   0.298   3.286  10.792 -0.3781  0.1018  0.1342
  131TMC2    C5 2038   0.230   3.409  10.812  0.3136  0.7713  0.2046
  131TMC2    C6 2039   0.098   3.406  10.787 -0.5967 -0.2588  0.3042
  131TMC2     C 2040   0.306   3.053  10.745 -0.2975  0.7831  0.0099
  131TMC2     O 2041   0.417   3.046  10.803  0.0862 -0.2314 -0.2244
  131TMC2     H 2042   0.050   3.090  10.679  0.5622 -0.3035  0.2965
  131TMC2    H1 2043   0.399   3.275  10.830 -0.6486  0.5129  0.9924
  131TMC2    H2 2044   0.029   3.486  10.812  0.1067  0.5811 -0.4897
  131TMC2    C7 2045   0.279   3.524  10.887  0.0472  0.1990  0.4799
  131TMC2    C8 2046   4.638   3.320  10.687 -0.3780  0.1607 -1.2762
  131TMC2    O1 2047   0.191   3.592  10.939 -0.4557 -0.1490 -0.6692
  131TMC2    O2 2048   4.593   3.429  10.652  0.0568 -0.2627  0.5615
  131TMC2    O5 2049   4.562   3.216  10.731 -0.2413  0.3524  0.9073
  131TMC2    H5 2050   4.603   3.161  10.800 -0.2245  2.2081  2.3769
  132MPD2     C 2051   0.239   2.741  10.550 -0.1931  0.3040 -0.8011
  132MPD2    C1 2052   0.294   2.820  10.653  0.0948  0.4212 -0.2036
  132MPD2    C2 2053   0.392   2.765  10.736 -1.4243 -0.1294  0.5859
  132MPD2    C3 2054   0.436   2.634  10.711 -0.1722  0.7422 -0.8870
  132MPD2    C4 2055   0.386   2.563  10.608  0.8074 -0.1731  0.0730
  132MPD2    C5 2056   0.299   2.620  10.522 -0.5933  0.5427  0.0953
  132MPD2     H 2057   0.436   2.820  10.819 -1.8963 -2.5333  2.4417
  132MPD2    H1 2058   0.422   2.464  10.582 -0.4528 -1.0777  1.7421
  132MPD2    H2 2059   0.156   2.776  10.490 -1.3773 -0.7675  0.2148
  132MPD2    H3 2060   0.251   2.545  10.461  1.1095 -0.5983  0.1653
  132MPD2     N 2061   0.524   2.585  10.808  0.5440 -0.0309  0.1946
  132MPD2    H5 2062   0.556   2.647  10.882  1.3873 -1.0789  0.7149
  132MPD2    N1 2063   0.245   2.951  10.676 -0.3382 -0.3190  0.0301
  132MPD2    H7 2064   0.169   2.977  10.614  0.2925 -0.8279 -0.9549
  133TMC2    C1 2065   0.231   4.491   9.775 -0.3788 -0.0004 -0.1240
  133TMC2    C2 2066   0.247   4.618   9.754  0.4716  0.1775  0.2241
  133TMC2    C3 2067   0.372   4.669   9.768  0.2235  0.3777  0.0647
  133TMC2    C4 2068   0.332   4.414   9.824  0.8244  0.6031  0.3417
  133TMC2    C5 2069   0.458   4.465   9.832 -0.1222  0.2203 -0.2120
  133TMC2    C6 2070   0.481   4.595   9.802  0.1375  0.9297  0.2972
  133TMC2     C 2071   0.101   4.422   9.762 -0.5914 -1.0556  0.8403
  133TMC2     O 2072   0.101   4.301   9.742  0.0111  0.2072  0.2193
  133TMC2     H 2073   0.178   4.680   9.697  0.4755 -1.7101 -1.8598
  133TMC2    H1 2074   0.317   4.308   9.843  1.4690  0.2099 -1.3214
  133TMC2    H2 2075   0.578   4.644   9.799  1.0028 -0.8658 -0.9528
  133TMC2    C7 2076   0.575   4.382   9.862  0.8187 -1.1668 -0.1079
  133TMC2    C8 2077   0.387   0.060   9.692 -0.4990  0.6188  0.0622
  133TMC2    O1 2078   0.669   4.445   9.903  0.4218 -0.2966 -0.1370
  133TMC2    O2 2079   0.313   0.090   9.597  0.0477 -0.1941 -0.3507
  133TMC2    O5 2080   0.496   0.132   9.728  0.1041  0.7014 -0.6952
  133TMC2    H5 2081   0.542   0.100   9.809  1.3258  0.8227 -1.3397
  134MPD2     C 2082   4.514   4.586   9.706 -1.1394  0.4240  0.1930
  134MPD2    C1 2083   4.600   4.485   9.716 -0.4964  0.3927  0.5768
  134MPD2    C2 2084   4.557   4.358   9.716  0.1047  0.2244 -0.0088
  134MPD2    C3 2085   4.427   4.329   9.667 -0.0255  0.4919 -0.5938
  134MPD2    C4 2086   4.341   4.429   9.660  0.0598 -0.0806 -0.1334
  134MPD2    C5 2087   4.384   4.557   9.691  0.1699 -0.4430  0.0717
  134MPD2     H 2088   4.624   4.274   9.731  0.4598  0.4420 -0.3553
  134MPD2    H1 2089   4.242   4.414   9.618  0.2481  0.2263 -0.6887
  134MPD2    H2 2090   4.544   4.690   9.715 -0.9634  0.3621  0.3260
  134MPD2    H3 2091   4.307   4.634   9.687  2.6920  2.0838 -0.0360
  134MPD2     N 2092   4.380   4.194   9.656  0.0349 -0.5921  0.6519
  134MPD2    H5 2093   4.279   4.184   9.662 -0.3440  2.2367 -0.6604
  134MPD2    N1 2094   0.002   4.516   9.730  0.1803  0.1651 -1.1144
  134MPD2    H7 2095   0.030   4.614   9.732 -0.7018  0.4705 -3.7121
  135TMC2    C1 2096   2.020   0.845  10.383 -0.7388  0.3891 -0.3100
  135TMC2    C2 2097   2.064   0.725  10.421  0.2318 -0.3199  0.1033
  135TMC2    C3 2098   1.988   0.643  10.500 -0.8018 -0.3865 -0.0151
  135TMC2    C4 2099   1.898   0.896  10.437 -0.0983  0.1365 -0.1176
  135TMC2    C5 2100   1.827   0.814  10.523  0.7206  0.0619  0.0832
  135TMC2    C6 2101   1.873   0.691  10.557  0.0566  0.0950  0.4758
  135TMC2     C 2102   2.104   0.927  10.295  1.1676  0.5120 -0.5292
  135TMC2     O 2103   2.082   1.048  10.285 -0.3401  0.1334  0.0753
  135TMC2     H 2104   2.164   0.695  10.392  0.8271  0.4486  1.3199
  135TMC2    H1 2105   1.860   0.990  10.400  2.9141  1.2562 -0.4173
  135TMC2    H2 2106   1.813   0.621  10.613 -0.0457  0.9801  1.4713
  135TMC2    C7 2107   1.684   0.846  10.535 -0.1083 -0.0946  0.4922
  135TMC2    C8 2108   2.047   0.514  10.553  0.1259  0.1027 -0.2368
  135TMC2    O1 2109   1.657   0.943  10.475  0.6648 -0.0256  0.1556
  135TMC2    O2 2110   1.971   0.429  10.597  0.3565  0.3732  0.6538
  135TMC2    O5 2111   2.164   0.555  10.608 -0.4147  0.1751  0.1316
  135TMC2    H5 2112   2.224   0.618  10.561  1.2143  0.0638  2.0368
  136MPD2     C 2113   2.350   1.038  10.144 -0.2407  1.4685 -0.2756
  136MPD2    C1 2114   2.300   0.905  10.143  0.0042  0.5472  0.5431
  136MPD2    C2 2115   2.360   0.818  10.051 -0.4413 -0.5314  0.1455
  136MPD2    C3 2116   2.474   0.853   9.980 -0.6999  0.0128 -0.7147
  136MPD2    C4 2117   2.532   0.974   9.996  0.9616 -0.9620  0.9648
  136MPD2    C5 2118   2.466   1.064  10.073 -0.1969  0.0150  0.1012
  136MPD2     H 2119   2.319   0.718  10.039 -2.1428  0.6998 -4.4914
  136MPD2    H1 2120   2.621   1.009   9.946  0.2636  1.8470  1.6772
  136MPD2    H2 2121   2.312   1.113  10.213  0.4079  1.9585 -0.4485
  136MPD2    H3 2122   2.503   1.165  10.089  2.0488 -0.7605 -0.1595
  136MPD2     N 2123   2.537   0.758   9.900  0.4403 -0.4568 -0.2846
  136MPD2    H5 2124   2.625   0.782   9.856  0.2501 -0.2408 -0.5531
  136MPD2    N1 2125   2.198   0.855  10.226  0.4030  0.1306  0.3570
  136MPD2    H7 2126   2.188   0.754  10.225  0.3040  0.1428  0.0799
  137TMC2    C1 2127   2.091   3.705  10.779 -0.0215 -0.5906  0.0960
  137TMC2    C2 2128   2.201   3.624  10.780 -0.0553  0.3569  0.7508
  137TMC2    C3 2129   2.214   3.525  10.682 -0.0450 -0.4627  1.3934
  137TMC2    C4 2130   1.987   3.675  10.695  0.1415  0.2847  0.5557
  137TMC2    C5 2131   1.999   3.566  10.610  0.2338  0.1931 -0.5993
  137TMC2    C6 2132   2.116   3.491  10.600 -0.0431 -0.0998  0.3645
  137TMC2     C 2133   2.070   3.804  10.883  0.1491  0.4676  0.2706
  137TMC2     O 2134   1.987   3.890  10.859 -0.7573  0.1135  0.2908
  137TMC2     H 2135   2.286   3.627  10.846  1.3408 -1.2153 -0.9713
  137TMC2    H1 2136   1.893   3.727  10.710  0.4213  1.6801 -2.7111
  137TMC2    H2 2137   2.127   3.421  10.519  1.1873  2.2038 -1.4689
  137TMC2    C7 2138   1.884   3.512  10.544  0.3918 -0.1642  0.0984
  137TMC2    C8 2139   2.319   3.425  10.707 -0.1860 -0.2025  0.1323
  137TMC2    O1 2140   1.900   3.400  10.496 -0.1570  0.1784  0.4656
  137TMC2    O2 2141   2.433   3.459  10.747 -0.1027 -0.4629  0.3093
  137TMC2    O5 2142   2.281   3.304  10.664 -0.1928 -0.2237 -0.6508
  137TMC2    H5 2143   2.187   3.292  10.641 -0.3307 -0.0752 -0.1768
  138MPD2     C 2144   2.190   3.799  11.227 -0.5013 -0.2611  0.1767
  138MPD2    C1 2145   2.137   3.857  11.113 -0.2056 -0.1939 -0.7607
  138MPD2    C2 2146   2.084   3.987  11.129 -0.5005 -0.0765 -0.0495
  138MPD2    C3 2147   2.082   4.050  11.251  0.0997  0.1271 -0.0740
  138MPD2    C4 2148   2.133   3.983  11.360  0.4662 -0.5065 -0.2893
  138MPD2    C5 2149   2.186   3.857  11.345 -0.4297 -0.2482 -0.2711
  138MPD2     H 2150   2.042   4.050  11.050  1.3117 -0.7511 -1.5469
  138MPD2    H1 2151   2.139   4.021  11.461 -0.1109  1.9635 -1.2000
  138MPD2    H2 2152   2.228   3.697  11.232 -0.3531 -0.1266  2.0114
  138MPD2    H3 2153   2.223   3.810  11.435  0.5555  0.3690 -0.3523
  138MPD2     N 2154   2.026   4.182  11.260 -0.5286 -0.4105  0.3639
  138MPD2    H5 2155   1.996   4.217  11.169  0.6317 -2.1830 -0.7177
  138MPD2    N1 2156   2.141   3.771  10.995 -0.1183  0.5464  0.1361
  138MPD2    H7 2157   2.193   3.684  10.996 -1.8192 -0.4334  1.2595
  139TMC2    C1 2158   2.927   2.938  13.934  0.5557  0.2860 -0.1873
  139TMC2    C2 2159   2.968   3.018  13.835 -0.3965 -0.3358 -0.0559
  139TMC2    C3 2160   2.885   3.122  13.797  0.4514 -0.2765 -0.5418
  139TMC2    C4 2161   2.833   2.981  14.019  0.3555  0.0166  0.3010
  139TMC2    C5 2162   2.756   3.086  13.975 -0.8474 -0.5130 -0.1616
  139TMC2    C6 2163   2.773   3.154  13.861  0.0564  0.4201  0.3421
  139TMC2     C 2164   2.945   2.802  13.914  0.0239 -0.2765  0.6324
  139TMC2     O 2165   3.032   2.755  13.842  0.3694 -0.3197  0.0649
  139TMC2     H 2166   3.045   2.989  13.764  0.7024 -0.4476  1.2071
  139TMC2    H1 2167   2.810   2.936  14.115 -0.8341 -0.5356 -0.2458
  139TMC2    H2 2168   2.697   3.226  13.832 -1.8888 -2.0513 -0.7313
  139TMC2    C7 2169   2.630   3.103  14.035 -0.1083 -0.2256  1.2268
  139TMC2    C8 2170   2.923   3.212  13.690 -0.2113  0.2912 -0.0858
  139TMC2    O1 2171   2.536   3.107  13.960  0.1223 -0.5119  0.2280
  139TMC2    O2 2172   2.837   3.277  13.630  0.3146  0.4073  1.2454
  139TMC2    O5 2173   3.042   3.266  13.730 -0.4260  0.4629  0.3412
  139TMC2    H5 2174   3.102   3.206  13.779  1.6250  1.3791 -0.9942
  140MPD2     C 2175   2.710   2.530  14.016  0.1424 -0.2061  0.2255
  140MPD2    C1 2176   2.814   2.587  13.953 -0.0194  0.3287  0.7755
  140MPD2    C2 2177   2.887   2.510  13.862  0.1293 -0.2497  0.5449
  140MPD2    C3 2178   2.859   2.376  13.844  0.2289 -0.2413  0.6002
  140MPD2    C4 2179   2.756   2.317  13.918 -0.8920 -1.2960  0.4479
  140MPD2    C5 2180   2.684   2.396  14.013 -0.6413 -1.4132 -0.5149
  140MPD2     H 2181   2.971   2.554  13.810 -0.2607 -1.5624 -1.2040
  140MPD2    H1 2182   2.725   2.215  13.898 -0.7067 -1.0099 -1.3119
  140MPD2    H2 2183   2.653   2.584  14.091 -1.1413  1.3061 -1.8288
  140MPD2    H3 2184   2.594   2.359  14.061 -0.5325 -0.8410  0.1240
  140MPD2     N 2185   2.942   2.291  13.759  0.0328  0.1420  0.7221
  140MPD2    H5 2186   3.007   2.340  13.699 -1.3050 -0.8320 -1.5282
  140MPD2    N1 2187   2.835   2.728  13.962  0.2210  0.4751 -0.4670
  140MPD2    H7 2188   2.756   2.777  14.004  0.3469  0.4640 -0.2201
  141TMC2    C1 2189   2.761   3.857  13.865 -0.2557 -1.1231 -0.2953
  141TMC2    C2 2190   2.812   3.740  13.916 -0.5300 -0.3581  0.1184
  141TMC2    C3 2191   2.857   3.746  14.045 -0.6490  0.5510  0.3824
  141TMC2    C4 2192   2.746   3.974  13.938  0.1337 -1.2784  0.5015
  141TMC2    C5 2193   2.795   3.970  14.063  0.1154  0.1268 -0.3358
  141TMC2    C6 2194   2.852   3.858  14.115  0.4030  0.0234 -0.5801
  141TMC2     C 2195   2.779   3.890  13.728 -0.4324 -0.2500  0.0700
  141TMC2     O 2196   2.750   4.001  13.687 -0.2516  0.6736  0.0167
  141TMC2     H 2197   2.826   3.649  13.859 -1.9360 -0.5273  0.0467
  141TMC2    H1 2198   2.709   4.069  13.902  1.7431 -0.4646  0.9934
  141TMC2    H2 2199   2.903   3.844  14.210 -2.8905 -0.3263  1.1056
  141TMC2    C7 2200   2.868   4.095  14.087  0.2638  0.7926  0.1841
  141TMC2    C8 2201   2.869   3.620  14.120 -0.0689  0.6150 -0.2528
  141TMC2    O1 2202   2.859   4.191  14.004 -0.0521 -0.3232 -0.1118
  141TMC2    O2 2203   2.876   3.617  14.242 -0.1138  0.1678  0.1368
  141TMC2    O5 2204   2.857   3.514  14.039 -0.0863 -0.0450  0.2313
  141TMC2    H5 2205   2.883   3.553  13.953  0.9177  1.5288  1.2486
  142TMC2    C1 2206   1.155   1.746  10.384  0.2231 -0.3031 -0.3593
  142TMC2    C2 2207   1.175   1.666  10.277  0.3963 -0.1649  0.2014
  142TMC2    C3 2208   1.264   1.708  10.184 -0.2371  0.0288 -0.3369
  142TMC2    C4 2209   1.220   1.863  10.406 -0.2166  0.6724 -0.1454
  142TMC2    C5 2210   1.306   1.900  10.310 -0.9533 -0.3085  0.6993
  142TMC2    C6 2211   1.331   1.829  10.200  0.1295 -0.4279  0.4122
  142TMC2     C 2212   1.038   1.714  10.465 -0.6260  0.3817  0.5446
  142TMC2     O 2213   0.963   1.626  10.423  0.7078 -0.0268  0.4208
  142TMC2     H 2214   1.123   1.571  10.273 -0.2461  0.2056 -0.2857
  142TMC2    H1 2215   1.182   1.934  10.478  0.6614 -0.5252  1.5017
  142TMC2    H2 2216   1.407   1.841  10.124 -0.1743  0.0193  0.1864
  142TMC2    C7 2217   1.380   2.027  10.339  0.1977  0.0440  0.3885
  142TMC2    C8 2218   1.328   1.606  10.103  0.1798  0.8044 -0.4483
  142TMC2    O1 2219   1.336   2.102  10.429 -0.2032  0.7858  0.2968
  142TMC2    O2 2220   1.449   1.613  10.075 -0.1180 -0.3250  0.0619
  142TMC2    O5 2221   1.240   1.562  10.012  0.4699  0.2072 -0.1148
  142TMC2    H5 2222   1.147   1.564  10.042  0.8850 -0.5544  1.2132
  143MPD2     C 2223   0.774   1.702  10.898  0.3966 -0.0964 -0.2106
  143MPD2    C1 2224   0.736   1.664  10.769 -0.3456  0.4684  0.3855
  143MPD2    C2 2225   0.824   1.691  10.666  0.5362 -0.3655  0.1963
  143MPD2    C3 2226   0.944   1.747  10.692 -0.4706  0.3258 -0.6131
  143MPD2    C4 2227   0.985   1.796  10.818 -0.1658 -0.3755  0.8921
  143MPD2    C5 2228   0.896   1.762  10.919 -0.3548 -0.2772 -0.0673
  143MPD2     H 2229   0.801   1.655  10.566  0.1173  1.6265 -0.4255
  143MPD2    H1 2230   1.082   1.842  10.833 -0.0530 -0.5639  0.7353
  143MPD2    H2 2231   0.717   1.668  10.984 -0.1690 -0.2517 -0.6415
  143MPD2    H3 2232   0.917   1.784  11.023  1.4855  0.6860 -0.6534
  143MPD2     N 2233   1.041   1.774  10.589  0.0956 -0.1595 -0.1289
  143MPD2    H5 2234   1.125   1.828  10.607 -0.1085  0.3165 -0.5767
  143MPD2    N1 2235   0.612   1.610  10.738  0.8107 -0.6402  0.4940
  143MPD2    H7 2236   0.553   1.588  10.818 -0.5615  1.4653  0.0483
  144TMC2    C1 2237   3.351   1.151   0.724 -0.0988  0.0116  0.5435
  144TMC2    C2 2238   3.453   1.069   0.669 -0.0547  0.3513  0.3556
  144TMC2    C3 2239   3.580   1.083   0.725  0.2570 -0.0603  0.0315
  144TMC2    C4 2240   3.369   1.230   0.830 -0.0022 -0.4286 -0.1784
  144TMC2    C5 2241   3.496   1.240   0.882  0.3544 -0.7803 -0.1459
  144TMC2    C6 2242   3.605   1.165   0.829  0.1204  0.5532  0.4753
  144TMC2     C 2243   3.235   1.163   0.648  0.0327  0.2003  0.1468
  144TMC2     O 2244   3.239   1.141   0.527 -0.1937  0.2922  0.6952
  144TMC2     H 2245   3.439   1.022   0.572 -1.3825  0.7051  0.3816
  144TMC2    H1 2246   3.287   1.294   0.859 -2.3714 -3.1947 -0.7591
  144TMC2    H2 2247   3.704   1.187   0.867  0.4991 -1.0655  0.4397
  144TMC2    C7 2248   3.529   1.301   1.008  0.5177 -0.4970 -0.7033
  144TMC2    C8 2249   3.691   1.024   0.652 -0.4079  0.6338  0.1885
  144TMC2    O1 2250   3.647   1.299   1.045  0.0911  0.6554 -0.1683
  144TMC2    O2 2251   3.668   0.940   0.563 -0.3909 -0.0604  1.2695
  144TMC2    O5 2252   3.812   1.089   0.669  0.4334  0.7986  0.0910
  144TMC2    H5 2253   3.822   1.126   0.759  0.5632  0.9645  0.0096
  145MPD2     C 2254   2.726   1.168   0.599 -0.0451 -0.1251 -0.2350
  145MPD2    C1 2255   2.815   1.103   0.519 -0.2055 -0.7028 -0.7838
  145MPD2    C2 2256   2.951   1.103   0.554  0.2018  0.8504 -0.4126
  145MPD2    C3 2257   2.992   1.180   0.667 -0.7901 -0.7483  0.9801
  145MPD2    C4 2258   2.899   1.249   0.743 -0.2223 -0.0757 -0.2568
  145MPD2    C5 2259   2.771   1.238   0.707 -0.0528 -0.4808  0.0422
  145MPD2     H 2260   3.026   1.050   0.497  1.8338 -0.0514  2.6037
  145MPD2    H1 2261   2.927   1.300   0.834 -0.1920 -1.0948  0.3053
  145MPD2    H2 2262   2.619   1.177   0.579  0.0552 -1.5507 -1.4371
  145MPD2    H3 2263   2.695   1.279   0.773  1.0072  2.4885 -0.5752
  145MPD2     N 2264   3.123   1.186   0.719  0.1647  0.2347  0.5838
  145MPD2    H5 2265   3.142   1.231   0.808  0.5525  1.5776 -0.1769
  145MPD2    N1 2266   2.785   1.021   0.406  0.3371 -0.3532 -0.6127
  145MPD2    H7 2267   2.858   0.960   0.371  1.1024  0.0169  0.3387
  146TMC2    C1 2268   0.435   0.647  12.924 -0.3446  0.4109  0.1485
  146TMC2    C2 2269   0.383   0.742  12.838 -0.3031  0.0897  0.4623
  146TMC2    C3 2270   0.431   0.731  12.714 -0.0944  0.0953 -0.7988
  146TMC2    C4 2271   0.529   0.556  12.894 -0.1474 -0.2600  0.6799
  146TMC2    C5 2272   0.579   0.555  12.765  0.2765 -0.7793 -0.1278
  146TMC2    C6 2273   0.525   0.646  12.671  0.3608 -0.4349  0.3220
  146TMC2     C 2274   0.389   0.654  13.061 -0.2902  0.0790  0.1161
  146TMC2     O 2275   0.320   0.749  13.082 -0.1167 -0.1163  0.2302
  146TMC2     H 2276   0.318   0.824  12.868  0.1441  0.5511  0.1768
  146TMC2    H1 2277   0.575   0.496  12.971  3.0266 -0.6677 -1.5405
  146TMC2    H2 2278   0.556   0.642  12.567  0.9742  0.5666  0.4713
  146TMC2    C7 2279   0.706   0.483  12.735 -0.1289 -0.4355 -0.4267
  146TMC2    C8 2280   0.372   0.821  12.618 -0.1402  0.0394  0.1673
  146TMC2    O1 2281   0.779   0.522  12.642 -0.2869 -0.1282  0.0911
  146TMC2    O2 2282   0.428   0.876  12.525 -0.1461  0.0221  0.2095
  146TMC2    O5 2283   0.239   0.835  12.649 -0.2572 -0.0362  0.3167
  146TMC2    H5 2284   0.209   0.765  12.711 -0.8113 -1.4445 -1.5405
  147MPD2     C 2285   1.056   0.135  12.850 -0.5051 -0.1196  1.1371
  147MPD2    C1 2286   0.938   0.095  12.911 -1.0434  0.1342  0.1643
  147MPD2    C2 2287   0.834   0.189  12.911  0.2057  0.6515  0.4215
  147MPD2    C3 2288   0.839   0.305  12.832 -0.3360  0.0702  0.1274
  147MPD2    C4 2289   0.960   0.340  12.771 -0.2746  0.7541  0.1603
  147MPD2    C5 2290   1.064   0.252  12.777 -0.7199 -0.6316 -0.0111
  147MPD2     H 2291   0.744   0.162  12.965  0.3209  1.9983  1.2711
  147MPD2    H1 2292   0.970   0.421  12.700  0.1447  0.4415 -0.1391
  147MPD2    H2 2293   1.147   0.075  12.860 -1.1458 -1.2443  0.2487
  147MPD2    H3 2294   1.155   0.290  12.733 -0.4288 -1.3681 -0.0398
  147MPD2     N 2295   0.727   0.382  12.824 -0.0045  0.1049 -0.4959
  147MPD2    H5 2296   0.647   0.334  12.864 -0.0694  1.2829  0.8075
  147MPD2    N1 2297   0.933   4.701  12.977 -0.1421 -0.5793  0.6611
  147MPD2    H7 2298   1.020   4.652  12.995  0.0534  0.0845  1.5180
  148TMC2    C1 2299   4.557   3.842  10.998  0.8389 -0.7175  0.0840
  148TMC2    C2 2300   4.652   3.911  11.067  0.1888 -0.6031 -0.1687
  148TMC2    C3 2301   4.732   3.847  11.155  0.1569  0.5682  0.5285
  148TMC2    C4 2302   4.541   3.707  11.020 -0.5328 -0.3069 -0.2473
  148TMC2    C5 2303   4.626   3.654  11.111  0.3726  0.0679 -0.3002
  148TMC2    C6 2304   4.723   3.718  11.183 -0.2457  0.7603 -0.2665
  148TMC2     C 2305   4.442   3.920  10.950  0.2559 -0.1912  0.3135
  148TMC2     O 2306   4.423   4.028  11.008  0.7237  0.5983  0.1873
  148TMC2     H 2307   4.665   4.017  11.048  1.6715 -0.8583 -0.5312
  148TMC2    H1 2308   4.457   3.652  10.980 -0.0934 -0.2617 -1.2390
  148TMC2    H2 2309   0.076   3.669  11.222 -2.1244 -1.4496  1.2484
  148TMC2    C7 2310   4.636   3.507  11.112 -0.8018 -0.2279  0.1409
  148TMC2    C8 2311   0.106   3.917  11.218 -0.1123 -0.1033 -0.4750
  148TMC2    O1 2312   4.560   3.454  11.038 -0.5290 -0.2134  0.5864
  148TMC2    O2 2313   0.212   3.860  11.240 -0.3890 -0.0565 -0.3336
  148TMC2    O5 2314   0.051   3.991  11.317  0.5861 -0.7188  0.1936
  148TMC2    H5 2315   4.690   4.005  11.316  0.6932  0.1132  1.6057
  149MPD2     C 2316   4.196   4.011  10.840  0.6999 -0.4645 -0.1157
  149MPD2    C1 2317   4.267   3.901  10.785 -0.1233 -0.6762 -0.0431
  149MPD2    C2 2318   4.225   3.829  10.673  0.0261  0.5247  0.1402
  149MPD2    C3 2319   4.100   3.855  10.618  0.1316 -0.2188  0.7902
  149MPD2    C4 2320   4.026   3.958  10.670 -0.0968  0.0930  0.3388
  149MPD2    C5 2321   4.073   4.036  10.773 -0.5707  0.0175  0.5256
  149MPD2     H 2322   4.294   3.749  10.649 -0.1709  0.7958 -1.3876
  149MPD2    H1 2323   3.930   3.973  10.622 -0.0192  1.0657  0.4936
  149MPD2    H2 2324   4.231   4.069  10.925  0.1166  2.1955 -1.6970
  149MPD2    H3 2325   4.008   4.119  10.799  1.3817  1.5455  0.5219
  149MPD2     N 2326   4.048   3.784  10.506  0.1454  0.3785  0.1283
  149MPD2    H5 2327   3.963   3.826  10.471  1.2485  1.4427 -1.2705
  149MPD2    N1 2328   4.391   3.857  10.837 -0.5332  0.0558 -0.3093
  149MPD2    H7 2329   4.435   3.773  10.802  1.3454  0.2278  1.6173
  150TMC2    C1 2330   2.378   3.600  12.650 -0.1495 -0.2422  0.2325
  150TMC2    C2 2331   2.327   3.727  12.613 -0.9534  0.6799 -0.0468
  150TMC2    C3 2332   2.349   3.763  12.482 -0.0436 -0.6488  0.7989
  150TMC2    C4 2333   2.426   3.510  12.556  0.1278  0.1148 -0.4283
  150TMC2    C5 2334   2.448   3.551  12.430  0.4555  0.1237 -1.1196
  150TMC2    C6 2335   2.401   3.676  12.390 -0.2423  0.1237  0.8913
  150TMC2     C 2336   2.300   3.543  12.757 -0.1537 -0.0086  0.2555
  150TMC2     O 2337   2.254   3.629  12.831 -0.2620 -0.3959  0.2298
  150TMC2     H 2338   2.311   3.803  12.689 -0.4893 -0.2000  0.9274
  150TMC2    H1 2339   2.481   3.423  12.592 -0.4128 -0.6207 -1.3780
  150TMC2    H2 2340   2.435   3.709  12.293  0.0312 -0.1330  0.9007
  150TMC2    C7 2341   2.574   3.520  12.372 -0.5647  0.1711 -0.4303
  150TMC2    C8 2342   2.320   3.891  12.441  0.3914 -0.1469 -0.3936
  150TMC2    O1 2343   2.638   3.607  12.309  0.4526 -0.0004  0.6734
  150TMC2    O2 2344   2.309   3.983  12.523 -0.0714  0.3067 -0.3684
  150TMC2    O5 2345   2.239   3.870  12.336 -0.6865 -0.0241 -0.1088
  150TMC2    H5 2346   2.251   3.784  12.290 -1.3462  0.9424 -2.0831
  151MPD2     C 2347   1.845   3.336  12.823 -0.1950 -0.0707 -0.0139
  151MPD2    C1 2348   1.900   3.285  12.710 -0.7651 -0.0898  0.3788
  151MPD2    C2 2349   2.032   3.316  12.677 -0.0788 -0.8717 -0.4719
  151MPD2    C3 2350   2.108   3.396  12.758 -0.1139  0.1756 -1.2260
  151MPD2    C4 2351   2.047   3.447  12.872  0.3615 -0.4027  0.7294
  151MPD2    C5 2352   1.914   3.422  12.905 -0.0148 -0.5094 -0.2462
  151MPD2     H 2353   2.081   3.270  12.592  3.5843  1.0277  0.6237
  151MPD2    H1 2354   2.101   3.500  12.950  1.4474  0.5752 -0.6969
  151MPD2    H2 2355   1.738   3.327  12.831 -0.3139  2.4154  1.2936
  151MPD2    H3 2356   1.874   3.474  12.992  1.9472 -0.7674  0.8306
  151MPD2     N 2357   2.241   3.422  12.719  0.4838 -0.2336 -0.2994
  151MPD2    H5 2358   2.268   3.380  12.631 -0.4976 -0.8894 -0.2897
  151MPD2    N1 2359   1.813   3.212  12.622 -0.0825  0.3365 -0.2386
  151MPD2    H7 2360   1.714   3.216  12.646 -0.5533 -0.9270 -1.9950
  152TMC2    C1 2361   2.089   2.801  12.593  0.6210 -0.3623 -0.4065
  152TMC2    C2 2362   2.093   2.879  12.481  0.5978  0.1774 -0.3725
  152TMC2    C3 2363   2.219   2.906  12.429  0.3991 -0.6613 -0.4183
  152TMC2    C4 2364   2.198   2.750  12.646 -1.1105 -0.3864 -0.4911
  152TMC2    C5 2365   2.320   2.772  12.595  0.3095  0.0105 -0.8412
  152TMC2    C6 2366   2.335   2.856  12.488 -0.0386 -0.2532  0.4250
  152TMC2     C 2367   1.962   2.800  12.672 -0.3383 -0.4033  0.6436
  152TMC2     O 2368   1.863   2.843  12.614  0.3430 -0.0823  0.0650
  152TMC2     H 2369   2.006   2.896  12.420  0.3241 -0.3239 -0.1147
  152TMC2    H1 2370   2.200   2.681  12.730 -4.0952 -2.1362 -1.8793
  152TMC2    H2 2371   2.428   2.859  12.433 -0.8602 -0.7042 -0.9959
  152TMC2    C7 2372   2.433   2.720  12.655 -0.5803  0.3063 -0.5167
  152TMC2    C8 2373   2.234   2.960  12.294 -0.1881 -0.3622 -0.0276
  152TMC2    O1 2374   2.427   2.602  12.691  0.7004 -0.2129  0.0618
  152TMC2    O2 2375   2.317   2.896  12.227  0.1437 -0.1358 -0.4404
  152TMC2    O5 2376   2.119   3.022  12.261  0.2448  0.2291 -0.1108
  152TMC2    H5 2377   2.064   3.056  12.335 -0.4326  0.3370 -0.6711
  153MPD2     C 2378   1.914   2.710  13.027  0.0454 -0.1587 -0.0605
  153MPD2    C1 2379   1.870   2.756  12.906  0.1422  0.1469 -0.4805
  153MPD2    C2 2380   1.736   2.794  12.880 -0.9772 -0.6864 -0.5796
  153MPD2    C3 2381   1.649   2.799  12.990  0.0671  0.5981  0.2548
  153MPD2    C4 2382   1.699   2.775  13.116 -0.1517 -0.0852  0.2551
  153MPD2    C5 2383   1.821   2.716  13.131 -0.4648 -0.0991 -0.1667
  153MPD2     H 2384   1.713   2.834  12.781  0.3280  1.9763  0.1832
  153MPD2    H1 2385   1.636   2.792  13.203  1.8855  2.1425  1.2894
  153MPD2    H2 2386   2.011   2.668  13.052  0.4555  0.5369 -0.4759
  153MPD2    H3 2387   1.848   2.680  13.229 -1.4585  1.3255  0.6219
  153MPD2     N 2388   1.524   2.843  12.966  0.2399  0.0688  0.1401
  153MPD2    H5 2389   1.491   2.843  12.870  0.6372 -1.1879  0.0043
  153MPD2    N1 2390   1.976   2.752  12.804  0.5177  0.0138 -0.4956
  153MPD2    H7 2391   2.067   2.733  12.844 -0.5629  3.1475  3.3745
  154TMC2    C1 2392   3.071   2.077   0.358 -0.1268  0.4736 -0.7692
  154TMC2    C2 2393   3.101   2.059   0.490  0.9326 -0.5187 -0.2117
  154TMC2    C3 2394   3.177   1.949   0.529  0.1021 -0.0372  0.6049
  154TMC2    C4 2395   3.133   2.004   0.260 -0.1720  0.4844  0.3528
  154TMC2    C5 2396   3.225   1.909   0.298  0.8871  0.0576  0.0787
  154TMC2    C6 2397   3.242   1.870   0.432 -0.9157  0.0193  0.6015
  154TMC2     C 2398   3.001   2.201   0.338  0.1475  0.4027  0.4112
  154TMC2     O 2399   2.939   2.240   0.433 -0.2878 -0.0333  0.1089
  154TMC2     H 2400   3.043   2.110   0.567 -0.3355 -1.2962 -0.6705
  154TMC2    H1 2401   3.097   2.006   0.158 -1.7930 -0.7595  0.8902
  154TMC2    H2 2402   3.304   1.795   0.479 -0.1717 -0.3555 -1.0046
  154TMC2    C7 2403   3.280   1.811   0.204  0.1772  0.1562 -0.2586
  154TMC2    C8 2404   3.203   1.920   0.664 -0.3642 -0.1357  0.3341
  154TMC2    O1 2405   3.335   1.712   0.255  0.5810  0.1853 -0.0726
  154TMC2    O2 2406   3.229   1.805   0.701  0.0983  0.9006  0.3421
  154TMC2    O5 2407   3.242   2.026   0.733 -0.2241  0.0239 -0.3850
  154TMC2    H5 2408   3.233   2.113   0.689 -0.6911  0.0477 -0.2357
  155MPD2     C 2409   2.951   2.394   0.032 -0.0644  0.8423  0.4779
  155MPD2    C1 2410   2.915   2.343   0.154 -0.1456  0.5651 -0.2221
  155MPD2    C2 2411   2.810   2.404   0.224  1.1952 -0.2969 -0.6355
  155MPD2    C3 2412   2.740   2.516   0.177  0.3305  0.1476 -0.9810
  155MPD2    C4 2413   2.785   2.566   0.061  0.1360  0.4116 -0.9722
  155MPD2    C5 2414   2.876   2.501  17.730 -0.4320  0.6114 -0.3660
  155MPD2     H 2415   2.788   2.360   0.320  0.0985 -0.4232 -0.9444
  155MPD2    H1 2416   2.743   2.650   0.008  0.2125  3.2174  3.4310
  155MPD2    H2 2417   3.024   2.351  17.708 -1.7495 -0.9121 -0.2194
  155MPD2    H3 2418   2.906   2.546  17.637 -0.5623  1.4167 -0.0158
  155MPD2     N 2419   2.639   2.575   0.262 -0.2261  0.2849 -0.6299
  155MPD2    H5 2420   2.628   2.534   0.354  1.1917  1.4741  0.0734
  155MPD2    N1 2421   2.989   2.232   0.200  0.6055 -0.6511  0.3780
  155MPD2    H7 2422   3.059   2.192   0.137  2.9173 -0.8014  3.0081
  156TMC2    C1 2423   2.596   0.627  12.651  0.1604 -0.2221 -0.3743
  156TMC2    C2 2424   2.684   0.520  12.650 -0.1336 -0.1474 -0.3424
  156TMC2    C3 2425   2.703   0.451  12.537  0.1504 -0.7493  0.1465
  156TMC2    C4 2426   2.539   0.673  12.537  0.3328  0.3736  0.2427
  156TMC2    C5 2427   2.566   0.604  12.425  0.0265 -0.4077  0.4772
  156TMC2    C6 2428   2.650   0.492  12.419 -0.0398 -0.1396 -0.7903
  156TMC2     C 2429   2.585   0.711  12.768  0.1487  0.0656 -0.1718
  156TMC2     O 2430   2.537   0.818  12.743  0.7178  0.2184 -0.1011
  156TMC2     H 2431   2.744   0.500  12.738  3.3585  0.9776 -2.4781
  156TMC2    H1 2432   2.483   0.766  12.537 -0.2805  0.0112 -0.5598
  156TMC2    H2 2433   2.671   0.444  12.324 -1.1798 -3.1828  0.4858
  156TMC2    C7 2434   2.510   0.662  12.308  0.0370 -0.2857  0.2146
  156TMC2    C8 2435   2.816   0.367  12.533  0.6437  0.3601  0.1947
  156TMC2    O1 2436   2.472   0.778  12.314 -0.0582  0.1385 -0.1003
  156TMC2    O2 2437   2.890   0.367  12.441  0.5779 -0.0082 -0.7144
  156TMC2    O5 2438   2.774   0.253  12.602 -0.1786 -0.1237  0.2082
  156TMC2    H5 2439   2.705   0.281  12.667 -0.6828 -1.7609  0.3806
  157MPD2     C 2440   2.657   0.673  13.124  0.1223  0.0799  0.1978
  157MPD2    C1 2441   2.601   0.728  13.010  0.6850 -0.0132  0.0901
  157MPD2    C2 2442   2.528   0.847  13.025  0.1206  0.3410 -0.0792
  157MPD2    C3 2443   2.519   0.910  13.143  0.0545  0.2979 -0.2129
  157MPD2    C4 2444   2.579   0.858  13.251  0.4425  0.4371  0.1181
  157MPD2    C5 2445   2.654   0.745  13.245 -0.5758  0.2496 -0.1589
  157MPD2     H 2446   2.472   0.887  12.942  0.0582  2.2100  0.8806
  157MPD2    H1 2447   2.567   0.903  13.349 -1.0065 -1.1449  0.6608
  157MPD2    H2 2448   2.708   0.578  13.131 -1.5196 -0.8145  0.1182
  157MPD2    H3 2449   2.706   0.705  13.331  0.7448  0.6847 -0.7649
  157MPD2     N 2450   2.441   1.026  13.143 -0.0632 -0.7714  0.2261
  157MPD2    H5 2451   2.384   1.038  13.060 -1.1790 -0.0680  1.0853
  157MPD2    N1 2452   2.625   0.660  12.890 -0.3556  0.4321  0.2341
  157MPD2    H7 2453   2.661   0.565  12.900 -0.7231 -0.1053 -3.2852
  158TMC2    C1 2454   2.265   4.137  13.631  0.1794 -0.3845  0.2583
  158TMC2    C2 2455   2.275   4.209  13.516  0.7073 -0.4951  0.7259
  158TMC2    C3 2456   2.204   4.167  13.414  0.2906 -0.4780  0.1471
  158TMC2    C4 2457   2.175   4.031  13.642 -0.1427 -0.7422  0.8987
  158TMC2    C5 2458   2.110   3.986  13.531  0.3127  0.1529 -0.1635
  158TMC2    C6 2459   2.115   4.059  13.418  0.5386  0.1467  0.6871
  158TMC2     C 2460   2.349   4.169  13.746 -0.5870  0.1809 -0.2989
  158TMC2     O 2461   2.411   4.273  13.738  0.4475 -0.5884 -0.1069
  158TMC2     H 2462   2.340   4.296  13.503  2.4930 -1.7595  1.1134
  158TMC2    H1 2463   2.169   3.971  13.732  1.1325  0.9454  2.0990
  158TMC2    H2 2464   2.053   4.037  13.331 -0.4048  3.3213  0.5591
  158TMC2    C7 2465   1.977   3.952  13.558 -0.2452 -0.9005  0.2785
  158TMC2    C8 2466   2.201   4.238  13.292  0.4544 -0.6364 -0.0743
  158TMC2    O1 2467   1.898   4.021  13.501 -0.0643  0.0109 -0.3298
  158TMC2    O2 2468   2.173   4.187  13.183 -0.3229  0.2959 -0.0692
  158TMC2    O5 2469   2.142   4.351  13.335 -0.3908  0.7969 -0.0057
  158TMC2    H5 2470   2.137   4.362  13.433 -2.0061 -1.8391  0.1970
  159MPD2     C 2471   2.484   4.092  14.238 -0.1208 -0.2677 -0.0734
  159MPD2    C1 2472   2.396   3.992  14.195  0.8138  0.1943 -0.3021
  159MPD2    C2 2473   2.360   3.992  14.064 -0.1073 -0.1416 -0.2795
  159MPD2    C3 2474   2.398   4.091  13.974  0.7727  0.5635 -0.5903
  159MPD2    C4 2475   2.486   4.187  14.014 -0.0634 -0.1046 -0.0443
  159MPD2    C5 2476   2.526   4.182  14.147  0.5269  0.0604 -0.2306
  159MPD2     H 2477   2.291   3.915  14.032 -2.5038  2.5530 -1.5854
  159MPD2    H1 2478   2.528   4.263  13.949 -1.9059 -0.3985 -1.5713
  159MPD2    H2 2479   2.509   4.113  14.341 -1.4016 -1.3902  0.4605
  159MPD2    H3 2480   2.602   4.255  14.174  0.6125 -0.3639  0.6851
  159MPD2     N 2481   2.338   4.077  13.845  0.2855  0.0567 -0.5564
  159MPD2    H5 2482   2.288   3.990  13.827  1.4345 -0.1988 -2.4856
  159MPD2    N1 2483   2.352   3.910  14.301  0.6377  0.4882  0.4990
  159MPD2    H7 2484   2.383   3.928  14.395  1.1350  0.7191  0.2879
  160TMC2    C1 2485   1.747   1.300   1.395 -0.2058 -0.0025 -0.2147
  160TMC2    C2 2486   1.768   1.220   1.507  0.1516  0.0756  0.2814
  160TMC2    C3 2487   1.900   1.177   1.532  0.0201  0.6656  0.6462
  160TMC2    C4 2488   1.846   1.336   1.309 -0.1297 -0.3876 -0.3938
  160TMC2    C5 2489   1.977   1.299   1.346  0.6736 -0.8153  0.4619
  160TMC2    C6 2490   2.006   1.213   1.449  0.3177  0.5485  0.7356
  160TMC2     C 2491   1.613   1.330   1.358  0.2703 -0.1961 -1.4025
  160TMC2     O 2492   1.530   1.250   1.394 -0.3540 -0.0758 -0.0115
  160TMC2     H 2493   1.686   1.167   1.554 -0.3812 -1.4095 -2.2859
  160TMC2    H1 2494   1.830   1.417   1.239 -1.1800 -1.9943 -2.0093
  160TMC2    H2 2495   2.106   1.173   1.457  0.2379  0.3172  0.5648
  160TMC2    C7 2496   2.094   1.336   1.266 -0.4925 -0.1491  1.0266
  160TMC2    C8 2497   1.912   1.054   1.605  0.1626 -0.6713 -0.3182
  160TMC2    O1 2498   2.192   1.260   1.281  0.5740  0.3737 -0.8273
  160TMC2    O2 2499   1.813   0.992   1.644 -0.0226 -0.0216 -0.4080
  160TMC2    O5 2500   2.041   1.035   1.640 -0.0686  0.1687  0.0996
  160TMC2    H5 2501   2.092   1.118   1.629  1.2123 -0.4914  1.0431
  161MPD2     C 2502   1.378   1.448   1.241  0.6791  0.0643  0.3060
  161MPD2    C1 2503   1.485   1.522   1.266  0.9018  0.2227  0.9030
  161MPD2    C2 2504   1.498   1.655   1.225  0.4422 -0.7542  0.3010
  161MPD2    C3 2505   1.392   1.718   1.165  0.0124  0.5245 -0.5177
  161MPD2    C4 2506   1.275   1.648   1.146 -0.9067 -0.0244  0.5489
  161MPD2    C5 2507   1.276   1.510   1.175  0.1419  0.1284 -0.4788
  161MPD2     H 2508   1.585   1.710   1.257  0.8208 -1.1945  0.0260
  161MPD2    H1 2509   1.187   1.694   1.103 -0.4095  0.7857  0.4074
  161MPD2    H2 2510   1.371   1.340   1.250 -2.4490  0.3341  1.2426
  161MPD2    H3 2511   1.189   1.451   1.149 -2.0093  1.8288  2.9050
  161MPD2     N 2512   1.392   1.851   1.122  0.3388 -0.0935  0.3433
  161MPD2    H5 2513   1.315   1.880   1.063  0.6161 -2.6382 -1.2473
  161MPD2    N1 2514   1.601   1.460   1.315  0.2130  0.0928  0.2784
  161MPD2    H7 2515   1.683   1.520   1.323 -0.5411  1.2867 -0.8013
  162TMC2    C1 2516   0.561   3.707   1.674  0.0547  0.2314 -0.3690
  162TMC2    C2 2517   0.667   3.729   1.753 -0.2316 -0.1802 -0.4881
  162TMC2    C3 2518   0.646   3.735   1.889 -0.6428  0.0335  1.3798
  162TMC2    C4 2519   0.438   3.671   1.728 -0.4660 -0.5840  0.1944
  162TMC2    C5 2520   0.432   3.661   1.865  0.5807  0.4113  0.3354
  162TMC2    C6 2521   0.534   3.694   1.950 -0.9214  1.4077  0.2330
  162TMC2     C 2522   0.563   3.717   1.527  0.1214  0.3249 -0.4055
  162TMC2     O 2523   0.452   3.731   1.476 -0.3047  0.1836 -0.7661
  162TMC2     H 2524   0.768   3.742   1.717 -0.5131  0.6627 -0.9641
  162TMC2    H1 2525   0.351   3.668   1.663 -1.2042  2.0426  1.0923
  162TMC2    H2 2526   0.519   3.699   2.057  1.4141  1.2894  0.5644
  162TMC2    C7 2527   0.305   3.630   1.923 -0.0110  0.0426 -0.1186
  162TMC2    C8 2528   0.770   3.756   1.961 -0.0895  0.3378  0.2384
  162TMC2    O1 2529   0.303   3.628   2.045  0.0840  0.1949  0.2122
  162TMC2    O2 2530   0.833   3.859   1.958  0.0582 -0.1487 -0.0831
  162TMC2    O5 2531   0.772   3.669   2.064 -0.1178 -0.7710 -0.4406
  162TMC2    H5 2532   0.707   3.600   2.040 -1.3278 -0.2573  1.3458
  163MPD2     C 2533   0.770   3.792   1.070 -0.0947  0.3237  0.2321
  163MPD2    C1 2534   0.637   3.772   1.104  0.3588 -0.0001 -0.9169
  163MPD2    C2 2535   0.606   3.752   1.238  0.5905 -0.2699 -0.2649
  163MPD2    C3 2536   0.710   3.752   1.335  0.4868 -0.3277 -0.0988
  163MPD2    C4 2537   0.841   3.781   1.297 -0.6327 -0.3497  0.4772
  163MPD2    C5 2538   0.868   3.798   1.164 -0.9398  0.0995 -0.6832
  163MPD2     H 2539   0.508   3.717   1.268  1.1313  2.3672  4.5266
  163MPD2    H1 2540   0.913   3.787   1.377  2.3189  0.3120 -2.2247
  163MPD2    H2 2541   0.789   3.796   0.963 -3.2911  0.3112 -0.3467
  163MPD2    H3 2542   0.972   3.814   1.138 -1.4273  1.2142 -1.9257
  163MPD2     N 2543   0.689   3.733   1.474 -0.0602  0.2795 -0.4604
  163MPD2    H5 2544   0.770   3.714   1.532 -0.1052  2.6433  0.3973
  163MPD2    N1 2545   0.536   3.764   1.004  0.5712 -0.6303 -0.3719
  163MPD2    H7 2546   0.560   3.803   0.913 -0.3471  0.4418 -0.1470
  164TMC2    C1 2547   1.198   4.088  11.855 -0.5991 -0.1361 -0.3141
  164TMC2    C2 2548   1.261   4.122  11.974 -0.0728 -0.3842 -0.5513
  164TMC2    C3 2549   1.206   4.235  12.034 -0.0211 -0.2355  0.1572
  164TMC2    C4 2550   1.077   4.136  11.815 -1.1311 -0.0122  0.1523
  164TMC2    C5 2551   1.026   4.243  11.887  0.3088  0.4420 -0.1089
  164TMC2    C6 2552   1.093   4.292  11.997 -0.1563  0.0064 -0.9098
  164TMC2     C 2553   1.265   3.990  11.775 -0.2717 -0.1276 -0.1800
  164TMC2     O 2554   1.347   3.910  11.823  0.8145  0.4359  0.1762
  164TMC2     H 2555   1.360   4.088  12.004 -0.0475 -0.3212 -0.5620
  164TMC2    H1 2556   1.029   4.100  11.725 -0.0547  1.0832 -0.8622
  164TMC2    H2 2557   1.055   4.383  12.041  1.0154 -0.2137  0.5480
  164TMC2    C7 2558   0.885   4.254  11.880 -0.3008  0.2750  0.0251
  164TMC2    C8 2559   1.281   4.293  12.136 -0.2016  0.0799  0.5291
  164TMC2    O1 2560   0.826   4.212  11.782 -0.0233  0.6279  0.2859
  164TMC2    O2 2561   1.365   4.232  12.199 -0.0650 -0.3314  0.2602
  164TMC2    O5 2562   1.276   4.428  12.124  0.3203 -0.0196 -0.1323
  164TMC2    H5 2563   1.225   4.465  12.049  0.5344  0.6826  0.0592
  165TMC2    C1 2564   2.078   0.414   1.630  0.5776 -0.0189 -0.4458
  165TMC2    C2 2565   1.974   0.410   1.715 -0.1180 -0.3114 -0.1018
  165TMC2    C3 2566   1.888   0.516   1.710 -0.2966  0.1175 -0.1275
  165TMC2    C4 2567   2.100   0.520   1.550  0.1226 -0.7721 -0.1452
  165TMC2    C5 2568   2.016   0.633   1.553 -0.1604 -0.0741 -1.0317
  165TMC2    C6 2569   1.892   0.624   1.623  0.7458 -0.2789  1.1580
  165TMC2     C 2570   2.180   0.312   1.648 -0.6377  0.6411  0.1481
  165TMC2     O 2571   2.135   0.205   1.683  0.3107 -0.0494 -0.2503
  165TMC2     H 2572   1.964   0.336   1.793  0.8942 -1.7866 -1.3520
  165TMC2    H1 2573   2.171   0.510   1.469 -0.1135  2.2802 -0.7469
  165TMC2    H2 2574   1.823   0.708   1.629 -0.4458 -1.1646  0.1252
  165TMC2    C7 2575   2.026   0.733   1.449  0.3360 -0.5839 -0.3746
  165TMC2    C8 2576   1.796   0.523   1.821  0.0790 -0.6443  0.1773
  165TMC2    O1 2577   2.132   0.741   1.390 -0.3212 -0.5329 -0.1288
  165TMC2    O2 2578   1.814   0.459   1.924 -0.3228  0.4620  0.0536
  165TMC2    O5 2579   1.671   0.558   1.770  0.1652 -0.3220 -0.0090
  165TMC2    H5 2580   1.685   0.585   1.676 -0.9496 -0.8898 -0.3360
  166MPD2     C 2581   2.653   0.153   1.705 -0.2827 -0.1413 -0.0350
  166MPD2    C1 2582   2.538   0.079   1.680  0.3781  0.4468 -1.1350
  166MPD2    C2 2583   2.422   0.147   1.645 -0.3532 -0.1901  0.2359
  166MPD2    C3 2584   2.420   0.289   1.649  0.5561  0.5450 -0.0430
  166MPD2    C4 2585   2.534   0.358   1.678  0.5141  0.2215 -0.2031
  166MPD2    C5 2586   2.649   0.296   1.713 -0.6686  0.1058 -0.2849
  166MPD2     H 2587   2.328   0.096   1.627  0.2666 -1.3069  0.1520
  166MPD2    H1 2588   2.531   0.466   1.678  0.8217  0.2307 -0.6678
  166MPD2    H2 2589   2.743   0.097   1.725 -0.2784  0.0464  0.4787
  166MPD2    H3 2590   2.739   0.355   1.727  0.4129 -1.6197  0.0450
  166MPD2     N 2591   2.298   0.364   1.626  0.0635 -0.1718  0.3457
  166MPD2    H5 2592   2.296   0.461   1.596  3.9138 -0.8199 -2.0960
  166MPD2    N1 2593   2.555   4.676   1.667 -0.3943  0.5533 -0.5532
  166MPD2    H7 2594   2.640   4.624   1.685 -0.2265  0.6362 -1.1030
  167TMC2    C1 2595   0.008   3.794  12.365 -0.0194  0.1985  0.7129
  167TMC2    C2 2596   4.691   3.917  12.398 -0.0450  0.1609 -0.0014
  167TMC2    C3 2597   4.702   3.962  12.526  0.9798 -0.1619 -0.2427
  167TMC2    C4 2598   0.087   3.733  12.446 -0.2364  0.2953 -0.1758
  167TMC2    C5 2599   0.101   3.779  12.573  0.0931 -0.4342 -0.7125
  167TMC2    C6 2600   0.043   3.894  12.621  0.0388 -0.5001  0.0926
  167TMC2     C 2601   4.720   3.745  12.233  0.2370  0.0427 -0.2618
  167TMC2     O 2602   4.654   3.809  12.155 -0.0497 -0.1320  0.3856
  167TMC2     H 2603   4.632   3.973  12.327 -0.6267 -2.0475 -1.2886
  167TMC2    H1 2604   0.135   3.643  12.410 -1.6641  0.5825 -2.7720
  167TMC2    H2 2605   0.045   3.925  12.725 -1.2860  1.3256 -0.4316
  167TMC2    C7 2606   0.165   3.687  12.659  0.5643  0.3502 -0.6354
  167TMC2    C8 2607   4.628   4.080  12.558  0.5068  1.0942  0.7535
  167TMC2    O1 2608   0.123   3.695  12.773 -0.0513 -0.3290  0.1917
  167TMC2    O2 2609   4.535   4.133  12.496  0.3451  0.0688 -0.1890
  167TMC2    O5 2610   4.699   4.144  12.655  0.2554 -0.5095  0.1017
  167TMC2    H5 2611   0.033   4.086  12.691  0.1135 -0.9638 -0.3689
  168MPD2     C 2612   4.670   3.543  12.006 -0.2506  0.1730 -0.4849
  168MPD2    C1 2613   4.696   3.516  12.141  0.7492 -0.2311  0.3594
  168MPD2    C2 2614   4.711   3.389  12.178  0.8853 -0.6827  0.1315
  168MPD2    C3 2615   4.700   3.283  12.091 -0.2663 -0.3711 -0.6551
  168MPD2    C4 2616   4.659   3.305  11.962  0.5281 -0.6686 -0.1835
  168MPD2    C5 2617   4.657   3.435  11.915 -0.4436 -0.0574  0.3468
  168MPD2     H 2618   4.727   3.358  12.281  0.6632 -0.0498  0.3540
  168MPD2    H1 2619   4.655   3.234  11.880  1.4736 -0.0371 -0.7842
  168MPD2    H2 2620   4.664   3.642  11.961  4.4221  0.2361 -0.9754
  168MPD2    H3 2621   4.641   3.456  11.810  2.4230 -1.1019 -0.3036
  168MPD2     N 2622   4.712   3.156  12.154 -0.3497 -0.4236 -0.0461
  168MPD2    H5 2623   4.732   3.160  12.254  0.6306  0.4552 -0.2878
  168MPD2    N1 2624   4.724   3.605  12.239 -0.5297  0.1222  1.5384
  168MPD2    H7 2625   0.004   3.565  12.331  0.9161 -0.0670  1.2005
  169MPD1     C 2626   2.544   2.974   8.875 -0.7493 -0.3298 -0.1236
  169MPD1    C1 2627   2.670   3.006   8.908 -0.0448  0.4262  0.3519
  169MPD1    C2 2628   2.708   3.016   9.041  0.2598  0.2213 -0.3707
  169MPD1    C3 2629   2.615   3.003   9.145  0.3354  0.2196  0.2231
  169MPD1    C4 2630   2.477   2.979   9.113  0.3255 -0.2363 -0.2413
  169MPD1    C5 2631   2.451   2.962   8.979 -0.6863  0.5193  0.5135
  169MPD1     H 2632   2.814   3.034   9.060  0.1466 -0.7254  1.1775
  169MPD1    H1 2633   2.396   2.971   9.184  1.0270 -1.0717  0.4595
  169MPD1    H2 2634   2.518   2.952   8.773 -1.9662  1.1325 -0.1406
  169MPD1    H3 2635   2.349   2.929   8.964 -0.6449  0.4182  0.4586
  169MPD1     N 2636   2.650   3.032   9.284 -0.1201 -0.5232  1.1900
  169MPD1    H5 2637   2.745   3.065   9.302  0.4373 -1.0501 -0.8197
  169MPD1    N1 2638   2.775   3.001   8.815  0.1429  0.5996  0.2833
  169MPD1    H6 2639   2.737   3.055   8.737  0.5207  0.1699 -0.1972
  169MPD1    H7 2640   2.865   3.039   8.846  0.1667  0.3015  0.5742
  170MPD1     C 2641   1.517   1.004  13.207 -0.0159 -0.4934  0.1609
  170MPD1    C1 2642   1.554   1.053  13.334  0.2698 -0.2068 -0.2174
  170MPD1    C2 2643   1.449   1.095  13.416  0.9038 -0.0697 -0.4330
  170MPD1    C3 2644   1.319   1.108  13.361  0.2737  0.2704 -0.7043
  170MPD1    C4 2645   1.290   1.057  13.238 -0.7093 -0.0781 -0.8376
  170MPD1    C5 2646   1.391   0.998  13.168 -0.2493  0.1227 -0.0608
  170MPD1     H 2647   1.480   1.144  13.508 -0.4629 -0.2666  0.1276
  170MPD1    H1 2648   1.191   1.069  13.195 -0.9137  1.5641  0.0915
  170MPD1    H2 2649   1.589   0.954  13.144  0.7527 -1.4270  1.7942
  170MPD1    H3 2650   1.361   0.961  13.071  2.0191  0.6483 -0.9752
  170MPD1     N 2651   1.229   1.180  13.439  0.6857 -0.4472 -0.9751
  170MPD1    H5 2652   1.265   1.210  13.529 -1.0192  1.5975 -0.9762
  170MPD1    N1 2653   1.684   1.033  13.388  0.7050  0.2243 -0.8568
  170MPD1    H6 2654   1.712   1.092  13.466 -0.9672 -1.7629  1.2437
  170MPD1    H7 2655   1.761   1.026  13.321  0.6623  1.8522 -1.0734
  171MPD1     C 2656   3.719   1.682  15.825 -0.2934 -0.5674 -0.0360
  171MPD1    C1 2657   3.692   1.645  15.956  0.1513 -0.2692  0.1133
  171MPD1    C2 2658   3.755   1.528  16.000 -0.1640  0.8060  0.0975
  171MPD1    C3 2659   3.863   1.468  15.932 -0.0970 -0.1964 -0.2328
  171MPD1    C4 2660   3.888   1.519  15.810 -0.3616  0.1046 -0.9258
  171MPD1    C5 2661   3.824   1.625  15.762  0.0116  0.4899 -0.4517
  171MPD1     H 2662   3.723   1.476  16.090  0.9896 -0.3389 -0.1705
  171MPD1    H1 2663   3.955   1.464  15.746 -0.6872 -0.7050 -0.5812
  171MPD1    H2 2664   3.684   1.768  15.768  0.3852 -0.3123 -0.0752
  171MPD1    H3 2665   3.845   1.673  15.666  0.3691 -1.2749 -1.2541
  171MPD1     N 2666   3.954   1.375  15.993  0.2801 -0.3299 -0.3179
  171MPD1    H5 2667   4.037   1.352  15.939 -1.1200 -0.9874 -2.2146
  171MPD1    N1 2668   3.579   1.706  16.015 -0.0394 -0.6990  0.1928
  171MPD1    H6 2669   3.581   1.807  16.001 -2.6578 -0.6014  0.4299
  171MPD1    H7 2670   3.586   1.697  16.116  3.2808  2.5342  0.2510
  172MPD1     C 2671   3.377   0.345   0.253  0.0261 -0.5613  0.2511
  172MPD1    C1 2672   3.317   0.434   0.339  0.3546  1.0945 -0.8898
  172MPD1    C2 2673   3.373   0.562   0.353  0.6488  0.4659 -0.2281
  172MPD1    C3 2674   3.461   0.606   0.251  0.3312  0.6893  0.6938
  172MPD1    C4 2675   3.524   0.519   0.167  0.7289  0.4435  0.1392
  172MPD1    C5 2676   3.478   0.389   0.169 -0.4173 -0.3812  0.0863
  172MPD1     H 2677   3.335   0.628   0.430  1.6475 -1.2458  1.7463
  172MPD1    H1 2678   3.593   0.539   0.086  1.2158 -0.9937  0.1989
  172MPD1    H2 2679   3.337   0.247   0.231  2.4575 -1.5208  0.0488
  172MPD1    H3 2680   3.508   0.307   0.105 -2.3336 -0.6231 -0.5002
  172MPD1     N 2681   3.497   0.745   0.239 -0.4489  0.0344  0.0362
  172MPD1    H5 2682   3.561   0.767   0.164 -0.9131  2.2516  0.2882
  172MPD1    N1 2683   3.225   0.387   0.436 -0.3538 -0.3057 -0.0683
  172MPD1    H6 2684   3.169   0.313   0.392  0.9056 -0.5709 -1.2299
  172MPD1    H7 2685   3.151   0.454   0.454  2.2046  2.6282 -0.6569
  173MPD1     C 2686   4.441   1.692  14.732  0.9299 -0.7241  0.1009
  173MPD1    C1 2687   4.384   1.562  14.720  0.1467  0.2709 -0.1517
  173MPD1    C2 2688   4.461   1.453  14.765 -0.6170 -0.0280 -1.2728
  173MPD1    C3 2689   4.591   1.476  14.797 -0.4938  0.4856  0.0566
  173MPD1    C4 2690   4.651   1.598  14.792 -0.4795 -0.5920 -0.6679
  173MPD1    C5 2691   4.570   1.707  14.765  0.5561  0.2734 -0.5235
  173MPD1     H 2692   4.415   1.357  14.788  0.0932 -0.1296 -0.2721
  173MPD1    H1 2693   0.022   1.607  14.800 -0.9641  4.5449 -0.1307
  173MPD1    H2 2694   4.382   1.783  14.724  0.0057 -1.3839 -0.5280
  173MPD1    H3 2695   4.617   1.804  14.773  1.6833 -0.2899 -0.3992
  173MPD1     N 2696   4.666   1.360  14.833 -0.3163 -0.1516  0.3598
  173MPD1    H5 2697   4.610   1.278  14.855 -1.2998 -0.1080 -1.9554
  173MPD1    N1 2698   4.246   1.548  14.699 -0.9439  1.1066  0.4436
  173MPD1    H6 2699   4.209   1.613  14.630  1.2578  0.6983 -1.1143
  173MPD1    H7 2700   4.214   1.458  14.663 -0.9112  0.8118  1.1671
  174MPD1     C 2701   0.797   0.801  14.685 -0.3538 -0.4166  0.2282
  174MPD1    C1 2702   0.733   0.759  14.801 -0.2935 -0.4321 -0.1805
  174MPD1    C2 2703   0.609   0.812  14.836  0.0781  0.1443 -1.9065
  174MPD1    C3 2704   0.541   0.902  14.754 -0.2731  0.4986  0.4429
  174MPD1    C4 2705   0.601   0.941  14.639  0.6803 -0.6257 -0.3728
  174MPD1    C5 2706   0.726   0.892  14.608  0.0656 -0.0973 -0.2150
  174MPD1     H 2707   0.571   0.764  14.926  1.3015  0.3118 -1.3040
  174MPD1    H1 2708   0.547   1.012  14.577  1.4880 -0.5586 -1.0112
  174MPD1    H2 2709   0.894   0.766  14.650 -0.4139 -0.7468  0.3971
  174MPD1    H3 2710   0.781   0.932  14.524 -1.3376  1.0736 -0.5774
  174MPD1     N 2711   0.410   0.955  14.787  0.3142  1.1442 -0.5959
  174MPD1    H5 2712   0.370   1.018  14.719 -1.2607  0.7013 -0.0793
  174MPD1    N1 2713   0.810   0.685  14.895  0.0745  0.0644 -0.1072
  174MPD1    H6 2714   0.760   0.612  14.945  0.6455 -1.2169 -1.4112
  174MPD1    H7 2715   0.894   0.640  14.860 -0.6291  0.4041 -2.1961
  175MPD1     C 2716   2.999   2.056  15.571  0.3722  0.4312  0.5940
  175MPD1    C1 2717   3.010   1.925  15.591 -0.4017  0.0975 -0.4548
  175MPD1    C2 2718   2.979   1.876  15.716  0.1031  0.5020 -0.1927
  175MPD1    C3 2719   2.946   1.965  15.816  0.3287 -0.1550  0.7408
  175MPD1    C4 2720   2.932   2.095  15.791 -0.1703  0.3143 -0.1719
  175MPD1    C5 2721   2.960   2.141  15.672 -0.3323 -0.0805 -0.9110
  175MPD1     H 2722   2.987   1.769  15.734  0.6042  0.7996  1.3327
  175MPD1    H1 2723   2.910   2.163  15.873 -1.0940 -0.3917  0.1664
  175MPD1    H2 2724   3.039   2.105  15.483  0.7584  0.5161  0.8208
  175MPD1    H3 2725   2.950   2.248  15.652 -1.1030  0.4350  2.2398
  175MPD1     N 2726   2.914   1.923  15.953  0.1613 -0.4147 -0.0311
  175MPD1    H5 2727   2.874   1.986  16.022 -1.2479  0.5772 -1.7376
  175MPD1    N1 2728   3.046   1.839  15.484 -0.1623 -0.0525 -0.4719
  175MPD1    H6 2729   3.107   1.890  15.421 -0.1266  1.2374  0.6204
  175MPD1    H7 2730   3.093   1.756  15.522 -0.7786 -0.7153 -1.1587
  176MPD1     C 2731   0.982   0.094   0.024  0.4159 -0.1362  0.2898
  176MPD1    C1 2732   0.908   0.067  17.645  0.6931 -0.5341  0.7835
  176MPD1    C2 2733   0.796   4.722  17.658 -0.0363 -0.1976 -0.4891
  176MPD1    C3 2734   0.747   4.682   0.042  0.2834  0.2556  0.1127
  176MPD1    C4 2735   0.823   4.706   0.158 -0.1198  0.3440  0.1477
  176MPD1    C5 2736   0.938   0.046   0.147 -0.2449  0.0754 -0.0185
  176MPD1     H 2737   0.748   4.701  17.562 -0.2418 -2.3735  0.0942
  176MPD1    H1 2738   0.782   4.681   0.256 -1.0525  0.7263 -0.1429
  176MPD1    H2 2739   1.053   0.175   0.016 -0.9360  1.0680  0.3827
  176MPD1    H3 2740   0.986   0.073   0.240  1.2341  2.6473 -1.5110
  176MPD1     N 2741   0.611   4.640   0.043  0.2072  0.3572  0.0258
  176MPD1    H5 2742   0.573   4.650  17.692  0.8089  1.4957 -0.0889
  176MPD1    N1 2743   0.945   0.147  17.537 -0.2057 -0.5044 -0.3046
  176MPD1    H6 2744   1.045   0.158  17.522 -0.3534  0.6513 -0.4222
  176MPD1    H7 2745   0.917   0.109  17.447 -3.6903  1.4193 -0.0691
  177MPD1     C 2746   3.655   4.381  10.290  0.3061  0.2806  0.2103
  177MPD1    C1 2747   3.606   4.373  10.158 -0.2748  0.1396  0.3300
  177MPD1    C2 2748   3.482   4.424  10.123  0.1826  0.4875 -0.6193
  177MPD1    C3 2749   3.416   4.506  10.213 -0.3967  0.2187 -0.0676
  177MPD1    C4 2750   3.463   4.513  10.347  0.4563 -0.4830 -0.4537
  177MPD1    C5 2751   3.583   4.457  10.380 -0.0955  0.0490  0.0681
  177MPD1     H 2752   3.455   4.401  10.020 -1.0804 -1.7239  0.2118
  177MPD1    H1 2753   3.417   4.567  10.429  2.6924 -0.9043  1.0930
  177MPD1    H2 2754   3.750   4.339  10.318 -0.3380 -0.3286  1.4579
  177MPD1    H3 2755   3.603   4.446  10.486 -0.7819 -1.0779  0.0843
  177MPD1     N 2756   3.292   4.569  10.177  0.2645 -0.0332  0.3663
  177MPD1    H5 2757   3.263   4.545  10.083  0.8368  0.0510  0.1679
  177MPD1    N1 2758   3.664   4.276  10.069  0.1265  0.5687 -0.4533
  177MPD1    H6 2759   3.652   4.293   9.970  2.8553  2.1904 -0.4788
  177MPD1    H7 2760   3.760   4.250  10.092  1.1350  2.0524 -3.0952
  178MPD1     C 2761   1.091   4.645   0.760 -0.9017 -0.3383  0.5347
  178MPD1    C1 2762   1.059   4.527   0.686  0.8104 -0.1471  0.1586
  178MPD1    C2 2763   1.091   4.523   0.550  0.0946 -0.6644  0.2338
  178MPD1    C3 2764   1.157   4.622   0.482  0.4985  0.3800  0.5250
  178MPD1    C4 2765   1.201   4.729   0.563  0.4407  0.1897 -0.2839
  178MPD1    C5 2766   1.173   4.734   0.699 -1.0632  0.4973  0.2924
  178MPD1     H 2767   1.056   4.445   0.484  1.4761 -0.7729 -0.3797
  178MPD1    H1 2768   1.245   0.080   0.517 -1.2308  0.7568 -0.8178
  178MPD1    H2 2769   1.047   4.669   0.856 -1.2364  0.2354  0.2372
  178MPD1    H3 2770   1.200   0.085   0.757  2.1569  1.7872 -3.1812
  178MPD1     N 2771   1.180   4.615   0.339  0.2649  0.2225  0.3918
  178MPD1    H5 2772   1.244   4.684   0.302 -2.9732  2.5960 -0.7774
  178MPD1    N1 2773   0.970   4.433   0.743  0.0356  0.0994  0.0495
  178MPD1    H6 2774   0.983   4.340   0.705  1.1294  0.3492 -0.1775
  178MPD1    H7 2775   0.962   4.436   0.845  0.0539 -0.4527  0.0655
  179MPD1     C 2776   0.204   3.321  15.452 -0.0213 -0.2696  1.0728
  179MPD1    C1 2777   0.319   3.243  15.462 -0.2359 -0.2995  1.0793
  179MPD1    C2 2778   0.306   3.111  15.499  0.5447 -0.6306  0.0844
  179MPD1    C3 2779   0.184   3.064  15.549  0.6249  0.0889  0.4045
  179MPD1    C4 2780   0.073   3.150  15.546  0.3380 -0.6225  0.4016
  179MPD1    C5 2781   0.082   3.274  15.488 -0.0644 -0.4731  0.0413
  179MPD1     H 2782   0.396   3.051  15.499 -0.1227 -1.6317 -0.6764
  179MPD1    H1 2783   4.712   3.119  15.582 -0.2417 -0.3295 -0.9174
  179MPD1    H2 2784   0.202   3.426  15.427  0.5043 -0.9710 -1.8850
  179MPD1    H3 2785   4.725   3.327  15.478 -0.5064 -1.5937 -1.7015
  179MPD1     N 2786   0.166   2.931  15.611  0.1297  0.3618 -0.2404
  179MPD1    H5 2787   0.077   2.904  15.651 -0.4871  1.9643 -0.5429
  179MPD1    N1 2788   0.439   3.289  15.411 -0.0846  0.4222 -0.4259
  179MPD1    H6 2789   0.520   3.250  15.460  0.8430 -0.6946 -2.8485
  179MPD1    H7 2790   0.435   3.389  15.427  0.1310  0.5945 -1.4588
  180MPD1     C 2791   4.613   4.485  15.405 -0.2005  0.0679  0.7064
  180MPD1    C1 2792   4.719   4.530  15.343  0.1106 -0.1234  0.3550
  180MPD1    C2 2793   4.733   4.507  15.206 -0.0074 -0.6171  0.4859
  180MPD1    C3 2794   4.658   4.406  15.134  0.0677  0.5950 -0.1383
  180MPD1    C4 2795   4.567   4.338  15.212  0.0887  0.5004  0.0837
  180MPD1    C5 2796   4.537   4.392  15.336  0.1052 -0.5624 -0.5995
  180MPD1     H 2797   0.065   4.568  15.147  0.6195 -1.1619  0.6505
  180MPD1    H1 2798   4.506   4.257  15.174  1.5504 -0.0245 -1.1311
  180MPD1    H2 2799   4.591   4.499  15.510 -0.3152 -0.1474  0.7110
  180MPD1    H3 2800   4.456   4.346  15.391 -1.2454  1.8184 -0.6184
  180MPD1     N 2801   4.692   4.373  14.996 -0.5457  0.1617 -0.1145
  180MPD1    H5 2802   0.036   4.418  14.954 -2.0690  2.1509 -0.8572
  180MPD1    N1 2803   0.062   4.624  15.399 -0.2339  0.5877  0.3454
  180MPD1    H6 2804   0.068   4.616  15.500 -1.2141 -1.5742  0.2445
  180MPD1    H7 2805   0.152   4.622  15.351 -0.0391  1.6522  0.6742
  181MPD1     C 2806   1.566   0.911   9.978 -0.7949 -0.2136 -0.5802
  181MPD1    C1 2807   1.592   0.984   9.861 -0.0392 -1.2526 -0.4891
  181MPD1    C2 2808   1.713   1.062   9.860 -0.0984  0.1053 -0.2606
  181MPD1    C3 2809   1.790   1.070   9.969  0.5038  0.1396  0.2322
  181MPD1    C4 2810   1.754   0.998  10.082 -0.1101 -0.3874  0.2609
  181MPD1    C5 2811   1.642   0.923  10.090 -0.1528 -0.0050  0.2784
  181MPD1     H 2812   1.744   1.101   9.763 -3.3530 -0.1346 -1.3908
  181MPD1    H1 2813   1.821   0.995  10.167  2.0072 -4.8040 -1.5528
  181MPD1    H2 2814   1.480   0.847   9.989 -0.6109 -0.1044  1.4652
  181MPD1    H3 2815   1.618   0.874  10.184  2.5041  0.4739  1.2012
  181MPD1     N 2816   1.923   1.126   9.979  0.1814 -0.2890  0.5961
  181MPD1    H5 2817   1.981   1.109  10.060 -1.0474 -0.6882  1.3852
  181MPD1    N1 2818   1.507   0.965   9.750 -0.1927  0.0566  0.0150
  181MPD1    H6 2819   1.413   0.943   9.781  0.3388 -1.2111  0.7592
  181MPD1    H7 2820   1.520   1.035   9.678  0.7255 -1.3815 -1.2152
  182MPD1     C 2821   2.753   4.672   0.999  0.2399  0.8485 -0.3905
  182MPD1    C1 2822   2.846   0.018   0.936 -0.4066 -1.2610 -0.5666
  182MPD1    C2 2823   2.814   0.111   0.838  0.2733 -0.2533  0.4927
  182MPD1    C3 2824   2.678   0.133   0.811  0.5572  0.0669 -0.0500
  182MPD1    C4 2825   2.582   0.056   0.878  0.4022  0.2280  0.6373
  182MPD1    C5 2826   2.623   4.693   0.963 -0.1917 -0.2797  0.3784
  182MPD1     H 2827   2.894   0.174   0.804  0.4512 -0.7657 -0.0432
  182MPD1    H1 2828   2.476   0.068   0.859  0.4106  1.6281  1.5140
  182MPD1    H2 2829   2.788   4.602   1.074 -0.2186  2.3962  1.2665
  182MPD1    H3 2830   2.543   4.636   1.008 -0.4435  0.4348  0.8460
  182MPD1     N 2831   2.637   0.215   0.708 -0.1406 -0.1040  0.2856
  182MPD1    H5 2832   2.537   0.223   0.690  0.0427  0.2969 -0.5731
  182MPD1    N1 2833   2.984   0.004   0.964 -0.0765 -0.0895 -0.1830
  182MPD1    H6 2834   3.013   4.688   1.046  1.4283  0.9295 -0.0746
  182MPD1    H7 2835   3.036   0.092   0.959 -1.9559  1.0887  0.5895
  183MPD1     C 2836   3.267   1.381   9.169  0.6035 -0.0736  0.2922
  183MPD1    C1 2837   3.302   1.510   9.182 -0.4317 -0.5666 -0.1858
  183MPD1    C2 2838   3.368   1.546   9.299 -0.5478  0.1754 -0.1095
  183MPD1    C3 2839   3.415   1.450   9.392 -0.1912  0.3038  0.0696
  183MPD1    C4 2840   3.378   1.325   9.372  0.3784  0.6439 -0.0456
  183MPD1    C5 2841   3.304   1.286   9.259 -0.1737 -0.0930  0.2772
  183MPD1     H 2842   3.401   1.648   9.314  0.3684 -0.2826  1.0066
  183MPD1    H1 2843   3.407   1.242   9.436  0.5750 -0.7463 -1.9222
  183MPD1    H2 2844   3.195   1.345   9.095  0.6384 -0.7653  0.5911
  183MPD1    H3 2845   3.267   1.186   9.242 -0.4133  0.1696 -0.7299
  183MPD1     N 2846   3.506   1.487   9.492  0.1173 -0.1290  0.1109
  183MPD1    H5 2847   3.539   1.583   9.497 -0.0203 -0.1165  0.7857
  183MPD1    N1 2848   3.251   1.611   9.099  0.4095  0.2920  0.0384
  183MPD1    H6 2849   3.234   1.589   9.001 -0.0045  1.3376 -0.1215
  183MPD1    H7 2850   3.314   1.691   9.107  0.1000  0.4771  0.5671
  184MPD1     C 2851   2.537   3.729  10.679 -0.2028  1.1448  0.8841
  184MPD1    C1 2852   2.505   3.695  10.547 -0.6094  0.3006 -0.3332
  184MPD1    C2 2853   2.456   3.795  10.466 -0.1230 -0.1237  0.1013
  184MPD1    C3 2854   2.430   3.917  10.518  0.4425 -0.1279 -0.2546
  184MPD1    C4 2855   2.453   3.945  10.652  0.8359  0.4253 -0.5022
  184MPD1    C5 2856   2.507   3.851  10.735 -0.3176  0.3812 -0.4180
  184MPD1     H 2857   2.437   3.767  10.363  3.2583 -2.8418  0.2178
  184MPD1    H1 2858   2.433   4.046  10.685  0.7948 -0.2816  1.6559
  184MPD1    H2 2859   2.588   3.656  10.740 -2.0945  0.1118  1.2101
  184MPD1    H3 2860   2.527   3.882  10.837  2.0003  0.5331 -0.9242
  184MPD1     N 2861   2.382   4.029  10.438  0.8834 -0.5691 -0.1732
  184MPD1    H5 2862   2.371   4.117  10.487  0.1871  0.3013 -1.9038
  184MPD1    N1 2863   2.534   3.566  10.503 -0.1667 -0.1958  0.0035
  184MPD1    H6 2864   2.478   3.536  10.423 -0.8220  0.9527  0.0374
  184MPD1    H7 2865   2.518   3.504  10.582  0.1211  1.4767  1.3593
  185MPD1     C 2866   1.738   4.597   9.894 -0.3590 -0.5483  0.3412
  185MPD1    C1 2867   1.754   4.464   9.879 -0.1774 -0.6606  0.1299
  185MPD1    C2 2868   1.875   4.413   9.913  0.2539 -0.6515  0.9930
  185MPD1    C3 2869   1.990   4.489   9.944  0.7970  1.1222 -0.1328
  185MPD1    C4 2870   1.970   4.622   9.955  0.3004  0.5240 -0.5233
  185MPD1    C5 2871   1.843   4.676   9.936 -0.0440  0.6958  0.1258
  185MPD1     H 2872   1.881   4.305   9.906  0.6840 -0.4251 -1.9321
  185MPD1    H1 2873   2.044   4.697   9.983  2.5036 -2.2002  0.8965
  185MPD1    H2 2874   1.650   4.654   9.868  1.5774  2.3399  0.1192
  185MPD1    H3 2875   1.821   0.046   9.942 -4.1724 -0.1579 -0.3200
  185MPD1     N 2876   2.118   4.436   9.981  0.1270 -0.6829  0.2216
  185MPD1    H5 2877   2.179   4.502  10.029  0.7318 -3.0470  2.6956
  185MPD1    N1 2878   1.638   4.384   9.863  0.8350  0.0630 -0.8296
  185MPD1    H6 2879   1.577   4.437   9.801 -0.3293  0.0235  0.2911
  185MPD1    H7 2880   1.664   4.301   9.810  0.1389 -2.0233  2.0954
  186MPD1     C 2881   0.390   3.005  15.991  0.0167 -0.0556  0.5675
  186MPD1    C1 2882   0.404   3.138  15.968 -0.3050 -0.0581 -0.4670
  186MPD1    C2 2883   0.481   3.213  16.052 -0.3560 -0.4100 -0.0896
  186MPD1    C3 2884   0.542   3.156  16.162 -0.0892  0.2907  0.4014
  186MPD1    C4 2885   0.523   3.020  16.183 -0.2237 -0.3189 -0.2053
  186MPD1    C5 2886   0.448   2.944  16.096  0.4230  0.3818  0.2026
  186MPD1     H 2887   0.487   3.318  16.026  0.7313 -0.3754  0.2976
  186MPD1    H1 2888   0.563   2.968  16.270 -0.3913  1.5878  1.0037
  186MPD1    H2 2889   0.326   2.944  15.929  0.4226 -2.3035  2.3320
  186MPD1    H3 2890   0.437   2.837  16.112  3.7980 -0.0880 -0.6096
  186MPD1     N 2891   0.618   3.220  16.259  0.7210  0.0213 -0.1363
  186MPD1    H5 2892   0.642   3.167  16.342  1.1411  0.5121  0.0552
  186MPD1    N1 2893   0.315   3.208  15.881 -0.2644  0.2417  0.0882
  186MPD1    H6 2894   0.355   3.290  15.836 -1.9425  1.0153  0.0164
  186MPD1    H7 2895   0.282   3.142  15.810 -0.3665 -1.1039  1.3836
  187MPD1     C 2896   4.604   4.529   0.335  0.4717 -0.4410 -0.2393
  187MPD1    C1 2897   4.589   4.664   0.336 -0.3331  0.5184  0.9146
  187MPD1    C2 2898   4.555   4.723   0.214 -0.3697 -0.1568  0.7859
  187MPD1    C3 2899   4.569   4.656   0.092 -0.4635  0.9147  0.5779
  187MPD1    C4 2900   4.583   4.518   0.094 -0.1991  0.0964 -0.2891
  187MPD1    C5 2901   4.596   4.456   0.214  0.2886  0.5080  0.2016
  187MPD1     H 2902   4.524   0.091   0.217 -2.3365 -0.7525  1.2170
  187MPD1    H1 2903   4.563   4.466   0.001 -1.4797 -0.6431  0.3951
  187MPD1    H2 2904   4.626   4.475   0.426  1.3049 -1.8979 -1.2995
  187MPD1    H3 2905   4.621   4.351   0.217 -0.6093  0.2655 -1.1021
  187MPD1     N 2906   4.563   4.713  17.707  0.3875 -0.6606  0.4722
  187MPD1    H5 2907   4.569   4.640  17.636 -0.5075 -0.3864  0.1144
  187MPD1    N1 2908   4.561   4.732   0.454  0.0122 -0.7401 -0.2575
  187MPD1    H6 2909   4.587   0.094   0.459 -1.3959 -0.3605 -0.3276
  187MPD1    H7 2910   4.601   4.688   0.537 -0.9895  0.9342  1.1030
  188MPD1     C 2911   0.299   0.512  10.786 -0.5960  0.0474  0.5707
  188MPD1    C1 2912   0.390   0.407  10.811 -0.4369 -0.5636 -0.5804
  188MPD1    C2 2913   0.372   0.289  10.746 -0.3616  0.8057 -0.4292
  188MPD1    C3 2914   0.279   0.276  10.636 -0.2832  0.1285 -0.6713
  188MPD1    C4 2915   0.211   0.391  10.597 -0.2268 -0.8215 -0.6787
  188MPD1    C5 2916   0.213   0.504  10.679  0.2857  0.6947 -0.5849
  188MPD1     H 2917   0.436   0.206  10.774 -3.4380 -1.1304  0.8462
  188MPD1    H1 2918   0.127   0.387  10.528 -0.3595 -1.2096 -0.4912
  188MPD1    H2 2919   0.297   0.607  10.838  1.6150  1.0824 -1.2315
  188MPD1    H3 2920   0.135   0.577  10.659  0.6770  0.9377 -1.2327
  188MPD1     N 2921   0.259   0.157  10.563 -0.1812  0.0683  0.8645
  188MPD1    H5 2922   0.199   0.159  10.481 -0.3457 -2.4613  0.9264
  188MPD1    N1 2923   0.478   0.415  10.919 -0.1732 -0.2617  0.6808
  188MPD1    H6 2924   0.562   0.359  10.926 -0.4135 -0.8367 -1.0037
  188MPD1    H7 2925   0.514   0.507  10.942  0.2561 -0.5655  1.2282
  189MPD1     C 2926   1.453   1.119   0.533  0.0625  0.4094  1.2476
  189MPD1    C1 2927   1.331   1.084   0.580  0.5263 -0.5743  0.0176
  189MPD1    C2 2928   1.223   1.169   0.552  0.2574 -0.6559 -0.4288
  189MPD1    C3 2929   1.244   1.287   0.488  0.1593 -0.6719 -0.1242
  189MPD1    C4 2930   1.370   1.316   0.441 -0.1896 -0.3375 -0.9058
  189MPD1    C5 2931   1.475   1.238   0.469  0.4743 -0.0788 -0.6402
  189MPD1     H 2932   1.123   1.138   0.579  0.7877 -1.2248  0.9308
  189MPD1    H1 2933   1.400   1.410   0.397 -2.3084  1.9439  2.5599
  189MPD1    H2 2934   1.541   1.060   0.555 -0.1728 -0.2710  0.4010
  189MPD1    H3 2935   1.579   1.260   0.447  0.2884  1.3047 -0.1459
  189MPD1     N 2936   1.133   1.370   0.451 -0.3159  0.7154 -0.0586
  189MPD1    H5 2937   1.046   1.319   0.465  0.7058 -1.2958 -1.0345
  189MPD1    N1 2938   1.315   0.963   0.642  0.0133  0.6563  0.5650
  189MPD1    H6 2939   1.399   0.912   0.668 -0.3115 -1.0495 -1.7436
  189MPD1    H7 2940   1.256   0.973   0.724 -0.2933 -1.4264  0.5870
  190MPD1     C 2941   0.191   3.753  15.448  0.4846 -0.2063  0.1376
  190MPD1    C1 2942   0.245   3.772  15.573  0.9460 -0.3344  0.1257
  190MPD1    C2 2943   0.346   3.868  15.585  0.2526  0.0633  0.0821
  190MPD1    C3 2944   0.372   3.954  15.479 -0.8165  0.3270  0.4804
  190MPD1    C4 2945   0.295   3.951  15.361  0.3941 -0.1282 -0.1383
  190MPD1    C5 2946   0.212   3.847  15.348  0.4198 -0.1865 -0.7427
  190MPD1     H 2947   0.415   3.869  15.669  2.6123 -0.4337 -1.8829
  190MPD1    H1 2948   0.304   4.026  15.283 -1.0205 -1.0553 -1.1927
  190MPD1    H2 2949   0.115   3.677  15.434  0.0620  0.2179  0.1581
  190MPD1    H3 2950   0.167   3.836  15.250 -1.3615  0.9971 -0.0570
  190MPD1     N 2951   0.480   4.051  15.495 -0.1920  0.1817 -0.0610
  190MPD1    H5 2952   0.538   4.046  15.578  0.1904  2.9088 -0.1673
  190MPD1    N1 2953   0.237   3.666  15.665  0.2805  0.1750  0.2531
  190MPD1    H6 2954   0.149   3.617  15.649 -0.1168 -0.1532  3.3665
  190MPD1    H7 2955   0.241   3.696  15.762  0.0807  0.5341  0.1466
  191MPD1     C 2956   4.486   1.817  12.643  0.5098  0.2455 -0.5904
  191MPD1    C1 2957   4.621   1.830  12.654 -1.6630 -0.0900  0.6505
  191MPD1    C2 2958   4.688   1.860  12.530  0.2761 -0.4466 -0.3782
  191MPD1    C3 2959   4.626   1.857  12.408  0.0879 -0.2695  0.0429
  191MPD1    C4 2960   4.490   1.829  12.401  0.7539 -0.0164 -0.2267
  191MPD1    C5 2961   4.423   1.810  12.520 -0.2577 -0.9273 -0.8398
  191MPD1     H 2962   0.056   1.890  12.529  0.5311 -1.1485  2.8714
  191MPD1    H1 2963   4.430   1.819  12.312 -0.9919 -0.2404  0.9794
  191MPD1    H2 2964   4.428   1.816  12.734  1.3660 -2.4073 -0.0928
  191MPD1    H3 2965   4.316   1.799  12.516 -0.3123 -0.5354 -0.4929
  191MPD1     N 2966   4.708   1.888  12.291 -0.3349 -0.7081  0.7890
  191MPD1    H5 2967   0.070   1.914  12.301 -0.8219  1.1563  0.8062
  191MPD1    N1 2968   4.680   1.858  12.775  0.2681 -0.4929  0.1406
  191MPD1    H6 2969   4.643   1.813  12.859  1.8101 -0.2171  0.9676
  191MPD1    H7 2970   0.045   1.855  12.768  0.1586 -2.7702 -0.7104
  192MPD1     C 2971   4.417   1.910  11.335  0.3563  0.7571  0.4480
  192MPD1    C1 2972   4.485   2.024  11.352 -0.4438  0.7068  0.3211
  192MPD1    C2 2973   4.540   2.047  11.483 -0.6825 -0.5588 -0.1824
  192MPD1    C3 2974   4.533   1.952  11.582 -0.4176 -0.1599  0.1349
  192MPD1    C4 2975   4.459   1.837  11.554  0.1350 -0.0351  0.5623
  192MPD1    C5 2976   4.389   1.820  11.440 -0.5974  0.7976 -0.0543
  192MPD1     H 2977   4.584   2.145  11.500 -1.7331  0.6773 -4.4977
  192MPD1    H1 2978   4.439   1.754  11.621  2.1268 -0.1223  1.0539
  192MPD1    H2 2979   4.380   1.882  11.237 -1.6360  0.2742  1.3566
  192MPD1    H3 2980   4.333   1.728  11.434 -1.7360  1.6257 -2.1868
  192MPD1     N 2981   4.611   1.962  11.694  0.6225  0.0830 -0.2086
  192MPD1    H5 2982   4.612   1.877  11.749  0.8884  1.3679  1.7547
  192MPD1    N1 2983   4.462   2.126  11.265 -0.7865  0.4026 -0.1215
  192MPD1    H6 2984   4.528   2.203  11.278 -0.4061 -0.1861  1.5837
  192MPD1    H7 2985   4.434   2.102  11.171 -0.5030 -0.6384  0.0561
  193MPD1     C 2986   4.182   1.168  16.595 -0.3351 -0.0672 -0.3484
  193MPD1    C1 2987   4.098   1.262  16.535 -0.2692  0.0891 -0.6232
  193MPD1    C2 2988   4.097   1.388  16.586 -1.0014 -0.0208  0.2719
  193MPD1    C3 2989   4.196   1.436  16.677 -0.0200  0.1416 -0.1431
  193MPD1    C4 2990   4.275   1.341  16.726 -0.5844 -0.2769 -0.3575
  193MPD1    C5 2991   4.263   1.206  16.696  0.7120  0.7466 -0.0608
  193MPD1     H 2992   4.026   1.459  16.546 -1.7680 -1.3596 -0.7621
  193MPD1    H1 2993   4.343   1.375  16.803 -0.4755 -1.4294  0.0530
  193MPD1    H2 2994   4.183   1.064  16.563  0.0287  0.1466 -1.0338
  193MPD1    H3 2995   4.325   1.128  16.739 -2.1025 -1.2963  0.3019
  193MPD1     N 2996   4.220   1.565  16.724  0.2348  0.3901  0.0271
  193MPD1    H5 2997   4.307   1.585  16.771 -0.3871 -1.2068  1.8629
  193MPD1    N1 2998   4.003   1.218  16.439  0.2116 -0.5284 -0.4246
  193MPD1    H6 2999   4.029   1.136  16.384  1.5761 -0.0850 -0.4217
  193MPD1    H7 3000   3.969   1.293  16.378 -1.2260 -1.1067 -0.3417
  194MPD1     C 3001   1.637   3.752  16.635 -0.3268  0.6237 -0.5731
  194MPD1    C1 3002   1.619   3.616  16.639  0.3879 -0.0900 -0.6839
  194MPD1    C2 3003   1.650   3.554  16.761  0.0332 -0.1307  0.5334
  194MPD1    C3 3004   1.675   3.630  16.876 -0.2752 -0.4153  0.3089
  194MPD1    C4 3005   1.676   3.763  16.873 -0.1033 -0.3680  0.4120
  194MPD1    C5 3006   1.647   3.822  16.754  0.0707  0.5438  0.1274
  194MPD1     H 3007   1.644   3.446  16.757 -0.9096 -0.0481 -0.5317
  194MPD1    H1 3008   1.683   3.825  16.962  1.1072 -0.9541  0.7257
  194MPD1    H2 3009   1.610   3.809  16.547 -0.7134  2.0207  0.4557
  194MPD1    H3 3010   1.634   3.928  16.738 -3.0268  0.0400 -0.5917
  194MPD1     N 3011   1.695   3.563  16.998 -0.0964 -0.1434  0.2938
  194MPD1    H5 3012   1.702   3.626  17.077 -0.0044  2.0230 -1.4477
  194MPD1    N1 3013   1.576   3.541  16.522  0.6638  0.4937 -0.1121
  194MPD1    H6 3014   1.504   3.582  16.463  0.5453 -0.8818 -0.9332
  194MPD1    H7 3015   1.529   3.453  16.545 -0.3310  0.6890 -1.3873
  195MPD1     C 3016   4.352   4.395   1.726  0.6362 -0.5670 -0.2385
  195MPD1    C1 3017   4.372   4.525   1.692  0.0707 -0.4782 -0.3083
  195MPD1    C2 3018   4.416   4.541   1.563 -1.0806 -0.1475  0.0735
  195MPD1    C3 3019   4.424   4.438   1.469  0.3819  0.2232  0.1043
  195MPD1    C4 3020   4.414   4.314   1.505 -0.4864 -0.3440  0.7344
  195MPD1    C5 3021   4.362   4.297   1.633  0.8567 -0.1694  0.4154
  195MPD1     H 3022   4.425   4.645   1.535  2.7271 -0.3784  0.5251
  195MPD1    H1 3023   4.421   4.235   1.431 -2.1740  0.3017 -0.1165
  195MPD1    H2 3024   4.313   4.378   1.826 -1.0469  1.2380 -0.5932
  195MPD1    H3 3025   4.349   4.198   1.675  0.0510 -0.7532 -1.2260
  195MPD1     N 3026   4.446   4.453   1.325 -0.4904  0.4075 -0.4586
  195MPD1    H5 3027   4.426   4.375   1.262 -0.5533 -0.3270  0.4715
  195MPD1    N1 3028   4.361   4.630   1.791  0.4040 -0.4139 -0.4291
  195MPD1    H6 3029   4.369   4.725   1.754  2.2021 -1.3612 -2.3995
  195MPD1    H7 3030   4.280   4.626   1.853  1.5073 -3.3257  0.8305
  196MPD1     C 3031   3.622   0.019   0.097 -0.2636  0.1829 -0.3030
  196MPD1    C1 3032   3.548   0.004   0.211 -0.0097 -0.0692 -0.2757
  196MPD1    C2 3033   3.577   0.088   0.315 -0.1077 -0.1342 -0.6899
  196MPD1    C3 3034   3.696   0.165   0.303  0.5820 -0.1310  0.3951
  196MPD1    C4 3035   3.774   0.163   0.193  0.8761 -0.6820 -0.1300
  196MPD1    C5 3036   3.733   0.096   0.081 -0.1007 -0.8119 -0.1044
  196MPD1     H 3037   3.514   0.087   0.403 -2.0514 -0.8826 -2.1020
  196MPD1    H1 3038   3.869   0.213   0.182 -0.1365  1.3656  0.3823
  196MPD1    H2 3039   3.594   4.701   0.007 -0.1589 -1.8400  0.8618
  196MPD1    H3 3040   3.798   0.104  17.737  0.6238  1.1652  0.6380
  196MPD1     N 3041   3.739   0.242   0.419  0.4310 -0.7070 -0.0405
  196MPD1    H5 3042   3.824   0.296   0.411 -0.4078  0.4144 -1.3357
  196MPD1    N1 3043   3.436   4.653   0.210 -0.2686 -0.1079 -0.0532
  196MPD1    H6 3044   3.424   4.623   0.307 -0.1604  1.0227  0.3102
  196MPD1    H7 3045   3.461   4.567   0.161 -2.3873 -0.7112 -0.0716
  197MPD1     C 3046   2.900   1.458  17.381 -0.6513 -0.3699 -0.7581
  197MPD1    C1 3047   2.960   1.577  17.421  0.4854 -0.5739 -0.6014
  197MPD1    C2 3048   2.935   1.689  17.342 -0.1661 -0.5446  0.3983
  197MPD1    C3 3049   2.866   1.687  17.222  0.0147  0.3996  0.0148
  197MPD1    C4 3050   2.819   1.562  17.190 -0.6925 -0.1929 -0.0025
  197MPD1    C5 3051   2.841   1.451  17.264 -0.0620  0.0600  0.4140
  197MPD1     H 3052   2.977   1.784  17.370 -1.4501  0.2557 -0.3997
  197MPD1    H1 3053   2.761   1.549  17.099  0.4407 -0.4275 -0.6955
  197MPD1    H2 3054   2.920   1.366  17.436 -1.1189  0.0031  0.0411
  197MPD1    H3 3055   2.816   1.349  17.234  0.6420 -0.2429  0.8572
  197MPD1     N 3056   2.844   1.798  17.135 -0.1623 -0.1266  0.7243
  197MPD1    H5 3057   2.809   1.773  17.043 -1.2870  0.2127  1.0658
  197MPD1    N1 3058   3.031   1.594  17.543  0.1653  0.1141  0.5995
  197MPD1    H6 3059   3.087   1.509  17.555  0.6614  0.3696  0.1119
  197MPD1    H7 3060   3.098   1.669  17.528  0.1128 -0.1034 -0.7887
  198MPD1     C 3061   0.140   0.406  15.959  0.1797  0.1350 -0.1500
  198MPD1    C1 3062   0.223   0.481  15.875  0.7675 -0.2517  0.4706
  198MPD1    C2 3063   0.325   0.548  15.943  0.0003  0.6523 -0.1697
  198MPD1    C3 3064   0.350   0.539  16.077  0.2528  0.3161  0.3624
  198MPD1    C4 3065   0.275   0.456  16.151 -0.3674  0.7063 -0.0460
  198MPD1    C5 3066   0.171   0.394  16.093 -0.5691 -0.5436 -0.4962
  198MPD1     H 3067   0.384   0.605  15.872 -0.5842 -0.2613 -1.3895
  198MPD1    H1 3068   0.297   0.445  16.257  0.5807  2.5027 -0.0357
  198MPD1    H2 3069   0.049   0.355  15.928  0.9394 -0.8382 -0.7986
  198MPD1    H3 3070   0.110   0.333  16.159 -0.8923 -0.1847 -0.4613
  198MPD1     N 3071   0.459   0.613  16.131 -0.1040 -0.5814  0.2331
  198MPD1    H5 3072   0.524   0.645  16.061  1.1378  1.7643  2.4589
  198MPD1    N1 3073   0.194   0.491  15.740  0.1526 -0.0746  0.2344
  198MPD1    H6 3074   0.276   0.502  15.681  0.3682 -0.1393  0.5227
  198MPD1    H7 3075   0.144   0.409  15.707 -1.3363  1.3545 -1.1093
  199MPD1     C 3076   3.109   1.593  10.197 -0.9107 -0.3168  0.0703
  199MPD1    C1 3077   3.118   1.732  10.189  0.5750 -0.3486 -0.7222
  199MPD1    C2 3078   3.004   1.805  10.159  0.0934 -0.6680  0.8765
  199MPD1    C3 3079   2.880   1.745  10.155 -0.4848  0.0924  0.5564
  199MPD1    C4 3080   2.868   1.616  10.187  0.2719 -0.0675 -0.1126
  199MPD1    C5 3081   2.978   1.535  10.200  0.0793  0.1364  0.5035
  199MPD1     H 3082   3.027   1.904  10.121  0.8304 -1.3716 -0.5297
  199MPD1    H1 3083   2.771   1.569  10.193 -0.6692  1.9276  0.3496
  199MPD1    H2 3084   3.194   1.528  10.216 -0.9824  0.2596  2.3124
  199MPD1    H3 3085   2.953   1.434  10.230 -0.3282  0.2562  0.5607
  199MPD1     N 3086   2.764   1.824  10.120 -0.5400 -0.2331 -1.3668
  199MPD1    H5 3087   2.678   1.776  10.099  0.0139 -1.5150 -0.7222
  199MPD1    N1 3088   3.250   1.783  10.171 -0.7585  0.2244  0.0279
  199MPD1    H6 3089   3.250   1.879  10.205 -1.2362  0.2111  0.0593
  199MPD1    H7 3090   3.328   1.737  10.219 -0.5120  1.2650  0.6151
  200MPD1     C 3091   1.585   1.817  16.004 -0.0050  0.8807  0.6337
  200MPD1    C1 3092   1.560   1.938  15.949 -0.7408 -0.8732  0.1896
  200MPD1    C2 3093   1.530   1.955  15.815  0.7962  0.1153  0.2785
  200MPD1    C3 3094   1.533   1.842  15.735  0.1047  0.2904 -0.2992
  200MPD1    C4 3095   1.558   1.719  15.789  0.1398 -0.2431  0.0379
  200MPD1    C5 3096   1.572   1.710  15.924 -0.8058  0.0556 -0.0396
  200MPD1     H 3097   1.500   2.053  15.778 -0.7850 -0.2917  0.4730
  200MPD1    H1 3098   1.579   1.627  15.735  1.7023 -0.3873  0.8780
  200MPD1    H2 3099   1.619   1.808  16.107  1.5483  1.2707  0.1459
  200MPD1    H3 3100   1.597   1.611  15.962 -1.0304 -0.0311 -0.1213
  200MPD1     N 3101   1.513   1.866  15.599 -0.0133 -0.1786 -0.5596
  200MPD1    H5 3102   1.513   1.961  15.565  0.1599  0.7613  2.0575
  200MPD1    N1 3103   1.578   2.047  16.029  0.4201  0.8517  0.6014
  200MPD1    H6 3104   1.523   2.128  16.002 -0.7919  0.4857  1.9686
  200MPD1    H7 3105   1.555   2.027  16.126 -1.7957  0.5759  0.0049
  201MPD1     C 3106   3.318   0.971  14.027  0.1247 -0.9360 -0.1427
  201MPD1    C1 3107   3.453   0.969  13.995  0.1193  0.5559 -0.1157
  201MPD1    C2 3108   3.501   0.862  13.929  0.4437 -0.1269  0.2113
  201MPD1    C3 3109   3.429   0.741  13.938 -0.1672  0.2479 -0.2962
  201MPD1    C4 3110   3.299   0.737  13.989 -0.2152 -0.8987 -0.4089
  201MPD1    C5 3111   3.247   0.854  14.038 -0.7235 -0.2356 -0.0460
  201MPD1     H 3112   3.598   0.866  13.883 -1.5522  1.0403 -3.9127
  201MPD1    H1 3113   3.243   0.644  13.993  1.6879 -2.0102  0.4843
  201MPD1    H2 3114   3.265   1.058  14.063  4.1744  2.0664 -1.4004
  201MPD1    H3 3115   3.145   0.856  14.074 -0.1882  2.2929  1.3367
  201MPD1     N 3116   3.494   0.626  13.892 -0.0960 -0.3781  0.2223
  201MPD1    H5 3117   3.576   0.639  13.834  1.4666  0.8704  2.7095
  201MPD1    N1 3118   3.507   1.091  13.970  0.5008 -0.4363  0.3324
  201MPD1    H6 3119   3.608   1.089  13.963  0.4816  1.7673 -0.7252
  201MPD1    H7 3120   3.482   1.161  14.039  0.1412 -0.8597  0.6320
  202MPD1     C 3121   3.590   0.183   9.540 -1.1455  0.3521  0.2491
  202MPD1    C1 3122   3.531   0.232   9.648  0.1713  0.4629 -0.2862
  202MPD1    C2 3123   3.613   0.288   9.740 -0.4817  0.2886 -0.2173
  202MPD1    C3 3124   3.747   0.254   9.746  0.1336  0.0557 -0.0587
  202MPD1    C4 3125   3.802   0.181   9.643  0.1307 -0.5530  0.6535
  202MPD1    C5 3126   3.717   0.139   9.545  0.2298 -0.1847  0.4715
  202MPD1     H 3127   3.571   0.343   9.822  0.7412  1.8273 -0.6276
  202MPD1    H1 3128   3.906   0.153   9.645  0.6187  1.3565  1.3958
  202MPD1    H2 3129   3.539   0.155   9.449 -0.0148  0.3369 -0.3851
  202MPD1    H3 3130   3.753   0.087   9.457  0.8215 -0.0447  0.6360
  202MPD1     N 3131   3.829   0.299   9.850  0.2804  0.1619  0.1983
  202MPD1    H5 3132   3.923   0.263   9.842  0.8985  1.8409  0.0412
  202MPD1    N1 3133   3.407   0.293   9.630  0.1073  0.1116  0.6503
  202MPD1    H6 3134   3.339   0.243   9.573 -0.1705 -0.6007  1.6181
  202MPD1    H7 3135   3.361   0.288   9.720 -1.8575  3.4339 -0.1948
  203MPD1     C 3136   2.539   1.822  12.815 -0.2714  0.0028  0.0762
  203MPD1    C1 3137   2.538   1.706  12.741 -0.5021  0.7369  0.1812
  203MPD1    C2 3138   2.552   1.587  12.799 -0.1136  0.2051 -0.5935
  203MPD1    C3 3139   2.588   1.572  12.934  0.0758 -0.8459  0.4916
  203MPD1    C4 3140   2.610   1.686  13.012 -0.8637 -0.6178  0.0981
  203MPD1    C5 3141   2.582   1.807  12.949 -0.0931  0.4347  0.2503
  203MPD1     H 3142   2.539   1.505  12.729 -0.0281  0.1442 -0.5376
  203MPD1    H1 3143   2.660   1.688  13.109 -0.2503 -0.6902 -0.2182
  203MPD1    H2 3144   2.519   1.922  12.776 -0.5129  0.4550  1.3530
  203MPD1    H3 3145   2.608   1.889  13.015  2.1071  0.1636 -0.2988
  203MPD1     N 3146   2.625   1.444  12.980 -0.2232 -0.2914  0.1821
  203MPD1    H5 3147   2.640   1.364  12.920  3.9876 -0.1833  1.1325
  203MPD1    N1 3148   2.490   1.712  12.608 -0.1182 -0.4256 -0.1247
  203MPD1    H6 3149   2.512   1.623  12.564 -0.7474  0.3941 -2.1101
  203MPD1    H7 3150   2.551   1.784  12.568  0.3169 -0.1357  1.0514
  204MPD1     C 3151   1.520   2.719  17.622  0.7437 -0.1796 -0.9506
  204MPD1    C1 3152   1.608   2.702  17.517 -0.4426 -0.4360  0.4809
  204MPD1    C2 3153   1.660   2.578  17.486 -0.0491  0.5267 -0.0951
  204MPD1    C3 3154   1.626   2.469  17.562 -0.2550  0.8388 -0.5034
  204MPD1    C4 3155   1.533   2.484  17.665 -0.7136 -0.0562 -0.3103
  204MPD1    C5 3156   1.480   2.606  17.688 -0.2792  0.2796 -0.3984
  204MPD1     H 3157   1.731   2.578  17.404  0.3630 -1.6843  0.2775
  204MPD1    H1 3158   1.490   2.399  17.717 -1.0309 -0.7236 -1.6512
  204MPD1    H2 3159   1.477   2.816  17.641 -0.2298 -0.9025  0.5357
  204MPD1    H3 3160   1.413   2.607   0.031  0.2953 -4.5942  0.1463
  204MPD1     N 3161   1.668   2.348  17.520 -0.1083  0.1444  0.6159
  204MPD1    H5 3162   1.743   2.359  17.452 -0.5445 -1.8683 -0.1940
  204MPD1    N1 3163   1.661   2.812  17.449  0.3987  0.0701  0.4579
  204MPD1    H6 3164   1.585   2.880  17.459 -1.0090 -1.2703 -1.1065
  204MPD1    H7 3165   1.678   2.793  17.350  0.5914  1.9725  0.1227
  205MPD1     C 3166   0.936   0.848  17.562  0.2928 -0.2119 -0.1316
  205MPD1    C1 3167   1.018   0.740  17.572 -0.2119 -0.2335 -0.4863
  205MPD1    C2 3168   1.151   0.769  17.572  0.2127 -0.3807  0.2018
  205MPD1    C3 3169   1.204   0.891  17.611  0.0726  0.1024  0.2925
  205MPD1    C4 3170   1.115   0.996  17.618  0.1601 -0.0362 -0.5744
  205MPD1    C5 3171   0.981   0.969  17.597  0.3836 -0.3028 -0.6445
  205MPD1     H 3172   1.221   0.689  17.551  1.7767  0.4197  2.3768
  205MPD1    H1 3173   1.140   1.100  17.636 -0.7611  0.2146 -0.7360
  205MPD1    H2 3174   0.832   0.845  17.532  0.2578 -0.5721  0.0226
  205MPD1    H3 3175   0.921   1.058  17.588 -0.0005 -0.4946  0.0182
  205MPD1     N 3176   1.343   0.928  17.603 -0.2683  0.9020 -0.0155
  205MPD1    H5 3177   1.364   1.026  17.595  0.6355  0.6348 -0.8840
  205MPD1    N1 3178   0.971   0.614  17.532  0.4797  0.0494  0.0940
  205MPD1    H6 3179   0.872   0.600  17.553 -0.1102 -0.1922 -2.7915
  205MPD1    H7 3180   1.029   0.545  17.579  1.1530 -0.6549 -1.7540
  206MPD1     C 3181   2.302   2.925  17.363 -0.3178  0.2847  0.0758
  206MPD1    C1 3182   2.273   3.055  17.389 -0.1721 -0.0331 -0.0116
  206MPD1    C2 3183   2.223   3.130  17.286 -0.0648  0.4883 -0.2823
  206MPD1    C3 3184   2.212   3.075  17.162 -0.0793 -0.2676 -0.0288
  206MPD1    C4 3185   2.224   2.939  17.141 -0.0724 -0.2836  0.4591
  206MPD1    C5 3186   2.275   2.866  17.239 -0.1897 -0.6498 -0.3264
  206MPD1     H 3187   2.196   3.233  17.304  1.4948  0.3141  2.9604
  206MPD1    H1 3188   2.217   2.886  17.046 -1.6677 -1.0366  0.9971
  206MPD1    H2 3189   2.342   2.862  17.442 -2.1272 -0.3775  0.4621
  206MPD1    H3 3190   2.284   2.758  17.231  0.4222 -0.6448  0.2637
  206MPD1     N 3191   2.165   3.148  17.050 -0.4083  0.3685 -0.4277
  206MPD1    H5 3192   2.153   3.093  16.965  1.4913 -2.0489  0.8817
  206MPD1    N1 3193   2.268   3.106  17.525  0.1319 -0.3236  0.0533
  206MPD1    H6 3194   2.300   3.202  17.519 -1.5108  0.1936 -0.3852
  206MPD1    H7 3195   2.340   3.056  17.576  1.5164  1.9524  0.2919
  207MPD1     C 3196   4.642   1.139  10.073  0.8371 -0.3273 -0.4024
  207MPD1    C1 3197   4.650   1.272  10.085  0.3114 -0.2105  0.7164
  207MPD1    C2 3198   4.715   1.328  10.193  0.6979 -0.4558  0.0158
  207MPD1    C3 3199   0.024   1.246  10.295 -0.3705 -0.5082  0.5166
  207MPD1    C4 3200   0.007   1.111  10.286  0.0385 -0.8243 -0.3569
  207MPD1    C5 3201   4.687   1.058  10.172 -0.6466 -0.1353  0.0843
  207MPD1     H 3202   4.725   1.436  10.203  1.6640 -0.2647 -3.0921
  207MPD1    H1 3203   0.028   1.052  10.374  1.0688 -0.7451 -0.5467
  207MPD1    H2 3204   4.588   1.095   9.990 -0.1099  0.7107 -0.3329
  207MPD1    H3 3205   4.667   0.953  10.161  0.5702 -0.2503 -1.0915
  207MPD1     N 3206   0.105   1.285  10.401  0.3513 -0.0805  0.2281
  207MPD1    H5 3207   0.146   1.213  10.460  1.8338  1.1420  0.6883
  207MPD1    N1 3208   4.608   1.352   9.974  0.0350  0.1956  0.3725
  207MPD1    H6 3209   4.528   1.314   9.923  0.6510 -0.3593 -0.1798
  207MPD1    H7 3210   4.565   1.438  10.008  0.7692  1.6975 -2.4661
  208MPD1     C 3211   3.453   1.146  17.009 -0.7045 -0.7423  0.1501
  208MPD1    C1 3212   3.466   1.050  17.111  0.3675  0.1294  0.2750
  208MPD1    C2 3213   3.359   0.977  17.143 -0.2367 -0.8902 -0.0379
  208MPD1    C3 3214   3.252   0.965  17.059  0.5665 -0.1826 -0.0373
  208MPD1    C4 3215   3.251   1.046  16.943 -0.4913 -0.0630 -0.9215
  208MPD1    C5 3216   3.349   1.135  16.923 -0.3592 -0.7753  0.1622
  208MPD1     H 3217   3.371   0.921  17.235  0.9526  2.8549  2.0750
  208MPD1    H1 3218   3.162   1.048  16.880 -1.9635  2.4020  1.2518
  208MPD1    H2 3219   3.528   1.222  16.992 -0.8454 -0.4954  0.6409
  208MPD1    H3 3220   3.338   1.196  16.835  0.5196 -0.7936  0.0407
  208MPD1     N 3221   3.142   0.881  17.103 -0.3395  0.4647  0.2766
  208MPD1    H5 3222   3.156   0.817  17.180 -0.5385  0.1543  0.0545
  208MPD1    N1 3223   3.579   1.052  17.189 -0.0895 -0.0761 -0.3565
  208MPD1    H6 3224   3.652   1.090  17.130  0.2708 -2.3502 -1.3541
  208MPD1    H7 3225   3.610   0.966  17.234 -0.3391 -0.4089 -0.8247
  209MPD1     C 3226   0.132   0.363  11.772 -0.1195 -0.4330  0.3071
  209MPD1    C1 3227   0.048   0.433  11.689  0.1194 -0.3240  0.1210
  209MPD1    C2 3228   0.085   0.566  11.664  0.2010  0.3881 -0.3873
  209MPD1    C3 3229   0.183   0.633  11.736 -0.1559  0.3271  0.3864
  209MPD1    C4 3230   0.244   0.562  11.842 -0.1502 -0.8373 -0.4335
  209MPD1    C5 3231   0.219   0.430  11.856  0.4880  0.0044  0.4893
  209MPD1     H 3232   0.010   0.626  11.612  0.7839 -0.5375 -2.2809
  209MPD1    H1 3233   0.326   0.604  11.899 -0.7119  0.5722 -0.6389
  209MPD1    H2 3234   0.113   0.261  11.803 -0.3161 -0.9583 -1.5606
  209MPD1    H3 3235   0.273   0.385  11.939 -2.5141 -1.3507  1.7285
  209MPD1     N 3236   0.221   0.764  11.698  0.4874  0.7288 -0.3379
  209MPD1    H5 3237   0.176   0.809  11.618  1.4287  0.1535 -1.1774
  209MPD1    N1 3238   4.686   0.376  11.606  0.6702 -0.2781  0.4098
  209MPD1    H6 3239   4.628   0.301  11.642 -0.7473  1.3232  1.4954
  209MPD1    H7 3240   4.628   0.450  11.566 -1.3565 -1.2337  1.5857
  210MPD1     C 3241   0.878   1.588  11.879 -0.2016 -0.8177 -0.2486
  210MPD1    C1 3242   0.881   1.452  11.915  0.2076 -0.5271  0.3130
  210MPD1    C2 3243   0.812   1.361  11.844 -0.2100 -0.0877 -0.3760
  210MPD1    C3 3244   0.737   1.400  11.739  0.4803  0.0289 -0.5274
  210MPD1    C4 3245   0.727   1.535  11.699  0.1413  0.1579  0.3059
  210MPD1    C5 3246   0.804   1.625  11.771  0.5856 -0.1568  0.0779
  210MPD1     H 3247   0.815   1.255  11.869  0.8643  0.0641  0.1573
  210MPD1    H1 3248   0.664   1.559  11.614  0.6929  0.1629 -0.0998
  210MPD1    H2 3249   0.933   1.665  11.931 -0.1520 -1.8582  1.2461
  210MPD1    H3 3250   0.811   1.730  11.743  0.1204  0.5943  2.8091
  210MPD1     N 3251   0.647   1.310  11.675  0.0752 -0.0347 -0.3062
  210MPD1    H5 3252   0.583   1.349  11.606  0.9102  1.1188 -0.4391
  210MPD1    N1 3253   0.933   1.412  12.043  0.0249 -0.1303  0.3856
  210MPD1    H6 3254   0.947   1.312  12.053  1.7701  0.1393  0.7311
  210MPD1    H7 3255   1.022   1.457  12.063 -1.1793  1.6966  1.6515
  211MPD1     C 3256   2.407   0.819  16.107 -0.4175 -0.2619  1.1730
  211MPD1    C1 3257   2.416   0.917  16.208  0.0091  0.2174  0.0393
  211MPD1    C2 3258   2.299   0.987  16.238  0.9078 -0.2057 -0.6647
  211MPD1    C3 3259   2.183   0.972  16.165 -0.4814  0.4046 -0.4628
  211MPD1    C4 3260   2.171   0.869  16.073  0.5760 -0.7246 -0.0775
  211MPD1    C5 3261   2.282   0.790  16.049 -0.2976 -0.1972 -0.8914
  211MPD1     H 3262   2.309   1.075  16.300  0.2173 -0.8215  0.3051
  211MPD1    H1 3263   2.084   0.837  16.017 -1.7867 -0.5399  3.5120
  211MPD1    H2 3264   2.500   0.773  16.074 -0.4997 -0.2470  0.9144
  211MPD1    H3 3265   2.273   0.706  15.981 -0.3434 -1.3029  0.4852
  211MPD1     N 3266   2.087   1.078  16.181  0.1554 -0.8303 -0.4534
  211MPD1    H5 3267   2.114   1.163  16.229  1.7651 -1.7742  0.3146
  211MPD1    N1 3268   2.535   0.955  16.261  0.3187  0.6930 -0.0592
  211MPD1    H6 3269   2.583   1.022  16.201  0.0319  1.0753  0.1418
  211MPD1    H7 3270   2.512   1.011  16.343 -0.9582  1.0888 -0.6930
  212MPD1     C 3271   1.286   4.384  16.947  0.0194 -0.5123  0.1959
  212MPD1    C1 3272   1.223   4.278  16.890  0.5557  0.7616  0.7363
  212MPD1    C2 3273   1.263   4.144  16.929 -0.2946  0.1889 -0.2392
  212MPD1    C3 3274   1.356   4.122  17.031  0.1287  0.3841 -0.0573
  212MPD1    C4 3275   1.406   4.231  17.093  0.6772  0.2768  0.5765
  212MPD1    C5 3276   1.374   4.358  17.046  0.3085  0.5594  0.0951
  212MPD1     H 3277   1.221   4.057  16.880 -1.7586  0.7202  0.0790
  212MPD1    H1 3278   1.476   4.222  17.176  0.8590 -1.4527  0.2248
  212MPD1    H2 3279   1.276   4.485  16.907  1.6544 -0.4193  0.0091
  212MPD1    H3 3280   1.432   4.439  17.087  1.1544  0.0237 -0.0393
  212MPD1     N 3281   1.393   3.996  17.081 -0.1991 -0.2956  0.7823
  212MPD1    H5 3282   1.465   3.999  17.152 -0.1633 -0.1833  0.7401
  212MPD1    N1 3283   1.140   4.292  16.780 -0.1770  0.0454  0.0899
  212MPD1    H6 3284   1.075   4.214  16.767 -1.0138  0.7933 -0.2078
  212MPD1    H7 3285   1.094   4.383  16.783  0.5465  0.4292 -0.4321
  213MPD1     C 3286   4.585   4.267  16.024  0.5057  0.2815 -0.7839
  213MPD1    C1 3287   4.495   4.192  15.950  0.0151  0.1036  0.6803
  213MPD1    C2 3288   4.422   4.258  15.854  0.2140 -0.5785  0.3659
  213MPD1    C3 3289   4.462   4.377  15.803  0.3434 -0.1464  0.4510
  213MPD1    C4 3290   4.559   4.445  15.866 -0.4565 -0.3354 -0.4399
  213MPD1    C5 3291   4.620   4.394  15.977  1.0578  0.0233 -0.1668
  213MPD1     H 3292   4.340   4.215  15.797 -0.8054 -0.3194  1.6241
  213MPD1    H1 3293   4.590   4.541  15.827 -0.3688 -1.0227 -2.0438
  213MPD1    H2 3294   4.654   4.238  16.103  0.8646  0.9906 -0.8356
  213MPD1    H3 3295   4.693   4.457  16.027  1.8153 -0.2868 -0.8881
  213MPD1     N 3296   4.390   4.425  15.689  0.3068  0.2364  0.2875
  213MPD1    H5 3297   4.318   4.362  15.653 -1.1949  2.0434  0.1454
  213MPD1    N1 3298   4.451   4.079  16.019 -0.0236  0.1951  0.0014
  213MPD1    H6 3299   4.528   4.035  16.069 -0.2062  0.8212  0.8260
  213MPD1    H7 3300   4.400   4.020  15.953 -1.2435 -1.0766  2.0843
  214MPD1     C 3301   3.872   4.087  14.934  0.5519 -0.3381 -0.1187
  214MPD1    C1 3302   3.830   4.108  15.070 -0.6549  0.5807 -0.2812
  214MPD1    C2 3303   3.892   4.206  15.139  0.4997 -0.0611  0.5464
  214MPD1    C3 3304   4.001   4.281  15.089 -0.4915 -0.5533  0.1271
  214MPD1    C4 3305   4.040   4.260  14.956 -0.4141  0.3943  0.1618
  214MPD1    C5 3306   3.976   4.164  14.881 -0.5666 -0.0658 -1.0695
  214MPD1     H 3307   3.861   4.221  15.242 -0.2551  1.4001  0.1013
  214MPD1    H1 3308   4.114   4.324  14.909  2.4213 -1.3797  2.2858
  214MPD1    H2 3309   3.832   4.007  14.872 -0.8028  2.4584 -2.8140
  214MPD1    H3 3310   4.001   4.145  14.778 -0.3599 -3.0448 -0.4566
  214MPD1     N 3311   4.079   4.376  15.161  0.1843 -0.4513  0.5597
  214MPD1    H5 3312   4.160   4.416  15.116 -0.2578  0.0982  0.2599
  214MPD1    N1 3313   3.711   4.049  15.122  0.3667 -0.9280 -0.1617
  214MPD1    H6 3314   3.711   4.050  15.224 -0.2512  1.4940 -0.1727
  214MPD1    H7 3315   3.702   3.955  15.084 -1.6900  0.2473 -2.6447
  215MPD1     C 3316   4.075   1.465  12.057 -0.8617  0.1297 -0.9147
  215MPD1    C1 3317   4.135   1.353  12.098  0.7874 -0.0344 -0.7934
  215MPD1    C2 3318   4.251   1.317  12.028 -0.4695 -0.0791  0.9958
  215MPD1    C3 3319   4.288   1.376  11.909 -0.4410  0.1137  0.6074
  215MPD1    C4 3320   4.222   1.487  11.861 -0.7358  0.2276  0.4261
  215MPD1    C5 3321   4.113   1.524  11.935 -0.7994 -0.7275  0.0409
  215MPD1     H 3322   4.313   1.241  12.074 -0.2141 -1.2097 -1.1807
  215MPD1    H1 3323   4.247   1.538  11.768  0.5651  0.8693  1.1274
  215MPD1    H2 3324   4.002   1.509  12.124  1.0358  0.5557  0.8761
  215MPD1    H3 3325   4.047   1.600  11.895  0.0398 -0.7099 -1.2945
  215MPD1     N 3326   4.405   1.325  11.840  0.0064 -0.0033 -0.1738
  215MPD1    H5 3327   4.456   1.248  11.882 -0.0440 -0.6957 -1.3990
  215MPD1    N1 3328   4.117   1.316  12.236  0.1018 -0.5877  0.1740
  215MPD1    H6 3329   4.028   1.343  12.276  0.0193 -0.0574 -0.3537
  215MPD1    H7 3330   4.137   1.218  12.254 -1.3990 -1.4747 -2.9323
  216MPD1     C 3331   1.939   3.943  17.700 -0.1497 -0.4031 -0.2316
  216MPD1    C1 3332   1.890   3.884   0.076  0.2368  0.4561 -0.1313
  216MPD1    C2 3333   1.793   3.782   0.070 -0.6000  0.0289 -0.1655
  216MPD1    C3 3334   1.759   3.725  17.687  0.7655 -0.2005 -0.8192
  216MPD1    C4 3335   1.813   3.775  17.572  0.2090 -0.0554 -0.1367
  216MPD1    C5 3336   1.894   3.890  17.586  0.1049 -0.0732  0.2118
  216MPD1     H 3337   1.747   3.753   0.164  1.7301  0.9356  1.2469
  216MPD1    H1 3338   1.792   3.745  17.470  1.0325  0.8503 -0.5717
  216MPD1    H2 3339   1.996   4.035  17.691 -2.4247  0.6583 -3.5727
  216MPD1    H3 3340   1.925   3.934  17.492 -2.3292  1.4091  0.0862
  216MPD1     N 3341   1.660   3.625  17.684  0.4903  0.3719  0.5158
  216MPD1    H5 3342   1.619   3.585   0.025  0.2010 -0.2985  0.0560
  216MPD1    N1 3343   1.917   3.949   0.201  0.2561 -0.4152 -0.3408
  216MPD1    H6 3344   2.013   3.980   0.215  0.1000 -0.5952  1.1436
  216MPD1    H7 3345   1.892   3.884   0.275 -1.1695 -0.8644 -1.1970
  217MPD1     C 3346   2.505   4.519   9.395  0.0051  0.3469  0.7779
  217MPD1    C1 3347   2.429   4.628   9.363 -0.1765 -0.1727  0.3789
  217MPD1    C2 3348   2.459   0.013   9.430  1.0010  0.5610 -0.4418
  217MPD1    C3 3349   2.573   0.019   9.515  0.1042 -0.7605 -0.0988
  217MPD1    C4 3350   2.641   4.642   9.547  0.4753  0.1016 -0.3487
  217MPD1    C5 3351   2.602   4.530   9.487  0.2278 -0.2127  0.0749
  217MPD1     H 3352   2.399   0.101   9.409  0.5030  0.1473 -0.7502
  217MPD1    H1 3353   2.722   4.626   9.616  1.5417 -0.0541 -1.6345
  217MPD1    H2 3354   2.492   4.423   9.346  2.1809  2.8426 -4.7678
  217MPD1    H3 3355   2.662   4.443   9.510 -0.3562 -0.5107  0.4672
  217MPD1     N 3356   2.611   0.134   9.591 -0.2318 -0.7760 -0.3687
  217MPD1    H5 3357   2.691   0.119   9.652  0.1784  0.9734 -0.4864
  217MPD1    N1 3358   2.335   4.629   9.257  0.6927 -1.0441  0.2513
  217MPD1    H6 3359   2.288   4.541   9.233  0.4977 -2.1543  4.7971
  217MPD1    H7 3360   2.262   4.699   9.266  3.5443  1.7405  1.5817
  218MPD1     C 3361   4.441   1.317  12.393  0.4542 -0.4723 -0.0840
  218MPD1    C1 3362   4.500   1.440  12.374 -0.0296 -0.4757 -0.0129
  218MPD1    C2 3363   4.594   1.487  12.462 -0.4272 -0.1837  0.1216
  218MPD1    C3 3364   4.614   1.426  12.584 -0.0643  0.4207  0.0507
  218MPD1    C4 3365   4.545   1.312  12.608  0.7013  0.1733 -0.0522
  218MPD1    C5 3366   4.463   1.255  12.514  0.0481  0.3497  0.1960
  218MPD1     H 3367   4.647   1.578  12.438  1.3578 -1.3734 -0.4193
  218MPD1    H1 3368   4.555   1.251  12.697  3.3075  2.0745  0.9239
  218MPD1    H2 3369   4.393   1.273  12.306  0.7482 -0.7436 -0.1107
  218MPD1    H3 3370   4.420   1.157  12.533  0.8445  0.1887  1.1770
  218MPD1     N 3371   4.711   1.479  12.668  0.1634  0.3152  0.3018
  218MPD1    H5 3372   0.040   1.545  12.626 -0.0946 -0.6362 -1.6120
  218MPD1    N1 3373   4.483   1.498  12.248  0.3796  0.0875  0.3369
  218MPD1    H6 3374   4.505   1.597  12.244  1.1817 -0.0009  2.4554
  218MPD1    H7 3375   4.393   1.481  12.204  0.7658  1.4072 -0.9521
  219MPD1     C 3376   0.331   2.284  13.139 -0.1769 -0.4943  0.1832
  219MPD1    C1 3377   0.366   2.253  13.009  0.2696 -0.3459  0.0004
  219MPD1    C2 3378   0.337   2.123  12.966 -0.2448 -0.1401  0.0556
  219MPD1    C3 3379   0.292   2.027  13.061 -0.0783  0.7978  0.2290
  219MPD1    C4 3380   0.256   2.063  13.191  0.4486  0.5729  0.0875
  219MPD1    C5 3381   0.273   2.190  13.228 -0.5450 -0.0643 -0.0619
  219MPD1     H 3382   0.345   2.103  12.860  1.3686 -1.7818  0.4831
  219MPD1    H1 3383   0.196   2.001  13.257 -0.3523 -0.0907 -1.2522
  219MPD1    H2 3384   0.322   2.389  13.167 -3.5772 -0.4943 -0.9187
  219MPD1    H3 3385   0.233   2.222  13.324  0.7291  3.4736 -0.7376
  219MPD1     N 3386   0.262   1.895  13.025 -0.2090  0.0564  0.2835
  219MPD1    H5 3387   0.226   1.833  13.098 -2.0906  0.1093 -0.6042
  219MPD1    N1 3388   0.407   2.352  12.924 -0.3122 -0.2321 -0.0271
  219MPD1    H6 3389   0.448   2.429  12.977 -1.6788  1.4370 -1.3840
  219MPD1    H7 3390   0.477   2.329  12.854  0.7788  0.1641  0.9337
  220MPD1     C 3391   4.278   1.534   9.989 -0.1822  0.1922 -0.4282
  220MPD1    C1 3392   4.364   1.587  10.088  0.2443 -0.2221  0.1515
  220MPD1    C2 3393   4.387   1.503  10.198  0.2937  0.5806 -0.5724
  220MPD1    C3 3394   4.344   1.372  10.204 -0.0561  0.4086 -0.4736
  220MPD1    C4 3395   4.257   1.332  10.108 -0.3283 -0.3446  0.3308
  220MPD1    C5 3396   4.218   1.410  10.006 -0.8548 -0.8531  0.6502
  220MPD1     H 3397   4.462   1.535  10.270 -0.9139  1.0816  0.4542
  220MPD1    H1 3398   4.220   1.231  10.121 -2.4991  0.3755 -0.3101
  220MPD1    H2 3399   4.259   1.580   9.893 -2.5417 -0.3398 -0.2154
  220MPD1    H3 3400   4.153   1.373   9.927  2.0209 -0.0204 -2.1354
  220MPD1     N 3401   4.390   1.291  10.313  0.0880  0.1905  0.2846
  220MPD1    H5 3402   4.442   1.336  10.386  1.3598 -0.3641 -0.2820
  220MPD1    N1 3403   4.443   1.700  10.064  0.5521  0.4743  0.3275
  220MPD1    H6 3404   4.405   1.776  10.008  0.8679  1.0208  0.8561
  220MPD1    H7 3405   4.484   1.741  10.147  3.8976 -1.4503 -0.3835
  221MPD1     C 3406   2.579   3.890  16.389  0.2665  0.1073  0.8125
  221MPD1    C1 3407   2.673   3.962  16.321  0.4542  0.4955 -0.2429
  221MPD1    C2 3408   2.646   4.097  16.293 -0.1969 -0.2768  0.2094
  221MPD1    C3 3409   2.535   4.161  16.344  0.1441  0.1316 -0.3570
  221MPD1    C4 3410   2.454   4.094  16.432  0.0791  0.3479 -0.1506
  221MPD1    C5 3411   2.480   3.964  16.443 -0.1556  0.0763 -0.0072
  221MPD1     H 3412   2.720   4.146  16.231 -1.3872  1.6554  0.3245
  221MPD1    H1 3413   2.379   4.142  16.494 -1.4368 -0.0659 -1.6814
  221MPD1    H2 3414   2.585   3.782  16.400  0.4631 -0.1697 -2.2357
  221MPD1    H3 3415   2.414   3.923  16.519 -1.7764  2.1739 -0.2879
  221MPD1     N 3416   2.519   4.300  16.335  0.3990 -0.1733 -0.6989
  221MPD1    H5 3417   2.430   4.338  16.365  0.6634 -3.3233  4.0835
  221MPD1    N1 3418   2.779   3.899  16.260  0.4789  0.4079 -0.0635
  221MPD1    H6 3419   2.824   3.834  16.324 -2.7671 -0.5290  1.2597
  221MPD1    H7 3420   2.849   3.964  16.225  0.8516 -0.0182 -0.1085
  222MPD1     C 3421   0.871   3.032   0.152  0.1741 -0.0777 -0.1328
  222MPD1    C1 3422   0.930   3.147   0.106  0.5510 -0.2467  0.1063
  222MPD1    C2 3423   0.953   3.247   0.195 -0.0613  0.1714 -0.2189
  222MPD1    C3 3424   0.906   3.242   0.327  0.0308  0.3702  0.4980
  222MPD1    C4 3425   0.833   3.131   0.362  0.3637 -0.1800  0.4758
  222MPD1    C5 3426   0.827   3.024   0.277 -0.5437  0.1176 -0.3580
  222MPD1     H 3427   1.013   3.329   0.157  1.5364 -1.0832 -0.4229
  222MPD1    H1 3428   0.783   3.122   0.458 -0.9472 -2.1750 -0.3870
  222MPD1    H2 3429   0.863   2.940   0.095  0.4364  0.8770 -1.6930
  222MPD1    H3 3430   0.771   2.936   0.304  2.1075 -1.0158  1.4514
  222MPD1     N 3431   0.912   3.345   0.420 -0.2247  0.4360  0.1492
  222MPD1    H5 3432   0.861   3.327   0.507 -0.0002 -1.3514 -0.0866
  222MPD1    N1 3433   0.993   3.151  17.726 -0.0706  0.5428 -0.4971
  222MPD1    H6 3434   0.940   3.098  17.657 -0.6692  1.6387 -0.8823
  222MPD1    H7 3435   0.985   3.247  17.693 -0.7254  0.6683  0.0184
  223MPD1     C 3436   0.631   3.344   1.231 -0.8200 -0.6415 -0.2659
  223MPD1    C1 3437   0.575   3.319   1.111 -0.2238 -0.5741 -0.0311
  223MPD1    C2 3438   0.659   3.337   1.001 -0.3036 -0.5868 -0.6200
  223MPD1    C3 3439   0.785   3.396   1.011 -0.0320  0.3405  1.1070
  223MPD1    C4 3440   0.837   3.428   1.136  0.1058 -1.1227  0.1344
  223MPD1    C5 3441   0.757   3.395   1.244  0.2398 -0.3556 -0.1153
  223MPD1     H 3442   0.620   3.309   0.904  0.4024  0.5192 -1.2224
  223MPD1    H1 3443   0.931   3.479   1.154  0.9944 -2.4468 -0.7307
  223MPD1    H2 3444   0.574   3.325   1.321  1.1668 -0.9126  0.9335
  223MPD1    H3 3445   0.778   3.431   1.344  1.9852  0.3044 -0.7074
  223MPD1     N 3446   0.861   3.439   0.894  0.2567 -0.1403 -0.1775
  223MPD1    H5 3447   0.817   3.418   0.805 -1.5775 -2.5244  1.2827
  223MPD1    N1 3448   0.453   3.254   1.098  0.0279 -0.3169  0.2937
  223MPD1    H6 3449   0.401   3.282   1.015 -0.9648  0.9454  1.3511
  223MPD1    H7 3450   0.391   3.271   1.176 -0.3129 -0.1585 -0.0109
  224MPD1     C 3451   2.958   2.241   9.374  0.5773 -0.1633 -0.5818
  224MPD1    C1 3452   3.092   2.195   9.368  0.1697  0.4340 -0.4912
  224MPD1    C2 3453   3.114   2.063   9.418 -0.3404 -0.2168 -0.0030
  224MPD1    C3 3454   3.009   1.978   9.446  0.0539  0.1144 -0.5687
  224MPD1    C4 3455   2.880   2.029   9.434  0.0356 -0.2134  0.8454
  224MPD1    C5 3456   2.861   2.158   9.404  0.0845  0.2458 -0.2707
  224MPD1     H 3457   3.213   2.019   9.412  0.7613  2.4552 -1.3953
  224MPD1    H1 3458   2.794   1.963   9.442 -0.4681  0.5783  2.0446
  224MPD1    H2 3459   2.925   2.342   9.353 -3.2656 -1.4221 -0.5852
  224MPD1    H3 3460   2.756   2.178   9.387 -0.5469 -2.4447  0.4251
  224MPD1     N 3461   3.025   1.844   9.485 -0.4246  0.2433 -0.0473
  224MPD1    H5 3462   2.943   1.785   9.496 -0.3875 -0.2321 -2.3030
  224MPD1    N1 3463   3.195   2.290   9.374 -0.1619  0.2922  0.2917
  224MPD1    H6 3464   3.284   2.256   9.339  0.6614  1.4926  1.2287
  224MPD1    H7 3465   3.168   2.367   9.313 -1.4871  0.8155  1.5462
  225MPD1     C 3466   4.562   2.774  12.784 -0.7623  0.0774 -0.6743
  225MPD1    C1 3467   4.532   2.641  12.786  0.3700  0.1570 -0.2313
  225MPD1    C2 3468   4.419   2.590  12.724  0.5094 -0.8269 -0.7702
  225MPD1    C3 3469   4.335   2.672  12.652  0.5624 -0.6198  0.5395
  225MPD1    C4 3470   4.374   2.800  12.639 -0.2797 -0.5929  0.4422
  225MPD1    C5 3471   4.487   2.848  12.699  0.2090  0.9693 -0.6821
  225MPD1     H 3472   4.406   2.487  12.752 -0.1515  0.0607  2.2040
  225MPD1    H1 3473   4.328   2.862  12.563  1.8335  0.9901  0.4342
  225MPD1    H2 3474   4.645   2.828  12.830 -0.0417 -1.5564 -0.0673
  225MPD1    H3 3475   4.511   2.953  12.692  1.3902  0.8343  1.2069
  225MPD1     N 3476   4.219   2.629  12.582  0.2474  0.0508  0.4228
  225MPD1    H5 3477   4.159   2.694  12.532  1.0151 -0.4126 -1.1009
  225MPD1    N1 3478   4.619   2.546  12.851  0.1538 -0.0824  0.2169
  225MPD1    H6 3479   4.573   2.473  12.903  0.9855  0.6515  1.9735
  225MPD1    H7 3480   4.689   2.590  12.910  0.5627  1.7344 -1.6172
  226MPD1     C 3481   3.026   3.103   9.546 -0.9893  0.5203 -0.9618
  226MPD1    C1 3482   2.986   2.997   9.467 -0.7605 -0.5404  0.3134
  226MPD1    C2 3483   2.949   2.881   9.531 -0.5838 -0.2184  0.3576
  226MPD1    C3 3484   2.994   2.859   9.659 -0.6555  0.3342  0.2297
  226MPD1    C4 3485   3.045   2.965   9.734  0.4325 -0.3801  0.1150
  226MPD1    C5 3486   3.049   3.087   9.680 -0.2755  0.5690  0.1118
  226MPD1     H 3487   2.904   2.802   9.471 -0.5586  0.1847 -0.1925
  226MPD1    H1 3488   3.080   2.954   9.836 -0.2754 -2.1590  0.1622
  226MPD1    H2 3489   3.029   3.203   9.505  1.6127  0.8352  0.0152
  226MPD1    H3 3490   3.078   3.167   9.746 -1.6032  2.2127 -1.2907
  226MPD1     N 3491   2.987   2.741   9.738 -0.2778 -0.4011  0.0983
  226MPD1    H5 3492   3.028   2.747   9.830  1.0701  3.1418 -0.7346
  226MPD1    N1 3493   2.957   3.019   9.335 -1.3737  0.2493  0.0617
  226MPD1    H6 3494   3.026   3.080   9.291 -2.6581  0.8627 -1.1087
  226MPD1    H7 3495   2.950   2.930   9.285  0.2774 -0.4260  1.0593
  227MPD1     C 3496   2.708   1.679   9.693 -0.3540 -0.3999  0.2974
  227MPD1    C1 3497   2.826   1.686   9.762 -0.0772  1.1565  0.5299
  227MPD1    C2 3498   2.876   1.810   9.796  0.7039 -0.2555 -0.5618
  227MPD1    C3 3499   2.817   1.935   9.760 -0.2709  0.9209  0.6626
  227MPD1    C4 3500   2.699   1.925   9.693 -0.0871 -0.6811  0.0629
  227MPD1    C5 3501   2.648   1.799   9.659 -0.3630 -0.6923 -0.4267
  227MPD1     H 3502   2.969   1.808   9.851  1.2011  1.7784 -1.3497
  227MPD1    H1 3503   2.643   2.013   9.664 -0.3584 -0.7525  0.3706
  227MPD1    H2 3504   2.649   1.591   9.669 -1.0337  0.4742 -1.2844
  227MPD1    H3 3505   2.560   1.802   9.596 -0.0665 -0.5669 -0.8431
  227MPD1     N 3506   2.881   2.054   9.796  0.3048  0.3878 -1.2669
  227MPD1    H5 3507   2.975   2.047   9.835  0.4583 -1.0025 -1.8700
  227MPD1    N1 3508   2.884   1.571   9.824 -0.1454  0.0098 -0.0354
  227MPD1    H6 3509   2.974   1.584   9.869  0.1345  2.6029 -1.3143
  227MPD1    H7 3510   2.874   1.489   9.765 -1.6935  0.0866  0.1291
  228MPD1     C 3511   1.631   4.490  13.281 -0.2456 -0.5253 -0.2513
  228MPD1    C1 3512   1.565   4.605  13.230 -0.0754 -0.2677 -0.2462
  228MPD1    C2 3513   1.420   4.602  13.238 -0.3954  0.2882  0.3327
  228MPD1    C3 3514   1.348   4.485  13.274 -0.2724  0.1230 -0.7443
  228MPD1    C4 3515   1.422   4.375  13.301  0.1129 -0.3420  0.3259
  228MPD1    C5 3516   1.560   4.376  13.306 -0.6535  0.2440  0.7469
  228MPD1     H 3517   1.364   4.689  13.205 -0.9430 -0.4011 -0.5321
  228MPD1    H1 3518   1.378   4.278  13.321 -2.4275  0.3911 -1.7012
  228MPD1    H2 3519   1.739   4.495  13.289 -0.4895  0.2200  2.5432
  228MPD1    H3 3520   1.619   4.287  13.327  0.8047  0.6249 -1.7773
  228MPD1     N 3521   1.208   4.477  13.252 -0.2603 -0.2497  0.0716
  228MPD1    H5 3522   1.171   4.548  13.190  0.7714  1.0213  0.9049
  228MPD1    N1 3523   1.639   4.722  13.214 -0.1712  0.6790  0.3338
  228MPD1    H6 3524   1.733   4.705  13.180 -0.2658  1.9810 -0.5779
  228MPD1    H7 3525   1.588   0.049  13.152  0.0876  0.5801  0.0210
  229MPD1     C 3526   1.105   3.259  14.706  0.4305  0.1248 -0.3550
  229MPD1    C1 3527   1.008   3.231  14.797  0.4021 -0.2962  0.2634
  229MPD1    C2 3528   1.034   3.138  14.900 -0.5872 -0.4312 -0.4548
  229MPD1    C3 3529   1.148   3.054  14.895 -0.1595  0.5464  0.3106
  229MPD1    C4 3530   1.244   3.077  14.796 -0.9007 -0.9521 -0.0142
  229MPD1    C5 3531   1.222   3.184  14.710 -0.3717 -0.3292  0.1053
  229MPD1     H 3532   0.955   3.117  14.971  0.6209  0.8894  1.2831
  229MPD1    H1 3533   1.338   3.026  14.781  1.4546  3.4188 -0.2362
  229MPD1    H2 3534   1.103   3.347  14.643  0.0829  1.6473  1.7760
  229MPD1    H3 3535   1.305   3.214  14.647  0.1264 -1.9617 -0.0173
  229MPD1     N 3536   1.173   2.955  14.988 -0.1299  0.0447 -0.7053
  229MPD1    H5 3537   1.238   2.881  14.965  0.9513  0.6886  0.2858
  229MPD1    N1 3538   0.902   3.321  14.813  0.0476 -0.8554  0.5553
  229MPD1    H6 3539   0.869   3.385  14.741  3.7182 -1.4376 -1.6512
  229MPD1    H7 3540   0.837   3.296  14.887 -0.4769  2.1072  1.0763
  230MPD1     C 3541   0.673   2.857  15.825  0.2497  0.2220  0.0807
  230MPD1    C1 3542   0.751   2.962  15.787 -1.1732  0.6397 -0.5331
  230MPD1    C2 3543   0.854   2.936  15.694  0.8323 -0.3591  0.0305
  230MPD1    C3 3544   0.879   2.808  15.648 -0.0342 -0.7292 -0.3961
  230MPD1    C4 3545   0.808   2.704  15.703  0.1099  0.1833 -0.6940
  230MPD1    C5 3546   0.706   2.731  15.783  0.2450 -0.4478  0.0026
  230MPD1     H 3547   0.909   3.021  15.653  0.2708 -1.5784 -3.2990
  230MPD1    H1 3548   0.820   2.602  15.668  1.6736  0.6293 -1.4679
  230MPD1    H2 3549   0.582   2.868  15.882 -0.8119  0.5705 -1.6967
  230MPD1    H3 3550   0.638   2.655  15.818 -0.9416  0.0906 -1.1245
  230MPD1     N 3551   0.969   2.792  15.542 -0.6288 -0.4897 -0.2863
  230MPD1    H5 3552   0.978   2.882  15.495  0.8963 -1.5830 -2.1099
  230MPD1    N1 3553   0.698   3.093  15.797  0.3651 -0.7155  0.0540
  230MPD1    H6 3554   0.647   3.110  15.884  0.4764 -1.0474  0.1827
  230MPD1    H7 3555   0.768   3.167  15.791  0.2569 -0.9923 -4.3882
  231MPD1     C 3556   3.563   4.700  15.802 -0.5671  0.0853 -0.3705
  231MPD1    C1 3557   3.696   4.680  15.819 -0.0571 -0.4601 -0.0166
  231MPD1    C2 3558   3.779   0.034  15.756  0.1144 -0.8593  0.2695
  231MPD1    C3 3559   3.725   0.111  15.654 -0.1673  0.4856  0.1687
  231MPD1    C4 3560   3.592   0.118  15.628 -0.2880 -0.2306  0.4175
  231MPD1    C5 3561   3.509   0.046  15.708  0.0928  0.6605  0.3345
  231MPD1     H 3562   3.882   0.044  15.788  0.0158  1.9310 -0.3172
  231MPD1    H1 3563   3.552   0.194  15.562  0.6998  0.7015  0.9020
  231MPD1    H2 3564   3.486   4.647  15.858 -0.5882  0.2272 -0.2653
  231MPD1    H3 3565   3.402   0.056  15.693  0.4515  2.3378 -1.1090
  231MPD1     N 3566   3.806   0.190  15.568 -0.9533  0.0021  0.0874
  231MPD1    H5 3567   3.759   0.239  15.493 -1.3205  2.8338  2.1913
  231MPD1    N1 3568   3.745   4.599  15.921 -1.0706 -0.2622  0.6385
  231MPD1    H6 3569   3.844   4.574  15.912 -0.7891  0.3002  2.0323
  231MPD1    H7 3570   3.692   4.515  15.945 -0.4547 -0.5606  0.9658
  232MPD1     C 3571   0.950   2.782   0.713 -0.5363 -0.3151  1.0356
  232MPD1    C1 3572   0.928   2.661   0.644  0.3536  0.3994 -0.1138
  232MPD1    C2 3573   0.822   2.642   0.561 -0.0307 -0.7650  0.1959
  232MPD1    C3 3574   0.724   2.740   0.545 -0.3166  0.1658 -0.3408
  232MPD1    C4 3575   0.739   2.855   0.622  0.5049 -0.2954  0.3711
  232MPD1    C5 3576   0.849   2.881   0.695  0.1397 -0.2391  0.9212
  232MPD1     H 3577   0.800   2.546   0.515 -0.9171 -1.8164  2.8695
  232MPD1    H1 3578   0.664   2.931   0.607  1.4634  0.5542 -0.1059
  232MPD1    H2 3579   1.034   2.798   0.779  1.3812 -0.7368 -1.2966
  232MPD1    H3 3580   0.863   2.980   0.736  0.8374  0.9215 -2.1046
  232MPD1     N 3581   0.619   2.722   0.455 -0.2241  0.1925 -0.2517
  232MPD1    H5 3582   0.618   2.639   0.396 -0.0418 -1.8017  2.5693
  232MPD1    N1 3583   1.031   2.565   0.645 -0.2087  0.9648 -0.4955
  232MPD1    H6 3584   1.009   2.475   0.603  1.6341  0.4260 -0.3129
  232MPD1    H7 3585   1.054   2.547   0.743  2.7828  2.2718 -0.9607
  233MPD1     C 3586   1.123   0.423   0.689  0.1795  0.5709  1.1118
  233MPD1    C1 3587   1.167   0.545   0.625  0.5324  0.6507 -0.4933
  233MPD1    C2 3588   1.276   0.608   0.680  0.3157  0.4814 -0.3898
  233MPD1    C3 3589   1.352   0.557   0.782  0.4583  0.3353 -0.4159
  233MPD1    C4 3590   1.311   0.440   0.833 -0.4098  0.6929 -0.4779
  233MPD1    C5 3591   1.199   0.380   0.793  0.9051  0.7305  0.6566
  233MPD1     H 3592   1.306   0.702   0.635  1.1967  0.2383 -0.3048
  233MPD1    H1 3593   1.359   0.391   0.916 -0.8592  0.4512 -0.3561
  233MPD1    H2 3594   1.029   0.373   0.669 -0.0675  0.7890  1.7446
  233MPD1    H3 3595   1.158   0.291   0.841 -0.7602  0.8428 -0.5865
  233MPD1     N 3596   1.470   0.619   0.832 -0.3621  0.1504 -0.5558
  233MPD1    H5 3597   1.529   0.567   0.897 -2.8013  0.1623  1.6979
  233MPD1    N1 3598   1.076   0.606   0.536 -0.1243 -0.4136 -0.2074
  233MPD1    H6 3599   1.130   0.669   0.477 -1.0012  1.5703  1.1236
  233MPD1    H7 3600   1.028   0.535   0.481  2.5865 -1.3508 -1.4136
  234MPD1     C 3601   4.098   0.283  10.575  0.5512 -0.0577 -0.0553
  234MPD1    C1 3602   4.011   0.216  10.494  0.4634  0.5499 -0.0649
  234MPD1    C2 3603   3.907   0.287  10.432 -0.4475  0.5879 -0.8716
  234MPD1    C3 3604   3.895   0.431  10.447  0.5689  0.1372 -0.1926
  234MPD1    C4 3605   3.986   0.490  10.530  0.3455 -0.2859  0.4856
  234MPD1    C5 3606   4.083   0.418  10.599 -0.8083  1.2921 -0.5851
  234MPD1     H 3607   3.836   0.246  10.361  1.3723 -1.0119 -1.7630
  234MPD1    H1 3608   3.982   0.597  10.545  0.1844  0.0257 -1.7826
  234MPD1    H2 3609   4.185   0.235  10.617  1.5141  0.4394 -1.4647
  234MPD1    H3 3610   4.159   0.468  10.659  1.0250 -1.5678 -0.4912
  234MPD1     N 3611   3.792   0.498  10.377  0.3609  0.0785 -0.1662
  234MPD1    H5 3612   3.752   0.451  10.297  1.0236  0.2368 -0.5889
  234MPD1    N1 3613   4.028   0.078  10.477  0.1698 -0.1298 -0.4748
  234MPD1    H6 3614   4.129   0.068  10.475  0.1964  0.3036 -1.2150
  234MPD1    H7 3615   3.994   0.050  10.386  0.4535 -0.1080 -0.5856
  235MPD1     C 3616   0.523   1.769  11.405  0.4147  0.1295  0.4248
  235MPD1    C1 3617   0.478   1.781  11.273  0.0914  0.7154  0.4458
  235MPD1    C2 3618   0.508   1.896  11.203  0.1354 -0.4043  1.1426
  235MPD1    C3 3619   0.597   1.987  11.257 -0.2773 -0.0980  0.1282
  235MPD1    C4 3620   0.647   1.975  11.384 -0.0253  0.3096  0.3938
  235MPD1    C5 3621   0.606   1.868  11.462 -0.9187  0.2977  0.4692
  235MPD1     H 3622   0.474   1.920  11.104  0.4874 -0.4943  1.0001
  235MPD1    H1 3623   0.717   2.040  11.436  0.5011 -0.5927  0.8002
  235MPD1    H2 3624   0.487   1.683  11.460 -1.4095  1.9945  2.1209
  235MPD1    H3 3625   0.657   1.865  11.558  2.5076  0.4283 -1.3522
  235MPD1     N 3626   0.633   2.098  11.174  1.0671 -0.0087 -0.0377
  235MPD1    H5 3627   0.612   2.087  11.075 -1.2131  0.3817  0.4052
  235MPD1    N1 3628   0.381   1.692  11.221 -1.0461 -0.3411  0.1362
  235MPD1    H6 3629   0.397   1.592  11.231 -1.5404 -0.7467 -3.3811
  235MPD1    H7 3630   0.362   1.703  11.122  0.1002 -1.9384 -0.2534
  236MPD1     C 3631   3.287   3.869   9.891  0.6061 -0.0963 -0.2947
  236MPD1    C1 3632   3.364   3.950   9.971  0.5128 -0.1355 -0.0917
  236MPD1    C2 3633   3.490   3.898  10.013 -0.7297  0.0410  0.2475
  236MPD1    C3 3634   3.523   3.767   9.988 -0.0567 -0.2250  0.6239
  236MPD1    C4 3635   3.446   3.693   9.901 -0.4552 -0.6269 -0.1936
  236MPD1    C5 3636   3.322   3.749   9.848  0.5547 -1.2018 -0.0529
  236MPD1     H 3637   3.558   3.958  10.071 -0.7880  0.2177  0.1353
  236MPD1    H1 3638   3.473   3.589   9.881 -2.2875 -0.9049 -1.2498
  236MPD1    H2 3639   3.192   3.905   9.854 -0.0164 -2.4195 -0.9309
  236MPD1    H3 3640   3.261   3.682   9.788  0.1670 -0.6898 -0.2284
  236MPD1     N 3641   3.651   3.709  10.035 -0.2861  0.5037  0.1010
  236MPD1    H5 3642   3.676   3.617   9.999  2.1655  0.2683  2.5060
  236MPD1    N1 3643   3.355   4.088   9.958 -0.5188  1.0187  0.1276
  236MPD1    H6 3644   3.401   4.140  10.032 -0.7503  1.2498  0.1101
  236MPD1    H7 3645   3.262   4.129   9.961 -0.0776  2.0710 -0.4301
  237MPD1     C 3646   4.275   1.331  15.193 -0.6053 -0.1614 -0.1980
  237MPD1    C1 3647   4.238   1.229  15.282  0.0953 -0.3904 -0.6168
  237MPD1    C2 3648   4.110   1.229  15.346  0.4364  0.0214 -0.0580
  237MPD1    C3 3649   4.026   1.338  15.330 -0.6520  0.1303  0.0796
  237MPD1    C4 3650   4.055   1.441  15.237  0.7884 -0.4317 -0.3425
  237MPD1    C5 3651   4.180   1.430  15.176 -0.1333 -0.9389 -0.1170
  237MPD1     H 3652   4.076   1.143  15.402 -0.6799  0.6934  0.2995
  237MPD1    H1 3653   3.993   1.530  15.230  0.8157 -0.3068  0.9840
  237MPD1    H2 3654   4.372   1.324  15.146 -0.6709  1.6069 -0.5981
  237MPD1    H3 3655   4.218   1.517  15.123 -1.0422 -0.4142  0.0976
  237MPD1     N 3656   3.906   1.355  15.401  0.1303 -0.2943  0.3264
  237MPD1    H5 3657   3.834   1.410  15.354 -0.2874  0.3237  1.6821
  237MPD1    N1 3658   4.319   1.115  15.305 -0.4241  0.2049  0.1474
  237MPD1    H6 3659   4.408   1.109  15.256  0.5691  0.9359  1.8598
  237MPD1    H7 3660   4.326   1.064  15.393  1.2661  0.0592 -0.0766
  238MPD1     C 3661   1.460   4.698  15.256  0.7161  0.1300 -0.2668
  238MPD1    C1 3662   1.415   0.036  15.150 -0.5696 -0.2445  0.1454
  238MPD1    C2 3663   1.281   0.006  15.106 -0.3971  0.1324  0.0709
  238MPD1    C3 3664   1.195   4.667  15.181  0.7561 -0.2590 -0.8959
  238MPD1    C4 3665   1.250   4.595  15.285  0.0280 -0.1851 -0.3813
  238MPD1    C5 3666   1.382   4.602  15.317 -0.2723  0.1825 -0.2393
  238MPD1     H 3667   1.239   0.057  15.021  3.2592  2.4813 -0.3295
  238MPD1    H1 3668   1.185   4.530  15.343 -1.1070 -1.0878 -2.6886
  238MPD1    H2 3669   1.562   4.706  15.292 -0.1340  2.9452  1.5450
  238MPD1    H3 3670   1.428   4.540  15.393  1.7475 -0.6794 -2.1942
  238MPD1     N 3671   1.061   4.648  15.138 -0.1795 -0.3543 -0.9409
  238MPD1    H5 3672   1.029   4.692  15.052  3.4271  2.1970 -0.9978
  238MPD1    N1 3673   1.503   0.109  15.075 -0.4658 -0.3620 -0.5611
  238MPD1    H6 3674   1.460   0.173  15.008 -1.4342  2.4935  2.8117
  238MPD1    H7 3675   1.566   0.155  15.140 -0.6481 -1.1603  0.1854
  239MPD1     C 3676   1.218   0.434  15.188  0.5954 -0.2150 -0.7528
  239MPD1    C1 3677   1.310   0.478  15.095 -0.0531  0.5385 -0.2062
  239MPD1    C2 3678   1.277   0.588  15.022  0.1862  0.0161  0.0970
  239MPD1    C3 3679   1.159   0.664  15.046  0.2811 -0.3392  0.1566
  239MPD1    C4 3680   1.074   0.618  15.142 -0.3752 -0.0690  0.2222
  239MPD1    C5 3681   1.104   0.509  15.224 -0.3823 -0.0654 -0.0963
  239MPD1     H 3682   1.342   0.617  14.941  1.9805 -1.5767  0.9625
  239MPD1    H1 3683   0.977   0.661  15.165 -0.0757  0.3931  0.6417
  239MPD1    H2 3684   1.255   0.357  15.255  0.1974 -1.2425 -1.7089
  239MPD1    H3 3685   1.037   0.473  15.301 -0.9150 -0.7150 -0.8573
  239MPD1     N 3686   1.124   0.788  14.983  0.0647  0.4887 -0.0244
  239MPD1    H5 3687   1.050   0.836  15.033  1.1866  0.6070  1.5402
  239MPD1    N1 3688   1.415   0.389  15.068  0.2478  0.5368 -0.1102
  239MPD1    H6 3689   1.500   0.431  15.031 -0.1151 -0.4058 -2.0052
  239MPD1    H7 3690   1.440   0.328  15.146  0.7103  0.4455 -0.3246
  240MPD1     C 3691   0.541   1.177  14.150  0.7878  0.3385 -0.8313
  240MPD1    C1 3692   0.659   1.109  14.185  0.2798 -0.2692  0.3556
  240MPD1    C2 3693   0.640   0.988  14.253 -0.4270  0.3295  0.2448
  240MPD1    C3 3694   0.515   0.939  14.293 -1.0911 -1.0692  0.0433
  240MPD1    C4 3695   0.403   1.001  14.240  0.3130 -0.0204 -0.2987
  240MPD1    C5 3696   0.420   1.121  14.180 -0.2047  0.2970 -0.2930
  240MPD1     H 3697   0.730   0.931  14.270 -0.2293  0.2718 -0.9884
  240MPD1    H1 3698   0.302   0.966  14.258  0.0266 -0.2513 -2.3215
  240MPD1    H2 3699   0.555   1.271  14.097  1.3534  1.0183  0.5261
  240MPD1    H3 3700   0.331   1.161  14.133 -1.3423 -2.2361 -0.3132
  240MPD1     N 3701   0.508   0.811  14.359 -0.0584  0.8857 -0.7604
  240MPD1    H5 3702   0.599   0.769  14.377 -0.7600 -0.5146 -0.4769
  240MPD1    N1 3703   0.787   1.154  14.163  0.0711 -0.1881  1.0046
  240MPD1    H6 3704   0.789   1.200  14.072 -0.7488 -0.3271  0.9130
  240MPD1    H7 3705   0.843   1.069  14.159  1.6965  1.0088 -1.6119
  241MPD1     C 3706   0.925   0.269  15.060  0.0251  0.2913  0.2822
  241MPD1    C1 3707   0.977   0.330  14.946  0.4891 -0.1471  0.0851
  241MPD1    C2 3708   0.884   0.371  14.851  0.8523 -0.1819  0.5052
  241MPD1    C3 3709   0.748   0.351  14.872  0.4224  0.0630  0.5135
  241MPD1    C4 3710   0.702   0.308  14.996 -0.1663 -1.5457  0.0585
  241MPD1    C5 3711   0.795   0.272  15.088 -0.2891  0.1953 -0.4152
  241MPD1     H 3712   0.910   0.390  14.748  0.0265 -2.4833 -0.1333
  241MPD1    H1 3713   0.599   0.301  15.030  0.5701  0.6375  2.6984
  241MPD1    H2 3714   0.986   0.225  15.138  1.0937  2.7630  0.8147
  241MPD1    H3 3715   0.756   0.233  15.181 -1.1303  0.4046 -0.6765
  241MPD1     N 3716   0.652   0.386  14.774 -0.0551 -0.2852  0.2009
  241MPD1    H5 3717   0.559   0.352  14.798 -0.6188  0.0132 -1.5095
  241MPD1    N1 3718   1.110   0.319  14.906 -0.1537  0.3041 -0.1917
  241MPD1    H6 3719   1.171   0.341  14.985 -0.8167  0.7819  0.1861
  241MPD1    H7 3720   1.127   0.393  14.838  0.2064 -1.0267 -1.5561
  242MPD1     C 3721   0.577   3.952  16.169  0.0407  0.6822  0.0435
  242MPD1    C1 3722   0.579   4.020  16.052  0.1417 -0.3777  0.1333
  242MPD1    C2 3723   0.613   3.963  15.933 -0.1468  0.2141  0.3091
  242MPD1    C3 3724   0.674   3.832  15.938 -0.3406  0.8733  0.7235
  242MPD1    C4 3725   0.673   3.766  16.055 -0.0882  0.1599 -0.0380
  242MPD1    C5 3726   0.614   3.818  16.166 -0.3269 -0.0634  1.6014
  242MPD1     H 3727   0.620   4.027  15.846  3.4039 -1.6936 -0.8473
  242MPD1    H1 3728   0.703   3.662  16.066 -0.7117 -0.0230 -0.0769
  242MPD1    H2 3729   0.541   4.000  16.260  3.2357  0.8887  1.1733
  242MPD1    H3 3730   0.610   3.757  16.256  2.9781 -1.6030  0.7297
  242MPD1     N 3731   0.722   3.753  15.834  0.0665 -0.1728  0.2939
  242MPD1    H5 3732   0.732   3.652  15.844  3.9913  0.2133  0.2205
  242MPD1    N1 3733   0.512   4.135  16.054  0.5195  0.8439  0.1804
  242MPD1    H6 3734   0.547   4.186  15.972 -1.6385 -0.2873 -1.4560
  242MPD1    H7 3735   0.538   4.196  16.131 -1.0761  0.5479  0.9528
  243MPD1     C 3736   0.605   2.365   0.005  0.3331 -1.2569  0.0209
  243MPD1    C1 3737   0.669   2.245   0.029  0.0981  0.5272  0.3101
  243MPD1    C2 3738   0.785   2.214  17.700 -0.5358  0.3007 -0.0181
  243MPD1    C3 3739   0.843   2.310  17.622 -0.3415 -0.3995 -0.2434
  243MPD1    C4 3740   0.782   2.431  17.610 -1.1207 -0.1846  0.5382
  243MPD1    C5 3741   0.670   2.464  17.682 -0.1818 -0.0008 -0.9103
  243MPD1     H 3742   0.832   2.117  17.694  1.2689  1.1425  0.5644
  243MPD1    H1 3743   0.828   2.508  17.550 -2.1088 -0.1873 -0.2319
  243MPD1    H2 3744   0.513   2.390   0.056  0.8190 -2.0445  1.2762
  243MPD1    H3 3745   0.622   2.561  17.679 -1.6786 -0.6240  3.0402
  243MPD1     N 3746   0.964   2.270  17.565 -0.6033  0.1376 -0.3764
  243MPD1    H5 3747   0.994   2.173  17.560  0.4776  0.4696 -0.3600
  243MPD1    N1 3748   0.608   2.140   0.096 -0.2480  0.5103  0.1792
  243MPD1    H6 3749   0.666   2.060   0.122  0.1487 -0.1258 -2.6684
  243MPD1    H7 3750   0.552   2.168   0.176  0.5427  2.2092  0.1536
  244MPD1     C 3751   1.551   1.487  17.385 -0.0971  0.0534  0.2284
  244MPD1    C1 3752   1.557   1.576  17.286  0.4143  0.1141 -0.0963
  244MPD1    C2 3753   1.498   1.702  17.294 -1.1436 -0.3948 -0.0394
  244MPD1    C3 3754   1.436   1.735  17.410 -0.1147  0.5236 -0.3275
  244MPD1    C4 3755   1.429   1.654  17.512  0.1130  0.2051  0.3092
  244MPD1    C5 3756   1.488   1.529  17.502  0.4987 -0.3911  0.6971
  244MPD1     H 3757   1.504   1.774  17.213 -0.1834 -1.5897 -1.0518
  244MPD1    H1 3758   1.385   1.684  17.606  1.2274  1.8763  0.3028
  244MPD1    H2 3759   1.577   1.382  17.382  0.0647  0.1093 -0.5281
  244MPD1    H3 3760   1.477   1.457  17.582 -0.3789 -2.2023 -1.0391
  244MPD1     N 3761   1.381   1.861  17.410  0.2084 -0.2198 -0.2830
  244MPD1    H5 3762   1.389   1.914  17.323 -0.9061  1.3023  0.5379
  244MPD1    N1 3763   1.593   1.527  17.157  0.4561  0.2603  0.3367
  244MPD1    H6 3764   1.636   1.588  17.088  0.1754 -0.1758 -0.2255
  244MPD1    H7 3765   1.648   1.441  17.161 -2.2347 -1.5657 -1.7150
  245MPD1     C 3766   4.081   2.553  13.198  0.7022 -0.2945  0.1903
  245MPD1    C1 3767   4.191   2.618  13.242 -0.3033 -0.4301  0.0183
  245MPD1    C2 3768   4.177   2.710  13.351 -0.1104  0.0339 -0.2554
  245MPD1    C3 3769   4.051   2.748  13.396 -0.6764  0.4523 -0.2039
  245MPD1    C4 3770   3.943   2.689  13.336 -0.4973 -0.5479 -0.5101
  245MPD1    C5 3771   3.952   2.602  13.234 -0.4119  0.0826  0.2258
  245MPD1     H 3772   4.264   2.750  13.401 -0.2566  1.4527 -1.1263
  245MPD1    H1 3773   3.844   2.710  13.375 -0.0944 -1.3438  0.9280
  245MPD1    H2 3774   4.074   2.493  13.108  0.7482 -0.2564  0.1613
  245MPD1    H3 3775   3.865   2.561  13.184 -0.1832  1.1933 -1.0973
  245MPD1     N 3776   4.047   2.842  13.498 -0.2957  0.3770  0.4846
  245MPD1    H5 3777   4.138   2.861  13.538 -0.3179 -0.5637  1.0027
  245MPD1    N1 3778   4.315   2.568  13.200  0.6484  0.0241 -0.0114
  245MPD1    H6 3779   4.310   2.531  13.106 -0.3225  0.3636 -0.0929
  245MPD1    H7 3780   4.396   2.628  13.199  1.2489 -0.7616  0.7480
  246MPD1     C 3781   0.830   3.941   9.918  0.5849 -0.1440 -0.3514
  246MPD1    C1 3782   0.706   3.907   9.863  0.6123  0.3697 -0.9494
  246MPD1    C2 3783   0.622   4.014   9.839  0.1423 -0.4369 -0.3938
  246MPD1    C3 3784   0.664   4.148   9.858  0.5496  0.0188  1.1628
  246MPD1    C4 3785   0.785   4.179   9.912  0.7274 -0.2524  0.2343
  246MPD1    C5 3786   0.854   4.065   9.952  0.3347  0.5330  0.6408
  246MPD1     H 3787   0.521   4.013   9.800  0.4080 -0.6927 -1.0807
  246MPD1    H1 3788   0.814   4.278   9.946  2.7198  0.2392 -2.8920
  246MPD1    H2 3789   0.903   3.866   9.947 -0.4590 -0.7300  0.7373
  246MPD1    H3 3790   0.946   4.079  10.007  0.9742  0.8423 -0.5031
  246MPD1     N 3791   0.567   4.247   9.832 -0.4319  0.1092 -0.6382
  246MPD1    H5 3792   0.481   4.211   9.793 -0.8388  0.4475 -0.0546
  246MPD1    N1 3793   0.689   3.775   9.811  0.0797 -0.3298 -0.5085
  246MPD1    H6 3794   0.593   3.742   9.822  0.0717  0.9088  3.0025
  246MPD1    H7 3795   0.751   3.707   9.854  0.9926  0.8186 -0.0224
  247MPD1     C 3796   3.160   3.142  17.245  0.0055  0.8699 -0.5225
  247MPD1    C1 3797   3.256   3.167  17.153  1.1562 -0.1559 -0.2837
  247MPD1    C2 3798   3.267   3.086  17.041 -0.2222  0.3296 -0.4681
  247MPD1    C3 3799   3.169   2.990  17.015 -0.3799 -0.4722 -0.2241
  247MPD1    C4 3800   3.069   2.974  17.108  0.5875 -0.1966 -1.0042
  247MPD1    C5 3801   3.075   3.044  17.220  0.9733 -0.2946 -0.0792
  247MPD1     H 3802   3.347   3.099  16.969  1.3230  0.5480  1.2891
  247MPD1    H1 3803   2.998   2.894  17.094  1.1907 -1.0830  1.0650
  247MPD1    H2 3804   3.146   3.190  17.341 -3.6649  0.0899 -0.6699
  247MPD1    H3 3805   3.001   3.033  17.298  0.1991  0.9064 -0.6438
  247MPD1     N 3806   3.170   2.902  16.898  0.0182 -0.1874  0.0821
  247MPD1    H5 3807   3.082   2.855  16.882  0.1158 -0.2515 -0.2657
  247MPD1    N1 3808   3.318   3.290  17.169 -0.0061 -0.0375  0.4088
  247MPD1    H6 3809   3.403   3.286  17.115  1.5243 -0.7407  2.8604
  247MPD1    H7 3810   3.343   3.317  17.264  1.6870 -0.6859  0.1409
  248MPD1     C 3811   3.345   1.635  17.474 -0.4024  0.0748  0.5021
  248MPD1    C1 3812   3.342   1.773  17.471 -0.1109  0.1557 -0.3565
  248MPD1    C2 3813   3.315   1.841  17.584  0.6807 -0.1676 -0.1201
  248MPD1    C3 3814   3.297   1.775  17.705  0.0768 -0.5435 -0.5061
  248MPD1    C4 3815   3.321   1.644  17.711 -0.4112  0.0394 -0.1425
  248MPD1    C5 3816   3.335   1.571  17.593  0.8970 -0.1624 -0.2739
  248MPD1     H 3817   3.293   1.947  17.579 -1.9732 -0.7242 -0.2682
  248MPD1    H1 3818   3.316   1.587   0.060 -4.6893 -0.6349 -0.8200
  248MPD1    H2 3819   3.375   1.572  17.391 -2.0970 -0.4423  0.2792
  248MPD1    H3 3820   3.351   1.464  17.599  1.9477  0.0342  0.3854
  248MPD1     N 3821   3.278   1.853   0.078  0.0591  0.0009 -0.1845
  248MPD1    H5 3822   3.252   1.949   0.059 -0.9895  0.1793  2.1574
  248MPD1    N1 3823   3.367   1.836  17.349 -0.2506  0.7498 -0.7495
  248MPD1    H6 3824   3.323   1.926  17.332  0.5705  1.2319 -0.3192
  248MPD1    H7 3825   3.342   1.774  17.272  0.8211  0.9072 -1.2242
  249MPD1     C 3826   1.400   1.540  10.520 -0.1054  0.8374 -0.3059
  249MPD1    C1 3827   1.410   1.645  10.610 -0.3158 -0.0895  0.5735
  249MPD1    C2 3828   1.513   1.736  10.591 -0.2153 -0.1676 -0.0353
  249MPD1    C3 3829   1.600   1.732  10.485  0.0634  0.4321 -0.0129
  249MPD1    C4 3830   1.581   1.630  10.391 -0.7217  0.2718  0.1606
  249MPD1    C5 3831   1.482   1.542  10.411 -0.1162 -0.1188  0.1925
  249MPD1     H 3832   1.516   1.813  10.668 -1.5845 -2.0090  1.8928
  249MPD1    H1 3833   1.652   1.610  10.311 -0.7207  1.3686 -0.1085
  249MPD1    H2 3834   1.331   1.459  10.538 -0.3319  0.9500 -0.6773
  249MPD1    H3 3835   1.467   1.468  10.334 -1.5349  1.9886 -1.5298
  249MPD1     N 3836   1.699   1.828  10.479  0.2034 -0.1378  0.0048
  249MPD1    H5 3837   1.696   1.904  10.546  1.2126  1.3113 -1.6068
  249MPD1    N1 3838   1.360   1.628  10.738  0.4041 -0.0990 -0.2716
  249MPD1    H6 3839   1.355   1.711  10.797 -0.5931  0.8331 -1.6789
  249MPD1    H7 3840   1.274   1.573  10.745  0.8416 -0.7206  0.2004
  250MPD2     C 3841   1.760   2.226  13.641 -0.1517 -0.5299 -0.1381
  250MPD2    C1 3842   1.766   2.167  13.520 -0.3677 -0.6378 -0.1889
  250MPD2    C2 3843   1.676   2.073  13.481 -0.5953 -0.0398  0.0883
  250MPD2    C3 3844   1.579   2.030  13.571 -0.4877  0.5185  0.1495
  250MPD2    C4 3845   1.567   2.085  13.690 -0.6434  0.2442 -0.8824
  250MPD2    C5 3846   1.656   2.183  13.726 -0.0345  0.4403  0.7571
  250MPD2     H 3847   1.693   2.034  13.381  0.3105  1.6992 -0.4296
  250MPD2    H1 3848   1.482   2.060  13.754  1.0847 -1.4618  0.7416
  250MPD2    H2 3849   1.832   2.296  13.680  0.2172 -0.2857 -1.2644
  250MPD2    H3 3850   1.649   2.242  13.816 -0.9245  0.6713  0.5405
  250MPD2     N 3851   1.479   1.931  13.537  0.0976  0.0712  0.0571
  250MPD2    H5 3852   1.421   1.895  13.612 -0.2685  0.3734 -0.0804
  250MPD2    N1 3853   1.871   2.195  13.423 -0.3761 -0.0922 -0.6275
  250MPD2    H7 3854   1.889   2.127  13.350 -0.3445 -0.0305 -0.6775
  251TMC3    C1 3855   2.054   2.319  13.330  0.0172 -0.2492 -0.3558
  251TMC3    C2 3856   2.095   2.451  13.324  0.1298  0.4403 -0.3526
  251TMC3    C3 3857   2.202   2.478  13.243  0.7165 -0.6960 -0.9416
  251TMC3    C4 3858   2.126   2.225  13.267  0.2651  0.1596 -0.0983
  251TMC3    C5 3859   2.241   2.254  13.200 -0.2532  0.0531  0.1359
  251TMC3    C6 3860   2.271   2.383  13.175 -0.2953  1.0134 -0.0869
  251TMC3     C 3861   1.953   2.303  13.437  0.3647  0.3018 -0.2441
  251TMC3     O 3862   1.943   2.394  13.515  0.1616  0.2679 -0.3841
  251TMC3     H 3863   2.044   2.529  13.380  1.3066  2.0899 -1.5720
  251TMC3    H1 3864   2.097   2.121  13.280 -1.0169  0.6175  0.6796
  251TMC3    H2 3865   2.351   2.416  13.109  0.3702 -0.7825 -0.1775
  251TMC3    C7 3866   2.368   2.170  13.208  0.2140 -0.2227 -0.6620
  251TMC3    C8 3867   2.290   2.581  13.289 -0.1269  0.3129 -0.2880
  251TMC3    O1 3868   2.469   2.233  13.191  0.2278 -0.1730 -0.4867
  251TMC3    O2 3869   2.381   2.621  13.220 -0.7667  0.2575  0.0712
  252TMC3    C1 3870   2.641   3.047   9.521 -0.1142 -0.6982  0.1694
  252TMC3    C2 3871   2.706   3.169   9.515  0.4231  0.4762  0.5583
  252TMC3    C3 3872   2.736   3.242   9.626  0.3269  0.2663 -0.6779
  252TMC3    C4 3873   2.597   2.999   9.643  0.0205  0.0241  0.0731
  252TMC3    C5 3874   2.640   3.063   9.755  0.8374  0.0164 -0.0493
  252TMC3    C6 3875   2.706   3.180   9.744  0.2595  1.1267  0.2542
  252TMC3     C 3876   2.584   2.990   9.396 -1.1278  0.8144  0.3697
  252TMC3     O 3877   2.497   2.903   9.404  0.4621 -0.2834  0.2172
  252TMC3     H 3878   2.725   3.219   9.421 -3.8199 -1.8110 -1.5445
  252TMC3    H1 3879   2.533   2.912   9.654  0.9282 -0.4144  1.9759
  252TMC3    H2 3880   2.710   3.239   9.835  0.3020  2.4209 -0.5974
  252TMC3    C7 3881   2.630   3.000   9.880 -0.7105  0.1001  0.1921
  252TMC3    C8 3882   2.767   3.384   9.610 -0.0731  0.2000  0.9745
  252TMC3    O1 3883   2.641   3.068   9.981 -0.2092 -0.0238 -0.5446
  252TMC3    O2 3884   2.754   3.431   9.500  0.0714 -0.5981 -0.1302
  253MPD2     C 3885   3.426   1.641  15.394 -0.4722 -0.2170 -0.0994
  253MPD2    C1 3886   3.303   1.591  15.380  0.0329  0.4882 -0.5740
  253MPD2    C2 3887   3.235   1.526  15.482  0.0473  0.6125  0.5316
  253MPD2    C3 3888   3.298   1.515  15.608  0.6811  0.1167  0.0431
  253MPD2    C4 3889   3.424   1.569  15.621  1.0186  0.3204 -0.3584
  253MPD2    C5 3890   3.487   1.625  15.517  0.9201  0.2632 -0.7436
  253MPD2     H 3891   3.128   1.510  15.474  0.1555 -0.1788  0.7416
  253MPD2    H1 3892   3.476   1.569  15.716 -1.7066 -0.1194  1.1313
  253MPD2    H2 3893   3.482   1.687  15.313 -0.2532 -3.3717 -1.7618
  253MPD2    H3 3894   3.588   1.659  15.531  0.2089  1.9623  0.2821
  253MPD2     N 3895   3.230   1.463  15.720 -0.4589  0.8263 -0.3481
  253MPD2    H5 3896   3.279   1.486  15.806 -0.9670  1.4344 -0.2206
  253MPD2    N1 3897   3.236   1.600  15.252  0.1660  0.2304 -0.2621
  253MPD2    H7 3898   3.148   1.551  15.241  0.1810  0.3706 -1.0278
  254TMC3    C1 3899   3.051   1.372  15.853  0.4317  0.7196 -0.5345
  254TMC3    C2 3900   2.916   1.394  15.880 -0.6694 -0.2335 -0.8166
  254TMC3    C3 3901   2.860   1.353  16.003 -0.0976 -0.0400  0.1071
  254TMC3    C4 3902   3.135   1.301  15.940 -0.8290  1.1433 -0.3646
  254TMC3    C5 3903   3.073   1.260  16.052  0.1917  0.7287 -0.2908
  254TMC3    C6 3904   2.942   1.280  16.088 -0.2440  0.9489  0.5812
  254TMC3     C 3905   3.105   1.418  15.725 -0.8012  0.4198 -0.1095
  254TMC3     O 3906   3.013   1.426  15.643  0.1939  0.2735 -0.1181
  254TMC3     H 3907   2.861   1.451  15.806  1.5557  1.0428 -1.4972
  254TMC3    H1 3908   3.228   1.255  15.909 -1.3613  0.5981 -1.1905
  254TMC3    H2 3909   2.917   1.284  16.193  0.0582 -1.5832  0.7323
  254TMC3    C7 3910   3.158   1.212  16.158 -1.3394  0.7483  0.3138
  254TMC3    C8 3911   2.750   1.425  16.062 -0.4793  0.0478 -0.1481
  254TMC3    O1 3912   3.103   1.164  16.256  0.2071 -0.0681 -0.6411
  254TMC3    O2 3913   2.708   1.373  16.167 -0.5097 -0.0316  0.7806
  255MPD2     C 3914   1.219   0.089  11.514  0.5843 -0.5841  0.4307
  255MPD2    C1 3915   1.283   0.139  11.407 -0.2764 -0.6329  0.1099
  255MPD2    C2 3916   1.421   0.107  11.378  0.1506 -0.5096  0.6829
  255MPD2    C3 3917   1.487   0.023  11.465  0.5055  0.6786 -0.7014
  255MPD2    C4 3918   1.420   4.716  11.581  0.6864  0.2105 -0.9375
  255MPD2    C5 3919   1.297   0.026  11.608 -0.9154  0.3163 -0.2756
  255MPD2     H 3920   1.459   0.134  11.280  2.6357  1.5712  2.1998
  255MPD2    H1 3921   1.468   4.643  11.645  2.1081  0.5087 -1.6600
  255MPD2    H2 3922   1.112   0.106  11.515  0.7240  0.1979  2.7185
  255MPD2    H3 3923   1.248   4.728  11.698  0.2520  0.9731  0.5943
  255MPD2     N 3924   1.615   4.713  11.422  0.0869 -0.3428 -0.7870
  255MPD2    H5 3925   1.655   0.005  11.333 -1.0445  1.8379 -0.6124
  255MPD2    N1 3926   1.204   0.188  11.303 -0.0516 -0.0521 -0.5588
  255MPD2    H7 3927   1.104   0.169  11.302 -0.6370  2.7958  0.6688
  256TMC3    C1 3928   1.153   0.257  11.084 -0.5865 -0.2277  0.7459
  256TMC3    C2 3929   1.154   0.371  11.010 -0.0719 -0.2742 -0.6016
  256TMC3    C3 3930   1.098   0.362  10.885  0.0579 -0.9423  0.2858
  256TMC3    C4 3931   1.105   0.142  11.031  0.0048 -0.4767  0.3747
  256TMC3    C5 3932   1.052   0.145  10.900 -0.1751  0.0037 -0.1494
  256TMC3    C6 3933   1.045   0.257  10.825  1.0698 -1.0237 -0.7317
  256TMC3     C 3934   1.255   0.253  11.192 -0.3567 -0.0594  0.3955
  256TMC3     O 3935   1.355   0.322  11.178  0.1192 -0.2419  0.7012
  256TMC3     H 3936   1.196   0.460  11.057  1.7969 -2.3080  1.5558
  256TMC3    H1 3937   1.107   0.048  11.084 -0.2416 -0.1403  0.9716
  256TMC3    H2 3938   1.007   0.259  10.723 -1.9556  2.7600  0.4565
  256TMC3    C7 3939   1.045   0.019  10.827  0.1272  1.2999  0.0341
  256TMC3    C8 3940   1.112   0.482  10.802 -0.6888  0.1987  0.1918
  256TMC3    O1 3941   0.992   4.663  10.882  0.1573 -0.0692  0.4104
  256TMC3    O2 3942   1.023   0.490  10.717 -0.1426 -0.2990 -0.1244
  257MPD2     C 3943   0.566   1.928  13.418  0.0660  0.4618 -0.1857
  257MPD2    C1 3944   0.607   1.854  13.308  0.6708 -0.0270  0.5064
  257MPD2    C2 3945   0.660   1.733  13.335 -0.3787 -0.9022  0.0571
  257MPD2    C3 3946   0.656   1.668  13.459  0.6925 -0.0832  0.3011
  257MPD2    C4 3947   0.604   1.738  13.561  0.4527 -0.0007 -0.1585
  257MPD2    C5 3948   0.561   1.864  13.544  0.4432  0.0710  0.0485
  257MPD2     H 3949   0.696   1.677  13.249  0.0404 -0.8288  0.1828
  257MPD2    H1 3950   0.604   1.692  13.659  0.6659 -0.3153 -0.3081
  257MPD2    H2 3951   0.533   2.031  13.414 -2.3077 -0.3222 -0.7902
  257MPD2    H3 3952   0.529   1.915  13.634  0.9414  0.2626  0.1179
  257MPD2     N 3953   0.712   1.544  13.478 -0.3647 -0.0302  0.2260
  257MPD2    H5 3954   0.740   1.500  13.391  0.3633  0.6823  0.1028
  257MPD2    N1 3955   0.609   1.921  13.183  0.0762 -0.2569 -0.7263
  257MPD2    H7 3956   0.604   2.023  13.186  0.3519 -0.1846 -2.4785
  258TMC3    C1 3957   0.827   1.355  13.603 -0.4210  0.3835 -0.8287
  258TMC3    C2 3958   0.912   1.325  13.498 -0.0695 -0.3165  0.1241
  258TMC3    C3 3959   1.014   1.238  13.517  1.0442 -0.2374  0.8323
  258TMC3    C4 3960   0.844   1.302  13.724  0.3873  0.8000  0.5868
  258TMC3    C5 3961   0.951   1.219  13.743 -0.3330  0.0739 -0.5800
  258TMC3    C6 3962   1.035   1.179  13.641 -0.2366  0.7419 -0.4587
  258TMC3     C 3963   0.731   1.472  13.599 -0.4548  0.5082  0.1799
  258TMC3     O 3964   0.694   1.502  13.712  0.1411 -0.2420  0.0276
  258TMC3     H 3965   0.888   1.364  13.400 -0.1313 -1.3605 -0.2795
  258TMC3    H1 3966   0.779   1.317  13.809 -1.7962 -1.6818 -0.6641
  258TMC3    H2 3967   1.106   1.098  13.647 -1.3880 -0.2584 -0.2742
  258TMC3    C7 3968   0.923   1.121  13.846 -0.8983 -0.2859  0.0751
  258TMC3    C8 3969   1.097   1.186  13.412  0.2432 -0.1548  1.2173
  258TMC3    O1 3970   0.804   1.097  13.875 -0.1978 -0.5780 -0.3439
  258TMC3    O2 3971   1.032   1.130  13.328 -0.0952 -0.2032  0.7316
  259MPD2     C 3972   3.674   2.782   0.761 -0.3902  0.9215 -0.2400
  259MPD2    C1 3973   3.774   2.695   0.750 -0.1758 -0.0312  0.0806
  259MPD2    C2 3974   3.845   2.691   0.628 -0.1657 -0.7685  0.5226
  259MPD2    C3 3975   3.815   2.789   0.530  0.5838  0.3801 -0.0107
  259MPD2    C4 3976   3.710   2.873   0.545 -0.3143 -0.7008  0.2281
  259MPD2    C5 3977   3.640   2.867   0.660  0.1470  0.1852 -0.1498
  259MPD2     H 3978   3.924   2.617   0.615 -0.3119 -0.3852 -2.6125
  259MPD2    H1 3979   3.676   2.950   0.477 -0.7429 -0.6887  0.4583
  259MPD2    H2 3980   3.613   2.793   0.850 -0.7563  3.1267 -0.7575
  259MPD2    H3 3981   3.565   2.944   0.672 -0.6415 -0.8671  1.7472
  259MPD2     N 3982   3.902   2.805   0.425  0.5659 -0.3984 -0.0855
  259MPD2    H5 3983   3.968   2.729   0.408  0.6421 -0.5824  0.9916
  259MPD2    N1 3984   3.800   2.611   0.859 -0.5147  0.3240 -0.3652
  259MPD2    H7 3985   3.736   2.619   0.938 -0.0133  1.6065 -0.0932
  260TMC3    C1 3986   4.012   2.911   0.258  0.0504  0.8107 -0.1471
  260TMC3    C2 3987   4.080   3.024   0.225 -0.0299  0.2172  0.0206
  260TMC3    C3 3988   4.182   3.013   0.131  0.1465  0.6533  0.1260
  260TMC3    C4 3989   4.026   2.792   0.193  1.0018  0.5190  1.1554
  260TMC3    C5 3990   4.128   2.785   0.096  0.4789 -0.0583 -0.7876
  260TMC3    C6 3991   4.207   2.893   0.067 -0.5067 -0.3578 -0.2402
  260TMC3     C 3992   3.905   2.918   0.351  0.1773 -0.0083 -0.3365
  260TMC3     O 3993   3.863   3.031   0.373 -0.2783 -0.3138 -0.2845
  260TMC3     H 3994   4.075   3.109   0.292 -2.7070 -1.3856  1.8642
  260TMC3    H1 3995   3.970   2.703   0.221 -0.4564  0.9401 -0.3883
  260TMC3    H2 3996   4.281   2.895  17.731 -0.0180 -2.2422  0.1743
  260TMC3    C7 3997   4.141   2.671   0.005 -0.1867 -0.2393 -0.1166
  260TMC3    C8 3998   4.293   3.102   0.147 -0.7650  0.0448 -0.3349
  260TMC3    O1 3999   4.214   2.684  17.651  0.1840 -0.0671 -0.2400
  260TMC3    O2 4000   4.275   3.219   0.189  0.7214  0.6961  0.2726
  261MPD2     C 4001   1.160   1.476  12.885 -0.2619  0.0225 -0.6072
  261MPD2    C1 4002   1.226   1.590  12.924 -0.0289 -0.0031 -0.7798
  261MPD2    C2 4003   1.261   1.673  12.818  0.9097 -0.8416 -0.3628
  261MPD2    C3 4004   1.253   1.646  12.688  0.8319 -0.5316 -0.1142
  261MPD2    C4 4005   1.185   1.534  12.648 -1.0773  0.5803 -0.2715
  261MPD2    C5 4006   1.144   1.447  12.751 -0.0831 -0.2423 -0.4624
  261MPD2     H 4007   1.291   1.775  12.840  0.2349 -0.3465 -1.7512
  261MPD2    H1 4008   1.158   1.516  12.545 -1.6832  1.9452 -0.3576
  261MPD2    H2 4009   1.122   1.397  12.950 -1.4316 -0.4494 -1.8575
  261MPD2    H3 4010   1.099   1.359  12.707 -0.6424 -0.2092  0.0418
  261MPD2     N 4011   1.308   1.738  12.593 -0.0960 -0.3977 -0.0288
  261MPD2    H5 4012   1.346   1.820  12.641  0.8960  0.6680 -2.6281
  261MPD2    N1 4013   1.252   1.623  13.062 -1.1007  1.0906  0.0457
  261MPD2    H7 4014   1.317   1.700  13.077  1.2682 -1.7746  4.4660
  262TMC3    C1 4015   1.407   1.813  12.383  0.1716 -0.1240 -0.5230
  262TMC3    C2 4016   1.396   1.944  12.424 -0.0359 -0.2690  0.0512
  262TMC3    C3 4017   1.448   2.042  12.345  0.0910  0.6841  0.0932
  262TMC3    C4 4018   1.445   1.781  12.257 -0.0228  0.1778 -0.8452
  262TMC3    C5 4019   1.495   1.882  12.176 -0.0580 -0.2816  0.5367
  262TMC3    C6 4020   1.497   2.013  12.220 -0.4424 -0.1057 -0.4049
  262TMC3     C 4021   1.338   1.703  12.461 -0.2652  0.1137  0.3737
  262TMC3     O 4022   1.301   1.608  12.392 -0.4665  0.3847 -0.3049
  262TMC3     H 4023   1.370   1.972  12.526 -2.7953 -2.5897 -0.0095
  262TMC3    H1 4024   1.431   1.680  12.220 -1.9435 -0.0721  0.6133
  262TMC3    H2 4025   1.521   2.092  12.150 -1.8973  0.9744  0.3075
  262TMC3    C7 4026   1.602   1.830  12.089  0.6371 -0.5847  0.5167
  262TMC3    C8 4027   1.456   2.180  12.393  0.6744 -1.1926 -0.4901
  262TMC3    O1 4028   1.609   1.713  12.053  0.0566 -0.3054  0.2970
  262TMC3    O2 4029   1.543   2.245  12.338 -0.2066  0.3605 -0.4981
  263MPD2     C 4030   2.494   1.125  12.113 -0.5243  0.2654 -0.1045
  263MPD2    C1 4031   2.608   1.082  12.051 -0.6180 -0.1586  0.1296
  263MPD2    C2 4032   2.621   1.103  11.916 -0.0602 -0.0703  0.2006
  263MPD2    C3 4033   2.521   1.165  11.842 -0.3882  0.2535  0.2598
  263MPD2    C4 4034   2.409   1.207  11.908  0.3703 -0.0339 -0.1354
  263MPD2    C5 4035   2.394   1.188  12.040 -0.1113 -0.3396 -0.0857
  263MPD2     H 4036   2.706   1.071  11.857  0.5162 -1.9348  2.0266
  263MPD2    H1 4037   2.332   1.265  11.859 -0.5211 -0.4467  0.7817
  263MPD2    H2 4038   2.474   1.104  12.217  0.8826 -0.1594  0.0851
  263MPD2    H3 4039   2.304   1.211  12.097 -0.4939 -0.9288 -0.4571
  263MPD2     N 4040   2.552   1.175  11.707  0.1463 -0.8368  0.5669
  263MPD2    H5 4041   2.640   1.134  11.678 -0.5393 -1.4659 -0.6112
  263MPD2    N1 4042   2.707   1.026  12.136 -0.4365  0.5125 -0.7803
  263MPD2    H7 4043   2.683   1.015  12.234  0.7570  0.2226 -0.5177
  264TMC3    C1 4044   2.562   1.272  11.501 -0.1185 -0.2909  0.8656
  264TMC3    C2 4045   2.620   1.397  11.499  0.9802  0.6994 -0.8828
  264TMC3    C3 4046   2.744   1.409  11.442  0.8410  0.3309 -0.9536
  264TMC3    C4 4047   2.622   1.161  11.444  0.2265 -0.4591  0.6178
  264TMC3    C5 4048   2.749   1.184  11.386 -1.3459  0.1105  0.2119
  264TMC3    C6 4049   2.803   1.303  11.385 -0.8947 -0.3890 -0.0605
  264TMC3     C 4050   2.479   1.247  11.616 -0.4473 -0.9431  0.8587
  264TMC3     O 4051   2.387   1.324  11.643 -0.5343  0.1714  1.1603
  264TMC3     H 4052   2.556   1.478  11.533  0.9784  0.5650 -0.5729
  264TMC3    H1 4053   2.572   1.065  11.451 -0.6415 -0.1143 -0.7785
  264TMC3    H2 4054   2.906   1.311  11.351 -1.0580 -2.1839 -0.9597
  264TMC3    C7 4055   2.795   1.104  11.279  0.4008 -0.0554  0.1740
  264TMC3    C8 4056   2.800   1.534  11.405 -0.1333 -0.5816 -0.5937
  264TMC3    O1 4057   2.911   1.120  11.247 -0.2855 -0.0808  0.8616
  264TMC3    O2 4058   2.868   1.517  11.306  0.1912  0.1244 -0.5478
  265MPD2     C 4059   4.408   0.731  16.001 -0.9883  1.2064 -0.3585
  265MPD2    C1 4060   4.459   0.851  15.955  0.0807 -0.2441  0.6504
  265MPD2    C2 4061   4.549   0.854  15.851  0.1658 -0.1025 -0.0333
  265MPD2    C3 4062   4.606   0.735  15.809  0.0645  0.0373 -0.3185
  265MPD2    C4 4063   4.571   0.615  15.871 -0.7348  0.0184  0.3173
  265MPD2    C5 4064   4.472   0.610  15.967  0.0884  0.3419  0.0261
  265MPD2     H 4065   4.579   0.950  15.811  0.6249 -0.2896 -0.1374
  265MPD2    H1 4066   4.617   0.522  15.839 -0.3303 -0.3469  1.9607
  265MPD2    H2 4067   4.340   0.734  16.085 -3.1280  0.8679 -2.1021
  265MPD2    H3 4068   4.441   0.523  16.024 -2.2651  0.9352 -0.3188
  265MPD2     N 4069   4.706   0.723  15.720  0.3304  0.3959 -0.4565
  265MPD2    H5 4070   4.734   0.628  15.700  0.4359  0.2619  0.3037
  265MPD2    N1 4071   4.399   0.975  15.996 -0.1083  0.0707  0.7574
  265MPD2    H7 4072   4.467   1.050  15.986 -1.2269  0.5027 -3.6154
  266TMC3    C1 4073   4.238   1.113  16.103  0.2221  0.1099 -1.4902
  266TMC3    C2 4074   4.331   1.192  16.169  0.1713 -0.1637  0.2405
  266TMC3    C3 4075   4.306   1.317  16.218  0.0561 -0.2351 -0.1080
  266TMC3    C4 4076   4.115   1.157  16.103  0.6127  0.2022  0.0265
  266TMC3    C5 4077   4.093   1.282  16.151  0.2786  0.5211  0.0888
  266TMC3    C6 4078   4.183   1.366  16.207  0.2805 -0.2492  0.3471
  266TMC3     C 4079   4.275   0.979  16.059 -0.5825  0.5331 -0.0662
  266TMC3     O 4080   4.179   0.899  16.043  0.3271 -0.1869 -0.5995
  266TMC3     H 4081   4.430   1.155  16.191  0.3060  0.7482  1.1952
  266TMC3    H1 4082   4.032   1.099  16.063  1.2161  1.4077 -2.9413
  266TMC3    H2 4083   4.143   1.462  16.238 -0.2883 -0.1286 -0.7606
  266TMC3    C7 4084   3.964   1.344  16.124 -0.1464  0.6012  0.0477
  266TMC3    C8 4085   4.411   1.398  16.281 -0.0836  0.2740  0.2547
  266TMC3    O1 4086   3.884   1.359  16.213  0.0119 -0.2971  0.2546
  266TMC3    O2 4087   4.510   1.335  16.310  0.3485  0.2159  0.2064
  267MPD2     C 4088   1.377   3.093   0.577 -0.2400  0.2581 -0.8756
  267MPD2    C1 4089   1.464   3.188   0.525  0.9192 -0.3361  0.2871
  267MPD2    C2 4090   1.436   3.239   0.402 -0.1832 -0.8429 -0.0051
  267MPD2    C3 4091   1.328   3.194   0.329 -1.4748  0.0326 -0.0813
  267MPD2    C4 4092   1.250   3.091   0.378  0.3346 -0.5124  0.1270
  267MPD2    C5 4093   1.274   3.051   0.506  0.0295  0.0121 -0.0579
  267MPD2     H 4094   1.505   3.306   0.353 -3.0567  3.1383  1.4133
  267MPD2    H1 4095   1.176   3.043   0.315  0.5838  0.5381 -0.9719
  267MPD2    H2 4096   1.385   3.051   0.676  0.5128  2.4361  0.0014
  267MPD2    H3 4097   1.210   2.977   0.553  0.1243 -0.0792 -0.0724
  267MPD2     N 4098   1.300   3.249   0.204 -0.7307  0.0101 -0.2943
  267MPD2    H5 4099   1.236   3.203   0.139 -1.0412  1.0322 -0.7054
  267MPD2    N1 4100   1.580   3.232   0.591 -0.1835 -0.4114  0.5736
  267MPD2    H7 4101   1.629   3.303   0.539 -1.5113  1.3017  1.6795
  268TMC3    C1 4102   1.785   3.190   0.681  0.5249  0.7317 -0.1736
  268TMC3    C2 4103   1.818   3.277   0.581 -0.2328  0.1943  0.6960
  268TMC3    C3 4104   1.902   3.241   0.479 -0.4158  0.9880 -0.7465
  268TMC3    C4 4105   1.833   3.066   0.673  0.2677  0.6431  0.1845
  268TMC3    C5 4106   1.912   3.027   0.567  0.3997 -0.7495 -0.8198
  268TMC3    C6 4107   1.938   3.112   0.463  0.3182 -0.0717  0.8306
  268TMC3     C 4108   1.644   3.183   0.704 -1.2667 -0.7401  0.4665
  268TMC3     O 4109   1.612   3.084   0.773  0.5208 -0.2608 -0.3902
  268TMC3     H 4110   1.781   3.379   0.582  0.3453  0.4158 -0.6591
  268TMC3    H1 4111   1.801   2.989   0.743 -0.0190  0.2465 -0.3870
  268TMC3    H2 4112   2.012   3.080   0.391  0.5797 -0.2562  1.1815
  268TMC3    C7 4113   1.955   2.890   0.558 -0.0799  0.1448  0.3119
  268TMC3    C8 4114   1.939   3.345   0.384 -0.6528  0.1495 -0.7953
  268TMC3    O1 4115   1.974   2.833   0.666 -0.0866  0.1965  0.3522
  268TMC3    O2 4116   1.927   3.462   0.420 -0.0888  0.1279  0.0336
  269MPD2     C 4117   2.426   1.719  15.603 -0.4770 -0.3616  0.4019
  269MPD2    C1 4118   2.316   1.723  15.687 -0.1145 -0.1966  0.5779
  269MPD2    C2 4119   2.242   1.838  15.692 -1.1682  0.1308  0.1280
  269MPD2    C3 4120   2.284   1.949  15.623  0.4097 -0.5999  0.6834
  269MPD2    C4 4121   2.390   1.943  15.537 -0.4768  0.3250 -0.0544
  269MPD2    C5 4122   2.458   1.828  15.524 -0.2432  0.1078  0.1128
  269MPD2     H 4123   2.154   1.841  15.755  0.0973  3.3731  1.7466
  269MPD2    H1 4124   2.430   2.024  15.477 -0.7279 -0.3268 -1.0963
  269MPD2    H2 4125   2.478   1.626  15.580 -0.6869 -0.5545  0.7171
  269MPD2    H3 4126   2.545   1.827  15.459  0.8278  0.3216  1.5502
  269MPD2     N 4127   2.215   2.073  15.644  0.3107  0.2356  0.2185
  269MPD2    H5 4128   2.151   2.079  15.723  2.2408 -0.1216  1.8076
  269MPD2    N1 4129   2.288   1.608  15.769  0.0356  0.1852 -0.4803
  269MPD2    H7 4130   2.342   1.525  15.746 -0.8624 -0.9542  1.5274
  270TMC3    C1 4131   2.159   1.442  15.885  0.2127  0.0567  0.5996
  270TMC3    C2 4132   2.034   1.388  15.875  0.2228 -0.6415  0.5464
  270TMC3    C3 4133   2.023   1.256  15.860  0.3879 -0.6254  0.0402
  270TMC3    C4 4134   2.274   1.369  15.884  0.3617  0.0798  0.0858
  270TMC3    C5 4135   2.262   1.237  15.876 -0.5104  0.7133 -0.1589
  270TMC3    C6 4136   2.138   1.178  15.859  0.2874 -0.3470 -0.6935
  270TMC3     C 4137   2.177   1.583  15.849 -0.5685  0.1537 -0.0540
  270TMC3     O 4138   2.094   1.663  15.887  0.0316 -0.2656  0.4665
  270TMC3     H 4139   1.952   1.457  15.864  0.1940 -0.9371 -1.0636
  270TMC3    H1 4140   2.368   1.407  15.921  0.7269 -0.5091 -0.2267
  270TMC3    H2 4141   2.134   1.070  15.843 -0.2921 -0.5982  1.1903
  270TMC3    C7 4142   2.370   1.151  15.840 -0.5663 -0.2769  0.5295
  270TMC3    C8 4143   1.911   1.207  15.790  0.7984  1.0236  0.9361
  270TMC3    O1 4144   2.465   1.129  15.918  0.1224  0.0432  0.1922
  270TMC3    O2 4145   1.854   1.282  15.713  0.1878 -0.1832  0.6416
  271MPD2     C 4146   1.369   1.716  14.321 -0.2244  0.5389 -0.4009
  271MPD2    C1 4147   1.315   1.637  14.419 -0.2861 -0.3798  0.0002
  271MPD2    C2 4148   1.180   1.635  14.430  0.1004 -0.4069  0.1711
  271MPD2    C3 4149   1.101   1.730  14.366  0.2632 -0.1613 -0.7811
  271MPD2    C4 4150   1.163   1.812  14.272  0.5161 -0.1294 -0.6046
  271MPD2    C5 4151   1.296   1.803  14.250  0.0065  0.8777  0.1919
  271MPD2     H 4152   1.137   1.570  14.505 -0.2871 -0.0197  0.2855
  271MPD2    H1 4153   1.101   1.895  14.239  1.3324  0.8714  0.3939
  271MPD2    H2 4154   1.472   1.709  14.288 -0.1226  1.1401 -0.2172
  271MPD2    H3 4155   1.334   1.871  14.174 -0.6347  2.7428  1.5247
  271MPD2     N 4156   0.965   1.745  14.386  0.1368 -0.0361  0.3062
  271MPD2    H5 4157   0.923   1.826  14.343  0.5493 -0.4196 -0.8240
  271MPD2    N1 4158   1.397   1.561  14.509 -0.2400 -0.3905  0.1892
  271MPD2    H7 4159   1.346   1.502  14.574  0.3003 -0.5866  0.4370
  272TMC3    C1 4160   1.565   1.420  14.594  0.3413 -0.6817  0.3193
  272TMC3    C2 4161   1.697   1.407  14.601  0.4176 -0.1027  0.7218
  272TMC3    C3 4162   1.754   1.321  14.694 -0.0959 -0.3302  0.8896
  272TMC3    C4 4163   1.477   1.354  14.677  0.1024 -0.3745  0.1942
  272TMC3    C5 4164   1.538   1.275  14.770  0.0606 -0.2488  0.3515
  272TMC3    C6 4165   1.675   1.259  14.783 -1.2276 -0.1636 -0.0416
  272TMC3     C 4166   1.526   1.520  14.493  0.2120  0.1139 -0.4831
  272TMC3     O 4167   1.602   1.558  14.402 -0.0714  0.2636  0.1505
  272TMC3     H 4168   1.757   1.467  14.534  1.5715 -0.8507  1.0933
  272TMC3    H1 4169   1.372   1.375  14.690  0.4497  1.5405 -0.0685
  272TMC3    H2 4170   1.710   1.199  14.866  1.2260  1.1565 -0.1486
  272TMC3    C7 4171   1.463   1.258  14.893 -0.5983 -0.1366  0.1955
  272TMC3    C8 4172   1.904   1.305  14.690 -0.7054 -0.0837  0.2223
  272TMC3    O1 4173   1.343   1.229  14.888 -0.7333  0.0647 -0.0587
  272TMC3    O2 4174   1.963   1.401  14.642  0.1549 -0.3616  0.7564
  273MPD2     C 4175   3.225   4.609  12.199 -0.3610 -0.5830  0.2372
  273MPD2    C1 4176   3.354   4.658  12.182 -0.2139  0.9266 -0.0442
  273MPD2    C2 4177   3.381   4.729  12.065 -0.2384  0.5980  0.0759
  273MPD2    C3 4178   3.283   0.012  11.965  0.0050 -0.5501 -0.1283
  273MPD2    C4 4179   3.157   4.695  11.982 -0.3846  0.4000  0.4338
  273MPD2    C5 4180   3.132   4.626  12.099  0.2961  0.4690  0.7098
  273MPD2     H 4181   3.482   0.032  12.052 -0.4472  1.9542  2.5298
  273MPD2    H1 4182   3.094   4.695  11.894  1.2696 -0.3362 -0.7680
  273MPD2    H2 4183   3.202   4.547  12.285 -0.8003 -1.7418 -0.7204
  273MPD2    H3 4184   3.032   4.594  12.125  0.3213  0.4919  0.8377
  273MPD2     N 4185   3.292   0.078  11.844 -0.8407 -0.6623  0.9556
  273MPD2    H5 4186   3.205   0.078  11.791 -0.8854 -0.2823  1.0312
  273MPD2    N1 4187   3.446   4.632  12.284 -0.1185  0.3994 -0.2253
  273MPD2    H7 4188   3.415   4.566  12.355  0.6727  0.9129  0.5887
  274TMC3    C1 4189   3.380   0.223  11.679  0.3871 -0.3116  0.3848
  274TMC3    C2 4190   3.297   0.200  11.574 -0.0350  0.0858 -0.2170
  274TMC3    C3 4191   3.317   0.282  11.460  0.2834 -0.0240  0.2843
  274TMC3    C4 4192   3.464   0.329  11.682  0.1217 -0.4255 -0.6740
  274TMC3    C5 4193   3.454   0.413  11.578 -0.4491 -0.0037 -0.5252
  274TMC3    C6 4194   3.393   0.395  11.459 -0.1222 -0.2856  0.2651
  274TMC3     C 4195   3.402   0.132  11.792  0.1329  0.7470 -0.0184
  274TMC3     O 4196   3.515   0.129  11.842 -0.0555 -0.4449 -0.5784
  274TMC3     H 4197   3.238   0.110  11.566 -0.3974  0.3876 -0.9399
  274TMC3    H1 4198   3.526   0.363  11.764  0.1839 -1.5726 -0.2365
  274TMC3    H2 4199   3.376   0.477  11.390 -2.4647 -0.6355  0.4063
  274TMC3    C7 4200   3.486   0.550  11.611 -0.5102 -0.1985 -0.1428
  274TMC3    C8 4201   3.199   0.281  11.374 -0.4784 -0.2024  0.5427
  274TMC3    O1 4202   3.521   0.625  11.523 -0.0755  0.2388  0.2539
  274TMC3    O2 4203   3.098   0.232  11.420 -0.3365 -1.0151 -0.2288
  275MPD2     C 4204   2.797   2.203  14.816  0.1813 -0.0055 -0.0899
  275MPD2    C1 4205   2.739   2.326  14.809 -0.1814  0.2365 -0.4605
  275MPD2    C2 4206   2.600   2.331  14.804  0.7335  0.4546  0.5780
  275MPD2    C3 4207   2.514   2.222  14.804  0.5645 -0.0516 -0.4276
  275MPD2    C4 4208   2.578   2.102  14.818  0.4249  0.5759 -0.1054
  275MPD2    C5 4209   2.716   2.094  14.824  0.3174  0.2310 -0.8773
  275MPD2     H 4210   2.568   2.434  14.800 -0.6087  0.0593  1.3411
  275MPD2    H1 4211   2.524   2.007  14.817 -1.4117  1.5941  1.2775
  275MPD2    H2 4212   2.905   2.188  14.811  0.1197 -0.9638  1.4378
  275MPD2    H3 4213   2.762   1.996  14.823  1.2569  0.6690 -1.1594
  275MPD2     N 4214   2.368   2.227  14.811 -0.5094  0.0420  0.4710
  275MPD2    H5 4215   2.317   2.140  14.803  2.7538 -1.7203 -1.4469
  275MPD2    N1 4216   2.802   2.451  14.809  0.8562  0.1679 -0.1863
  275MPD2    H7 4217   2.732   2.525  14.807 -0.5124 -1.1428 -0.6228
  276TMC3    C1 4218   2.937   2.593  14.935  0.1325 -0.5005 -0.1615
  276TMC3    C2 4219   2.818   2.618  15.005 -0.4265 -0.1117  0.3039
  276TMC3    C3 4220   2.825   2.682  15.126 -0.0030 -0.2111  0.2115
  276TMC3    C4 4221   3.064   2.633  14.981  0.2805 -0.6145 -0.8478
  276TMC3    C5 4222   3.059   2.713  15.095  0.5380  0.5129  0.0124
  276TMC3    C6 4223   2.944   2.726  15.171 -0.1621  0.3584  0.5735
  276TMC3     C 4224   2.930   2.471  14.859 -0.0900  0.5074 -0.1991
  276TMC3     O 4225   3.033   2.405  14.864  0.3485  0.0077  0.1868
  276TMC3     H 4226   2.718   2.592  14.973  0.6113 -2.3412 -1.1855
  276TMC3    H1 4227   3.156   2.598  14.935  1.1003 -0.7127  0.8999
  276TMC3    H2 4228   2.957   2.763  15.272  1.4719 -0.9376  0.8444
  276TMC3    C7 4229   3.181   2.730  15.160 -0.6065  0.1909  0.1175
  276TMC3    C8 4230   2.779   2.596  15.220 -0.2477  1.1809 -0.3663
  276TMC3    O1 4231   3.176   2.755  15.278  1.0748  0.5423  0.9372
  276TMC3    O2 4232   2.740   2.638  15.327  0.1875  0.2493  0.9713
  277MPD2     C 4233   4.686   1.394  13.553 -0.3589 -1.0574 -0.0732
  277MPD2    C1 4234   4.556   1.422  13.589 -0.2409 -0.0855  0.2163
  277MPD2    C2 4235   4.502   1.340  13.691 -0.5280 -0.3833 -0.1365
  277MPD2    C3 4236   4.572   1.230  13.739  0.1322  0.2563  0.5272
  277MPD2    C4 4237   4.703   1.212  13.700 -0.2074 -0.3768 -0.7499
  277MPD2    C5 4238   0.022   1.291  13.609 -0.8572  0.1280 -0.0228
  277MPD2     H 4239   4.401   1.357  13.727  0.0293  1.9886  0.2339
  277MPD2    H1 4240   0.034   1.144  13.752  1.9166  2.7128  0.5600
  277MPD2    H2 4241   0.006   1.444  13.475  0.2327 -0.4833  0.7154
  277MPD2    H3 4242   0.128   1.279  13.591 -0.3593  2.8214  1.1153
  277MPD2     N 4243   4.503   1.136  13.813  0.5824 -0.2458 -0.1594
  277MPD2    H5 4244   4.406   1.156  13.833  1.0517 -0.3179  2.1557
  277MPD2    N1 4245   4.485   1.528  13.534  0.1737 -0.3248  0.0162
  277MPD2    H7 4246   4.535   1.588  13.468  2.4538  0.3403  2.3573
  278TMC3    C1 4247   4.457   0.952  13.947  0.0469 -0.3504  0.0652
  278TMC3    C2 4248   4.477   0.822  13.979  0.7117 -0.6355 -0.3609
  278TMC3    C3 4249   4.379   0.751  14.042  0.0951  0.1449  0.1343
  278TMC3    C4 4250   4.351   1.014  14.005  0.5610  0.6263 -0.2474
  278TMC3    C5 4251   4.255   0.946  14.076  0.1352  1.2285  0.3072
  278TMC3    C6 4252   4.269   0.808  14.092  0.1176 -0.4613  0.3511
  278TMC3     C 4253   4.558   1.017  13.863  0.1002 -0.0061  0.7329
  278TMC3     O 4254   4.665   0.957  13.843 -0.4860  0.1743  0.0412
  278TMC3     H 4255   4.571   0.779  13.946  2.0944  2.3647 -0.3818
  278TMC3    H1 4256   4.340   1.121  14.000 -0.4816  0.4294 -2.4137
  278TMC3    H2 4257   4.199   0.759  14.159 -0.4379 -1.0621 -0.6772
  278TMC3    C7 4258   4.146   1.018  14.146 -0.0487  0.1371 -0.1263
  278TMC3    C8 4259   4.396   0.608  14.041  0.3772 -0.0590  0.1511
  278TMC3    O1 4260   4.175   1.130  14.189 -0.4305 -0.2006  0.0632
  278TMC3    O2 4261   4.502   0.553  14.020 -0.3827  0.1689  0.7460
  279MPD2     C 4262   4.064   0.914   0.114  0.8321 -0.3201 -0.1461
  279MPD2    C1 4263   3.985   1.006   0.050  0.3321 -0.3450 -0.4468
  279MPD2    C2 4264   4.027   1.066  17.676  0.6589  0.0568  0.8561
  279MPD2    C3 4265   4.156   1.032  17.628  0.5096 -0.2049  0.5531
  279MPD2    C4 4266   4.225   0.927  17.681  0.1674  0.2873 -0.7161
  279MPD2    C5 4267   4.180   0.867   0.050 -0.1584  0.5762  0.5053
  279MPD2     H 4268   3.971   1.149  17.635  1.0530  1.0422  2.2994
  279MPD2    H1 4269   4.312   0.887  17.630 -0.1989 -0.5380 -0.6907
  279MPD2    H2 4270   4.032   0.849   0.195 -2.0269  1.3579  0.0609
  279MPD2    H3 4271   4.253   0.801   0.096 -0.6348  0.5963  1.2961
  279MPD2     N 4272   4.225   1.096  17.513  0.0397 -0.2768 -0.7981
  279MPD2    H5 4273   4.314   1.050  17.491 -0.6031 -0.6592 -2.6210
  279MPD2    N1 4274   3.864   1.045   0.121  0.5439  0.4458  0.0011
  279MPD2    H7 4275   3.856   0.992   0.208 -0.8380  0.4715 -0.1106
  280TMC3    C1 4276   3.644   1.127   0.159  0.0509  0.5341  0.5467
  280TMC3    C2 4277   3.612   0.997   0.213 -0.1657 -0.1735 -0.1726
  280TMC3    C3 4278   3.487   0.986   0.273 -0.8599 -0.1973 -0.2273
  280TMC3    C4 4279   3.548   1.223   0.145  0.4542  0.2386 -0.7579
  280TMC3    C5 4280   3.429   1.205   0.207  0.5617 -0.0949 -0.4040
  280TMC3    C6 4281   3.399   1.093   0.281 -0.2122 -0.5503 -0.1851
  280TMC3     C 4282   3.775   1.141   0.089  0.5406  0.1824 -0.2011
  280TMC3     O 4283   3.784   1.230   0.007  0.6902  0.2607  0.5133
  280TMC3     H 4284   3.676   0.909   0.206 -2.4508 -1.8851  0.3793
  280TMC3    H1 4285   3.558   1.304   0.074 -1.1766  0.7327 -0.4326
  280TMC3    H2 4286   3.302   1.070   0.322  0.4923  2.8005  3.3428
  280TMC3    C7 4287   3.324   1.305   0.188  0.5952 -0.4897 -0.5205
  280TMC3    C8 4288   3.428   0.850   0.299  0.6494 -0.7427  0.6164
  280TMC3    O1 4289   3.332   1.356   0.074 -0.2642  0.4551  0.6677
  280TMC3    O2 4290   3.321   0.849   0.353  0.2041  0.0700 -0.4500
  281TMC3    C1 4291   3.031   2.108  13.646 -0.4659 -0.4934 -0.3295
  281TMC3    C2 4292   2.987   2.145  13.523 -0.3136 -0.3621 -0.3317
  281TMC3    C3 4293   2.992   2.057  13.419 -0.7474  0.0479  0.1911
  281TMC3    C4 4294   3.094   1.991  13.661  0.7035  0.0686 -0.3598
  281TMC3    C5 4295   3.107   1.907  13.556  0.3216 -0.2281  0.1872
  281TMC3    C6 4296   3.053   1.936  13.434 -0.4259 -0.9285  0.0033
  281TMC3     C 4297   2.944   2.154  13.755 -0.2393 -0.3587  0.4205
  281TMC3     O 4298   2.896   2.069  13.833  0.0018 -0.5743  0.2125
  281TMC3     H 4299   2.918   2.229  13.519 -0.0885 -0.1523  0.0938
  281TMC3    H1 4300   3.132   1.968  13.760  2.3621  0.0309 -1.0004
  281TMC3    H2 4301   3.076   1.876  13.347 -0.7689 -1.3811  0.2218
  281TMC3    C7 4302   3.138   1.774  13.582  0.4980 -0.1121  0.0295
  281TMC3    C8 4303   2.865   2.054  13.346 -0.1508  0.0032 -0.6684
  281TMC3    O1 4304   3.228   1.723  13.517  0.4287  0.1984 -0.2609
  281TMC3    O2 4305   2.806   2.159  13.335 -0.2155  0.2058 -0.6820
  282MPD2     C 4306   3.907   3.365  15.337  0.0966 -0.9740 -0.0161
  282MPD2    C1 4307   3.980   3.278  15.267  0.1462  0.2834 -0.1535
  282MPD2    C2 4308   3.983   3.285  15.135 -0.3528 -0.6457 -0.2719
  282MPD2    C3 4309   3.916   3.387  15.074  0.1904 -0.0614 -0.0668
  282MPD2    C4 4310   3.839   3.467  15.139  0.9098  0.4578  0.1755
  282MPD2    C5 4311   3.823   3.451  15.271  0.2737  0.7376 -0.1491
  282MPD2     H 4312   4.066   3.236  15.083  0.5748 -0.4084  0.9866
  282MPD2    H1 4313   3.780   3.547  15.095  0.1519 -2.1514 -3.6341
  282MPD2    H2 4314   3.905   3.359  15.445 -0.8890  4.2752  0.2245
  282MPD2    H3 4315   3.759   3.518  15.326  0.7634  1.1717 -0.1063
  282MPD2     N 4316   3.934   3.395  14.937 -0.3347  0.2629 -0.1045
  282MPD2    H5 4317   3.983   3.317  14.893 -2.0795 -1.2230  0.6105
  282MPD2    N1 4318   4.048   3.185  15.342  0.0974  0.3736 -0.1422
  282MPD2    H7 4319   4.056   3.205  15.442  0.0624 -2.3531  0.3929
  283TMC3    C1 4320   4.194   3.007  15.397  0.1986  0.5500  1.0273
  283TMC3    C2 4321   4.269   3.092  15.472 -0.1961  0.9249 -0.4535
  283TMC3    C3 4322   4.295   3.055  15.601 -0.7297  0.0342  0.0318
  283TMC3    C4 4323   4.145   2.887  15.446 -0.0537  0.5334 -0.0735
  283TMC3    C5 4324   4.174   2.848  15.577  1.3519  0.1378  0.2136
  283TMC3    C6 4325   4.249   2.936  15.649  0.3856 -0.0139  0.4651
  283TMC3     C 4326   4.119   3.074  15.293 -0.6386 -0.6649 -0.7527
  283TMC3     O 4327   4.127   3.028  15.179  0.7633 -0.3271 -0.1638
  283TMC3     H 4328   4.307   3.180  15.421 -1.2198  1.2516 -0.6535
  283TMC3    H1 4329   4.089   2.829  15.375 -0.1008  1.3381 -0.6963
  283TMC3    H2 4330   4.281   2.905  15.747  2.6916  1.9342  0.3340
  283TMC3    C7 4331   4.100   2.747  15.651  0.0573  0.2557  0.0220
  283TMC3    C8 4332   4.373   3.143  15.691 -0.2642  0.2858 -0.6874
  283TMC3    O1 4333   4.124   2.739  15.771 -0.0050 -0.1113  0.1815
  283TMC3    O2 4334   4.429   3.082  15.783  0.0189 -0.0395  0.4230
  284MPD2     C 4335   2.855   2.635  11.952  0.6441 -0.7564 -0.0064
  284MPD2    C1 4336   2.939   2.559  11.881 -0.1133  0.0918 -0.2812
  284MPD2    C2 4337   2.902   2.423  11.858 -0.7846 -0.0078  0.1120
  284MPD2    C3 4338   2.794   2.369  11.925 -0.6407  0.0921 -0.2968
  284MPD2    C4 4339   2.717   2.441  12.013  0.2584 -0.5950  0.0046
  284MPD2    C5 4340   2.745   2.576  12.011  0.3574 -0.6479 -0.3468
  284MPD2     H 4341   2.968   2.356  11.804 -0.6783 -0.7149  1.1238
  284MPD2    H1 4342   2.631   2.403  12.067  0.3341  1.4695  1.5876
  284MPD2    H2 4343   2.860   2.742  11.969  1.9509 -0.9216  0.6647
  284MPD2    H3 4344   2.682   2.647  12.063 -0.0565 -0.7544 -0.7006
  284MPD2     N 4345   2.765   2.235  11.913  0.2610 -0.0769 -0.1665
  284MPD2    H5 4346   2.714   2.188  11.988  1.1154  1.0132  1.0892
  284MPD2    N1 4347   3.051   2.617  11.828  0.8197 -0.7460  0.1409
  284MPD2    H7 4348   3.082   2.567  11.746 -0.4207 -1.6964  0.2437
  285TMC3    C1 4349   3.215   2.784  11.770 -0.0354  0.2039  0.0480
  285TMC3    C2 4350   3.266   2.699  11.679 -0.7169  0.5069 -0.0824
  285TMC3    C3 4351   3.334   2.757  11.576 -0.5770  1.2029 -0.2248
  285TMC3    C4 4352   3.245   2.916  11.775  0.4318  0.5696 -0.1933
  285TMC3    C5 4353   3.315   2.972  11.670  0.0992 -0.1460 -0.5853
  285TMC3    C6 4354   3.359   2.893  11.567 -0.1189  0.8039 -0.3122
  285TMC3     C 4355   3.112   2.737  11.866 -0.0808 -0.0687  0.1491
  285TMC3     O 4356   3.081   2.810  11.966  0.1981  0.0147 -0.4986
  285TMC3     H 4357   3.253   2.591  11.671  2.7521 -0.0972  2.1990
  285TMC3    H1 4358   3.203   2.984  11.848 -0.0331  0.2552 -0.1658
  285TMC3    H2 4359   3.402   2.939  11.478  0.3358 -0.5081 -0.7632
  285TMC3    C7 4360   3.372   3.102  11.698  0.3015  0.1136  0.5249
  285TMC3    C8 4361   3.352   2.673  11.455  0.0416  0.1577  0.0286
  285TMC3    O1 4362   3.300   3.180  11.763  0.1102 -0.3868 -0.3362
  285TMC3    O2 4363   3.279   2.576  11.444  0.2092  0.1096  0.0532
  286MPD2     C 4364   2.411   0.579   0.906 -0.7842 -0.0703 -0.0430
  286MPD2    C1 4365   2.477   0.692   0.867 -0.3044  0.3585  0.0045
  286MPD2    C2 4366   2.614   0.692   0.897 -0.1763  0.4805 -0.0009
  286MPD2    C3 4367   2.671   0.585   0.960  0.0268  0.0622  1.1981
  286MPD2    C4 4368   2.603   0.470   0.992 -0.1505  0.1072  0.3891
  286MPD2    C5 4369   2.471   0.466   0.954 -0.3528 -0.1614  0.4048
  286MPD2     H 4370   2.671   0.782   0.878  2.5900 -1.1327  0.6876
  286MPD2    H1 4371   2.658   0.385   1.029 -1.1010 -0.5153  0.3707
  286MPD2    H2 4372   2.303   0.576   0.920 -0.3767  1.3203  3.3873
  286MPD2    H3 4373   2.410   0.376   0.956 -0.7806  0.1488  1.1425
  286MPD2     N 4374   2.806   0.574   0.994  0.7529 -0.1908 -0.1776
  286MPD2    H5 4375   2.845   0.486   1.025  0.5227  0.0357  0.7581
  286MPD2    N1 4376   2.400   0.799   0.819  0.1752 -0.1523  0.0230
  286MPD2    H7 4377   2.299   0.785   0.813  0.3936 -1.5406 -0.5589
  287TMC3    C1 4378   3.021   0.628   1.050 -0.2206 -0.5313 -0.4629
  287TMC3    C2 4379   3.067   0.507   1.022  0.3898  0.2966 -0.0663
  287TMC3    C3 4380   3.187   0.474   1.074 -0.3358  0.5491  0.1934
  287TMC3    C4 4381   3.077   0.720   1.137  0.3243 -0.1946  0.1868
  287TMC3    C5 4382   3.196   0.679   1.191  0.0774 -0.9499  0.3233
  287TMC3    C6 4383   3.251   0.560   1.165 -0.7537  0.4183 -0.0927
  287TMC3     C 4384   2.903   0.671   0.984 -0.5051 -0.0177 -0.1120
  287TMC3     O 4385   2.889   0.789   0.957 -0.1921  0.3774  0.3872
  287TMC3     H 4386   3.030   0.437   0.947  0.7542  0.9140 -0.8216
  287TMC3    H1 4387   3.044   0.821   1.156  1.4337  0.1719  0.1463
  287TMC3    H2 4388   3.337   0.526   1.222 -0.7281 -0.2750 -0.5523
  287TMC3    C7 4389   3.238   0.764   1.304  0.4530  0.1337 -0.2131
  287TMC3    C8 4390   3.222   0.328   1.065  0.0691 -0.1295 -0.4896
  287TMC3    O1 4391   3.152   0.840   1.352 -0.6758  0.3268 -0.0199
  287TMC3    O2 4392   3.126   0.260   1.038 -0.3332 -0.1966 -0.0016
  288TMC3    C1 4393   0.217   1.010  14.925  0.8685 -0.0557 -0.2967
  288TMC3    C2 4394   0.124   0.957  15.014 -0.3910  0.3410 -0.3841
  288TMC3    C3 4395   0.022   1.038  15.051  0.1165  0.5720 -0.0058
  288TMC3    C4 4396   0.205   1.140  14.881  0.0303  0.1520 -0.0672
  288TMC3    C5 4397   0.096   1.216  14.916 -1.1109 -0.7762  0.2274
  288TMC3    C6 4398   0.000   1.163  14.999  0.0552  0.0677  0.1218
  288TMC3     C 4399   0.337   0.928  14.904 -0.0661  0.5973 -0.0176
  288TMC3     O 4400   0.357   0.842  14.988 -0.5113  0.2202  0.2094
  288TMC3     H 4401   0.134   0.862  15.065 -2.9159 -0.1686 -0.8231
  288TMC3    H1 4402   0.273   1.186  14.811  0.1843  0.7724  0.4939
  288TMC3    H2 4403   4.651   1.220  15.032  1.0409  2.9348 -2.2811
  288TMC3    C7 4404   0.062   1.349  14.862 -0.7099 -0.6326  0.2191
  288TMC3    C8 4405   4.652   0.989  15.135 -0.0147 -0.1802  0.3314
  288TMC3    O1 4406   0.155   1.412  14.811 -0.3735 -0.6391  0.2369
  288TMC3    O2 4407   4.572   1.065  15.187 -0.0423  0.0461 -0.5413
  289MPD2     C 4408   0.168   0.070  14.826 -0.1767  0.7997  0.2483
  289MPD2    C1 4409   0.147   0.134  14.707  0.0868 -0.1014  0.0852
  289MPD2    C2 4410   0.033   0.095  14.630  0.2545  0.0744  0.2444
  289MPD2    C3 4411   4.674   4.734  14.676 -0.0099  0.2352 -0.4596
  289MPD2    C4 4412   4.698   4.682  14.800 -0.1244  0.5905  0.2335
  289MPD2    C5 4413   0.077   4.711  14.871  0.3728  0.0149  0.1542
  289MPD2     H 4414   0.012   0.148  14.538  2.2023 -0.5002 -0.5157
  289MPD2    H1 4415   4.627   4.614  14.846 -0.1157  0.1100 -0.4705
  289MPD2    H2 4416   0.257   0.091  14.885  0.2522 -1.5263  0.4526
  289MPD2    H3 4417   0.105   4.675  14.969  1.8175  0.2222 -0.1871
  289MPD2     N 4418   4.553   4.703  14.601 -0.1300  0.4297  0.5040
  289MPD2    H5 4419   4.480   4.659  14.656 -1.2675 -1.6603 -2.7591
  289MPD2    N1 4420   0.233   0.237  14.660  0.8461 -0.6936  0.5280
  289MPD2    H7 4421   0.323   0.256  14.702  1.3925 -1.2475 -0.3931
  290TMC3    C1 4422   4.380   0.060  14.473  0.3493  0.3510  0.1094
  290TMC3    C2 4423   4.355   0.175  14.401  0.3135 -0.4424  0.3864
  290TMC3    C3 4424   4.239   0.190  14.327 -0.5575 -0.2443  0.3287
  290TMC3    C4 4425   4.306   4.687  14.448  1.0172  0.6222  0.4813
  290TMC3    C5 4426   4.195   4.698  14.364  0.4825 -0.7068  0.6424
  290TMC3    C6 4427   4.155   0.083  14.314 -0.2568 -0.4785  0.1933
  290TMC3     C 4428   4.521   0.026  14.488  0.2191 -0.3033 -0.6856
  290TMC3     O 4429   4.598   0.057  14.397 -0.2909 -0.2521 -0.1141
  290TMC3     H 4430   4.403   0.271  14.414 -0.7353  0.0415  0.6993
  290TMC3    H1 4431   4.317   4.603  14.516  1.3635 -0.2375 -0.6404
  290TMC3    H2 4432   4.079   0.085  14.237 -0.0171 -2.7057 -0.0958
  290TMC3    C7 4433   4.095   4.593  14.359 -0.6615 -0.0851 -0.2205
  290TMC3    C8 4434   4.175   0.317  14.316  0.0755 -0.1105  0.3568
  290TMC3    O1 4435   3.982   4.635  14.326  0.1014 -0.7550  0.1927
  290TMC3    O2 4436   4.051   0.311  14.314  0.2578  1.1169 -0.1932
  291MPD2     C 4437   3.745   4.531   0.630 -0.3928  0.2240  0.4626
  291MPD2    C1 4438   3.777   4.430   0.712  0.5058 -0.0230  0.3969
  291MPD2    C2 4439   3.891   4.441   0.796 -0.5015 -0.3742  0.1507
  291MPD2    C3 4440   3.976   4.552   0.776  0.7232  0.0775  0.4727
  291MPD2    C4 4441   3.939   4.644   0.681  0.5072  0.2626  0.2259
  291MPD2    C5 4442   3.820   4.642   0.619 -0.5088 -0.3018  0.3741
  291MPD2     H 4443   3.908   4.367   0.873  1.6987  0.0063  0.0202
  291MPD2    H1 4444   4.012   4.720   0.657  0.5766 -0.5991 -2.2751
  291MPD2    H2 4445   3.649   4.527   0.582  0.2610 -0.4692 -0.7822
  291MPD2    H3 4446   3.798   4.715   0.542  1.3122  0.6069  0.7423
  291MPD2     N 4447   4.099   4.569   0.835  0.1536  0.1766  0.4321
  291MPD2    H5 4448   4.152   4.647   0.799  1.9300 -1.7819 -1.1557
  291MPD2    N1 4449   3.691   4.322   0.730  0.1199  0.3804  0.1257
  291MPD2    H7 4450   3.705   4.268   0.814 -0.5294 -0.0897 -0.0628
  292TMC3    C1 4451   3.534   4.166   0.658  0.5905 -1.0366 -0.5625
  292TMC3    C2 4452   3.464   4.159   0.776 -0.1486  0.1794  0.3924
  292TMC3    C3 4453   3.380   4.050   0.785 -0.5829  1.5912  0.3100
  292TMC3    C4 4454   3.526   4.076   0.550  0.5632 -0.1172 -0.2304
  292TMC3    C5 4455   3.434   3.976   0.568  0.0944 -0.2770 -0.0830
  292TMC3    C6 4456   3.360   3.966   0.682  0.1156 -0.2769  0.3015
  292TMC3     C 4457   3.607   4.287   0.627  0.2064  0.0779  0.1555
  292TMC3     O 4458   3.621   4.323   0.511 -0.0287 -0.8352  0.1229
  292TMC3     H 4459   3.480   4.219   0.865  0.2553  1.5704 -0.6098
  292TMC3    H1 4460   3.579   4.084   0.456  2.6563 -0.7060  0.9192
  292TMC3    H2 4461   3.295   3.880   0.694 -1.2523  0.7752  0.4215
  292TMC3    C7 4462   3.416   3.885   0.459 -0.3042 -1.0214 -0.0719
  292TMC3    C8 4463   3.296   4.045   0.906 -0.6717 -0.1204  0.0762
  292TMC3    O1 4464   3.510   3.883   0.380 -0.0267  0.0553  0.2144
  292TMC3    O2 4465   3.353   4.079   1.006 -0.6224  0.2666  0.1070
  293MPD2     C 4466   1.136   2.072  13.109  0.1672 -0.4249 -0.8300
  293MPD2    C1 4467   1.071   1.954  13.102  0.1751  0.6126 -0.4058
  293MPD2    C2 4468   1.043   1.882  13.216 -0.3504 -0.1106 -0.2243
  293MPD2    C3 4469   1.081   1.935  13.341  0.6459  0.4040  0.6036
  293MPD2    C4 4470   1.144   2.053  13.346  1.3140  0.0536 -0.9032
  293MPD2    C5 4471   1.174   2.126  13.234 -0.2417  0.5262  0.2090
  293MPD2     H 4472   0.985   1.790  13.214  1.4533 -1.2721  0.3621
  293MPD2    H1 4473   1.163   2.096  13.444 -0.7757 -1.3160  0.1002
  293MPD2    H2 4474   1.166   2.127  13.021 -1.1976  2.9732  0.8049
  293MPD2    H3 4475   1.237   2.213  13.246  1.4797 -0.6300 -0.4140
  293MPD2     N 4476   1.056   1.875  13.468 -0.3072  0.0238  0.6684
  293MPD2    H5 4477   1.077   1.929  13.552  2.4048  1.5366 -0.9568
  293MPD2    N1 4478   1.037   1.906  12.969 -0.6561 -0.4839  0.0059
  293MPD2    H7 4479   1.063   1.968  12.892  1.3174  0.2932  1.2934
  294TMC3    C1 4480   0.943   1.775  12.802 -0.5363 -0.1004 -0.4096
  294TMC3    C2 4481   0.858   1.671  12.762  0.4417  0.0543 -0.4113
  294TMC3    C3 4482   0.798   1.676  12.644 -0.9200 -0.5888 -0.1166
  294TMC3    C4 4483   0.981   1.878  12.710  0.6335  0.8732 -0.2783
  294TMC3    C5 4484   0.928   1.858  12.594 -0.4560 -0.0791 -0.1891
  294TMC3    C6 4485   0.830   1.773  12.554 -0.5200 -0.1928  0.4014
  294TMC3     C 4486   0.981   1.777  12.940 -0.5171 -0.3878 -0.3017
  294TMC3     O 4487   0.935   1.689  13.012  0.3662  0.0351  0.0620
  294TMC3     H 4488   0.828   1.607  12.844  3.6046 -0.9640 -0.0242
  294TMC3    H1 4489   1.046   1.962  12.730  1.4783  0.6273 -1.9506
  294TMC3    H2 4490   0.793   1.760  12.453  1.4075 -1.0264 -0.2071
  294TMC3    C7 4491   0.982   1.938  12.487 -0.2620  0.1191 -0.0409
  294TMC3    C8 4492   0.720   1.566  12.590 -0.1119  0.2566  0.4185
  294TMC3    O1 4493   1.030   2.047  12.519  0.6385 -0.3315 -0.2935
  294TMC3    O2 4494   0.655   1.584  12.485  0.3349 -0.5437 -0.1685
  295MPD2     C 4495   1.298   4.527   1.472 -0.7423  0.8038  0.1678
  295MPD2    C1 4496   1.349   4.440   1.378  0.4603  0.1855  0.3602
  295MPD2    C2 4497   1.388   4.316   1.426  0.2480  0.1147  0.4490
  295MPD2    C3 4498   1.366   4.272   1.552 -0.1371 -0.0401  0.6779
  295MPD2    C4 4499   1.300   4.362   1.640  0.9197  0.5203  0.0863
  295MPD2    C5 4500   1.278   4.490   1.603  0.0960 -0.1237 -0.3489
  295MPD2     H 4501   1.437   4.249   1.356  3.6707 -0.0177  3.0033
  295MPD2    H1 4502   1.281   4.328   1.741  2.8716  0.7331  0.5122
  295MPD2    H2 4503   1.274   4.630   1.451 -2.1993  0.4260 -0.0801
  295MPD2    H3 4504   1.219   4.562   1.660  0.3891 -1.8437  2.1094
  295MPD2     N 4505   1.406   4.144   1.602  0.7732 -0.5386  0.0132
  295MPD2    H5 4506   1.373   4.122   1.695  1.6121 -3.0809 -0.3009
  295MPD2    N1 4507   1.376   4.479   1.242 -0.0329 -0.2141 -0.5197
  295MPD2    H7 4508   1.387   4.403   1.175 -0.3490 -0.3535 -0.4119
  296TMC3    C1 4509   1.530   3.951   1.634  0.7638  0.3700 -0.8279
  296TMC3    C2 4510   1.659   3.906   1.637 -0.4850  0.1987  0.2808
  296TMC3    C3 4511   1.677   3.780   1.687  0.4777  0.4332  0.2554
  296TMC3    C4 4512   1.418   3.878   1.673 -0.0737  0.1953  0.3238
  296TMC3    C5 4513   1.446   3.755   1.716 -0.2689  0.2364 -0.2513
  296TMC3    C6 4514   1.571   3.704   1.724  0.1328 -0.6989 -0.6817
  296TMC3     C 4515   1.507   4.069   1.553 -0.4122  0.1871  0.0372
  296TMC3     O 4516   1.586   4.104   1.469 -0.1421 -0.3270  0.4529
  296TMC3     H 4517   1.738   3.975   1.611 -0.3479  0.0150  0.2027
  296TMC3    H1 4518   1.314   3.907   1.663  0.2852  1.7133  0.8843
  296TMC3    H2 4519   1.588   3.604   1.763  0.1880 -0.6146 -0.4862
  296TMC3    C7 4520   1.330   3.690   1.784  0.1141  0.0040 -0.4256
  296TMC3    C8 4521   1.821   3.727   1.699 -0.5275 -0.4845  0.4644
  296TMC3    O1 4522   1.248   3.770   1.829  0.2144 -0.2812 -0.1151
  296TMC3    O2 4523   1.830   3.613   1.738  0.2722 -0.2162 -0.0758
  297MPD2     C 4524   3.217   1.487  16.579 -0.2554  0.9625 -0.1187
  297MPD2    C1 4525   3.229   1.555  16.460  0.1759 -0.1825 -0.2671
  297MPD2    C2 4526   3.357   1.598  16.429 -0.4873  0.0027 -0.0979
  297MPD2    C3 4527   3.458   1.596  16.523 -0.1457 -0.6374  0.0557
  297MPD2    C4 4528   3.441   1.527  16.643 -0.3757 -0.1966 -0.5828
  297MPD2    C5 4529   3.316   1.469  16.667  0.3548 -0.0135 -0.3747
  297MPD2     H 4530   3.379   1.642  16.332 -0.5984 -0.2910 -0.2541
  297MPD2    H1 4531   3.526   1.503  16.706 -1.5633 -1.0479  0.6960
  297MPD2    H2 4532   3.123   1.448  16.616  0.9499 -0.8002  1.0495
  297MPD2    H3 4533   3.283   1.426  16.761  0.2863  0.1899 -0.3053
  297MPD2     N 4534   3.590   1.648  16.507  0.3399 -0.0848 -0.0709
  297MPD2    H5 4535   3.654   1.644  16.585 -0.9903  0.8053  1.0437
  297MPD2    N1 4536   3.118   1.581  16.377 -0.0884 -0.2738 -0.1223
  297MPD2    H7 4537   3.147   1.623  16.289  0.9220  0.1654  0.4135
  298TMC3    C1 4538   2.895   1.636  16.322 -0.3118 -0.8377 -0.1317
  298TMC3    C2 4539   2.947   1.670  16.195 -0.6209  0.0878 -0.1166
  298TMC3    C3 4540   2.898   1.778  16.139 -0.5011 -0.3940 -0.1566
  298TMC3    C4 4541   2.805   1.715  16.391  0.4099 -0.8514 -0.0311
  298TMC3    C5 4542   2.747   1.817  16.317  0.2385  0.6669 -0.0165
  298TMC3    C6 4543   2.792   1.850  16.190 -0.6077  0.6573  0.2525
  298TMC3     C 4544   2.985   1.564  16.409  0.6147  0.0869  0.6420
  298TMC3     O 4545   2.933   1.518  16.509  0.5683  0.1295 -0.0309
  298TMC3     H 4546   3.022   1.608  16.147  0.4332  3.3571 -2.6447
  298TMC3    H1 4547   2.776   1.710  16.495 -1.5379  0.7779 -0.4922
  298TMC3    H2 4548   2.743   1.930  16.134 -0.3334 -1.4642 -3.0055
  298TMC3    C7 4549   2.646   1.896  16.384  0.4042 -0.3216  0.3005
  298TMC3    C8 4550   2.931   1.793  16.000 -0.0492 -0.0120 -0.3983
  298TMC3    O1 4551   2.606   1.873  16.496 -0.0418 -0.3835 -0.3526
  298TMC3    O2 4552   2.981   1.699  15.942  0.2932 -0.0456 -0.0997
  299MPD2     C 4553   4.331   1.444  11.215  0.2637 -0.2707  0.2867
  299MPD2    C1 4554   4.393   1.522  11.122 -0.1569  0.2103 -0.5072
  299MPD2    C2 4555   4.341   1.536  10.993 -0.8501 -0.7441  0.2850
  299MPD2    C3 4556   4.220   1.471  10.960  0.2380 -0.6917  0.3339
  299MPD2    C4 4557   4.157   1.407  11.052  0.4742  0.0530  0.5632
  299MPD2    C5 4558   4.208   1.388  11.183  0.1544 -0.1930  0.0609
  299MPD2     H 4559   4.397   1.587  10.916 -0.3373 -1.5816  0.1169
  299MPD2    H1 4560   4.074   1.346  11.018  0.4284 -0.3733  1.4475
  299MPD2    H2 4561   4.377   1.432  11.313  0.5976  0.9865  0.2871
  299MPD2    H3 4562   4.151   1.323  11.249 -1.9084  1.2670 -0.2929
  299MPD2     N 4563   4.171   1.472  10.826 -0.4922 -0.1617  0.4158
  299MPD2    H5 4564   4.082   1.426  10.815 -0.5938 -0.0189  0.6333
  299MPD2    N1 4565   4.509   1.594  11.160 -0.3253  0.6182 -0.3503
  299MPD2    H7 4566   4.543   1.576  11.254 -0.0603  0.4688 -0.4756
  300TMC3    C1 4567   4.158   1.505  10.594 -0.0435 -0.5952  0.0298
  300TMC3    C2 4568   4.177   1.588  10.489  0.2679 -0.2330 -0.7189
  300TMC3    C3 4569   4.082   1.605  10.391  0.2581 -0.1014  0.0375
  300TMC3    C4 4570   4.041   1.431  10.607  0.7450 -0.4518  0.6340
  300TMC3    C5 4571   3.942   1.468  10.518  0.1168  0.6529  0.4614
  300TMC3    C6 4572   3.952   1.561  10.416 -0.3206 -0.1437 -0.3816
  300TMC3     C 4573   4.228   1.531  10.718 -0.4384 -0.1527  0.2649
  300TMC3     O 4574   4.312   1.619  10.714 -0.5703 -0.1572  0.1985
  300TMC3     H 4575   4.266   1.650  10.485  0.9960 -1.2812 -0.5874
  300TMC3    H1 4576   4.015   1.356  10.681 -0.6661 -1.3743 -0.7619
  300TMC3    H2 4577   3.867   1.583  10.353 -1.6490 -1.9319  0.7937
  300TMC3    C7 4578   3.815   1.420  10.543 -0.4396 -0.0787  0.4409
  300TMC3    C8 4579   4.099   1.722  10.313 -0.2584  0.2686  0.3841
  300TMC3    O1 4580   3.809   1.296  10.545  0.4692  0.2478 -0.3434
  300TMC3    O2 4581   4.182   1.802  10.359 -0.3274 -0.6141  0.1174
  301MPD2     C 4582   1.642   2.818   1.341  0.4491  0.8940 -0.0717
  301MPD2    C1 4583   1.518   2.799   1.279 -0.4525 -0.6556  0.7131
  301MPD2    C2 4584   1.488   2.681   1.216  0.8949 -0.6606 -0.3172
  301MPD2    C3 4585   1.572   2.575   1.216  0.1561 -0.4126  0.3964
  301MPD2    C4 4586   1.696   2.595   1.273  1.1578  0.3935 -0.2037
  301MPD2    C5 4587   1.735   2.717   1.329 -0.1762  0.0970 -0.7646
  301MPD2     H 4588   1.398   2.667   1.158  0.2723  1.5824  0.1361
  301MPD2    H1 4589   1.781   2.528   1.276 -0.1562 -1.2719 -0.4793
  301MPD2    H2 4590   1.672   2.912   1.384  1.7098  0.0297  0.9476
  301MPD2    H3 4591   1.837   2.735   1.363  1.8087 -3.1132 -4.9979
  301MPD2     N 4592   1.549   2.457   1.147 -0.2643  0.1848 -0.4213
  301MPD2    H5 4593   1.632   2.400   1.138  0.7562  1.7986 -1.1197
  301MPD2    N1 4594   1.417   2.903   1.278  0.5662 -0.1095  0.6754
  301MPD2    H7 4595   1.341   2.884   1.213  1.4416  2.8149 -1.1624
  302TMC3    C1 4596   1.446   2.279   1.025  0.8849  0.5246 -0.5488
  302TMC3    C2 4597   1.510   2.171   1.093  0.3801 -0.0908  0.8467
  302TMC3    C3 4598   1.474   2.051   1.045 -0.2309  0.2068  0.6390
  302TMC3    C4 4599   1.357   2.261   0.918 -0.7421  0.1349  0.3352
  302TMC3    C5 4600   1.347   2.136   0.873  0.4079 -0.3277  0.2876
  302TMC3    C6 4601   1.408   2.027   0.927 -0.5247  0.8785 -0.7134
  302TMC3     C 4602   1.432   2.413   1.085  0.5303  0.2439  0.5687
  302TMC3     O 4603   1.327   2.469   1.070 -0.2520  0.8711  0.0732
  302TMC3     H 4604   1.563   2.181   1.187  0.6820  0.1561  0.6506
  302TMC3    H1 4605   1.321   2.344   0.858  1.5799  0.7358 -0.2416
  302TMC3    H2 4606   1.390   1.930   0.883 -1.2606  0.3170  0.8078
  302TMC3    C7 4607   1.247   2.110   0.773 -0.2679  0.8303  0.0533
  302TMC3    C8 4608   1.499   1.938   1.135  0.0582 -0.1564 -0.0923
  302TMC3    O1 4609   1.266   2.006   0.707 -0.6927  0.1648 -0.1647
  302TMC3    O2 4610   1.587   1.942   1.220 -0.5902  0.3239  0.7558
  303MPD2     C 4611   1.974   1.658  10.868  0.7705 -0.1862 -0.4689
  303MPD2    C1 4612   1.908   1.532  10.874 -0.4329 -0.0740  0.4345
  303MPD2    C2 4613   1.870   1.469  10.752  0.3446  0.2660  0.3786
  303MPD2    C3 4614   1.897   1.523  10.631 -0.5716 -0.8851 -0.1591
  303MPD2    C4 4615   1.962   1.648  10.630  0.0489  0.0216 -0.1943
  303MPD2    C5 4616   2.009   1.709  10.742  0.0812  0.3479 -0.2413
  303MPD2     H 4617   1.823   1.371  10.753 -0.9004  0.8742  0.3900
  303MPD2    H1 4618   1.986   1.697  10.536  1.8686 -0.0606  0.2311
  303MPD2    H2 4619   2.005   1.709  10.959  0.6746 -1.9307  0.5467
  303MPD2    H3 4620   2.041   1.811  10.725 -1.6800  0.9846  0.2184
  303MPD2     N 4621   1.861   1.469  10.506 -0.2400 -0.0483 -0.0058
  303MPD2    H5 4622   1.867   1.544  10.438  0.5329  0.6888  0.8856
  303MPD2    N1 4623   1.886   1.479  11.004  0.1825 -0.5443 -0.2499
  303MPD2    H7 4624   1.910   1.532  11.087 -0.9907 -1.0885  0.4447
  304TMC3    C1 4625   1.850   1.311  11.157 -0.0995 -0.3244 -0.4688
  304TMC3    C2 4626   1.754   1.390  11.223  0.7277  0.4401  0.0836
  304TMC3    C3 4627   1.687   1.336  11.329  0.4072 -0.0883 -0.2138
  304TMC3    C4 4628   1.872   1.181  11.191 -0.0675  0.1236  0.3595
  304TMC3    C5 4629   1.804   1.123  11.294  0.7742  0.3748  0.0315
  304TMC3    C6 4630   1.720   1.205  11.373  0.1213  0.4974 -0.1169
  304TMC3     C 4631   1.863   1.343  11.021  0.4144  0.3162  0.3410
  304TMC3     O 4632   1.869   1.245  10.942  0.5013 -0.4961 -0.0959
  304TMC3     H 4633   1.719   1.473  11.163  0.8638  1.9874  2.1368
  304TMC3    H1 4634   1.935   1.117  11.131 -1.7014 -1.0906 -0.0686
  304TMC3    H2 4635   1.673   1.161  11.460  0.7294  0.0289 -0.0235
  304TMC3    C7 4636   1.768   0.989  11.286  0.2133  0.5094  0.0281
  304TMC3    C8 4637   1.546   1.339  11.310  0.0022 -0.4037 -0.4736
  304TMC3    O1 4638   1.848   0.901  11.251  0.1205  0.2621  0.5005
  304TMC3    O2 4639   1.490   1.233  11.320  0.0496 -0.4987  0.3493
  305MPD2     C 4640   4.708   3.487  14.138 -0.4086  0.3333 -0.5474
  305MPD2    C1 4641   0.074   3.398  14.136 -0.5760  0.0658  0.6415
  305MPD2    C2 4642   0.089   3.318  14.017  0.1365  0.0768  0.2147
  305MPD2    C3 4643   0.003   3.331  13.909  0.3168 -0.5244 -0.1185
  305MPD2    C4 4644   4.634   3.419  13.922  0.1338  0.3584 -0.4924
  305MPD2    C5 4645   4.618   3.491  14.033 -0.2691  0.0673 -0.1227
  305MPD2     H 4646   0.166   3.242  14.005 -0.8945 -0.8900 -0.3046
  305MPD2    H1 4647   4.555   3.431  13.849 -0.7528 -1.8564  0.1157
  305MPD2    H2 4648   4.700   3.564  14.214  0.1920 -1.4936  1.3579
  305MPD2    H3 4649   4.537   3.562  14.040  0.3781  0.8479 -0.4140
  305MPD2     N 4650   0.005   3.250  13.794 -0.1082  0.3107 -0.3701
  305MPD2    H5 4651   4.664   3.275  13.733  0.8945 -1.8682 -2.5120
  305MPD2    N1 4652   0.157   3.384  14.249  0.1577 -0.4592  0.1572
  305MPD2    H7 4653   0.144   3.449  14.325 -1.0250  0.0225 -0.4483
  306TMC3    C1 4654   0.318   3.281  14.397  0.2341 -0.2435 -0.0719
  306TMC3    C2 4655   0.375   3.168  14.446  0.6316  0.2513  0.1528
  306TMC3    C3 4656   0.471   3.175  14.538  0.5538 -0.6959  0.8138
  306TMC3    C4 4657   0.355   3.401  14.458 -0.0806  0.4510  0.3126
  306TMC3    C5 4658   0.440   3.402  14.564 -0.5019 -0.0820 -0.3506
  306TMC3    C6 4659   0.497   3.290  14.608 -0.1106  0.7169 -0.8813
  306TMC3     C 4660   0.239   3.278  14.271  0.2726  0.3382  0.5153
  306TMC3     O 4661   0.234   3.174  14.207  0.6000 -0.3017  0.2179
  306TMC3     H 4662   0.344   3.072  14.407  1.4822 -0.0590  0.2644
  306TMC3    H1 4663   0.321   3.497  14.420 -1.2692  0.5558  1.6187
  306TMC3    H2 4664   0.574   3.293  14.685  0.1552 -1.7014 -1.0433
  306TMC3    C7 4665   0.441   3.519  14.651  0.0418  0.1128  0.1577
  306TMC3    C8 4666   0.539   3.050  14.566  0.2340 -0.5432  0.7686
  306TMC3    O1 4667   0.418   3.623  14.589 -0.2968  0.1268  0.4011
  306TMC3    O2 4668   0.540   2.965  14.473 -0.1125  0.2379 -0.0454
  307MPD2     C 4669   1.923   1.135   0.136  0.4276 -0.2073 -1.0213
  307MPD2    C1 4670   1.971   1.259   0.172  0.8821 -0.5246  0.6175
  307MPD2    C2 4671   1.952   1.317   0.300  0.1220 -0.2912  0.1267
  307MPD2    C3 4672   1.873   1.248   0.390  0.4847 -0.3734 -0.1253
  307MPD2    C4 4673   1.832   1.118   0.353 -0.1735  0.1688  0.3567
  307MPD2    C5 4674   1.860   1.060   0.232 -0.5991  0.1093  0.2997
  307MPD2     H 4675   1.994   1.412   0.331  0.0194 -0.2064  0.0018
  307MPD2    H1 4676   1.789   1.041   0.415 -0.7687 -0.6591 -1.0869
  307MPD2    H2 4677   1.948   1.080   0.046 -0.3390 -0.5819 -1.0062
  307MPD2    H3 4678   1.832   0.958   0.208  2.7860 -0.3993 -1.3651
  307MPD2     N 4679   1.852   1.295   0.526 -0.6676 -0.3317  0.1876
  307MPD2    H5 4680   1.851   1.396   0.537 -1.5371 -0.0431 -2.5683
  307MPD2    N1 4681   2.043   1.335   0.083 -0.5693 -0.2943 -0.4370
  307MPD2    H7 4682   2.050   1.436   0.096  3.0786 -0.2637 -2.6416
  308TMC3    C1 4683   1.546   1.294   0.877  0.3005 -0.6071  0.0564
  308TMC3    C2 4684   1.564   1.430   0.901  0.0243 -0.9153 -0.0742
  308TMC3    C3 4685   1.665   1.488   0.834 -0.4732 -1.0128 -0.5293
  308TMC3    C4 4686   1.624   1.221   0.793 -0.6114 -1.0433  0.6498
  308TMC3    C5 4687   1.719   1.287   0.726 -0.1601  0.0708  0.0283
  308TMC3    C6 4688   1.742   1.422   0.743  0.8363  0.2766  0.1449
  308TMC3     C 4689   1.421   1.242   0.912  0.3407 -0.3701  0.9169
  308TMC3     O 4690   1.416   1.120   0.931 -0.2197  0.2868  0.6845
  308TMC3     H 4691   1.514   1.477   0.985  2.3573 -0.6721  1.1769
  308TMC3    H1 4692   1.615   1.114   0.773 -3.5502 -0.7136  0.2501
  308TMC3    H2 4693   1.833   1.472   0.712  0.4355  0.0079 -1.4939
  308TMC3    C7 4694   1.795   1.217   0.623 -0.3388  0.0190  0.0371
  308TMC3    C8 4695   1.727   1.602   0.896  0.1345 -0.1601  0.6281
  308TMC3    O1 4696   1.804   1.095   0.639  0.0306  0.1817 -0.0601
  308TMC3    O2 4697   1.757   1.594   1.017 -0.1687 -0.4743  0.1540
  309MPD2     C 4698   1.071   1.875  17.250 -0.2569  0.3521  0.1111
  309MPD2    C1 4699   1.043   2.003  17.201  0.5316  0.5928 -0.2042
  309MPD2    C2 4700   0.920   2.060  17.247  0.5423  0.2786 -0.1707
  309MPD2    C3 4701   0.830   1.994  17.326  0.0259  0.6450 -0.0151
  309MPD2    C4 4702   0.866   1.879  17.370  0.0589 -0.4517 -0.1820
  309MPD2    C5 4703   0.984   1.816  17.335 -0.2892 -0.5669 -0.1047
  309MPD2     H 4704   0.901   2.158  17.204  2.4914  1.3996  1.5499
  309MPD2    H1 4705   0.801   1.817  17.431 -0.4766 -0.9677 -1.2765
  309MPD2    H2 4706   1.164   1.823  17.230 -0.2073  1.2328 -1.9229
  309MPD2    H3 4707   0.999   1.714  17.368 -1.3560 -1.0116 -1.0123
  309MPD2     N 4708   0.696   2.028  17.354 -0.5896 -0.3568  0.0843
  309MPD2    H5 4709   0.652   1.962  17.418  0.6546  0.5782  1.8962
  309MPD2    N1 4710   1.129   2.070  17.107 -0.1468  0.6800 -0.4630
  309MPD2    H7 4711   1.082   2.141  17.051 -0.5380  1.1028  0.3959
  310TMC3    C1 4712   1.304   2.079  16.942 -0.1149  0.0627 -0.0206
  310TMC3    C2 4713   1.214   2.139  16.851 -0.5288 -0.5500 -0.4515
  310TMC3    C3 4714   1.242   2.136  16.721 -0.1418 -0.7055 -0.2813
  310TMC3    C4 4715   1.403   2.005  16.894  0.2245 -0.2500 -0.4671
  310TMC3    C5 4716   1.431   1.995  16.761  0.5065 -0.0131 -0.4245
  310TMC3    C6 4717   1.355   2.062  16.674  0.4537 -0.7897 -0.0354
  310TMC3     C 4718   1.255   2.028  17.072 -0.0590 -0.3896 -0.2157
  310TMC3     O 4719   1.323   1.941  17.120 -0.2002  0.0988  0.3576
  310TMC3     H 4720   1.138   2.203  16.895  1.2961  1.0684  0.3589
  310TMC3    H1 4721   1.473   1.969  16.968  0.5595  1.3981  0.0047
  310TMC3    H2 4722   1.392   2.072  16.572  1.7832  1.5996  0.6737
  310TMC3    C7 4723   1.522   1.903  16.706  0.3008 -0.6682 -0.3897
  310TMC3    C8 4724   1.151   2.189  16.614  0.4619 -0.4633 -0.1118
  310TMC3    O1 4725   1.528   1.891  16.584 -0.5632  0.3916 -0.2952
  310TMC3    O2 4726   1.036   2.164  16.626 -0.6574  0.1497 -1.0169
  311MPD2     C 4727   3.917   3.265  12.651  0.7990  0.5408  0.2339
  311MPD2    C1 4728   3.886   3.277  12.784  0.3721  0.0839 -0.2066
  311MPD2    C2 4729   3.757   3.257  12.823  0.5749 -1.2416  0.0083
  311MPD2    C3 4730   3.657   3.226  12.737  0.7512  0.0124  0.1482
  311MPD2    C4 4731   3.693   3.215  12.606 -0.5462  0.4512 -0.2833
  311MPD2    C5 4732   3.818   3.230  12.561  0.0403 -0.0131  0.2731
  311MPD2     H 4733   3.734   3.286  12.925  0.3170 -0.0461 -0.3968
  311MPD2    H1 4734   3.616   3.205  12.531  0.1049 -1.4045 -0.7029
  311MPD2    H2 4735   4.015   3.277  12.606  0.0746 -0.3437 -1.5759
  311MPD2    H3 4736   3.837   3.227  12.454 -1.5278 -0.7050  0.0097
  311MPD2     N 4737   3.521   3.221  12.775 -0.1060  0.3694 -0.3029
  311MPD2    H5 4738   3.502   3.228  12.874  0.1737 -1.3093 -0.1389
  311MPD2    N1 4739   3.983   3.310  12.884 -0.5035 -0.1017 -0.2889
  311MPD2    H7 4740   3.953   3.317  12.981 -1.7291 -1.9116 -0.5428
  312TMC3    C1 4741   3.283   3.218  12.765 -0.0863 -0.6391 -0.1037
  312TMC3    C2 4742   3.162   3.177  12.711 -0.4152  0.1662 -0.5031
  312TMC3    C3 4743   3.043   3.212  12.776 -0.1244 -0.0997 -0.4955
  312TMC3    C4 4744   3.281   3.292  12.881 -0.1603  0.1569 -0.3449
  312TMC3    C5 4745   3.161   3.322  12.942 -0.2241  1.1935 -0.2165
  312TMC3    C6 4746   3.038   3.292  12.885  1.2140 -0.5715 -0.3283
  312TMC3     C 4747   3.411   3.190  12.699  0.7930 -0.0809  0.4622
  312TMC3     O 4748   3.411   3.155  12.582 -0.6410 -0.6227  0.2202
  312TMC3     H 4749   3.170   3.114  12.623  1.0309 -1.4843  0.8126
  312TMC3    H1 4750   3.371   3.315  12.937  0.8736 -0.3893 -1.8101
  312TMC3    H2 4751   2.950   3.298  12.947  1.0478 -0.2746 -0.5918
  312TMC3    C7 4752   3.164   3.353  13.082  0.4669  0.0251 -0.5000
  312TMC3    C8 4753   2.928   3.124  12.752 -0.5708 -0.3509 -0.7890
  312TMC3    O1 4754   3.073   3.426  13.121  0.1450 -0.6945  0.4870
  312TMC3    O2 4755   2.817   3.179  12.757  0.0103  0.3234  0.3029
  313MPD2     C 4756   2.949   2.525  11.078 -0.0085  0.0057 -0.6040
  313MPD2    C1 4757   3.029   2.572  10.974  0.0638 -0.2100 -0.5240
  313MPD2    C2 4758   3.039   2.494  10.859  0.5482  0.8488  0.7405
  313MPD2    C3 4759   2.989   2.364  10.859 -0.0185 -1.4786 -0.8026
  313MPD2    C4 4760   2.920   2.316  10.968 -0.0551 -0.4098  0.4064
  313MPD2    C5 4761   2.905   2.399  11.074 -0.1730 -0.5272  0.3878
  313MPD2     H 4762   3.095   2.539  10.779 -1.0211 -1.2818 -1.5477
  313MPD2    H1 4763   2.892   2.212  10.981  2.2721 -1.1029 -0.2648
  313MPD2    H2 4764   2.937   2.578  11.172  0.8169 -0.5371 -0.1939
  313MPD2    H3 4765   2.865   2.363  11.168 -1.8929  0.6245  0.0930
  313MPD2     N 4766   3.020   2.279  10.745  0.5013  0.4326  0.0701
  313MPD2    H5 4767   3.066   2.315  10.662  0.5074 -3.0497 -1.4354
  313MPD2    N1 4768   3.093   2.697  10.970  0.2826  0.7138 -0.4415
  313MPD2    H7 4769   3.164   2.717  10.900  0.4109  1.9677  0.0452
  314TMC3    C1 4770   3.122   2.923  11.025 -0.5028  0.2335 -0.4719
  314TMC3    C2 4771   3.248   2.930  10.974  0.0672 -0.0432 -0.3931
  314TMC3    C3 4772   3.295   3.053  10.946  0.3963  0.1076 -0.4486
  314TMC3    C4 4773   3.054   3.038  11.063 -0.0863  0.0407  0.5495
  314TMC3    C5 4774   3.103   3.158  11.015 -0.1417 -0.2091 -0.0164
  314TMC3    C6 4775   3.225   3.164  10.953 -0.6659  0.3358  0.3600
  314TMC3     C 4776   3.053   2.795  11.054 -0.1077  0.2249  1.1630
  314TMC3     O 4777   2.966   2.800  11.143  0.0935  0.0377 -0.0467
  314TMC3     H 4778   3.300   2.836  10.959  2.4229  1.0725  0.8543
  314TMC3    H1 4779   2.949   3.028  11.086  0.4627 -0.2526  2.9896
  314TMC3    H2 4780   3.271   3.257  10.919 -2.0266  1.3451  1.2902
  314TMC3    C7 4781   3.015   3.273  11.005  0.0564 -0.2785  1.1188
  314TMC3    C8 4782   3.435   3.061  10.915  0.2705 -0.1593  0.1716
  314TMC3    O1 4783   2.893   3.249  11.024 -0.2712  0.0500 -0.2227
  314TMC3    O2 4784   3.484   2.974  10.849 -0.1318  0.0424 -0.5189
  315MPD2     C 4785   2.399   1.118  17.467  0.0944 -0.5303 -0.1438
  315MPD2    C1 4786   2.522   1.125  17.529  0.5869  0.4030  0.4850
  315MPD2    C2 4787   2.599   1.244  17.529  0.4759  0.3498  0.4595
  315MPD2    C3 4788   2.538   1.356  17.474  0.0754  0.5708  0.1704
  315MPD2    C4 4789   2.408   1.353  17.423  0.1623  0.1595  0.0378
  315MPD2    C5 4790   2.352   1.230  17.403  0.3339 -0.2450  0.0589
  315MPD2     H 4791   2.705   1.242  17.555  0.3859 -0.8813  0.7417
  315MPD2    H1 4792   2.368   1.438  17.368 -0.5126 -1.6049 -2.2381
  315MPD2    H2 4793   2.357   1.020  17.450 -1.1142  0.0784 -0.7544
  315MPD2    H3 4794   2.262   1.229  17.343 -0.8716 -1.4341  1.9008
  315MPD2     N 4795   2.614   1.471  17.487 -0.4200  0.6058 -0.5940
  315MPD2    H5 4796   2.709   1.465  17.524 -1.0732 -0.3538  0.9324
  315MPD2    N1 4797   2.579   1.010  17.580 -0.6533  0.4013 -0.3178
  315MPD2    H7 4798   2.678   1.020  17.598 -0.8805  1.0603  0.6001
  316TMC3    C1 4799   2.650   1.702  17.526  0.2428 -0.4382 -0.2247
  316TMC3    C2 4800   2.728   1.666  17.636 -0.0706  0.2560 -0.4145
  316TMC3    C3 4801   2.770   1.770  17.715  0.2718  0.5712  0.1396
  316TMC3    C4 4802   2.631   1.828  17.490 -0.9076  0.0125  0.8344
  316TMC3    C5 4803   2.676   1.930  17.573 -0.0746 -0.8449  0.2010
  316TMC3    C6 4804   2.738   1.901  17.693  1.0331 -0.5655 -0.8566
  316TMC3     C 4805   2.575   1.597  17.456  0.2529  0.5447  0.3414
  316TMC3     O 4806   2.480   1.633  17.389 -0.0991  0.3049  0.1393
  316TMC3     H 4807   2.751   1.564  17.664  2.1294  0.5909 -0.9816
  316TMC3    H1 4808   2.598   1.847  17.388 -0.5621  1.7640  1.0487
  316TMC3    H2 4809   2.765   1.986   0.012 -0.3767 -0.3967 -0.4906
  316TMC3    C7 4810   2.654   2.067  17.535 -0.3483 -0.1946  0.1742
  316TMC3    C8 4811   2.821   1.734   0.108  0.9472  0.2158 -0.0175
  316TMC3    O1 4812   2.724   2.147  17.593 -0.8647  0.5940  0.5729
  316TMC3    O2 4813   2.811   1.815   0.201 -0.1794  0.1768  0.4172
  317MPD2     C 4814   0.403   0.666  13.366 -0.0416  0.1763 -0.2064
  317MPD2    C1 4815   0.413   0.549  13.293  0.3123  0.5092 -0.5514
  317MPD2    C2 4816   0.414   0.436  13.367  0.5241 -0.2596 -0.3387
  317MPD2    C3 4817   0.408   0.429  13.500 -1.0340 -0.4689 -0.0200
  317MPD2    C4 4818   0.393   0.547  13.563 -0.2449  0.2497 -0.1405
  317MPD2    C5 4819   0.381   0.669  13.499 -0.6742 -0.4143  0.4859
  317MPD2     H 4820   0.424   0.343  13.313  0.7030 -1.0287  1.0143
  317MPD2    H1 4821   0.365   0.558  13.667 -0.9513 -0.3687 -0.2658
  317MPD2    H2 4822   0.382   0.765  13.328 -0.1852  1.2203  2.5861
  317MPD2    H3 4823   0.360   0.760  13.553  1.5846  0.9840 -0.9856
  317MPD2     N 4824   0.415   0.309  13.571 -0.2567 -0.0940 -0.1804
  317MPD2    H5 4825   0.439   0.229  13.512 -1.8703 -1.3475  0.8449
  317MPD2    N1 4826   0.422   0.550  13.147  0.1309 -0.9266  0.1215
  317MPD2    H7 4827   0.459   0.467  13.101  0.1502 -1.5837  1.3147
  318TMC3    C1 4828   0.440   0.145  13.733 -0.0829 -0.0457  0.9414
  318TMC3    C2 4829   0.386   0.048  13.658 -0.2646 -0.3357  0.0140
  318TMC3    C3 4830   0.400   4.660  13.712  0.0624  0.4497  0.2256
  318TMC3    C4 4831   0.505   0.126  13.854  0.3247  0.4402  0.1392
  318TMC3    C5 4832   0.523   0.004  13.898 -0.2103  0.0774  0.8191
  318TMC3    C6 4833   0.467   4.635  13.825  0.7285 -0.1833  0.4310
  318TMC3     C 4834   0.412   0.285  13.705  0.3099  0.1468 -1.0859
  318TMC3     O 4835   0.405   0.362  13.801  0.5664 -0.0702  0.6502
  318TMC3     H 4836   0.347   0.062  13.558  0.2056 -1.4615 -0.3332
  318TMC3    H1 4837   0.549   0.213  13.902  1.3867  0.7922 -1.4792
  318TMC3    H2 4838   0.465   4.534  13.864  0.1029 -0.7098 -0.9959
  318TMC3    C7 4839   0.612   4.721  14.006  0.1732 -1.1029  0.4893
  318TMC3    C8 4840   0.348   4.548  13.639 -0.5184  0.5382  0.4958
  318TMC3    O1 4841   0.639   0.084  14.075 -0.2457 -0.1494 -0.1600
  318TMC3    O2 4842   0.397   4.438  13.661 -0.4438  0.1563 -0.0711
  319MPD2     C 4843   0.656   1.175  17.238 -0.1727  0.5620 -0.5937
  319MPD2    C1 4844   0.598   1.053  17.274  0.3307 -0.0130 -0.2038
  319MPD2    C2 4845   0.570   0.957  17.181 -0.4083 -0.8589  0.2540
  319MPD2    C3 4846   0.581   0.987  17.044  0.2341  0.3179 -0.8766
  319MPD2    C4 4847   0.644   1.105  17.014 -0.6154 -0.0103  0.7975
  319MPD2    C5 4848   0.681   1.191  17.105  0.3408  0.3379  0.4705
  319MPD2     H 4849   0.533   0.864  17.222  0.2898 -1.7257 -1.1056
  319MPD2    H1 4850   0.666   1.123  16.910  1.0764  0.7130  1.2917
  319MPD2    H2 4851   0.690   1.251  17.307  0.5493  0.3204 -0.6840
  319MPD2    H3 4852   0.722   1.286  17.073  0.5437 -0.4843 -1.7456
  319MPD2     N 4853   0.562   0.901  16.939 -0.3936 -0.0592  0.4079
  319MPD2    H5 4854   0.589   0.942  16.850 -0.1781  1.7731  1.2953
  319MPD2    N1 4855   0.584   1.021  17.412 -0.2600 -0.6203 -0.2587
  319MPD2    H7 4856   0.576   0.922  17.433 -0.4194 -0.7627 -1.0103
  320TMC3    C1 4857   0.466   0.737  16.813 -0.1836  0.4909 -0.4736
  320TMC3    C2 4858   0.395   0.825  16.736 -0.3699  0.2198 -0.5291
  320TMC3    C3 4859   0.305   0.771  16.648 -0.1276 -0.1592  0.4592
  320TMC3    C4 4860   0.456   0.599  16.798  0.0098  0.4363  0.2790
  320TMC3    C5 4861   0.364   0.550  16.707 -0.2251  0.4838 -0.1357
  320TMC3    C6 4862   0.292   0.632  16.627 -0.1246  0.0827  0.1115
  320TMC3     C 4863   0.506   0.777  16.945 -0.3096 -0.0581  0.7798
  320TMC3     O 4864   0.479   0.710  17.042  0.1101 -0.2268  0.3475
  320TMC3     H 4865   0.403   0.932  16.753 -0.2363  0.4363 -1.9019
  320TMC3    H1 4866   0.504   0.529  16.865 -1.2736 -1.3286 -0.6349
  320TMC3    H2 4867   0.236   0.573  16.556  1.9564  1.0339 -2.3051
  320TMC3    C7 4868   0.407   0.425  16.650 -0.4127  0.3246 -0.3015
  320TMC3    C8 4869   0.239   0.863  16.558 -0.3363  0.4168  0.2256
  320TMC3    O1 4870   0.531   0.409  16.637  0.0747  0.0352 -0.0271
  320TMC3    O2 4871   0.251   0.982  16.575 -0.1479 -0.1611  0.1813
  321TMC3    C1 4872   0.576   1.062  17.655 -1.0725 -0.2940  0.7529
  321TMC3    C2 4873   0.537   0.935  17.686  0.1688 -0.4939  0.4333
  321TMC3    C3 4874   0.563   0.887   0.068 -0.4842  0.3118 -0.9408
  321TMC3    C4 4875   0.654   1.137  17.740  0.6815  0.8053 -0.5305
  321TMC3    C5 4876   0.688   1.081   0.123 -1.3438  0.2878 -0.7791
  321TMC3    C6 4877   0.632   0.960   0.163 -0.6892  0.3931  0.2416
  321TMC3     C 4878   0.582   1.115  17.510 -0.1909  0.1398 -0.3236
  321TMC3     O 4879   0.611   1.233  17.506 -0.3090  0.2522  0.4578
  321TMC3     H 4880   0.474   0.885  17.613 -1.1462 -0.7447  1.7286
  321TMC3    H1 4881   0.682   1.240  17.719  1.0165  0.7738 -0.2271
  321TMC3    H2 4882   0.648   0.930   0.267 -1.0689 -2.1536 -0.4181
  321TMC3    C7 4883   0.832   1.089   0.157 -0.2262  0.3770  0.1977
  321TMC3    C8 4884   0.619   0.753   0.063 -0.3214 -0.3503 -0.2789
  321TMC3    O1 4885   0.873   0.996   0.226  0.7382  0.4803  0.3780
  321TMC3    O2 4886   0.593   0.685  17.707 -0.4467 -0.0151  0.4267
  322MPD2     C 4887   4.540   2.632  13.631  0.4644 -0.2242 -0.2198
  322MPD2    C1 4888   4.533   2.603  13.773 -0.5324  0.1297 -0.0408
  322MPD2    C2 4889   4.491   2.482  13.811  0.0237  0.1235  0.1451
  322MPD2    C3 4890   4.459   2.380  13.722  0.3707 -0.1849  0.1278
  322MPD2    C4 4891   4.460   2.413  13.591  0.0027  0.0217 -0.1474
  322MPD2    C5 4892   4.500   2.533  13.544 -0.7544  0.0226  0.2345
  322MPD2     H 4893   4.490   2.457  13.917  0.6329  0.1357  0.1507
  322MPD2    H1 4894   4.432   2.343  13.513  0.8784  1.5611 -1.8459
  322MPD2    H2 4895   4.579   2.724  13.590  1.4984 -0.5401  0.0421
  322MPD2    H3 4896   4.501   2.548  13.436 -1.3138 -0.9389  0.0890
  322MPD2     N 4897   4.443   2.258  13.776 -0.0098 -0.2793 -0.4582
  322MPD2    H5 4898   4.449   2.259  13.877  1.0510  4.5403 -0.5558
  322MPD2    N1 4899   4.579   2.692  13.871  0.7517  0.3880  0.2504
  322MPD2    H7 4900   4.560   2.671  13.968 -0.0523 -4.6780 -1.0361
  323TMC3    C1 4901   0.008   2.829  13.964  0.0551  0.1903  0.5068
  323TMC3    C2 4902   0.135   2.877  13.938  0.2840  0.5004  0.0570
  323TMC3    C3 4903   0.226   2.900  14.041  0.3850  0.1437 -0.2390
  323TMC3    C4 4904   4.711   2.778  14.086  0.2236 -0.6472  0.4016
  323TMC3    C5 4905   0.069   2.802  14.189 -0.2040  0.0240 -1.1593
  323TMC3    C6 4906   0.191   2.867  14.167  0.0249  0.5735 -0.3552
  323TMC3     C 4907   4.663   2.796  13.848 -0.1235 -0.6545  0.0741
  323TMC3     O 4908   4.710   2.833  13.742 -0.4375 -0.5975  0.0726
  323TMC3     H 4909   0.156   2.900  13.834  2.1203  1.1168  0.5613
  323TMC3    H1 4910   4.608   2.749  14.105 -0.1818  0.0686 -0.6725
  323TMC3    H2 4911   0.268   2.860  14.243 -1.1210  0.7144  0.8125
  323TMC3    C7 4912   0.050   2.744  14.320  0.3063  0.1799  0.6448
  323TMC3    C8 4913   0.364   2.873  14.005 -0.5205  0.0768 -0.8643
  323TMC3    O1 4914   4.718   2.642  14.325 -0.1883  0.2262  0.2988
  323TMC3    O2 4915   0.430   2.820  14.096  0.3993  0.7598  0.1038
  324MPD2     C 4916   1.608   3.426  14.580  0.6649 -0.8241 -0.1254
  324MPD2    C1 4917   1.594   3.564  14.594 -0.4676  0.0123 -0.3047
  324MPD2    C2 4918   1.486   3.623  14.541 -0.7325  0.9588 -0.5870
  324MPD2    C3 4919   1.383   3.547  14.483 -0.5882  0.1954  0.4387
  324MPD2    C4 4920   1.392   3.415  14.472  0.2001 -0.0966 -0.5111
  324MPD2    C5 4921   1.508   3.358  14.514  0.4063  0.3082 -0.3859
  324MPD2     H 4922   1.484   3.731  14.550  1.4511  0.9339  0.1795
  324MPD2    H1 4923   1.316   3.348  14.433 -0.2147  0.4629 -0.6457
  324MPD2    H2 4924   1.698   3.375  14.610  0.7699 -0.6728 -0.1837
  324MPD2    H3 4925   1.524   3.254  14.487 -0.9060 -0.8872  3.5106
  324MPD2     N 4926   1.261   3.600  14.444 -0.0029 -0.1821 -0.3795
  324MPD2    H5 4927   1.186   3.534  14.425 -0.7733  0.6589 -0.2875
  324MPD2    N1 4928   1.688   3.639  14.663 -0.0807 -0.1030  0.4006
  324MPD2    H7 4929   1.684   3.740  14.651  0.5143 -0.1547 -0.2244
  325TMC3    C1 4930   1.085   3.771  14.455  0.2273 -0.1419  0.8161
  325TMC3    C2 4931   0.994   3.681  14.405  0.0852 -0.1123  0.5306
  325TMC3    C3 4932   0.860   3.717  14.396 -0.7523 -0.2879  0.4661
  325TMC3    C4 4933   1.050   3.891  14.506  0.0009  0.6961 -0.6343
  325TMC3    C5 4934   0.917   3.919  14.488  0.3134 -0.3854 -0.1418
  325TMC3    C6 4935   0.820   3.842  14.428  0.5491 -0.2947 -0.1193
  325TMC3     C 4936   1.233   3.735  14.454  0.4305  0.0295  0.4657
  325TMC3     O 4937   1.306   3.833  14.468  0.0263  0.1975 -0.7055
  325TMC3     H 4938   1.033   3.586  14.372  1.6146  0.6544  0.1357
  325TMC3    H1 4939   1.121   3.970  14.525 -1.7360  1.9123  0.7506
  325TMC3    H2 4940   0.722   3.884  14.410  1.2012  1.9546  1.5536
  325TMC3    C7 4941   0.879   4.054  14.521 -0.7713  0.6483  0.5196
  325TMC3    C8 4942   0.765   3.640  14.315 -0.3398  0.0136  1.1363
  325TMC3    O1 4943   0.966   4.138  14.522  0.2440  0.0335  0.2976
  325TMC3    O2 4944   0.816   3.535  14.271 -0.2874  0.1561 -0.2335
  326MPD2     C 4945   2.574   0.786  11.548 -0.3444  0.0236 -0.1141
  326MPD2    C1 4946   2.639   0.746  11.434  0.7571  0.1297 -1.0627
  326MPD2    C2 4947   2.772   0.781  11.413 -0.0109 -0.2663 -0.4023
  326MPD2    C3 4948   2.844   0.838  11.510 -0.5556 -0.3285 -0.0200
  326MPD2    C4 4949   2.774   0.872  11.630  0.2626 -0.1597  0.6751
  326MPD2    C5 4950   2.642   0.840  11.654  0.2704 -0.2375 -0.1925
  326MPD2     H 4951   2.803   0.746  11.315 -1.7833  0.0013 -1.0726
  326MPD2    H1 4952   2.826   0.924  11.709  1.1989 -2.2566  1.4588
  326MPD2    H2 4953   2.468   0.764  11.557  0.0987 -1.8516  0.3995
  326MPD2    H3 4954   2.589   0.877  11.740  0.9613  0.9271 -0.2768
  326MPD2     N 4955   2.977   0.880  11.497 -0.0540  0.4647  0.3060
  326MPD2    H5 4956   3.016   0.932  11.574  0.6422  1.0603 -0.4522
  326MPD2    N1 4957   2.572   0.672  11.332  0.2640 -0.1686 -0.4668
  326MPD2    H7 4958   2.642   0.644  11.264  0.7752 -1.6436  0.6812
  327TMC3    C1 4959   2.410   0.545  11.234  0.0964 -0.2418 -0.5602
  327TMC3    C2 4960   2.306   0.583  11.145 -0.5217 -1.0134  0.3298
  327TMC3    C3 4961   2.314   0.558  11.016 -0.1508 -0.0387 -0.1488
  327TMC3    C4 4962   2.516   0.473  11.185  0.0632 -0.1011 -0.3915
  327TMC3    C5 4963   2.528   0.468  11.047  1.1858 -0.3388 -0.1744
  327TMC3    C6 4964   2.430   0.512  10.963  0.0303  0.1385  0.0996
  327TMC3     C 4965   2.436   0.640  11.335  0.0733  0.4927 -0.0864
  327TMC3     O 4966   2.338   0.654  11.406 -0.5608  0.6872  0.1285
  327TMC3     H 4967   2.212   0.626  11.179  0.3656  0.1044  1.3994
  327TMC3    H1 4968   2.596   0.446  11.252  1.4691 -0.6729 -2.3081
  327TMC3    H2 4969   2.438   0.517  10.855 -1.2693 -0.7426 -0.0415
  327TMC3    C7 4970   2.663   0.457  10.988 -0.2287  0.3322 -0.0152
  327TMC3    C8 4971   2.240   0.653  10.928 -0.3951  0.7455  0.5203
  327TMC3    O1 4972   2.675   0.506  10.877 -0.3749  0.1580 -0.0713
  327TMC3    O2 4973   2.317   0.731  10.867 -0.3421  0.2202  0.3287
  328MPD2     C 4974   0.271   0.207  17.312 -0.3123 -0.0003  0.1194
  328MPD2    C1 4975   0.228   0.079  17.359  0.8587  0.2476  0.0671
  328MPD2    C2 4976   0.199   4.717  17.263  0.8139  0.4418  0.5548
  328MPD2    C3 4977   0.175   0.034  17.132  0.6915 -0.1318 -0.3104
  328MPD2    C4 4978   0.209   0.163  17.094  0.1510 -0.1346 -0.1965
  328MPD2    C5 4979   0.248   0.255  17.188 -1.0271  0.1649  0.8275
  328MPD2     H 4980   0.168   4.617  17.291 -0.9921  0.6449 -0.7157
  328MPD2    H1 4981   0.189   0.201  16.994  1.8452  0.0760 -0.4617
  328MPD2    H2 4982   0.301   0.286  17.380  0.7712 -2.5837  2.6540
  328MPD2    H3 4983   0.266   0.360  17.171 -0.7842 -0.0289 -0.1698
  328MPD2     N 4984   0.114   4.697  17.028 -0.3636  0.2631 -0.4093
  328MPD2    H5 4985   0.109   0.011  16.940  0.3224  2.3459  0.7362
  328MPD2    N1 4986   0.242   0.045  17.498 -0.1822 -0.5416  0.0002
  328MPD2    H7 4987   0.235   4.682  17.517  0.0081 -0.5187  0.2057
  329TMC3    C1 4988   0.266   0.074  17.725  0.3190  0.5502 -0.2793
  329TMC3    C2 4989   0.200   0.125   0.086  0.6323  0.0599  0.4992
  329TMC3    C3 4990   0.235   0.079   0.211 -0.3346  0.1320  0.0614
  329TMC3    C4 4991   0.365   4.718   0.003 -0.7039 -0.6542 -0.2206
  329TMC3    C5 4992   0.398   4.660   0.127  0.5643  0.4355  0.1702
  329TMC3    C6 4993   0.325   4.714   0.234  0.1024  0.5850 -0.5007
  329TMC3     C 4994   0.259   0.130  17.599  0.0172 -0.0025  0.1472
  329TMC3     O 4995   0.254   0.254  17.592  0.1074 -0.2161 -0.1069
  329TMC3     H 4996   0.136   0.211   0.066 -0.4752 -0.7924  0.3939
  329TMC3    H1 4997   0.430   4.698  17.662  1.6423  1.5015  1.0894
  329TMC3    H2 4998   0.346   4.679   0.334 -1.9299  0.1320 -0.2436
  329TMC3    C7 4999   0.533   4.622   0.154 -0.7189 -0.0528  0.4098
  329TMC3    C8 5000   0.164   0.151   0.315 -0.4229 -0.1947  0.2818
  329TMC3    O1 5001   0.565   4.600   0.268  0.6723 -0.9163  0.3240
  329TMC3    O2 5002   0.136   0.269   0.289 -0.0949  0.2839 -0.1295
  330TMC3    C1 5003   2.968   0.125  10.117 -0.0684  0.0627  0.5861
  330TMC3    C2 5004   2.904   0.038  10.035  0.8907  0.0544  0.6140
  330TMC3    C3 5005   2.929   4.640  10.042  0.6199  0.0637  0.0202
  330TMC3    C4 5006   3.057   0.086  10.211 -0.0548 -0.7846 -0.4350
  330TMC3    C5 5007   3.092   4.682  10.202 -0.5727  0.2315 -0.0052
  330TMC3    C6 5008   3.025   4.588  10.126 -0.0889 -0.8812  0.9935
  330TMC3     C 5009   2.897   0.246  10.150 -0.0494  0.1128  0.1168
  330TMC3     O 5010   2.958   0.323  10.223 -0.0732  0.4581  0.2670
  330TMC3     H 5011   2.829   0.069   9.963  2.7320  2.5325 -0.2608
  330TMC3    H1 5012   3.106   0.147  10.285  0.0953  0.4240 -1.5259
  330TMC3    H2 5013   3.047   4.482  10.134  0.7935 -0.9032 -2.0139
  330TMC3    C7 5014   3.221   4.647  10.257 -0.7650  0.6764 -0.8500
  330TMC3    C8 5015   2.832   4.565   9.964  0.2397  0.0936 -0.5124
  330TMC3    O1 5016   3.257   4.708  10.356  0.3567  0.2963 -0.1448
  330TMC3    O2 5017   2.808   4.612   9.856 -0.0851  0.3102 -0.1134
  331MPD2     C 5018   1.606   3.731  12.993  0.9698 -0.3597 -0.5661
  331MPD2    C1 5019   1.479   3.758  12.953 -0.1042 -1.0859 -0.0823
  331MPD2    C2 5020   1.384   3.656  12.963 -0.7090  0.0092 -0.4853
  331MPD2    C3 5021   1.416   3.531  13.022 -0.4246 -0.4105 -0.1857
  331MPD2    C4 5022   1.542   3.523  13.080  0.1499 -0.1383  0.5810
  331MPD2    C5 5023   1.640   3.616  13.058  0.0454 -0.2052  0.4260
  331MPD2     H 5024   1.288   3.676  12.918 -0.8940 -1.5577 -0.7637
  331MPD2    H1 5025   1.588   3.433  13.118  2.9741  1.6813  1.5192
  331MPD2    H2 5026   1.685   3.801  12.968  2.1691 -0.4660  2.9027
  331MPD2    H3 5027   1.744   3.600  13.086 -0.0689 -3.0780 -0.7096
  331MPD2     N 5028   1.333   3.421  13.020 -0.0858  0.7074 -0.7408
  331MPD2    H5 5029   1.244   3.432  12.973  0.3467  2.1082 -1.2302
  331MPD2    N1 5030   1.461   3.871  12.870  0.7645  0.1732 -0.4406
  331MPD2    H7 5031   1.540   3.921  12.832  2.4620  0.5331  3.5511
  332TMC3    C1 5032   1.288   3.192  13.020  0.1398  0.1279 -0.2070
  332TMC3    C2 5033   1.263   3.189  12.885 -0.4375 -0.1078 -0.0890
  332TMC3    C3 5034   1.258   3.071  12.816  0.4265  0.0893 -0.4328
  332TMC3    C4 5035   1.319   3.072  13.084 -0.1526 -0.7850 -0.8181
  332TMC3    C5 5036   1.320   2.954  13.015 -0.8063 -0.6000  0.0996
  332TMC3    C6 5037   1.281   2.949  12.881  0.2023  0.1443  0.9171
  332TMC3     C 5038   1.357   3.297  13.077 -0.3437  2.0268  0.1810
  332TMC3     O 5039   1.453   3.255  13.139 -0.4757 -0.8028  0.1349
  332TMC3     H 5040   1.226   3.282  12.844 -1.1316 -1.1036 -1.7331
  332TMC3    H1 5041   1.348   3.068  13.188 -1.2372 -0.5479 -0.5182
  332TMC3    H2 5042   1.280   2.857  12.825 -2.0615  1.0164 -0.4750
  332TMC3    C7 5043   1.432   2.872  13.065  0.4689 -0.3411  0.0369
  332TMC3    C8 5044   1.239   3.080  12.670 -0.3523  0.3523 -0.2826
  332TMC3    O1 5045   1.427   2.867  13.187 -0.0907 -0.1791 -0.6131
  332TMC3    O2 5046   1.255   3.193  12.617  0.5101 -0.1790 -0.7514
  333MPD2     C 5047   1.536   3.107  11.262 -0.3681  0.1311 -0.1281
  333MPD2    C1 5048   1.631   3.007  11.247 -0.0121  0.2821  0.0752
  333MPD2    C2 5049   1.633   2.894  11.328  0.3109 -0.4526 -0.1859
  333MPD2    C3 5050   1.529   2.879  11.420 -0.6895 -0.8633  0.0595
  333MPD2    C4 5051   1.436   2.979  11.443  0.9366  0.5670  0.5948
  333MPD2    C5 5052   1.436   3.089  11.359 -0.2625 -0.0043 -0.2664
  333MPD2     H 5053   1.717   2.826  11.321  0.5883  0.0362 -1.5851
  333MPD2    H1 5054   1.357   2.974  11.516  1.0512 -0.9976  0.6135
  333MPD2    H2 5055   1.521   3.190  11.194  1.3851 -0.8450 -1.7121
  333MPD2    H3 5056   1.357   3.161  11.376 -0.6302 -0.6279  0.6703
  333MPD2     N 5057   1.528   2.771  11.510 -0.1534  0.5309  0.2369
  333MPD2    H5 5058   1.609   2.710  11.505  0.2629  1.2820 -2.3848
  333MPD2    N1 5059   1.734   3.022  11.145  0.1662  0.1420 -0.1728
  333MPD2    H7 5060   1.758   3.116  11.117 -2.6430  0.3317 -2.0189
  334TMC3    C1 5061   1.889   2.964  10.977  0.5550  0.3637 -0.1909
  334TMC3    C2 5062   2.014   2.904  10.975 -0.6040 -0.2955 -0.4872
  334TMC3    C3 5063   2.121   2.989  10.946 -0.0477 -0.0248  0.0493
  334TMC3    C4 5064   1.860   3.089  10.938  0.3003  0.2023 -0.2128
  334TMC3    C5 5065   1.971   3.173  10.917  0.2196  0.8308 -0.0936
  334TMC3    C6 5066   2.092   3.123  10.928  0.3329  0.5881  0.0410
  334TMC3     C 5067   1.810   2.917  11.089 -0.0397  0.5769 -0.0239
  334TMC3     O 5068   1.819   2.797  11.115  0.1965  0.2494  0.0057
  334TMC3     H 5069   2.031   2.804  11.013  2.5707  1.2527  2.1835
  334TMC3    H1 5070   1.760   3.130  10.924  0.5159  0.5719 -0.6980
  334TMC3    H2 5071   2.174   3.183  10.888  1.1724 -0.3881  0.2926
  334TMC3    C7 5072   1.960   3.315  10.919 -0.7115  0.1237 -0.4851
  334TMC3    C8 5073   2.251   2.937  10.986 -0.4583 -0.1920 -0.1778
  334TMC3    O1 5074   2.059   3.377  10.950  0.6092  0.2646 -0.0232
  334TMC3    O2 5075   2.270   2.816  10.994 -0.5244  0.4778 -0.1695
  335TMC3    C1 5076   1.205   4.528   0.116 -0.7538 -0.3269 -0.2627
  335TMC3    C2 5077   1.116   4.519   0.011 -0.3765 -0.0138  0.1375
  335TMC3    C3 5078   1.158   4.564  17.628 -0.2261 -0.2181  0.2251
  335TMC3    C4 5079   1.330   4.577   0.105 -0.5189  0.3280 -0.6488
  335TMC3    C5 5080   1.366   4.633  17.726  0.5033  0.0969 -0.1989
  335TMC3    C6 5081   1.282   4.627  17.618  0.1076 -0.4646  0.1977
  335TMC3     C 5082   1.134   4.525   0.246 -0.3350 -0.0853 -0.2714
  335TMC3     O 5083   1.041   4.441   0.256  0.0612 -0.3709 -1.0336
  335TMC3     H 5084   1.017   4.475   0.011 -1.5941  2.6715 -2.5823
  335TMC3    H1 5085   1.391   4.583   0.194 -1.1571  1.1726 -0.2702
  335TMC3    H2 5086   1.313   4.670  17.523  1.4496 -3.9941 -0.9754
  335TMC3    C7 5087   1.491   4.708  17.706  0.5965 -0.7455  0.0949
  335TMC3    C8 5088   1.070   4.552  17.510  0.1842  0.6045 -0.0523
  335TMC3    O1 5089   1.479   0.068  17.628 -0.1760 -0.0758 -0.8878
  335TMC3    O2 5090   1.104   4.620  17.416  0.2310 -0.6115 -0.1095
  336MPD2     C 5091   0.437   2.417  16.240  0.3700 -0.0839  0.1347
  336MPD2    C1 5092   0.405   2.332  16.135  0.2033 -0.5588 -0.2725
  336MPD2    C2 5093   0.432   2.197  16.154  0.0899 -0.6415 -0.0350
  336MPD2    C3 5094   0.510   2.163  16.263 -0.5177  0.0882  0.2064
  336MPD2    C4 5095   0.554   2.249  16.358 -0.0526 -0.2919  0.0037
  336MPD2    C5 5096   0.504   2.378  16.349  0.3421  0.6430  0.0766
  336MPD2     H 5097   0.399   2.128  16.077  2.2933  0.5604 -2.0758
  336MPD2    H1 5098   0.614   2.219  16.443  0.3750 -0.1423 -0.2474
  336MPD2    H2 5099   0.405   2.520  16.243  1.3691  0.2003  1.1562
  336MPD2    H3 5100   0.531   2.448  16.427 -0.7193  0.2947  0.7652
  336MPD2     N 5101   0.540   2.027  16.281  0.1556 -0.3473  0.7392
  336MPD2    H5 5102   0.585   2.008  16.370 -0.2802 -0.1683  0.9967
  336MPD2    N1 5103   0.349   2.377  16.013 -0.3811 -0.2830 -0.2645
  336MPD2    H7 5104   0.297   2.313  15.954  0.9137 -2.3735  0.8429
  337TMC3    C1 5105   0.274   2.554  15.873 -0.1198  0.4103 -0.0254
  337TMC3    C2 5106   0.164   2.484  15.831  0.4280  0.6559 -0.6067
  337TMC3    C3 5107   0.091   2.536  15.726  0.0099 -0.1350 -0.4872
  337TMC3    C4 5108   0.309   2.669  15.802 -0.1146  0.1920  0.6600
  337TMC3    C5 5109   0.220   2.720  15.710  0.7314 -0.4224 -0.0965
  337TMC3    C6 5110   0.105   2.654  15.663  0.2176 -0.0598  0.6543
  337TMC3     C 5111   0.362   2.511  15.980  0.1506 -0.2376 -0.3315
  337TMC3     O 5112   0.440   2.596  16.017  0.2614 -0.0937  0.2033
  337TMC3     H 5113   0.138   2.395  15.888 -1.4076  1.3794 -0.3001
  337TMC3    H1 5114   0.399   2.727  15.821 -0.2523  0.0407  1.7898
  337TMC3    H2 5115   0.043   2.703  15.589  0.6292  0.9030  0.9496
  337TMC3    C7 5116   0.266   2.841  15.642 -0.4267 -0.5243 -0.1760
  337TMC3    C8 5117   4.708   2.460  15.695 -0.5969  0.0261  0.4668
  337TMC3    O1 5118   0.386   2.860  15.623  0.1611 -0.7298  0.2521
  337TMC3    O2 5119   4.672   2.370  15.773  0.0039  0.0786 -0.4809
  338MPD2     C 5120   0.665   2.041   1.117 -0.1670 -0.8260 -0.2268
  338MPD2    C1 5121   0.589   2.055   0.999 -0.4563  0.3255 -0.0348
  338MPD2    C2 5122   0.466   2.109   1.006  0.7135  0.0292  0.3943
  338MPD2    C3 5123   0.414   2.144   1.125  0.5613  0.7577 -0.0008
  338MPD2    C4 5124   0.483   2.112   1.238 -0.6904 -0.7997  0.4828
  338MPD2    C5 5125   0.609   2.057   1.233 -0.3023 -0.4848 -0.5809
  338MPD2     H 5126   0.410   2.126   0.915  0.4252 -0.1293  0.5427
  338MPD2    H1 5127   0.438   2.142   1.332  0.8409  0.5814  0.7752
  338MPD2    H2 5128   0.764   2.001   1.133 -0.4065 -1.6307 -0.7640
  338MPD2    H3 5129   0.663   2.034   1.324 -0.2242 -1.5045 -0.8830
  338MPD2     N 5130   0.290   2.207   1.125 -0.0013 -0.1391 -0.8675
  338MPD2    H5 5131   0.238   2.229   1.041  2.1716 -0.2401 -2.2190
  338MPD2    N1 5132   0.636   2.013   0.878 -0.8684 -0.0902 -0.1864
  338MPD2    H7 5133   0.569   2.028   0.803 -0.1469 -1.2246 -1.0687
  339TMC3    C1 5134   0.085   2.281   1.184 -0.7988 -0.3387 -0.2285
  339TMC3    C2 5135   4.716   2.189   1.211  0.7610  0.4249 -0.2025
  339TMC3    C3 5136   4.646   2.137   1.105 -0.4364 -0.1123  0.4259
  339TMC3    C4 5137   0.099   2.331   1.057 -0.6578 -0.1628  0.1021
  339TMC3    C5 5138   0.031   2.267   0.955  0.5834 -0.0376 -0.8410
  339TMC3    C6 5139   4.665   2.174   0.968  0.1085  0.7905 -0.2219
  339TMC3     C 5140   0.202   2.221   1.234 -0.0396  0.0031  0.0372
  339TMC3     O 5141   0.206   2.172   1.346  0.2543  0.4900  0.3019
  339TMC3     H 5142   4.710   2.139   1.308 -0.6396  0.6502 -0.1719
  339TMC3    H1 5143   0.166   2.415   1.045 -2.7683  1.4204 -0.7113
  339TMC3    H2 5144   4.607   2.138   0.885 -1.2895  2.3322  0.0846
  339TMC3    C7 5145   0.064   2.315   0.820 -0.7095 -0.3669  0.4378
  339TMC3    C8 5146   4.539   2.038   1.127 -0.8305 -0.0879 -0.3918
  339TMC3    O1 5147   0.125   2.415   0.807 -0.6961  0.4145  0.1440
  339TMC3    O2 5148   4.489   1.965   1.040  0.5961  0.4471  0.7378
  340MPD2     C 5149   1.207   4.447  10.442 -1.0865 -0.2646 -0.9099
  340MPD2    C1 5150   1.154   4.414  10.573  0.1386 -0.4055  0.1807
  340MPD2    C2 5151   1.122   4.513  10.662  0.7119  0.1811 -0.4065
  340MPD2    C3 5152   1.154   4.648  10.635  0.8139 -0.2624 -0.0220
  340MPD2    C4 5153   1.214   4.672  10.507  0.4526  0.9862 -1.0028
  340MPD2    C5 5154   1.230   4.572  10.420  0.2886 -0.0465  0.0371
  340MPD2     H 5155   1.061   4.493  10.749  1.2499  2.4981  0.5109
  340MPD2    H1 5156   1.249   0.030  10.467 -2.4516  1.4801 -2.3684
  340MPD2    H2 5157   1.233   4.375  10.365  0.9026  1.6753 -2.0475
  340MPD2    H3 5158   1.266   4.583  10.319 -1.5461  4.3016 -0.1748
  340MPD2     N 5159   1.112   0.024  10.703 -0.0587 -0.0624  0.2073
  340MPD2    H5 5160   1.166   0.107  10.681  0.1161  0.1534  1.4310
  340MPD2    N1 5161   1.131   4.280  10.587 -0.1823  0.2839  0.1242
  340MPD2    H7 5162   1.146   4.225  10.504 -0.1987  2.4857 -1.3301
  341TMC3    C1 5163   1.100   4.074  10.690  0.3517  0.6787  0.7768
  341TMC3    C2 5164   1.000   3.993  10.727  0.0986  0.8031  0.1909
  341TMC3    C3 5165   0.986   3.870  10.682  0.4629  1.0397  0.1049
  341TMC3    C4 5166   1.188   4.022  10.593 -0.2893 -0.3824  0.5635
  341TMC3    C5 5167   1.185   3.889  10.554  0.2431  0.4565  0.4949
  341TMC3    C6 5168   1.083   3.809  10.603 -1.4845 -0.3635 -0.2617
  341TMC3     C 5169   1.083   4.218  10.703 -0.5524  1.2539  0.8506
  341TMC3     O 5170   1.039   4.259  10.807 -0.1269 -0.0052 -0.1169
  341TMC3     H 5171   0.925   4.043  10.787  0.9479 -0.6642  2.5109
  341TMC3    H1 5172   1.269   4.079  10.550  0.0351 -1.0292  0.3262
  341TMC3    H2 5173   1.103   3.703  10.597  0.0068 -0.0093 -1.5394
  341TMC3    C7 5174   1.313   3.814  10.545  0.0548  0.3871 -0.1316
  341TMC3    C8 5175   0.875   3.794  10.733  0.3101  0.3804 -0.5786
  341TMC3    O1 5176   1.408   3.889  10.570 -0.4886 -0.1567 -0.0107
  341TMC3    O2 5177   0.842   3.700  10.663  0.0457 -0.6572 -0.0978
  342MPD2     C 5178   3.205   2.653  17.699 -0.4762 -0.1715  0.0274
  342MPD2    C1 5179   3.339   2.654  17.664  0.5168 -0.6771  0.6239
  342MPD2    C2 5180   3.417   2.763  17.694 -0.2156  0.4003 -0.1540
  342MPD2    C3 5181   3.359   2.871   0.017  0.2998 -0.7144 -0.2026
  342MPD2    C4 5182   3.226   2.875   0.047 -0.0657 -0.7652  0.0106
  342MPD2    C5 5183   3.152   2.772   0.008 -0.1152  0.1772 -0.0707
  342MPD2     H 5184   3.519   2.762  17.657  0.2298 -1.2487  1.1485
  342MPD2    H1 5185   3.183   2.952   0.110  0.6140 -0.4654  0.1072
  342MPD2    H2 5186   3.139   2.571  17.673 -1.2004  0.5367 -0.3468
  342MPD2    H3 5187   3.052   2.762   0.048 -0.1429 -0.7678 -0.3527
  342MPD2     N 5188   3.432   2.982   0.063 -0.2474  0.2978 -0.3411
  342MPD2    H5 5189   3.376   3.058   0.100 -1.6026 -0.8799  0.0388
  342MPD2    N1 5190   3.389   2.557  17.574  0.0823  0.3478 -0.4301
  342MPD2    H7 5191   3.475   2.581  17.527  0.3227  1.4884  0.5867
  343TMC3    C1 5192   3.405   2.381  17.423  0.0199  0.0818  0.9500
  343TMC3    C2 5193   3.496   2.455  17.358 -0.1899 -0.2692  0.0270
  343TMC3    C3 5194   3.529   2.411  17.234  0.0071 -0.4415  0.4904
  343TMC3    C4 5195   3.327   2.287  17.360 -0.4122 -0.2763  0.5561
  343TMC3    C5 5196   3.354   2.268  17.225 -0.6393  1.1222  0.3126
  343TMC3    C6 5197   3.458   2.326  17.156  0.0847 -0.1084  0.9608
  343TMC3     C 5198   3.329   2.442  17.530 -0.4313 -0.2818  0.0131
  343TMC3     O 5199   3.240   2.376  17.581 -0.3970 -0.5698  0.1629
  343TMC3     H 5200   3.578   2.497  17.414  0.1187 -2.4190  1.2011
  343TMC3    H1 5201   3.248   2.229  17.406 -0.3504 -0.3961  0.5103
  343TMC3    H2 5202   3.505   2.304  17.061  0.8561 -0.0414  1.3231
  343TMC3    C7 5203   3.299   2.151  17.164 -0.6368  0.7394  0.2029
  343TMC3    C8 5204   3.655   2.458  17.174 -0.5210 -0.0463  0.5533
  343TMC3    O1 5205   3.245   2.071  17.239  0.2048 -0.2087 -0.1067
  343TMC3    O2 5206   3.686   2.577  17.191 -0.1446  0.1215 -0.4543
  344MPD2     C 5207   0.372   2.313  11.248 -0.5073 -0.0152 -0.7119
  344MPD2    C1 5208   0.253   2.283  11.179 -1.0565  0.1571 -0.0665
  344MPD2    C2 5209   0.207   2.363  11.069 -0.3232  0.5156 -0.6949
  344MPD2    C3 5210   0.260   2.495  11.059 -0.5533 -0.1245 -0.5512
  344MPD2    C4 5211   0.365   2.525  11.139  0.1428 -0.0736 -0.2013
  344MPD2    C5 5212   0.425   2.437  11.232  0.6124 -0.6804 -0.5268
  344MPD2     H 5213   0.125   2.335  11.003  0.5224 -1.8428 -0.7417
  344MPD2    H1 5214   0.406   2.625  11.127  0.6554 -0.1846  0.6597
  344MPD2    H2 5215   0.419   2.254  11.326 -0.1225 -1.8692 -2.3189
  344MPD2    H3 5216   0.509   2.475  11.288 -0.6013 -0.3095  1.0600
  344MPD2     N 5217   0.209   2.595  10.972  0.1529  0.2025 -0.4737
  344MPD2    H5 5218   0.238   2.688  10.998  3.3094 -1.1450  0.7774
  344MPD2    N1 5219   0.190   2.157  11.215  0.1095  0.4664  0.0487
  344MPD2    H7 5220   0.235   2.129  11.301  2.8805 -0.5133 -1.7480
  345TMC3    C1 5221   0.032   2.683  10.847  0.2882 -0.4656 -0.5853
  345TMC3    C2 5222   4.734   2.763  10.956 -0.7400 -0.1605 -0.2134
  345TMC3    C3 5223   4.640   2.862  10.928  0.2357 -0.1352  0.1202
  345TMC3    C4 5224   4.700   2.687  10.731  0.0973 -0.0111 -0.0433
  345TMC3    C5 5225   4.600   2.778  10.714 -0.2752  0.1987  0.2806
  345TMC3    C6 5226   4.579   2.875  10.805 -0.0366  1.0023  0.2907
  345TMC3     C 5227   0.124   2.574  10.867 -0.2402  0.0138  0.3828
  345TMC3     O 5228   0.109   2.470  10.806 -0.4173 -0.2229  0.5360
  345TMC3     H 5229   0.055   2.758  11.048  0.6592 -0.9729 -1.1218
  345TMC3    H1 5230   4.734   2.621  10.652 -0.5856  0.6161 -0.8601
  345TMC3    H2 5231   4.512   2.958  10.789 -0.0318  1.2103  1.3517
  345TMC3    C7 5232   4.595   2.841  10.582 -0.4641  0.1357 -0.3414
  345TMC3    C8 5233   4.675   2.986  10.994 -0.0236 -0.0121  0.5864
  345TMC3    O1 5234   4.698   2.900  10.547 -0.7645  0.0233 -0.1421
  345TMC3    O2 5235   4.661   3.078  10.913 -0.2922  0.9176 -0.6637
  346MPD2     C 5236   4.395   3.785  14.092 -0.4648 -0.2177 -0.5600
  346MPD2    C1 5237   4.520   3.836  14.070 -0.3741  0.1509 -0.0647
  346MPD2    C2 5238   4.575   3.909  14.173 -0.5558 -0.1595 -0.2572
  346MPD2    C3 5239   4.514   3.933  14.293  0.2698  0.6254  0.6486
  346MPD2    C4 5240   4.386   3.891  14.310  0.0193  0.2417  0.0468
  346MPD2    C5 5241   4.328   3.816  14.209 -0.2043 -0.1605 -0.1351
  346MPD2     H 5242   4.663   3.968  14.149 -1.3568  0.9978 -0.3465
  346MPD2    H1 5243   4.321   3.911  14.395  1.1754 -0.7581  1.1651
  346MPD2    H2 5244   4.340   3.730  14.016  0.0927  1.7249 -2.3988
  346MPD2    H3 5245   4.228   3.778  14.225  0.3386 -1.5109  0.0031
  346MPD2     N 5246   4.578   4.020  14.385 -0.1199  0.4217 -0.1914
  346MPD2    H5 5247   4.678   4.035  14.370 -0.2539  1.1180 -0.3709
  346MPD2    N1 5248   4.583   3.835  13.943 -0.3672 -0.2094  0.2680
  346MPD2    H7 5249   4.656   3.906  13.938 -0.7775  0.3033  1.5465
  347TMC3    C1 5250   4.620   4.148  14.579  0.5293  0.7486  0.0544
  347TMC3    C2 5251   0.015   4.154  14.542 -0.2350  0.0410 -0.0934
  347TMC3    C3 5252   0.098   4.229  14.610  0.3739  0.0797 -0.4462
  347TMC3    C4 5253   4.572   4.207  14.693 -0.1274 -0.4297  0.1391
  347TMC3    C5 5254   4.664   4.260  14.779 -0.0440 -0.6417  0.2962
  347TMC3    C6 5255   0.061   4.276  14.734  0.4432  0.3195 -0.2440
  347TMC3     C 5256   4.517   4.072  14.496  0.4111  0.2371 -0.2600
  347TMC3     O 5257   4.401   4.083  14.525  0.1671  0.3122  0.2338
  347TMC3     H 5258   0.056   4.112  14.452 -0.9919 -0.6300 -0.1273
  347TMC3    H1 5259   4.467   4.193  14.717 -0.4857  1.1761 -0.5116
  347TMC3    H2 5260   0.138   4.303  14.805 -0.7435  0.5120  0.9840
  347TMC3    C7 5261   4.610   4.291  14.916 -0.4272  0.4498  0.6861
  347TMC3    C8 5262   0.238   4.191  14.590 -0.3867  0.5291 -0.6451
  347TMC3    O1 5263   4.501   4.240  14.938 -0.1377 -0.1007  0.2308
  347TMC3    O2 5264   0.265   4.075  14.567  0.2969  0.3366  0.0089
  348MPD2     C 5265   3.933   4.023  12.497 -0.6307  0.1479  0.1729
  348MPD2    C1 5266   3.997   4.038  12.380 -0.4764  0.1150 -0.2370
  348MPD2    C2 5267   3.933   4.095  12.274 -0.5406  0.0846 -0.7290
  348MPD2    C3 5268   3.802   4.140  12.280  0.1945  0.2383 -0.2653
  348MPD2    C4 5269   3.735   4.107  12.397  0.4516  0.2597  0.1837
  348MPD2    C5 5270   3.801   4.043  12.497 -0.4567 -0.0169 -0.5141
  348MPD2     H 5271   3.985   4.101  12.179  0.3619  0.6793 -0.1917
  348MPD2    H1 5272   3.637   4.149  12.420  0.0458  0.8153 -2.5282
  348MPD2    H2 5273   3.980   3.978  12.584 -0.2811  0.6857  0.2590
  348MPD2    H3 5274   3.748   4.030  12.590 -0.2875  0.9349 -0.2860
  348MPD2     N 5275   3.741   4.223  12.180 -0.3672  0.4311 -0.8965
  348MPD2    H5 5276   3.798   4.254  12.102  2.1660 -3.2747 -0.5305
  348MPD2    N1 5277   4.125   3.992  12.361 -0.0777 -0.6452 -0.2529
  348MPD2    H7 5278   4.159   3.979  12.266 -1.6640  1.0946 -1.0626
  349TMC3    C1 5279   4.328   3.886  12.396  0.2558  0.7881  0.1754
  349TMC3    C2 5280   4.343   3.753  12.432  0.1030  0.3731 -0.2066
  349TMC3    C3 5281   4.352   3.659  12.340  0.9873 -0.1673 -0.6024
  349TMC3    C4 5282   4.329   3.921  12.260 -0.5321  0.4357  0.0982
  349TMC3    C5 5283   4.328   3.825  12.163 -0.7096 -0.4034  0.3132
  349TMC3    C6 5284   4.338   3.695  12.205  0.7240 -0.0605 -0.8069
  349TMC3     C 5285   4.212   3.942  12.459 -0.1183 -0.0862 -0.7741
  349TMC3     O 5286   4.209   3.932  12.586 -0.6338 -0.2949 -0.0305
  349TMC3     H 5287   4.320   3.734  12.536  1.6100  0.7929  0.1898
  349TMC3    H1 5288   4.317   4.026  12.236  1.7723  0.5885 -0.4169
  349TMC3    H2 5289   4.316   3.615  12.136 -0.0816 -0.0839 -0.5165
  349TMC3    C7 5290   4.221   3.855  12.069  1.1411 -0.0020 -0.2656
  349TMC3    C8 5291   4.326   3.522  12.395 -0.1575  0.1899 -0.3158
  349TMC3    O1 5292   4.119   3.782  12.066 -0.4357  0.1290 -0.3737
  349TMC3    O2 5293   4.317   3.509  12.515 -0.0480 -0.1769 -0.0735
  350MPD2     C 5294   2.285   1.649  10.406 -0.2095 -0.3573  0.1880
  350MPD2    C1 5295   2.380   1.623  10.307  0.5592  0.4163 -1.0764
  350MPD2    C2 5296   2.501   1.690  10.315  0.2194  0.8828  0.5965
  350MPD2    C3 5297   2.524   1.793  10.405 -0.2237  0.1156 -0.9911
  350MPD2    C4 5298   2.425   1.822  10.496 -0.0628  0.7786 -1.0208
  350MPD2    C5 5299   2.312   1.746  10.497 -0.1094 -0.8185  1.1717
  350MPD2     H 5300   2.574   1.669  10.237 -0.3635  1.0645 -0.0013
  350MPD2    H1 5301   2.437   1.894  10.577  0.1591  2.7275 -2.8013
  350MPD2    H2 5302   2.194   1.591  10.417 -0.3476  0.3701  2.7847
  350MPD2    H3 5303   2.244   1.761  10.581 -0.6926 -1.3138  0.7838
  350MPD2     N 5304   2.654   1.855  10.407 -0.1909 -0.0291  0.0548
  350MPD2    H5 5305   2.722   1.807  10.348  1.0311  0.0499  1.3979
  350MPD2    N1 5306   2.349   1.534  10.199  0.7169 -0.6142 -0.8716
  350MPD2    H7 5307   2.416   1.537  10.123  1.9859  0.4086  0.2711
  351TMC3    C1 5308   2.247   1.362  10.077  0.0434  0.5311  0.0566
  351TMC3    C2 5309   2.343   1.366   9.978  0.1527 -0.1573  0.6526
  351TMC3    C3 5310   2.324   1.323   9.851  0.3040  0.1667 -0.2179
  351TMC3    C4 5311   2.124   1.302  10.040  0.3286 -0.8165  0.8664
  351TMC3    C5 5312   2.115   1.245   9.913  0.1317  0.1845 -0.6048
  351TMC3    C6 5313   2.212   1.253   9.815  0.5776  0.5377 -0.7083
  351TMC3     C 5314   2.248   1.451  10.190  0.4297 -0.6239 -0.5373
  351TMC3     O 5315   2.149   1.438  10.258  0.0197  0.3749 -0.6436
  351TMC3     H 5316   2.443   1.394  10.010  1.0569 -1.4983 -0.9681
  351TMC3    H1 5317   2.042   1.300  10.111 -1.1336  0.9453 -0.7659
  351TMC3    H2 5318   2.208   1.195   9.724  2.2904 -1.0231  0.1939
  351TMC3    C7 5319   1.984   1.190   9.875  0.2487  0.2747  0.4038
  351TMC3    C8 5320   2.410   1.377   9.746 -0.0796 -0.1496  0.5929
  351TMC3    O1 5321   1.948   1.189   9.758 -0.1255  0.2702 -0.0371
  351TMC3    O2 5322   2.512   1.429   9.783 -0.0033  0.4202 -0.1063
  352MPD2     C 5323   1.306   3.912   1.314  0.4902  0.3267  0.0176
  352MPD2    C1 5324   1.207   3.873   1.399 -0.5870  0.4780 -0.5600
  352MPD2    C2 5325   1.202   3.732   1.433 -0.1532 -0.3891  0.2260
  352MPD2    C3 5326   1.289   3.644   1.372  0.2392  0.8876 -0.0190
  352MPD2    C4 5327   1.383   3.691   1.288 -0.3277  0.0286  0.1032
  352MPD2    C5 5328   1.395   3.825   1.256  0.1421  0.2549  0.4339
  352MPD2     H 5329   1.137   3.687   1.506 -2.1338 -0.6815 -1.7155
  352MPD2    H1 5330   1.453   3.620   1.246 -0.6261 -0.6346  0.7261
  352MPD2    H2 5331   1.328   4.015   1.290  0.3033  0.1769 -0.8289
  352MPD2    H3 5332   1.464   3.864   1.182  0.3444 -0.5621  0.1887
  352MPD2     N 5333   1.276   3.506   1.364 -0.4698 -0.6647 -0.4720
  352MPD2    H5 5334   1.348   3.452   1.317  0.5615 -0.9789  1.4909
  352MPD2    N1 5335   1.119   3.972   1.449  0.3308  0.0262 -0.0896
  352MPD2    H7 5336   1.112   4.062   1.402 -3.0685 -0.1921  0.0047
  353TMC3    C1 5337   1.166   3.287   1.394  0.4367 -0.1725  0.0695
  353TMC3    C2 5338   1.291   3.230   1.379  0.0163 -0.4831 -0.4391
  353TMC3    C3 5339   1.298   3.100   1.341 -0.4900 -0.5543 -0.9056
  353TMC3    C4 5340   1.054   3.217   1.373 -0.5959 -0.8982  0.6044
  353TMC3    C5 5341   1.062   3.084   1.332 -0.1557  0.3891 -0.4431
  353TMC3    C6 5342   1.187   3.024   1.310 -0.0460  0.0303 -0.0799
  353TMC3     C 5343   1.164   3.435   1.405  0.2545  0.4822 -0.2322
  353TMC3     O 5344   1.055   3.488   1.433 -0.0978 -0.4006 -0.2551
  353TMC3     H 5345   1.378   3.288   1.406 -0.8555  0.4104  0.4354
  353TMC3    H1 5346   0.959   3.269   1.371 -0.3502 -0.3534  2.7950
  353TMC3    H2 5347   1.190   2.921   1.277  2.2469 -0.3980  1.4778
  353TMC3    C7 5348   0.937   3.016   1.305  0.1125 -0.2013 -0.1437
  353TMC3    C8 5349   1.426   3.028   1.339 -0.1396  0.4855 -0.5232
  353TMC3    O1 5350   0.950   2.907   1.247  0.3342 -0.3450 -0.1407
  353TMC3    O2 5351   1.525   3.086   1.384 -0.6118 -0.5921 -0.2877
  354TMC3    C1 5352   2.609   0.381  13.896  0.2552  0.5190  0.0933
  354TMC3    C2 5353   2.588   0.518  13.887 -0.5386 -0.4864  0.1028
  354TMC3    C3 5354   2.532   0.564  13.771 -0.1995 -0.8491 -0.3578
  354TMC3    C4 5355   2.558   0.298  13.795  0.6908 -0.0888 -0.3271
  354TMC3    C5 5356   2.502   0.349  13.679  0.7417  0.4564  0.0143
  354TMC3    C6 5357   2.491   0.489  13.664 -0.1451 -0.1045  0.8922
  354TMC3     C 5358   2.599   0.317  14.026  0.4576  0.5614  0.0532
  354TMC3     O 5359   2.632   0.199  14.028  0.4492  0.7142  0.1466
  354TMC3     H 5360   2.641   0.579  13.959 -2.7343  1.9617 -0.3848
  354TMC3    H1 5361   2.602   0.199  13.798  0.1040 -0.3492 -0.4183
  354TMC3    H2 5362   2.441   0.526  13.575 -0.3176 -0.0762  1.0010
  354TMC3    C7 5363   2.564   0.294  13.553 -0.0503  0.4627 -0.2630
  354TMC3    C8 5364   2.569   0.691  13.723  0.1453 -0.2224  0.0328
  354TMC3    O1 5365   2.563   0.174  13.538  0.3444  0.0830 -0.1154
  354TMC3    O2 5366   2.604   0.683  13.605 -0.1438 -0.4185  0.0209
  355MPD2     C 5367   3.021   1.426  12.146 -0.3710 -0.5810  0.2722
  355MPD2    C1 5368   3.115   1.494  12.225 -0.1915  0.4602 -0.1225
  355MPD2    C2 5369   3.126   1.457  12.359 -0.0063 -0.1653 -0.4690
  355MPD2    C3 5370   3.075   1.342  12.406 -0.8330  0.6316  0.0807
  355MPD2    C4 5371   2.997   1.267  12.323  0.9040  0.5422  0.1882
  355MPD2    C5 5372   2.963   1.313  12.201  0.4022  0.6689  0.3644
  355MPD2     H 5373   3.183   1.528  12.419 -1.2522  1.7853 -1.5686
  355MPD2    H1 5374   2.948   1.182  12.370  0.2548  0.4055 -0.7389
  355MPD2    H2 5375   3.007   1.462  12.045  0.6602 -2.6334 -0.5816
  355MPD2    H3 5376   2.873   1.271  12.158  0.8436 -0.4532  0.5412
  355MPD2     N 5377   3.092   1.287  12.542  0.4430 -0.2712 -0.5600
  355MPD2    H5 5378   3.022   1.218  12.567  0.9338 -0.8073 -0.6531
  355MPD2    N1 5379   3.183   1.597  12.156  0.0876  0.1625  0.1892
  355MPD2    H7 5380   3.154   1.610  12.059  1.7238 -0.3979 -0.3787
  356TMC3    C1 5381   3.308   1.372  12.589 -0.3004 -0.4460  0.1561
  356TMC3    C2 5382   3.373   1.320  12.479 -0.0667 -0.0248 -0.2613
  356TMC3    C3 5383   3.488   1.388  12.444  0.0260 -0.3251  0.9966
  356TMC3    C4 5384   3.358   1.469  12.673 -0.8831 -0.0419 -0.3159
  356TMC3    C5 5385   3.475   1.528  12.630 -0.3534 -0.9367 -0.4019
  356TMC3    C6 5386   3.539   1.488  12.517 -0.7295 -0.4315 -0.4728
  356TMC3     C 5387   3.186   1.318  12.637 -0.3546 -0.3917  0.2010
  356TMC3     O 5388   3.182   1.301  12.757  0.0867  0.5100  0.6421
  356TMC3     H 5389   3.345   1.226  12.432 -0.6052 -1.3890  2.8121
  356TMC3    H1 5390   3.305   1.509  12.759  1.2199  2.5057 -0.2048
  356TMC3    H2 5391   3.641   1.519  12.495 -0.7688  2.2982  3.3200
  356TMC3    C7 5392   3.538   1.608  12.736 -0.3368  0.0422  0.2219
  356TMC3    C8 5393   3.532   1.374  12.312 -0.0109  0.4101  0.2906
  356TMC3    O1 5394   3.512   1.588  12.852 -0.3159  0.2196 -0.1272
  356TMC3    O2 5395   3.501   1.276  12.248  0.4001 -0.3982 -0.3016
  357MPD2     C 5396   2.227   0.863   0.343  0.2943  0.5732 -0.4263
  357MPD2    C1 5397   2.230   0.761   0.438 -0.0636 -0.4582  0.3470
  357MPD2    C2 5398   2.147   0.763   0.546 -0.1975  0.0213 -0.3060
  357MPD2    C3 5399   2.063   0.869   0.567 -0.1838 -0.4863 -0.6806
  357MPD2    C4 5400   2.082   0.981   0.484 -0.1705 -0.1466  0.4991
  357MPD2    C5 5401   2.161   0.976   0.368 -0.0276  0.0443 -0.3986
  357MPD2     H 5402   2.162   0.680   0.614 -1.4235  0.4539  0.4777
  357MPD2    H1 5403   2.033   1.072   0.516  2.1966  0.6997  1.6954
  357MPD2    H2 5404   2.284   0.863   0.251  0.6614  1.3198 -0.1948
  357MPD2    H3 5405   2.161   1.059   0.298  0.1936 -0.4313 -0.9679
  357MPD2     N 5406   1.984   0.872   0.678 -0.2909 -0.0138 -0.4237
  357MPD2    H5 5407   1.907   0.937   0.669 -1.7991 -1.5360  1.6152
  357MPD2    N1 5408   2.318   0.657   0.402  0.4652  0.0632 -1.0222
  357MPD2    H7 5409   2.370   0.673   0.315  1.3034  2.2261 -0.1270
  358TMC3    C1 5410   2.461   0.471   0.436 -0.3619 -0.0140 -0.5154
  358TMC3    C2 5411   2.536   0.509   0.329  0.3017 -0.2793 -0.1151
  358TMC3    C3 5412   2.661   0.464   0.323  0.2223  0.0596 -0.0726
  358TMC3    C4 5413   2.518   0.408   0.546  0.2247 -0.3882 -0.6610
  358TMC3    C5 5414   2.651   0.377   0.540  0.8143  0.0760  0.2393
  358TMC3    C6 5415   2.725   0.410   0.427  0.5729 -0.6282  1.0206
  358TMC3     C 5416   2.337   0.539   0.465 -0.2871 -0.1593 -0.2718
  358TMC3     O 5417   2.280   0.507   0.567 -0.8603  0.3455 -0.4868
  358TMC3     H 5418   2.492   0.563   0.247  0.3650 -2.0253 -1.3006
  358TMC3    H1 5419   2.452   0.366   0.622 -0.9991  0.4728 -1.2394
  358TMC3    H2 5420   2.818   0.356   0.410  0.7725  0.0950 -0.2085
  358TMC3    C7 5421   2.722   0.304   0.647  0.4759 -0.0399 -0.7144
  358TMC3    C8 5422   2.723   0.473   0.196 -1.0248 -0.5324  0.1393
  358TMC3    O1 5423   2.846   0.309   0.637  0.4446  0.2753 -0.1239
  358TMC3    O2 5424   2.656   0.491   0.093 -0.3298  0.6317  0.2646
  359MPD2     C 5425   3.471   4.097  12.715  0.2770  0.5975  0.1617
  359MPD2    C1 5426   3.412   4.209  12.670  0.4836 -0.0308  0.1837
  359MPD2    C2 5427   3.276   4.217  12.670 -0.4927  0.2594  0.0760
  359MPD2    C3 5428   3.194   4.111  12.712 -0.0877 -0.9467  0.0759
  359MPD2    C4 5429   3.254   4.000  12.760  1.0123 -0.0383 -0.5373
  359MPD2    C5 5430   3.393   3.988  12.754 -0.1725 -0.0116 -0.0213
  359MPD2     H 5431   3.226   4.305  12.632 -0.4673  0.2696  0.0665
  359MPD2    H1 5432   3.200   3.913  12.797 -0.2947  0.5485 -1.0883
  359MPD2    H2 5433   3.580   4.091  12.717  0.2478 -0.8443 -2.3325
  359MPD2    H3 5434   3.445   3.896  12.778 -1.8800 -0.4723  1.8961
  359MPD2     N 5435   3.059   4.117  12.721  0.5100 -1.0549  0.0942
  359MPD2    H5 5436   3.020   4.028  12.748 -2.3626 -0.6631 -2.8189
  359MPD2    N1 5437   3.483   4.316  12.617  0.2527  0.0736  0.4350
  359MPD2    H7 5438   3.423   4.391  12.586 -0.8941 -1.4175 -0.9610
  360TMC3    C1 5439   3.661   4.460  12.557  0.1382  0.1325  0.5429
  360TMC3    C2 5440   3.748   4.540  12.624 -0.2952  0.4739  0.0913
  360TMC3    C3 5441   3.776   4.664  12.585  0.5018 -0.4210  0.7757
  360TMC3    C4 5442   3.602   4.499  12.442 -0.2777  0.2846  0.0778
  360TMC3    C5 5443   3.642   4.626  12.392  0.8843  0.1624 -0.0682
  360TMC3    C6 5444   3.740   4.701  12.455 -0.0187  0.2028  0.0492
  360TMC3     C 5445   3.619   4.342  12.626  0.1912  0.1971 -0.7129
  360TMC3     O 5446   3.710   4.277  12.677  0.0101 -0.4112  0.0449
  360TMC3     H 5447   3.768   4.508  12.726  2.1431  1.2865 -0.1251
  360TMC3    H1 5448   3.526   4.434  12.401  0.1505 -0.0760 -0.1415
  360TMC3    H2 5449   3.768   0.063  12.417 -1.9404  0.2989 -1.1055
  360TMC3    C7 5450   3.570   4.689  12.290 -0.1405  0.6403 -0.0445
  360TMC3    C8 5451   3.908   4.700  12.630  0.9124 -0.4110 -0.1163
  360TMC3    O1 5452   3.622   0.041  12.226  0.5153 -0.2746 -0.4549
  360TMC3    O2 5453   3.939   4.686  12.747 -0.0934  0.2014  0.0196
  361MPD2     C 5454   4.304   3.542  17.611  0.0677 -0.3216 -0.1024
  361MPD2    C1 5455   4.314   3.515  17.473 -0.0393  0.5501  0.4528
  361MPD2    C2 5456   4.448   3.492  17.429  0.7021  0.3719  0.8721
  361MPD2    C3 5457   4.558   3.521  17.510 -0.1350 -0.2598 -0.2495
  361MPD2    C4 5458   4.532   3.570  17.638  0.1186 -0.1967 -0.1555
  361MPD2    C5 5459   4.408   3.582  17.683  0.5925  0.2666 -0.0984
  361MPD2     H 5460   4.462   3.446  17.332 -0.0922  1.1129  0.4096
  361MPD2    H1 5461   4.605   3.608  17.709  0.0811  1.4559 -1.0040
  361MPD2    H2 5462   4.213   3.521  17.666 -1.0767 -0.3199 -2.0240
  361MPD2    H3 5463   4.400   3.604   0.046 -2.2638  2.9335 -0.8573
  361MPD2     N 5464   4.690   3.499  17.463  0.8426 -0.1624 -0.3327
  361MPD2    H5 5465   0.031   3.507  17.528  0.6884 -1.0739 -0.0409
  361MPD2    N1 5466   4.194   3.470  17.406 -0.7072 -0.0022  0.1637
  361MPD2    H7 5467   4.107   3.487  17.455 -0.7752  0.6421 -0.1750
  362TMC3    C1 5468   4.054   3.385  17.232  0.1063 -0.1135  0.7556
  362TMC3    C2 5469   3.955   3.370  17.329 -0.0854 -0.6257  0.1081
  362TMC3    C3 5470   3.824   3.392  17.296  0.5355 -0.0216  0.3608
  362TMC3    C4 5471   4.022   3.404  17.104 -0.5159 -0.1860 -0.4440
  362TMC3    C5 5472   3.886   3.415  17.064  0.4819  0.4527  0.2055
  362TMC3    C6 5473   3.789   3.407  17.162 -0.3904  0.1451 -0.4698
  362TMC3     C 5474   4.190   3.428  17.274 -0.4368  0.0925  0.0625
  362TMC3     O 5475   4.285   3.429  17.196  0.1512 -0.1166  0.4659
  362TMC3     H 5476   3.980   3.343  17.431  1.0962  0.4324  0.1141
  362TMC3    H1 5477   4.097   3.428  17.030 -2.9585 -0.3880 -2.9762
  362TMC3    H2 5478   3.686   3.395  17.132 -0.3632 -0.0162 -0.5007
  362TMC3    C7 5479   3.870   3.480  16.935 -0.6127 -0.2591  0.2301
  362TMC3    C8 5480   3.712   3.373  17.386  0.7747  0.1392 -0.2109
  362TMC3    O1 5481   3.965   3.472  16.862  0.4772  0.4904  0.2703
  362TMC3    O2 5482   3.718   3.290  17.477 -0.2712 -0.4464 -0.1729
  363TMC3    C1 5483   3.613   1.492   9.711 -0.7664 -0.1632  0.4105
  363TMC3    C2 5484   3.708   1.434   9.788  0.2352  0.3854 -0.4987
  363TMC3    C3 5485   3.753   1.504   9.898  0.4561  0.0854 -0.2249
  363TMC3    C4 5486   3.559   1.618   9.734  0.2816  0.4770  0.1238
  363TMC3    C5 5487   3.614   1.688   9.842 -0.3822 -0.5765 -0.4341
  363TMC3    C6 5488   3.705   1.630   9.929 -0.5009  0.3473  0.3035
  363TMC3     C 5489   3.564   1.407   9.592 -0.0363 -0.6632  0.2507
  363TMC3     O 5490   3.584   1.287   9.589  0.1408  0.1636  0.8366
  363TMC3     H 5491   3.745   1.337   9.757  0.7476  0.1410  0.8495
  363TMC3    H1 5492   3.491   1.676   9.673 -0.1408  0.4067  0.5257
  363TMC3    H2 5493   3.739   1.691  10.012 -0.7099  0.5403  0.2474
  363TMC3    C7 5494   3.548   1.820   9.872 -0.3825  0.0427 -0.2997
  363TMC3    C8 5495   3.837   1.446  10.005  0.3330  0.0576 -0.4558
  363TMC3    O1 5496   3.443   1.833   9.813  0.1546 -0.2098 -0.5816
  363TMC3    O2 5497   3.889   1.522  10.081 -0.8349 -0.6492  0.0825
  364MPD2     C 5498   1.833   0.944  10.826  0.1665  1.2804  0.5012
  364MPD2    C1 5499   1.965   0.961  10.793 -0.1989 -0.6291 -0.4361
  364MPD2    C2 5500   2.053   0.862  10.827  0.1498  0.2486 -0.4064
  364MPD2    C3 5501   2.015   0.758  10.912 -0.5645 -0.3601 -0.6003
  364MPD2    C4 5502   1.882   0.754  10.950 -1.0277  0.0805  0.0476
  364MPD2    C5 5503   1.790   0.846  10.906  0.5867  0.4777  0.7829
  364MPD2     H 5504   2.160   0.872  10.810  0.5144 -0.3036  1.5913
  364MPD2    H1 5505   1.845   0.681  11.022 -2.1356 -1.4624 -2.1042
  364MPD2    H2 5506   1.767   1.020  10.786  0.5207  1.0370 -0.5512
  364MPD2    H3 5507   1.685   0.835  10.932  0.7988 -1.4756  0.8164
  364MPD2     N 5508   2.103   0.657  10.957  0.3564 -0.2487 -0.2320
  364MPD2    H5 5509   2.073   0.582  11.018 -1.7467  0.6805 -0.1409
  364MPD2    N1 5510   2.003   1.073  10.724  0.2533  0.2629  0.1966
  364MPD2    H7 5511   1.951   1.159  10.732 -0.1084 -0.0168  0.8432
  365TMC3    C1 5512   2.149   1.217  10.603 -0.4134 -0.5288 -0.3539
  365TMC3    C2 5513   2.251   1.202  10.516 -0.3127  0.3574 -0.7429
  365TMC3    C3 5514   2.357   1.287  10.527  0.1513  0.0518  0.2191
  365TMC3    C4 5515   2.157   1.301  10.716  0.7171 -0.1460  0.0683
  365TMC3    C5 5516   2.270   1.379  10.723  0.0389  0.1718  0.0316
  365TMC3    C6 5517   2.370   1.385  10.632 -0.5354 -0.2892  0.5945
  365TMC3     C 5518   2.117   1.081  10.646  0.6401 -0.0791  0.3275
  365TMC3     O 5519   2.196   0.995  10.617  0.1336 -0.3606 -0.3865
  365TMC3     H 5520   2.236   1.133  10.434 -0.3387 -0.8180  0.2553
  365TMC3    H1 5521   2.094   1.289  10.803  1.2628  1.4717  0.6843
  365TMC3    H2 5522   2.440   1.467  10.622 -1.5969  0.3472 -1.5898
  365TMC3    C7 5523   2.288   1.460  10.836 -0.2829  0.7396 -0.5153
  365TMC3    C8 5524   2.477   1.230  10.475 -0.1821  0.4271 -0.4412
  365TMC3    O1 5525   2.355   1.562  10.829 -0.2138 -0.3159  0.6729
  365TMC3    O2 5526   2.581   1.291  10.455  0.4898 -0.3891  0.4469
  366MPD2     C 5527   4.238   1.749  15.536 -0.4400 -0.0726  0.5839
  366MPD2    C1 5528   4.372   1.770  15.523  0.2519  0.1226  0.4400
  366MPD2    C2 5529   4.467   1.670  15.550  0.1181  0.1333  0.2479
  366MPD2    C3 5530   4.423   1.538  15.572 -0.0670  0.4500  0.1828
  366MPD2    C4 5531   4.287   1.514  15.567 -0.0352 -0.4008 -0.1893
  366MPD2    C5 5532   4.195   1.620  15.554  0.1059 -0.3733 -0.6698
  366MPD2     H 5533   4.574   1.685  15.539  0.0817  0.8031  0.8030
  366MPD2    H1 5534   4.239   1.417  15.562 -2.5313  0.7423  1.2389
  366MPD2    H2 5535   4.173   1.836  15.540 -3.4402 -2.2587 -0.5050
  366MPD2    H3 5536   4.089   1.598  15.549 -0.0332  0.8548 -3.4480
  366MPD2     N 5537   4.519   1.438  15.588  0.4135 -0.4243  0.5381
  366MPD2    H5 5538   4.616   1.467  15.586 -0.2076  1.6468 -0.1202
  366MPD2    N1 5539   4.421   1.898  15.494 -0.0134 -0.3147  0.1751
  366MPD2    H7 5540   4.522   1.904  15.491 -0.1555  1.4120 -1.0012
  367TMC3    C1 5541   4.444   2.110  15.399 -0.2297  0.3901  0.7741
  367TMC3    C2 5542   4.577   2.113  15.445  0.3727 -0.2624  0.1191
  367TMC3    C3 5543   4.666   2.189  15.371 -0.5871  0.5057 -0.3064
  367TMC3    C4 5544   4.411   2.170  15.282  1.0917 -0.0479 -0.5719
  367TMC3    C5 5545   4.508   2.243  15.210 -1.0717 -0.3094 -0.1628
  367TMC3    C6 5546   4.636   2.251  15.250  0.0256  0.1242  0.1387
  367TMC3     C 5547   4.352   2.011  15.450  0.5742 -0.4401 -0.5336
  367TMC3     O 5548   4.232   2.025  15.417  0.0169  0.1032 -0.0404
  367TMC3     H 5549   4.601   2.081  15.545  1.8655  0.7462  0.0845
  367TMC3    H1 5550   4.316   2.145  15.236 -0.0645  0.1516  1.6925
  367TMC3    H2 5551   4.704   2.305  15.185 -0.0271 -1.3891 -1.1712
  367TMC3    C7 5552   4.465   2.313  15.095 -0.0314  0.0476  0.5964
  367TMC3    C8 5553   0.057   2.194  15.436 -0.3714  0.6301 -0.3143
  367TMC3    O1 5554   4.347   2.343  15.088 -0.4437 -0.9335 -0.1669
  367TMC3    O2 5555   0.089   2.109  15.516 -0.3120  0.7401  0.0072
  368MPD2     C 5556   1.761   3.143  13.155 -0.4982 -0.6222  1.0288
  368MPD2    C1 5557   1.782   3.206  13.280  0.1696 -0.2695 -0.5931
  368MPD2    C2 5558   1.906   3.257  13.314  0.1601 -0.5136  0.9999
  368MPD2    C3 5559   2.011   3.242  13.228  0.0300  0.1894 -0.3484
  368MPD2    C4 5560   1.992   3.171  13.112 -0.7324 -0.4209 -0.1614
  368MPD2    C5 5561   1.870   3.131  13.076  1.0606 -0.8010 -0.0578
  368MPD2     H 5562   1.907   3.309  13.409 -1.1461  0.1482  0.6605
  368MPD2    H1 5563   2.080   3.151  13.051  0.0804 -1.9619  1.5367
  368MPD2    H2 5564   1.666   3.097  13.131 -0.4123 -0.8000  1.0309
  368MPD2    H3 5565   1.874   3.078  12.982  0.9455  0.9025 -1.0322
  368MPD2     N 5566   2.137   3.309  13.249 -0.5856  0.1726 -0.2252
  368MPD2    H5 5567   2.208   3.290  13.179 -0.5046  0.0014 -0.0955
  368MPD2    N1 5568   1.670   3.232  13.357 -0.0435  0.0273 -0.6337
  368MPD2    H7 5569   1.579   3.233  13.310  0.3315  1.3720 -1.3228
  369TMC3    C1 5570   1.566   3.355  13.527 -0.1567 -0.1819  0.0045
  369TMC3    C2 5571   1.606   3.480  13.557 -0.0391  0.2985  0.2571
  369TMC3    C3 5572   1.533   3.587  13.509  0.5892 -0.1415  0.3657
  369TMC3    C4 5573   1.456   3.345  13.455 -0.3825 -0.3230  0.6960
  369TMC3    C5 5574   1.379   3.449  13.423 -0.8157  0.2118 -0.1871
  369TMC3    C6 5575   1.415   3.575  13.441 -0.1426 -0.5065 -0.3682
  369TMC3     C 5576   1.676   3.272  13.486 -0.1139 -0.7586  0.2906
  369TMC3     O 5577   1.777   3.282  13.556 -0.2180 -0.2763  0.1108
  369TMC3     H 5578   1.694   3.490  13.619 -0.9196  1.1374  1.3725
  369TMC3    H1 5579   1.423   3.246  13.427  2.2156 -1.2643  0.9430
  369TMC3    H2 5580   1.363   3.666  13.412 -0.5920 -0.2218  1.3750
  369TMC3    C7 5581   1.238   3.421  13.379 -0.1041 -0.0585  0.0370
  369TMC3    C8 5582   1.611   3.692  13.451  0.5634  0.5323  0.2447
  369TMC3    O1 5583   1.197   3.308  13.405  0.9180  0.3291  0.7516
  369TMC3    O2 5584   1.554   3.793  13.418  0.5634 -0.3068  0.7254
  370TMC3    C1 5585   1.079   4.250  16.223  0.4071 -0.7783 -0.0918
  370TMC3    C2 5586   0.998   4.234  16.324  0.1403 -0.2923 -0.6258
  370TMC3    C3 5587   0.926   4.111  16.331 -0.0096  0.1004  0.3839
  370TMC3    C4 5588   1.064   4.177  16.102 -0.1024 -0.4220  0.0838
  370TMC3    C5 5589   1.001   4.057  16.117  0.1573 -0.4539  0.3339
  370TMC3    C6 5590   0.942   4.015  16.236 -0.0473 -0.1671 -0.6923
  370TMC3     C 5591   1.175   4.357  16.243  0.5344  0.2239 -0.4648
  370TMC3     O 5592   1.193   4.402  16.354  0.3169 -0.2708  0.1746
  370TMC3     H 5593   1.010   4.293  16.414  2.0136  1.0170 -1.7332
  370TMC3    H1 5594   1.125   4.192  16.014  1.3596 -0.5119  1.0984
  370TMC3    H2 5595   0.899   3.918  16.256 -0.0386 -0.5809 -2.7201
  370TMC3    C7 5596   1.040   3.961  16.016  0.7097 -0.0842 -0.2709
  370TMC3    C8 5597   0.850   4.081  16.454  0.6594 -0.4846  0.0865
  370TMC3    O1 5598   1.041   3.995  15.897  0.4280 -0.1028  0.6602
  370TMC3    O2 5599   0.794   3.974  16.461 -0.1116  0.0305 -0.2728
  371TMC3    C1 5600   2.196   2.311  15.645 -0.3439  0.2437  0.5567
  371TMC3    C2 5601   2.074   2.298  15.703  0.5579  0.6617  0.5133
  371TMC3    C3 5602   2.023   2.413  15.749 -0.4708 -0.0487  0.1378
  371TMC3    C4 5603   2.265   2.431  15.639 -0.7092 -0.3499  0.6185
  371TMC3    C5 5604   2.201   2.540  15.692  0.1659 -0.0412  1.1797
  371TMC3    C6 5605   2.081   2.536  15.757  0.0778 -0.6659 -0.8793
  371TMC3     C 5606   2.247   2.192  15.584  0.0788 -0.3221  0.1811
  371TMC3     O 5607   2.338   2.214  15.502  0.7880  0.5283  0.9381
  371TMC3     H 5608   2.007   2.213  15.696  0.0514  0.8958  2.6101
  371TMC3    H1 5609   2.356   2.430  15.580 -0.2285  1.7606  1.3299
  371TMC3    H2 5610   2.052   2.616  15.824 -1.0347 -0.6420 -1.3960
  371TMC3    C7 5611   2.274   2.671  15.706  0.5023 -0.0431  0.0821
  371TMC3    C8 5612   1.908   2.396  15.830 -0.1300 -0.2031 -0.6861
  371TMC3    O1 5613   2.209   2.763  15.754  0.6711 -0.2006 -0.2891
  371TMC3    O2 5614   1.887   2.294  15.892  0.5452  0.4740  0.0856
  372MPD2     C 5615   1.727   3.853  13.694  0.1288  0.3134  0.4279
  372MPD2    C1 5616   1.851   3.805  13.713  0.1007  0.1001  0.5201
  372MPD2    C2 5617   1.872   3.696  13.797  0.1597  0.0697 -0.3849
  372MPD2    C3 5618   1.772   3.643  13.869 -0.0864 -0.3749 -0.0190
  372MPD2    C4 5619   1.644   3.694  13.855 -0.4708  0.3295 -0.6386
  372MPD2    C5 5620   1.619   3.789  13.758 -0.5674  0.6169 -0.1670
  372MPD2     H 5621   1.975   3.660  13.802  0.0938  0.1045  1.1876
  372MPD2    H1 5622   1.563   3.639  13.900  3.4540 -3.0626  2.2505
  372MPD2    H2 5623   1.711   3.939  13.630  1.0553  1.3031  1.4991
  372MPD2    H3 5624   1.516   3.810  13.729 -0.1416  3.8498  0.6522
  372MPD2     N 5625   1.806   3.529  13.946 -0.6170  0.1763  0.2545
  372MPD2    H5 5626   1.906   3.513  13.950 -0.7335 -0.4491  0.6597
  372MPD2    N1 5627   1.971   3.851  13.647 -0.4925 -0.7758 -0.4298
  372MPD2    H7 5628   2.061   3.811  13.671 -0.5370 -0.3067  0.5272
  373TMC3    C1 5629   1.791   3.333  14.086  0.5466 -0.3886  0.5617
  373TMC3    C2 5630   1.713   3.254  14.168  0.1800 -0.5205  0.5941
  373TMC3    C3 5631   1.768   3.147  14.229 -0.3373  0.4097 -0.3738
  373TMC3    C4 5632   1.928   3.316  14.069  0.0546 -0.0271 -0.1892
  373TMC3    C5 5633   1.975   3.207  14.137 -0.5535 -0.0847 -0.6356
  373TMC3    C6 5634   1.901   3.119  14.211  0.3148  0.1865 -0.4954
  373TMC3     C 5635   1.727   3.440  14.020  0.3509  0.1021  0.7326
  373TMC3     O 5636   1.605   3.442  14.011  0.3138  0.0225  0.5914
  373TMC3     H 5637   1.607   3.274  14.176  0.2382  0.1519 -0.4062
  373TMC3    H1 5638   1.995   3.381  14.013  1.3534 -1.0196  0.1865
  373TMC3    H2 5639   1.937   3.022  14.243 -0.3817  0.1553  0.1857
  373TMC3    C7 5640   2.120   3.204  14.143  0.4847 -0.3455  0.5564
  373TMC3    C8 5641   1.681   3.051  14.300 -0.5263 -0.1541 -0.0713
  373TMC3    O1 5642   2.179   3.283  14.074 -0.6066  0.2543  0.1588
  373TMC3    O2 5643   1.593   3.007  14.227  0.3488 -0.0969  0.5555
  374TMC3    C1 5644   2.370   4.145  10.235 -0.9761 -0.0090 -0.2738
  374TMC3    C2 5645   2.427   4.252  10.297  0.4467  0.2028 -1.3652
  374TMC3    C3 5646   2.398   4.374  10.248 -0.0430  0.1158 -0.0022
  374TMC3    C4 5647   2.296   4.154  10.116 -0.1130  0.7035 -0.0968
  374TMC3    C5 5648   2.270   4.282  10.068 -0.3996  0.1435 -0.8706
  374TMC3    C6 5649   2.327   4.392  10.129  0.2390 -0.2357 -0.3646
  374TMC3     C 5650   2.352   4.021  10.302 -0.9355  0.0822  0.1266
  374TMC3     O 5651   2.320   3.919  10.238 -0.0640  0.2254  0.1917
  374TMC3     H 5652   2.506   4.229  10.367 -0.9485  1.0050  0.4643
  374TMC3    H1 5653   2.227   4.078  10.082 -1.1842  0.7426  1.9701
  374TMC3    H2 5654   2.324   4.492  10.086  0.8993  0.3132  0.8621
  374TMC3    C7 5655   2.157   4.302   9.986 -0.5829 -0.7652  0.3859
  374TMC3    C8 5656   2.467   4.490  10.292 -0.1585  0.0466 -0.1084
  374TMC3    O1 5657   2.096   4.204   9.943 -0.6423 -0.4061  0.1793
  374TMC3    O2 5658   2.480   4.588  10.215 -0.0542  0.4136  0.0319
  375MPD2     C 5659   2.529   0.422  17.143 -0.2127 -0.6662  0.2129
  375MPD2    C1 5660   2.413   0.347  17.158  0.3373 -0.3588  0.3591
  375MPD2    C2 5661   2.403   0.230  17.087  0.0149  0.1673  0.0493
  375MPD2    C3 5662   2.491   0.196  16.986 -0.2151  0.2589 -0.5685
  375MPD2    C4 5663   2.601   0.278  16.964 -0.0245 -0.5485  0.2338
  375MPD2    C5 5664   2.621   0.386  17.053  0.0501 -0.1743 -0.7517
  375MPD2     H 5665   2.311   0.174  17.090 -0.0738  0.3911  2.0066
  375MPD2    H1 5666   2.675   0.253  16.889 -2.2175 -0.0705 -2.0850
  375MPD2    H2 5667   2.557   0.506  17.206 -0.1529 -0.0308 -0.6668
  375MPD2    H3 5668   2.718   0.433  17.056  0.3227 -0.6311 -2.4239
  375MPD2     N 5669   2.476   0.079  16.905  0.7806 -0.0610  0.2272
  375MPD2    H5 5670   2.540   0.071  16.827  1.0070  1.8308  0.2158
  375MPD2    N1 5671   2.304   0.397  17.232  0.0510  0.2703  0.2319
  375MPD2    H7 5672   2.218   0.342  17.230  0.0083  0.3918 -1.5998
  376TMC3    C1 5673   2.406   4.608  16.826 -0.1365  0.0087  0.3132
  376TMC3    C2 5674   2.533   4.577  16.804 -0.4873  0.2328 -0.0882
  376TMC3    C3 5675   2.554   4.466  16.732  0.2088 -0.4997  1.0611
  376TMC3    C4 5676   2.293   4.558  16.758 -0.1904 -0.3458 -0.0997
  376TMC3    C5 5677   2.321   4.455  16.674 -0.2039 -0.0382 -0.0964
  376TMC3    C6 5678   2.454   4.409  16.664  0.2637  0.3059 -0.3658
  376TMC3     C 5679   2.383   4.721  16.913  0.4852  0.3277 -0.3368
  376TMC3     O 5680   2.275   4.713  16.972 -0.1362  0.0496 -0.2550
  376TMC3     H 5681   2.614   4.611  16.868 -0.5050  0.2846 -0.0929
  376TMC3    H1 5682   2.189   4.581  16.780  0.3490 -0.5741  2.7450
  376TMC3    H2 5683   2.470   4.321  16.602  1.8385  1.6385 -1.8400
  376TMC3    C7 5684   2.224   4.423  16.568  0.8141  0.7949 -0.2972
  376TMC3    C8 5685   2.687   4.421  16.690 -0.4981 -0.0491  0.0864
  376TMC3    O1 5686   2.272   4.370  16.465 -0.6071  0.2339 -0.5663
  376TMC3    O2 5687   2.759   4.515  16.658 -0.0929 -0.4919  0.1502
  377MPD2     C 5688   1.149   4.197  13.051  0.3767 -0.2422  0.0185
  377MPD2    C1 5689   1.064   4.249  12.957  0.2723 -0.0173 -1.0323
  377MPD2    C2 5690   0.932   4.204  12.959  0.8991  0.3025 -0.2242
  377MPD2    C3 5691   0.892   4.092  13.035  0.1844  1.0239  0.2952
  377MPD2    C4 5692   0.986   4.042  13.126  0.2202  0.6535  0.4255
  377MPD2    C5 5693   1.113   4.099  13.135  0.6074  0.1035 -0.1674
  377MPD2     H 5694   0.866   4.254  12.888  1.9091 -0.2500 -1.5607
  377MPD2    H1 5695   0.955   3.966  13.197 -1.3886 -0.1524 -1.1295
  377MPD2    H2 5696   1.254   4.225  13.061  0.1542  0.4339  0.4216
  377MPD2    H3 5697   1.177   4.056  13.212 -0.5058 -0.9379  0.1737
  377MPD2     N 5698   0.762   4.042  13.036  0.4779  0.3699 -0.2153
  377MPD2    H5 5699   0.742   3.964  13.097 -1.4824 -0.1360 -1.4854
  377MPD2    N1 5700   1.123   4.342  12.870  0.4808  0.3799  0.5755
  377MPD2    H7 5701   1.224   4.354  12.882  0.4452  0.8494  0.4156
  378TMC3    C1 5702   1.230   4.556  12.476 -0.1450 -0.5700 -0.2808
  378TMC3    C2 5703   1.134   4.533  12.575  1.2223 -0.3535  0.5122
  378TMC3    C3 5704   1.164   4.435  12.659 -0.1318 -0.7368 -0.1310
  378TMC3    C4 5705   1.323   4.456  12.438  0.5803  0.6543 -0.4458
  378TMC3    C5 5706   1.356   4.367  12.536  1.0000  0.3484 -0.5723
  378TMC3    C6 5707   1.278   4.354  12.645  0.3555  0.2452 -0.1185
  378TMC3     C 5708   1.213   4.663  12.379  0.0640  0.5144 -0.0700
  378TMC3     O 5709   1.103   4.702  12.354 -0.3850 -0.4378 -0.1890
  378TMC3     H 5710   1.048   4.598  12.592  1.6021 -0.2391  1.9885
  378TMC3    H1 5711   1.388   4.475  12.352  0.9606  0.3665 -0.2232
  378TMC3    H2 5712   1.295   4.278  12.721  0.6699 -1.1620 -1.5896
  378TMC3    C7 5713   1.488   4.305  12.541 -0.0465 -0.9979 -0.4424
  378TMC3    C8 5714   1.061   4.402  12.763 -0.5736 -0.0568  0.2707
  378TMC3    O1 5715   1.532   4.277  12.652  0.5091 -0.0502 -0.4986
  378TMC3    O2 5716   0.940   4.416  12.749  0.3876  0.2403 -0.6384
  379MPD2     C 5717   1.088   2.433  16.174 -0.3127 -1.2749 -0.1545
  379MPD2    C1 5718   1.022   2.320  16.219 -0.0144  0.1979  0.9169
  379MPD2    C2 5719   1.060   2.264  16.343 -1.0021 -0.1478 -0.6854
  379MPD2    C3 5720   1.165   2.328  16.409  0.4311  0.0051  0.1323
  379MPD2    C4 5721   1.233   2.444  16.359  0.6108 -0.4479 -0.1664
  379MPD2    C5 5722   1.188   2.501  16.242  0.2621 -0.2082 -0.9757
  379MPD2     H 5723   1.012   2.177  16.385 -1.4691  1.1759  1.5136
  379MPD2    H1 5724   1.319   2.490  16.406 -1.8795  2.5381  1.5241
  379MPD2    H2 5725   1.046   2.478  16.084 -2.0601  1.5335  2.0589
  379MPD2    H3 5726   1.218   2.594  16.195  0.7031 -1.2064 -2.7024
  379MPD2     N 5727   1.220   2.265  16.522  0.0122 -0.1016 -0.1800
  379MPD2    H5 5728   1.312   2.296  16.550  1.2025 -3.1927 -0.7085
  379MPD2    N1 5729   0.925   2.266  16.130  0.0229 -0.2359 -0.0159
  379MPD2    H7 5730   0.902   2.331  16.055  2.2793 -0.1153 -0.6274
  380TMC3    C1 5731   0.792   2.125  16.017 -0.4273 -0.1239  0.3525
  380TMC3    C2 5732   0.793   2.002  15.964 -0.2285 -0.3129  0.1881
  380TMC3    C3 5733   0.711   1.980  15.857 -0.2841  0.0668 -0.4349
  380TMC3    C4 5734   0.713   2.227  15.968 -0.1766  0.5850  0.7662
  380TMC3    C5 5735   0.624   2.201  15.865  0.2862  0.8348 -0.2956
  380TMC3    C6 5736   0.626   2.076  15.809 -0.4374 -0.2280 -0.2746
  380TMC3     C 5737   0.868   2.144  16.136 -0.4063 -0.3758  0.7430
  380TMC3     O 5738   0.892   2.053  16.208 -0.0726 -0.0753  0.0139
  380TMC3     H 5739   0.847   1.921  16.013 -0.9556 -1.6706 -1.2395
  380TMC3    H1 5740   0.707   2.318  16.028 -0.2055  2.4626 -2.1049
  380TMC3    H2 5741   0.567   2.053  15.721 -0.7112 -1.2085  0.1709
  380TMC3    C7 5742   0.598   2.309  15.775 -0.0888 -0.8329 -0.6109
  380TMC3    C8 5743   0.713   1.855  15.785  0.3553 -0.3148 -0.4556
  380TMC3    O1 5744   0.665   2.411  15.777 -0.2143 -0.3506  0.3123
  380TMC3    O2 5745   0.702   1.865  15.665 -0.4697 -0.2231 -0.1115
  381TMC3    C1 5746   0.711   3.406  16.364 -0.3621  0.2922  0.0497
  381TMC3    C2 5747   0.784   3.521  16.347 -0.0699 -0.2509 -0.5187
  381TMC3    C3 5748   0.822   3.598  16.452 -0.5895 -0.0674  0.0208
  381TMC3    C4 5749   0.661   3.377  16.491 -0.3133 -0.6569  0.4975
  381TMC3    C5 5750   0.698   3.457  16.596  0.1916  0.3718  0.3198
  381TMC3    C6 5751   0.790   3.562  16.578 -0.2302 -0.1384 -0.4703
  381TMC3     C 5752   0.660   3.349  16.245 -0.0855  0.1966  0.0304
  381TMC3     O 5753   0.655   3.421  16.144  0.1360  0.2717 -0.1618
  381TMC3     H 5754   0.815   3.551  16.248 -0.1974  2.1949  0.1768
  381TMC3    H1 5755   0.581   3.305  16.506 -1.5971 -0.0121 -3.2403
  381TMC3    H2 5756   0.830   3.619  16.661 -3.5007 -2.3331  2.6060
  381TMC3    C7 5757   0.685   3.400  16.735  0.3700 -0.5048  0.2199
  381TMC3    C8 5758   0.940   3.682  16.424  0.6769  0.6863  0.1015
  381TMC3    O1 5759   0.696   3.278  16.747 -0.2607 -0.1562 -0.1841
  381TMC3    O2 5760   0.984   3.679  16.311  0.3181 -0.2406  0.2091
  382MPD2     C 5761   0.147   0.775  17.027 -0.3256 -0.6613 -0.0306
  382MPD2    C1 5762   0.110   0.788  17.159  0.4813 -0.3773 -0.7552
  382MPD2    C2 5763   0.059   0.672  17.214  0.6009  0.2015  0.4458
  382MPD2    C3 5764   0.033   0.556  17.142  0.1486 -0.5522 -0.6535
  382MPD2    C4 5765   0.056   0.554  17.007 -0.0150 -0.4255 -0.0387
  382MPD2    C5 5766   0.116   0.661  16.953 -0.9157  0.5025 -0.1199
  382MPD2     H 5767   0.032   0.665  17.319 -3.9727  0.4304 -0.7408
  382MPD2    H1 5768   0.032   0.470  16.943  1.2496  0.0117 -1.0731
  382MPD2    H2 5769   0.188   0.859  16.972  1.3446 -0.7640  1.0737
  382MPD2    H3 5770   0.131   0.665  16.846 -2.3044 -1.7727 -0.4023
  382MPD2     N 5771   4.719   0.436  17.208 -0.4266  0.3451 -0.0515
  382MPD2    H5 5772   4.706   0.354  17.150 -0.3054  0.4575 -0.2339
  382MPD2    N1 5773   0.136   0.908  17.235 -0.6508  0.3381  0.2015
  382MPD2    H7 5774   0.111   0.910  17.333 -1.0252 -1.7544  0.1345
  383TMC3    C1 5775   4.637   0.285  17.372 -0.9370 -0.3915 -0.9154
  383TMC3    C2 5776   4.626   0.182  17.276 -0.2032  1.0457  0.6144
  383TMC3    C3 5777   4.575   0.058  17.320  0.2703 -0.0238  0.6016
  383TMC3    C4 5778   4.593   0.272  17.503 -0.0419  0.3781  0.5665
  383TMC3    C5 5779   4.542   0.147  17.537 -0.0218 -0.4600  0.4710
  383TMC3    C6 5780   4.525   0.040  17.443  0.6352 -0.1437  0.0262
  383TMC3     C 5781   4.694   0.416  17.342 -0.7788  0.2245  0.0671
  383TMC3     O 5782   4.704   0.491  17.439  0.0396  0.2839 -0.6199
  383TMC3     H 5783   4.660   0.184  17.173  1.8127  2.2525  1.3093
  383TMC3    H1 5784   4.612   0.349  17.577  2.4969  0.4540 -0.1544
  383TMC3    H2 5785   4.480   4.683  17.478  1.7322 -0.4191  0.7029
  383TMC3    C7 5786   4.546   0.114  17.675  0.4765 -0.1848 -0.0920
  383TMC3    C8 5787   4.535   4.696  17.223 -0.2824 -0.5544 -0.6426
  383TMC3    O1 5788   4.572   0.205   0.011 -0.0803  0.4539 -0.0508
  383TMC3    O2 5789   4.523   4.733  17.106 -0.3783 -0.3753  0.2339
  384MPD2     C 5790   1.808   2.579  12.449  0.3351 -0.3635 -0.4347
  384MPD2    C1 5791   1.820   2.474  12.537 -0.7067  0.4881  0.0735
  384MPD2    C2 5792   1.870   2.356  12.487  0.0767 -0.3278 -0.2663
  384MPD2    C3 5793   1.940   2.347  12.362  0.3313  0.2440 -0.0823
  384MPD2    C4 5794   1.943   2.460  12.290  0.2051 -0.0527 -0.2459
  384MPD2    C5 5795   1.882   2.574  12.335  0.0733 -0.0052 -0.5003
  384MPD2     H 5796   1.862   2.278  12.561  0.8231  0.0045  0.1591
  384MPD2    H1 5797   1.997   2.456  12.196 -0.4720  2.7056 -0.7535
  384MPD2    H2 5798   1.768   2.674  12.482  0.1605 -1.0496  1.2953
  384MPD2    H3 5799   1.876   2.661  12.269 -1.3722  1.1460  1.1642
  384MPD2     N 5800   2.014   2.226  12.318 -0.0092  0.2429 -0.3212
  384MPD2    H5 5801   2.083   2.239  12.245  0.6576  1.8034  0.5654
  384MPD2    N1 5802   1.788   2.481  12.672 -0.4140 -0.2975 -0.3190
  384MPD2    H7 5803   1.729   2.558  12.703 -0.2643 -0.1836 -0.3190
  385TMC3    C1 5804   2.100   2.007  12.324  0.1705 -0.3001  0.9063
  385TMC3    C2 5805   2.049   1.883  12.315  0.2739  0.4801  0.5020
  385TMC3    C3 5806   2.118   1.781  12.379 -0.0040 -0.2278 -0.0238
  385TMC3    C4 5807   2.210   2.033  12.397 -0.5888 -0.2922  0.3943
  385TMC3    C5 5808   2.259   1.944  12.484  0.2123  0.0285  0.7005
  385TMC3    C6 5809   2.217   1.811  12.464 -0.9822 -0.1285  0.0378
  385TMC3     C 5810   2.000   2.102  12.372  0.2224 -0.4158  0.0425
  385TMC3     O 5811   1.906   2.054  12.433 -0.3689  0.2610 -0.5042
  385TMC3     H 5812   1.954   1.866  12.265 -0.2198 -0.3857  1.7123
  385TMC3    H1 5813   2.244   2.136  12.398 -1.7513  0.0871  1.4641
  385TMC3    H2 5814   2.250   1.729  12.527 -2.7396 -0.6371  0.2962
  385TMC3    C7 5815   2.276   1.996  12.621  0.0964 -0.4519 -0.1415
  385TMC3    C8 5816   2.045   1.660  12.404  0.4524  0.7777  0.6717
  385TMC3    O1 5817   2.287   2.117  12.640 -0.2237  0.0350 -0.3265
  385TMC3    O2 5818   1.982   1.655  12.509 -0.0356 -0.3931 -0.2653
  386TMC3    C1 5819   2.605   4.216  12.291 -0.2401 -0.5670 -1.0955
  386TMC3    C2 5820   2.530   4.167  12.188 -1.0414  0.4190 -0.5486
  386TMC3    C3 5821   2.399   4.204  12.181 -0.5712  0.4437 -0.0192
  386TMC3    C4 5822   2.545   4.301  12.382 -0.2023 -0.2847 -0.5897
  386TMC3    C5 5823   2.413   4.333  12.367 -0.2958  0.2087  0.6069
  386TMC3    C6 5824   2.336   4.288  12.268  0.5673  0.0512 -0.1281
  386TMC3     C 5825   2.754   4.218  12.285 -0.2929 -0.1946 -0.7790
  386TMC3     O 5826   2.806   4.317  12.332 -0.0797 -0.3659 -0.7999
  386TMC3     H 5827   2.587   4.129  12.104  0.2445 -0.7494  0.8587
  386TMC3    H1 5828   2.607   4.328  12.467 -1.2315  1.4900 -0.4063
  386TMC3    H2 5829   2.232   4.314  12.251  1.0272  0.5175 -2.2987
  386TMC3    C7 5830   2.334   4.354  12.490  0.5010  0.1004 -0.6966
  386TMC3    C8 5831   2.312   4.129  12.083 -0.1335  0.1011  0.6439
  386TMC3    O1 5832   2.215   4.327  12.490 -0.8553 -0.4841  0.2789
  386TMC3    O2 5833   2.195   4.162  12.061  0.4458 -0.1576  0.0301
  387MPD2     C 5834   4.506   4.382  10.194  0.3453  0.3249  0.5073
  387MPD2    C1 5835   4.568   4.319  10.301  0.2025  0.8305  0.2513
  387MPD2    C2 5836   4.559   4.182  10.314  0.0155 -0.1853  0.1095
  387MPD2    C3 5837   4.502   4.111  10.214 -0.3725 -0.2379  0.4013
  387MPD2    C4 5838   4.459   4.166  10.102  0.2175 -0.2433 -0.8747
  387MPD2    C5 5839   4.459   4.304  10.091  0.4132  0.4454 -0.4059
  387MPD2     H 5840   4.617   4.134  10.392  0.7387 -0.4125 -0.5661
  387MPD2    H1 5841   4.410   4.109  10.024  0.0963 -0.3471 -0.7238
  387MPD2    H2 5842   4.507   4.490  10.184 -0.1985  0.2212 -0.6552
  387MPD2    H3 5843   4.423   4.347   9.998  0.8071 -0.5695 -1.0379
  387MPD2     N 5844   4.514   3.975  10.231 -0.4041  0.1775  0.7126
  387MPD2    H5 5845   4.574   3.942  10.306 -2.9497 -1.4665  2.0313
  387MPD2    N1 5846   4.652   4.388  10.389  0.6948  0.0694 -0.5324
  387MPD2    H7 5847   4.680   4.342  10.475  1.0922  1.7363  0.2166
  388TMC3    C1 5848   0.091   4.528  10.450 -0.8498 -0.1328  0.5445
  388TMC3    C2 5849   0.145   4.650  10.462  0.2702  0.1542 -0.2661
  388TMC3    C3 5850   0.268   4.661  10.513 -0.0473  0.3483  0.8949
  388TMC3    C4 5851   0.165   4.411  10.469 -0.1704 -0.5997 -0.4596
  388TMC3    C5 5852   0.296   4.424  10.518  0.2488 -0.0171  0.3666
  388TMC3    C6 5853   0.343   4.550  10.539 -0.2789  1.3495 -0.3831
  388TMC3     C 5854   4.697   4.514  10.380  0.4107  0.4893  0.0389
  388TMC3     O 5855   4.650   4.610  10.323  0.4334  0.2192  0.5987
  388TMC3     H 5856   0.073   4.731  10.454  0.2288  0.0984 -0.4458
  388TMC3    H1 5857   0.117   4.317  10.442 -0.7675 -0.3785 -0.1721
  388TMC3    H2 5858   0.445   4.575  10.566  0.2630  0.1005 -1.2693
  388TMC3    C7 5859   0.373   4.303  10.552 -0.1313 -0.0834  0.3588
  388TMC3    C8 5860   0.302   0.036  10.604  0.1569 -0.4237  0.4210
  388TMC3    O1 5861   0.497   4.301  10.553  0.1228 -0.3641 -0.9041
  388TMC3    O2 5862   0.353   0.003  10.709 -0.2130 -0.1421  0.1483
  389MPD2     C 5863   3.903   2.678  10.816 -0.5646 -0.0941 -0.6262
  389MPD2    C1 5864   3.859   2.564  10.759  0.7551 -0.9941  0.2162
  389MPD2    C2 5865   3.819   2.460  10.837  0.5858  0.5090  0.5513
  389MPD2    C3 5866   3.823   2.469  10.977 -0.5883  0.5356  0.5657
  389MPD2    C4 5867   3.893   2.576  11.031  0.0883 -0.0589  0.0372
  389MPD2    C5 5868   3.923   2.683  10.948  0.0691  0.1446 -0.4141
  389MPD2     H 5869   3.771   2.374  10.790  1.3432  1.3839 -1.7847
  389MPD2    H1 5870   3.917   2.581  11.136 -0.0054  1.7971 -0.0213
  389MPD2    H2 5871   3.936   2.762  10.756 -1.4215  0.7092  0.0230
  389MPD2    H3 5872   3.959   2.774  10.994  1.0380 -0.3227 -0.2445
  389MPD2     N 5873   3.764   2.378  11.066 -0.4194  0.2176  0.2594
  389MPD2    H5 5874   3.754   2.401  11.164 -1.8061 -0.3220  0.2295
  389MPD2    N1 5875   3.865   2.570  10.620  0.1446 -0.0386 -0.1775
  389MPD2    H7 5876   3.918   2.649  10.585 -0.3146  0.5982  0.5730
  390TMC3    C1 5877   3.643   2.200  11.130  0.4684 -0.3216  0.2800
  390TMC3    C2 5878   3.617   2.275  11.253  0.1744 -0.3849 -0.0507
  390TMC3    C3 5879   3.597   2.206  11.365  0.4714  0.2454 -0.2108
  390TMC3    C4 5880   3.650   2.064  11.131 -0.6028  0.1953 -0.7200
  390TMC3    C5 5881   3.619   1.999  11.248  0.6397  0.1983 -0.0520
  390TMC3    C6 5882   3.597   2.068  11.366 -0.1473  0.2472 -0.6185
  390TMC3     C 5883   3.701   2.269  11.024 -0.4357  0.3014 -0.0564
  390TMC3     O 5884   3.689   2.207  10.917 -0.2410 -0.5213  0.2887
  390TMC3     H 5885   3.595   2.380  11.264  1.1437 -0.2352  0.4462
  390TMC3    H1 5886   3.655   2.018  11.033  1.3174 -1.1288  0.0016
  390TMC3    H2 5887   3.605   2.018  11.462 -0.5022  0.0799 -0.6761
  390TMC3    C7 5888   3.521   1.900  11.231 -0.5284 -0.6331  0.1258
  390TMC3    C8 5889   3.506   2.252  11.466  0.3921 -0.4526 -0.1423
  390TMC3    O1 5890   3.515   1.832  11.130 -0.1216 -0.8744 -0.3333
  390TMC3    O2 5891   3.401   2.188  11.476 -0.6852 -0.2187 -0.2292
  391MPD2     C 5892   3.023   4.317  11.835  0.2863 -0.3056 -0.1055
  391MPD2    C1 5893   3.132   4.382  11.773  0.3222  0.3426  0.3380
  391MPD2    C2 5894   3.122   4.428  11.642 -0.0965  0.9174 -0.7021
  391MPD2    C3 5895   3.009   4.390  11.565  0.2388  0.3115  1.1765
  391MPD2    C4 5896   2.905   4.323  11.626 -0.6403  0.3365 -0.0960
  391MPD2    C5 5897   2.916   4.283  11.759 -0.0458  0.4062 -1.1710
  391MPD2     H 5898   3.194   4.497  11.600  2.8573  0.1419  3.0468
  391MPD2    H1 5899   2.815   4.288  11.576 -1.4458 -0.3208  1.8208
  391MPD2    H2 5900   3.023   4.276  11.935  0.4577 -0.3992 -0.1445
  391MPD2    H3 5901   2.843   4.209  11.791  1.3218  0.8617  2.9947
  391MPD2     N 5902   3.016   4.421  11.429  0.2683  0.1087 -0.4647
  391MPD2    H5 5903   3.098   4.470  11.395  0.0524  1.7404  1.3474
  391MPD2    N1 5904   3.247   4.404  11.856 -0.3020  1.0492  0.2415
  391MPD2    H7 5905   3.234   4.387  11.955  0.7871  2.6954  0.6634
  392TMC3    C1 5906   2.968   4.431  11.202 -0.2695  0.1637 -0.0805
  392TMC3    C2 5907   2.882   4.431  11.095 -0.7332  0.8949  0.8243
  392TMC3    C3 5908   2.934   4.439  10.966  0.6093  0.0274 -0.5817
  392TMC3    C4 5909   3.106   4.417  11.184  0.1468 -0.0889  0.3893
  392TMC3    C5 5910   3.153   4.415  11.059  0.5916 -0.2238  0.3496
  392TMC3    C6 5911   3.069   4.441  10.947  0.5451 -0.1557 -0.2647
  392TMC3     C 5912   2.916   4.409  11.336 -0.3035 -0.2486  0.2031
  392TMC3     O 5913   2.804   4.367  11.351  0.5276 -0.4755 -0.8408
  392TMC3     H 5914   2.775   4.443  11.099 -0.8972 -0.0009 -0.5926
  392TMC3    H1 5915   3.175   4.403  11.266  1.1863 -1.5367 -0.7355
  392TMC3    H2 5916   3.107   4.469  10.849  0.2856 -3.4757 -1.3335
  392TMC3    C7 5917   3.300   4.414  11.046 -0.0439 -0.3939 -0.9001
  392TMC3    C8 5918   2.834   4.445  10.856  0.6243  0.0395  0.3781
  392TMC3    O1 5919   3.369   4.436  11.141  0.5052 -0.5634 -0.0297
  392TMC3    O2 5920   2.718   4.406  10.875 -0.3246 -0.6124 -0.2412
  393TMC3    C1 5921   2.596   2.211  10.964  0.5834  0.0743 -0.0071
  393TMC3    C2 5922   2.520   2.227  11.079  0.4531 -0.3712  0.2366
  393TMC3    C3 5923   2.498   2.113  11.154  0.2129 -0.7603 -0.1298
  393TMC3    C4 5924   2.631   2.089  10.925 -0.4990  0.2179 -0.7283
  393TMC3    C5 5925   2.625   1.984  11.014 -0.1088 -0.0560 -0.1350
  393TMC3    C6 5926   2.553   1.995  11.126  0.1607 -0.5151  0.2291
  393TMC3     C 5927   2.598   2.314  10.870 -0.2688 -1.0020 -0.4822
  393TMC3     O 5928   2.604   2.284  10.750  0.0997 -0.4344 -0.9798
  393TMC3     H 5929   2.490   2.326  11.110 -1.7703 -1.2030  0.7486
  393TMC3    H1 5930   2.690   2.084  10.834 -0.7041  0.9898 -0.9063
  393TMC3    H2 5931   2.542   1.907  11.188  1.2952  0.7763  2.2615
  393TMC3    C7 5932   2.658   1.848  10.978  0.0833  0.5974 -0.1834
  393TMC3    C8 5933   2.390   2.100  11.253 -1.0121  0.4234 -0.4646
  393TMC3    O1 5934   2.576   1.761  11.008  0.4420  0.2624 -0.1201
  393TMC3    O2 5935   2.353   1.990  11.279  0.0147  0.6495  0.1903
  394TMC3    C1 5936   3.826   2.509  10.403 -0.2335 -0.3116  0.1815
  394TMC3    C2 5937   3.884   2.409  10.329 -0.1150  0.2502  0.4263
  394TMC3    C3 5938   3.931   2.441  10.203 -0.6826  0.3345  0.4449
  394TMC3    C4 5939   3.835   2.636  10.360 -0.1836 -0.0081 -0.5929
  394TMC3    C5 5940   3.893   2.665  10.241 -0.3361 -0.3277  0.3048
  394TMC3    C6 5941   3.929   2.569  10.153 -0.5952  0.5452 -0.2159
  394TMC3     C 5942   3.815   2.474  10.539  0.0236 -0.4602 -1.1942
  394TMC3     O 5943   3.752   2.370  10.567 -0.2484  0.4123 -0.5142
  394TMC3     H 5944   3.873   2.308  10.366 -1.8651  0.4930  0.5764
  394TMC3    H1 5945   3.792   2.716  10.420  0.7190  2.4031 -3.1657
  394TMC3    H2 5946   3.972   2.594  10.057  0.8927 -3.4119 -0.5957
  394TMC3    C7 5947   3.889   2.808  10.201 -0.1028 -0.5095  0.5896
  394TMC3    C8 5948   3.978   2.339  10.111  0.0994 -0.4939  0.2143
  394TMC3    O1 5949   3.879   2.893  10.294 -0.4636 -0.1463  0.4709
  394TMC3    O2 5950   4.021   2.366  10.002 -0.1975 -0.1306 -0.3636
  395TMC3    C1 5951   3.216   4.369  14.951  0.0112  0.9020  0.0694
  395TMC3    C2 5952   3.206   4.361  14.810 -0.3223  0.6243  0.0583
  395TMC3    C3 5953   3.314   4.388  14.731  0.3031  0.3379 -0.0234
  395TMC3    C4 5954   3.331   4.420  15.000 -0.1018 -0.4148 -0.1214
  395TMC3    C5 5955   3.434   4.453  14.918  0.6329  0.0570 -0.0175
  395TMC3    C6 5956   3.433   4.438  14.782 -0.1840 -0.2082 -0.1331
  395TMC3     C 5957   3.104   4.349  15.043  0.2253 -0.0682 -0.0631
  395TMC3     O 5958   3.107   4.416  15.146 -0.2118 -0.1348  0.2356
  395TMC3     H 5959   3.110   4.329  14.772  0.3536  0.6026 -1.6345
  395TMC3    H1 5960   3.348   4.429  15.107 -1.6220  1.1235 -0.0050
  395TMC3    H2 5961   3.519   4.455  14.717  1.0034 -2.7307  0.7724
  395TMC3    C7 5962   3.555   4.491  14.992  0.4600  0.2996  0.1620
  395TMC3    C8 5963   3.298   4.393  14.587  0.0415  0.1734 -0.9317
  395TMC3    O1 5964   3.561   4.542  15.103  0.3151 -0.3979 -0.0246
  395TMC3    O2 5965   3.363   4.473  14.523  0.2219  0.6069  0.1974
  396MPD2     C 5966   3.027   0.326  17.194  0.2080  0.1124  0.4360
  396MPD2    C1 5967   3.138   0.375  17.253 -0.9901  0.4191  1.1539
  396MPD2    C2 5968   3.228   0.448  17.178  0.1890 -0.0801  0.3999
  396MPD2    C3 5969   3.210   0.477  17.043  0.6621  0.7599  0.0331
  396MPD2    C4 5970   3.101   0.417  16.991  0.0894 -0.2522 -0.4810
  396MPD2    C5 5971   3.014   0.341  17.062 -0.6585 -0.0209 -0.4992
  396MPD2     H 5972   3.321   0.488  17.216  0.4303  1.6266 -1.9866
  396MPD2    H1 5973   3.086   0.424  16.884 -3.9989 -0.7747  0.0796
  396MPD2    H2 5974   2.948   0.277  17.250  0.0203 -2.4199 -2.0494
  396MPD2    H3 5975   2.927   0.304  17.009 -1.9494  1.2797  0.7026
  396MPD2     N 5976   3.296   0.570  16.976  0.2461 -0.4857  0.0601
  396MPD2    H5 5977   3.363   0.619  17.033  1.8398 -1.0722 -1.3174
  396MPD2    N1 5978   3.154   0.346  17.388 -0.1884 -0.2641 -0.5365
  396MPD2    H7 5979   3.093   0.279  17.435 -2.4880  1.6917 -0.7011
  397TMC3    C1 5980   3.268   0.337  17.605 -0.0995  0.2828 -0.0509
  397TMC3    C2 5981   3.393   0.283  17.601  0.3189  0.5798  0.0230
  397TMC3    C3 5982   3.414   0.145  17.609 -0.2897  0.2485 -0.0685
  397TMC3    C4 5983   3.159   0.259  17.636  0.6454 -0.1489 -0.3608
  397TMC3    C5 5984   3.187   0.131  17.680  0.8309 -0.4549  0.0564
  397TMC3    C6 5985   3.311   0.071  17.660 -0.0341 -0.9898  0.4273
  397TMC3     C 5986   3.248   0.400  17.475  0.7992  0.6569 -0.5622
  397TMC3     O 5987   3.328   0.490  17.447  0.7380  1.0623 -0.0146
  397TMC3     H 5988   3.461   0.343  17.542  0.3891 -0.8568 -1.3623
  397TMC3    H1 5989   3.061   0.302  17.653 -0.0640 -1.1376 -2.0329
  397TMC3    H2 5990   3.323   4.707  17.701  0.2512 -0.7764  0.8655
  397TMC3    C7 5991   3.071   0.060  17.737  0.5320  0.3989  0.3405
  397TMC3    C8 5992   3.445   0.101  17.474 -0.2519 -0.2777  0.1052
  397TMC3    O1 5993   2.958   0.108  17.732  0.0280 -0.0225  0.5381
  397TMC3    O2 5994   3.520   0.167  17.403 -0.2210  0.1582  0.2592
  398MPD2     C 5995   1.002   2.202   0.235  0.5859 -0.4174  0.0824
  398MPD2    C1 5996   1.091   2.096   0.251 -0.0834 -0.2837 -0.5725
  398MPD2    C2 5997   1.220   2.136   0.285 -0.1301  0.1240 -0.2013
  398MPD2    C3 5998   1.263   2.264   0.287  0.5326  0.1638 -0.3312
  398MPD2    C4 5999   1.172   2.363   0.259 -0.1284  0.2687  0.0916
  398MPD2    C5 6000   1.043   2.326   0.244 -0.1722  0.0095 -0.0456
  398MPD2     H 6001   1.296   2.060   0.300  0.7389  1.1456  0.5838
  398MPD2    H1 6002   1.205   2.466   0.250  1.7042 -0.3391 -0.1902
  398MPD2    H2 6003   0.896   2.196   0.214  0.7518  2.0524 -1.4342
  398MPD2    H3 6004   0.970   2.406   0.237  0.3043  0.1748 -3.3526
  398MPD2     N 6005   1.405   2.280   0.312  0.2498 -0.2695  0.0828
  398MPD2    H5 6006   1.459   2.195   0.325  1.0597 -0.1987 -2.7872
  398MPD2    N1 6007   1.052   1.962   0.261  0.1530  0.8951  0.6267
  398MPD2    H7 6008   1.121   1.894   0.292  0.5106 -0.2594 -2.7156
  399TMC3    C1 6009   0.921   1.765   0.277 -0.2926 -0.2832 -0.5058
  399TMC3    C2 6010   1.011   1.699   0.364 -0.1790  0.0355 -0.0062
  399TMC3    C3 6011   1.015   1.565   0.367  0.4246 -0.0682  0.0825
  399TMC3    C4 6012   0.817   1.694   0.223  0.1527 -0.3059 -0.6226
  399TMC3    C5 6013   0.819   1.557   0.244  0.0438  0.4780  0.8052
  399TMC3    C6 6014   0.923   1.491   0.308  0.2179  0.4899 -0.2371
  399TMC3     C 6015   0.924   1.908   0.239 -0.0482  0.0339  0.7159
  399TMC3     O 6016   0.818   1.966   0.211 -0.4488  0.6865 -0.2213
  399TMC3     H 6017   1.081   1.748   0.431 -1.6766  0.4996  1.2289
  399TMC3    H1 6018   0.739   1.753   0.175  0.4577 -0.3540 -1.1801
  399TMC3    H2 6019   0.932   1.384   0.298  0.6328  0.1726  3.7455
  399TMC3    C7 6020   0.712   1.471   0.201 -0.4369  0.3492  0.2085
  399TMC3    C8 6021   1.140   1.506   0.418 -0.1614  0.6578  0.6395
  399TMC3    O1 6022   0.711   1.361   0.257  0.3093 -0.2453 -0.2508
  399TMC3    O2 6023   1.236   1.583   0.415 -0.4189 -0.5509 -0.1056
  400TMC3    C1 6024   0.011   4.503  16.918  0.2930  0.6091 -0.6710
  400TMC3    C2 6025   0.013   4.368  16.893 -0.5787  0.2467  0.6167
  400TMC3    C3 6026   4.655   4.311  16.818 -0.0878 -0.9468 -0.1018
  400TMC3    C4 6027   4.653   4.581  16.860 -0.2447  0.1176 -0.0925
  400TMC3    C5 6028   4.569   4.526  16.774 -0.0328 -0.3451  0.0109
  400TMC3    C6 6029   4.561   4.391  16.758  0.0171  0.1315 -0.1244
  400TMC3     C 6030   0.097   4.554  17.029 -0.6302  0.1001 -0.4244
  400TMC3     O 6031   0.146   4.464  17.095  0.0434 -0.2747 -0.0244
  400TMC3     H 6032   0.083   4.295  16.931  0.7465  1.5833  0.7420
  400TMC3    H1 6033   4.659   4.688  16.876  0.7528  0.0054  0.2364
  400TMC3    H2 6034   4.469   4.345  16.723 -0.8281  1.5254  0.2863
  400TMC3    C7 6035   4.442   4.593  16.748  0.1517 -0.8752  0.6228
  400TMC3    C8 6036   4.645   4.168  16.820  0.1542  0.3486  0.3638
  400TMC3    O1 6037   4.378   4.576  16.645  0.3812 -0.5797  0.0478
  400TMC3    O2 6038   4.704   4.103  16.905 -0.3192 -0.5516 -0.6215
  401MPD2     C 6039   2.371   3.540   0.301  0.2831  0.3482 -0.1936
  401MPD2    C1 6040   2.362   3.481   0.421 -0.6478 -0.7163 -0.2181
  401MPD2    C2 6041   2.349   3.340   0.428  0.3328  0.4165  0.1468
  401MPD2    C3 6042   2.356   3.255   0.319 -0.2552 -0.0170  0.0225
  401MPD2    C4 6043   2.364   3.317   0.198  0.1017 -0.0680 -0.4550
  401MPD2    C5 6044   2.368   3.455   0.194 -0.0817  0.0790  0.3465
  401MPD2     H 6045   2.331   3.304   0.529 -0.9576  0.8222  0.0552
  401MPD2    H1 6046   2.361   3.259   0.106 -0.0422  1.8788 -1.6776
  401MPD2    H2 6047   2.371   3.647   0.289  0.8333  0.4994  1.1706
  401MPD2    H3 6048   2.383   3.505   0.099 -1.6029 -0.8005 -0.3531
  401MPD2     N 6049   2.362   3.121   0.321 -0.1076  0.0191 -0.4381
  401MPD2    H5 6050   2.396   3.075   0.237  3.0636  0.6405  0.4965
  401MPD2    N1 6051   2.357   3.545   0.548 -0.2951 -0.0445 -0.1612
  401MPD2    H7 6052   2.346   3.486   0.630  3.8698 -0.6003  0.0140
  402TMC3    C1 6053   2.353   2.905   0.420  0.3948 -0.8604 -0.3277
  402TMC3    C2 6054   2.324   2.824   0.530  0.2047  0.1574  0.2079
  402TMC3    C3 6055   2.358   2.692   0.524 -0.2604 -0.5092  0.4307
  402TMC3    C4 6056   2.428   2.858   0.320 -0.1187 -0.4256  0.1387
  402TMC3    C5 6057   2.469   2.729   0.324 -0.0246  0.6217 -0.3506
  402TMC3    C6 6058   2.429   2.643   0.422 -0.5063 -0.4498  0.1543
  402TMC3     C 6059   2.326   3.044   0.433 -0.9656  0.3227 -0.0594
  402TMC3     O 6060   2.263   3.073   0.530 -0.2804 -0.4261 -0.1126
  402TMC3     H 6061   2.246   2.846   0.602  0.2086  0.5886  0.0849
  402TMC3    H1 6062   2.469   2.922   0.243  0.7910  0.9208  1.7500
  402TMC3    H2 6063   2.458   2.539   0.413 -0.3467 -0.4313  0.4356
  402TMC3    C7 6064   2.558   2.687   0.220  0.3285  0.0668 -0.0221
  402TMC3    C8 6065   2.375   2.610   0.645  0.1248 -0.2789 -0.4727
  402TMC3    O1 6066   2.564   2.764   0.121 -0.4936  0.0504 -0.3653
  402TMC3    O2 6067   2.422   2.498   0.635  0.2392 -0.0445 -0.3834
  403MPD2     C 6068   0.952   2.311  13.875 -0.4082  0.9114  0.6254
  403MPD2    C1 6069   1.024   2.203  13.906  0.1440 -0.6294 -0.6397
  403MPD2    C2 6070   1.150   2.214  13.966 -0.1401  0.4224  0.4499
  403MPD2    C3 6071   1.188   2.337  14.007  0.5351  0.1896  0.6870
  403MPD2    C4 6072   1.107   2.450  13.983 -0.3568  1.0006  0.2041
  403MPD2    C5 6073   0.999   2.438  13.901  0.3857  0.0626  0.1760
  403MPD2     H 6074   1.210   2.126  13.987  0.5215  1.0641  1.2551
  403MPD2    H1 6075   1.145   2.548  14.008  2.2296 -0.3970  1.8307
  403MPD2    H2 6076   0.854   2.300  13.828 -0.6149  0.8772  1.0605
  403MPD2    H3 6077   0.961   2.518  13.839  0.7144 -0.1174 -0.2545
  403MPD2     N 6078   1.313   2.345  14.072  0.1740  0.4432  0.0676
  403MPD2    H5 6079   1.382   2.273  14.053 -1.1687 -1.0204  0.7323
  403MPD2    N1 6080   0.964   2.082  13.862 -0.7867  0.3448  0.2624
  403MPD2    H7 6081   0.882   2.086  13.803 -0.7632  0.8542  0.2667
  404TMC3    C1 6082   0.936   1.842  13.844  0.7335 -0.6455  0.0718
  404TMC3    C2 6083   0.981   1.733  13.909  0.0091  0.0456 -0.2325
  404TMC3    C3 6084   1.007   1.618  13.835  0.9012  0.5675  0.2052
  404TMC3    C4 6085   0.930   1.853  13.710 -0.7409 -0.0286  0.5749
  404TMC3    C5 6086   0.967   1.740  13.636 -0.5660  1.2885  0.0653
  404TMC3    C6 6087   1.004   1.619  13.696 -0.9376 -0.0456 -0.9523
  404TMC3     C 6088   0.991   1.959  13.916 -0.0018  0.6993 -1.0429
  404TMC3     O 6089   1.083   1.933  13.993 -1.0151 -0.0396 -0.1880
  404TMC3     H 6090   0.996   1.734  14.016  1.2034  0.2888 -0.4001
  404TMC3    H1 6091   0.893   1.937  13.654  0.2758 -0.2561 -0.4300
  404TMC3    H2 6092   1.048   1.545  13.631 -1.1633  0.1234 -1.2978
  404TMC3    C7 6093   0.999   1.754  13.493  0.5610 -0.0926 -0.3750
  404TMC3    C8 6094   1.087   1.512  13.889  0.5084 -0.9192  0.0016
  404TMC3    O1 6095   0.970   1.663  13.418 -0.0506  0.1020 -0.5529
  404TMC3    O2 6096   1.175   1.478  13.813  0.5606 -0.0043  0.0812
  405MPD2     C 6097   1.472   2.392  15.334  0.3953  0.7933  0.5537
  405MPD2    C1 6098   1.531   2.313  15.238  0.7297 -0.2109  0.6343
  405MPD2    C2 6099   1.537   2.357  15.109  0.4722  0.1706 -0.1387
  405MPD2    C3 6100   1.491   2.482  15.080  0.3415  0.2921 -0.8940
  405MPD2    C4 6101   1.443   2.563  15.175  0.3837  0.0889  0.4495
  405MPD2    C5 6102   1.425   2.512  15.303 -0.1744  0.1444 -0.0674
  405MPD2     H 6103   1.570   2.294  15.027  3.2057  0.7808  0.4906
  405MPD2    H1 6104   1.409   2.665  15.164  1.9593  0.9344  3.4422
  405MPD2    H2 6105   1.438   2.342  15.424  1.6945  3.2165  2.4243
  405MPD2    H3 6106   1.377   2.573  15.378 -0.1503 -0.0308  0.0890
  405MPD2     N 6107   1.466   2.514  14.945  0.1955  0.1799 -0.2036
  405MPD2    H5 6108   1.479   2.432  14.887  2.8030  1.3309 -1.2258
  405MPD2    N1 6109   1.566   2.183  15.269 -0.0538 -0.6325 -0.4089
  405MPD2    H7 6110   1.560   2.148  15.364 -0.8912  0.3131 -0.1259
  406TMC3    C1 6111   1.254   2.640  14.563 -0.6232  0.3602 -0.3021
  406TMC3    C2 6112   1.238   2.506  14.529  0.2261 -1.0250 -0.4963
  406TMC3    C3 6113   1.272   2.416  14.623 -0.3825  0.4344  0.1102
  406TMC3    C4 6114   1.304   2.684  14.684  0.7275  0.6424 -0.0703
  406TMC3    C5 6115   1.326   2.586  14.776 -0.2249 -0.2554 -0.4420
  406TMC3    C6 6116   1.312   2.455  14.747  0.1608 -0.3412 -0.6266
  406TMC3     C 6117   1.171   2.745  14.494  0.4383 -0.1329  0.1322
  406TMC3     O 6118   1.182   2.864  14.527  0.3948  0.0373  0.0762
  406TMC3     H 6119   1.195   2.467  14.437  1.7559  3.2771 -3.0141
  406TMC3    H1 6120   1.316   2.791  14.700 -0.1083  0.8797 -1.0135
  406TMC3    H2 6121   1.310   2.375  14.821  1.4154  0.3491  0.1386
  406TMC3    C7 6122   1.398   2.627  14.894 -0.1958 -0.3225  0.8833
  406TMC3    C8 6123   1.245   2.273  14.602  0.0913  0.5814 -0.2660
  406TMC3    O1 6124   1.389   2.741  14.937  0.6681 -0.2058  0.0971
  406TMC3    O2 6125   1.152   2.235  14.534 -0.2621  0.3055  0.3052
  407MPD2     C 6126   3.930   3.985  10.115 -0.4546  0.5256  0.2571
  407MPD2    C1 6127   4.068   3.976  10.114 -0.3502  0.9702 -0.0343
  407MPD2    C2 6128   4.136   4.033  10.219  0.4620 -0.3078  0.4017
  407MPD2    C3 6129   4.072   4.101  10.322 -0.4037 -0.5763  0.1463
  407MPD2    C4 6130   3.934   4.124  10.316 -0.0469 -0.4573  0.2770
  407MPD2    C5 6131   3.861   4.057  10.215 -0.1640  0.0683  0.5004
  407MPD2     H 6132   4.243   4.024  10.228  0.4373  1.2372  2.3691
  407MPD2    H1 6133   3.892   4.203  10.377  2.0464 -0.1114  1.3027
  407MPD2    H2 6134   3.872   3.936  10.037  2.2458  0.3447 -1.6147
  407MPD2    H3 6135   3.755   4.072  10.201  0.0401  0.4799 -0.6093
  407MPD2     N 6136   4.143   4.173  10.421 -0.6919 -0.7728 -0.4984
  407MPD2    H5 6137   4.095   4.252  10.463  1.6593  0.1681  0.3859
  407MPD2    N1 6138   4.144   3.918  10.009 -0.7001 -0.3796  0.0450
  407MPD2    H7 6139   4.243   3.922  10.027 -1.0550 -1.7830  2.3254
  408TMC3    C1 6140   4.209   3.862   9.794 -0.6260 -0.1933 -0.3209
  408TMC3    C2 6141   4.268   3.739   9.775  0.3826  0.2935 -0.4878
  408TMC3    C3 6142   4.396   3.732   9.729 -0.2822  0.4087  0.1537
  408TMC3    C4 6143   4.260   3.981   9.749  0.5913 -0.1772 -0.3800
  408TMC3    C5 6144   4.387   3.965   9.694  0.6129  0.0208 -1.2128
  408TMC3    C6 6145   4.455   3.846   9.692 -0.6035  0.5096 -0.3981
  408TMC3     C 6146   4.103   3.870   9.885  0.2013 -0.0870 -0.6520
  408TMC3     O 6147   3.985   3.877   9.845 -0.6872 -0.0742 -0.1683
  408TMC3     H 6148   4.223   3.651   9.819  2.0183 -0.0459  0.4707
  408TMC3    H1 6149   4.214   4.078   9.767 -3.0476 -1.8812 -0.4437
  408TMC3    H2 6150   4.546   3.835   9.634 -0.5228  0.0799 -0.1841
  408TMC3    C7 6151   4.460   4.083   9.657 -0.3099  0.3372 -0.6680
  408TMC3    C8 6152   4.476   3.617   9.784  0.6121 -0.9710 -0.2360
  408TMC3    O1 6153   4.581   4.074   9.649  0.0212 -0.1198 -0.2139
  408TMC3    O2 6154   4.422   3.508   9.806 -0.0410  0.2785  0.3472
  409MPD2     C 6155   3.223   4.246  16.794  0.0313  0.6195  0.1218
  409MPD2    C1 6156   3.314   4.205  16.882 -0.2312  0.4081  0.1327
  409MPD2    C2 6157   3.449   4.228  16.859 -0.7325 -0.0339  0.3125
  409MPD2    C3 6158   3.490   4.291  16.741  0.3528 -0.5022 -0.6302
  409MPD2    C4 6159   3.396   4.332  16.653  0.2949 -0.5246 -0.4107
  409MPD2    C5 6160   3.266   4.316  16.685 -0.4212 -0.9040  0.5648
  409MPD2     H 6161   3.518   4.190  16.933 -0.0192  1.2016  0.2665
  409MPD2    H1 6162   3.409   4.384  16.559  2.1319  1.0596  0.7183
  409MPD2    H2 6163   3.119   4.217  16.799  0.2191  0.4106  2.8789
  409MPD2    H3 6164   3.194   4.371  16.625  2.0052  1.4961 -0.1568
  409MPD2     N 6165   3.626   4.318  16.707  0.0992 -0.6090  0.2554
  409MPD2    H5 6166   3.638   4.374  16.623 -0.2367  0.5306  0.9744
  409MPD2    N1 6167   3.281   4.149  17.014 -0.5860 -0.8312  1.0072
  409MPD2    H7 6168   3.356   4.101  17.064  1.5009  0.9905 -0.3597
  410TMC3    C1 6169   3.853   4.342  16.730  0.7464  1.4087  0.1318
  410TMC3    C2 6170   3.961   4.345  16.810 -0.8298  1.1277  0.1333
  410TMC3    C3 6171   4.057   4.447  16.794 -0.2521  0.1127  0.5245
  410TMC3    C4 6172   3.834   4.446  16.636 -0.2835 -0.7210 -0.2243
  410TMC3    C5 6173   3.933   4.541  16.624 -0.3900 -0.1286 -0.4907
  410TMC3    C6 6174   4.042   4.547  16.705  0.0185  0.1163 -0.7361
  410TMC3     C 6175   3.729   4.285  16.785 -0.6696 -0.1071  0.1813
  410TMC3     O 6176   3.745   4.237  16.896  0.2207  0.4883 -0.0360
  410TMC3     H 6177   3.978   4.276  16.892  0.5167  1.1586 -0.1217
  410TMC3    H1 6178   3.750   4.442  16.567 -0.8807  0.8914  0.4158
  410TMC3    H2 6179   4.102   4.638  16.708  0.8974 -0.3715 -3.1105
  410TMC3    C7 6180   3.919   4.633  16.511 -0.0751 -0.3533  0.1085
  410TMC3    C8 6181   4.155   4.469  16.904  0.3300 -0.6012 -1.1121
  410TMC3    O1 6182   3.810   4.637  16.456 -0.3060 -0.4757  0.1758
  410TMC3    O2 6183   4.141   4.574  16.960  0.8832 -0.0568  0.3816
  411MPD2     C 6184   4.244   0.776  14.790  0.1764 -0.1372 -0.7964
  411MPD2    C1 6185   4.106   0.779  14.796 -0.7156 -0.0642 -0.4343
  411MPD2    C2 6186   4.034   0.667  14.771  0.3657  0.2273 -0.2096
  411MPD2    C3 6187   4.095   0.545  14.743  0.1449 -0.1088  0.6011
  411MPD2    C4 6188   4.238   0.550  14.724 -0.2398 -0.2395 -0.0828
  411MPD2    C5 6189   4.312   0.664  14.750  0.3587 -0.4591  0.0433
  411MPD2     H 6190   3.928   0.673  14.791  0.5168 -0.4201  0.7464
  411MPD2    H1 6191   4.290   0.472  14.670 -0.7122  0.6879 -1.8629
  411MPD2    H2 6192   4.310   0.854  14.826 -1.1651  1.1445 -1.0886
  411MPD2    H3 6193   4.420   0.659  14.740  0.2479 -0.9115 -0.9003
  411MPD2     N 6194   4.025   0.427  14.721  0.0071 -0.7089 -0.0175
  411MPD2    H5 6195   4.082   0.348  14.693 -1.4068 -2.0714  0.9545
  411MPD2    N1 6196   4.036   0.895  14.812 -0.1667  0.4985 -0.1528
  411MPD2    H7 6197   4.077   0.972  14.864  1.1878 -0.0756 -0.3653
  412TMC3    C1 6198   3.840   0.296  14.673  0.3151 -0.7089 -0.5215
  412TMC3    C2 6199   3.800   0.185  14.741 -0.9567 -0.1456 -0.2401
  412TMC3    C3 6200   3.787   0.072  14.671 -0.6627  0.1534  0.8342
  412TMC3    C4 6201   3.858   0.294  14.546  0.0406  0.4625  0.3500
  412TMC3    C5 6202   3.844   0.178  14.476 -1.0005  0.4594 -0.0532
  412TMC3    C6 6203   3.827   0.063  14.539 -0.0796 -0.1253  0.7593
  412TMC3     C 6204   3.898   0.403  14.752 -0.3579 -0.1673 -0.0237
  412TMC3     O 6205   3.837   0.434  14.850 -0.0633  0.0363  0.2049
  412TMC3     H 6206   3.802   0.188  14.850 -1.0654  0.0580 -0.2442
  412TMC3    H1 6207   3.888   0.376  14.482 -1.8013 -0.0296 -1.1784
  412TMC3    H2 6208   3.821   4.700  14.496 -0.3206  0.1986  0.0441
  412TMC3    C7 6209   3.756   0.173  14.364 -0.1706 -0.6938  0.8176
  412TMC3    C8 6210   3.660   0.010  14.698 -0.1250 -0.2186  0.2090
  412TMC3    O1 6211   3.674   0.262  14.341 -0.0652  0.3170 -0.4388
  412TMC3    O2 6212   3.623   4.666  14.614 -0.6253  0.1257  0.0501
  413MPD2     C 6213   0.945   3.275  15.965 -0.5897 -0.4684  0.2430
  413MPD2    C1 6214   0.991   3.277  15.836  0.1825  0.2450  0.2388
  413MPD2    C2 6215   1.077   3.177  15.792 -0.4836 -0.1282 -0.0738
  413MPD2    C3 6216   1.103   3.065  15.864 -0.7473  0.2214 -0.1911
  413MPD2    C4 6217   1.052   3.063  15.993 -0.1626  0.0044  0.2070
  413MPD2    C5 6218   0.978   3.169  16.041  0.1446 -0.1048  0.1611
  413MPD2     H 6219   1.126   3.195  15.696 -0.4761  0.2345 -0.0025
  413MPD2    H1 6220   1.077   2.986  16.065 -1.7858 -0.9509 -0.2555
  413MPD2    H2 6221   0.881   3.348  16.013  0.7182 -0.6200  2.2148
  413MPD2    H3 6222   0.932   3.171  16.139  0.7157 -2.3640  0.4731
  413MPD2     N 6223   1.181   2.962  15.816 -0.3387  0.3911 -0.1651
  413MPD2    H5 6224   1.197   2.968  15.716  2.2461  0.7036  0.2730
  413MPD2    N1 6225   0.951   3.382  15.756 -0.2962  0.0553 -0.6822
  413MPD2    H7 6226   0.887   3.441  15.809 -0.4213 -0.2630 -0.4816
  414TMC3    C1 6227   1.250   2.736  15.793  0.6623 -0.4380  0.3714
  414TMC3    C2 6228   1.251   2.606  15.835 -0.0587  0.8020  0.1558
  414TMC3    C3 6229   1.332   2.514  15.775  0.1563  0.3071 -0.4179
  414TMC3    C4 6230   1.343   2.778  15.699 -0.1406  0.1303 -0.0594
  414TMC3    C5 6231   1.425   2.689  15.645 -0.0332 -1.2556  0.4709
  414TMC3    C6 6232   1.418   2.555  15.673  0.0798  1.1702  0.0803
  414TMC3     C 6233   1.192   2.833  15.877 -0.3875  0.4045  0.2449
  414TMC3     O 6234   1.135   2.790  15.978 -0.0863 -0.3669  0.0308
  414TMC3     H 6235   1.190   2.583  15.921  0.3342  0.0160  0.2293
  414TMC3    H1 6236   1.368   2.884  15.693  2.9610 -0.6029  0.0003
  414TMC3    H2 6237   1.481   2.480  15.626  1.7263  1.8297  1.2221
  414TMC3    C7 6238   1.517   2.725  15.543 -0.5244  0.4803 -1.2438
  414TMC3    C8 6239   1.322   2.373  15.793 -0.5404  0.5470 -0.8198
  414TMC3    O1 6240   1.614   2.651  15.527 -0.4427 -0.1563  0.6968
  414TMC3    O2 6241   1.321   2.309  15.690 -0.1704  0.1519 -0.1762
  415TMC3    C1 6242   1.774   1.321  10.335 -0.0811  0.4294 -0.0881
  415TMC3    C2 6243   1.821   1.411  10.247 -0.5478 -0.5969  0.9794
  415TMC3    C3 6244   1.744   1.427  10.133 -0.3300  0.2094 -0.2932
  415TMC3    C4 6245   1.661   1.250  10.316  0.2930 -0.0132 -0.3707
  415TMC3    C5 6246   1.589   1.271  10.203 -0.2864 -0.0634 -0.2487
  415TMC3    C6 6247   1.630   1.352  10.108 -0.0002  1.2477  0.7571
  415TMC3     C 6248   1.799   1.349  10.477 -0.3357  0.6111 -0.2262
  415TMC3     O 6249   1.771   1.256  10.556  0.5277  0.3894  0.5762
  415TMC3     H 6250   1.913   1.463  10.272  0.2172 -1.9158  0.8950
  415TMC3    H1 6251   1.625   1.178  10.388  0.1822 -0.1446 -0.5579
  415TMC3    H2 6252   1.565   1.382  10.026  2.1617  0.6620 -1.1457
  415TMC3    C7 6253   1.454   1.221  10.189  0.4546  0.4635 -0.1201
  415TMC3    C8 6254   1.807   1.483  10.018 -0.5195  1.0412  0.0141
  415TMC3    O1 6255   1.402   1.222  10.077  0.1627 -0.2392 -0.2694
  415TMC3    O2 6256   1.749   1.467   9.912  0.2149  0.2047  0.3339
  416MPD2     C 6257   3.452   0.967  11.910  0.6518  0.0540  0.1131
  416MPD2    C1 6258   3.384   0.863  11.973 -0.9936 -0.2167 -0.0414
  416MPD2    C2 6259   3.391   0.739  11.913  0.0094  0.0893  0.0251
  416MPD2    C3 6260   3.464   0.720  11.797 -0.6257  0.3095  0.0303
  416MPD2    C4 6261   3.532   0.825  11.744  0.2503  0.0122 -0.7166
  416MPD2    C5 6262   3.527   0.955  11.793  0.4264  0.6797 -0.3632
  416MPD2     H 6263   3.347   0.652  11.961 -0.2546 -1.2827 -2.6863
  416MPD2    H1 6264   3.569   0.810  11.643 -2.2430 -3.8318 -1.0598
  416MPD2    H2 6265   3.451   1.067  11.951  1.5151  0.3869 -0.6718
  416MPD2    H3 6266   3.576   1.039  11.746  2.3726 -0.4733 -0.3757
  416MPD2     N 6267   3.452   0.587  11.741 -0.0832 -0.7319  0.0410
  416MPD2    H5 6268   3.420   0.517  11.806 -0.7067  0.2605  0.8078
  416MPD2    N1 6269   3.306   0.899  12.086  0.7013 -0.0576  0.4042
  416MPD2    H7 6270   3.296   0.998  12.105 -1.9174  0.2037 -2.3723
  417TMC3    C1 6271   3.140   0.862  12.235 -0.7407  0.3712  0.0299
  417TMC3    C2 6272   3.092   0.788  12.339 -0.0908 -0.7214 -0.0437
  417TMC3    C3 6273   2.954   0.789  12.364 -0.1966 -0.3323  0.8730
  417TMC3    C4 6274   3.052   0.933  12.159  0.1962 -0.4357 -0.4287
  417TMC3    C5 6275   2.918   0.922  12.180 -0.0127  0.2094 -0.1174
  417TMC3    C6 6276   2.867   0.858  12.295  0.0739 -0.8334  0.2472
  417TMC3     C 6277   3.253   0.806  12.174  0.2637  0.8414 -0.1652
  417TMC3     O 6278   3.258   0.683  12.175 -0.2588 -0.1411 -0.2140
  417TMC3     H 6279   3.164   0.724  12.388  0.8822  0.8626  0.5998
  417TMC3    H1 6280   3.078   0.988  12.069  1.2412 -1.1878 -0.5939
  417TMC3    H2 6281   2.763   0.861  12.327  0.3346 -0.8904  1.0991
  417TMC3    C7 6282   2.829   0.993  12.087 -0.1436  0.9629  0.2782
  417TMC3    C8 6283   2.928   0.777  12.509 -0.1041 -0.0732 -0.4648
  417TMC3    O1 6284   2.884   1.010  11.976  0.5840 -0.1087 -0.2498
  417TMC3    O2 6285   2.831   0.840  12.552  0.2162  0.4068  0.3956
  418TMC3    C1 6286   1.818   2.355   0.215 -0.4658  0.1202  0.7045
  418TMC3    C2 6287   1.697   2.418   0.222  0.3197 -0.3695  0.6760
  418TMC3    C3 6288   1.613   2.388   0.329  0.1784 -0.3192  0.1322
  418TMC3    C4 6289   1.855   2.256   0.303  0.1500  0.6797  0.4283
  418TMC3    C5 6290   1.774   2.235   0.412  0.0463 -0.4868  0.0647
  418TMC3    C6 6291   1.652   2.296   0.422  0.7778 -0.6188 -0.0988
  418TMC3     C 6292   1.886   2.352   0.083 -0.2955  0.5037  0.3313
  418TMC3     O 6293   1.875   2.448   0.007 -0.5011  0.1653 -0.2186
  418TMC3     H 6294   1.679   2.500   0.154  2.2552  0.1436  0.7636
  418TMC3    H1 6295   1.953   2.210   0.313 -1.2427 -2.3424  0.2139
  418TMC3    H2 6296   1.583   2.258   0.496 -1.3715  2.0831 -0.7300
  418TMC3    C7 6297   1.797   2.115   0.492 -0.5665 -0.4686 -0.5661
  418TMC3    C8 6298   1.472   2.401   0.303 -0.6939 -0.1867 -0.7683
  418TMC3    O1 6299   1.851   2.018   0.442 -0.0059  0.1024 -0.6214
  418TMC3    O2 6300   1.436   2.510   0.261 -0.1831 -0.0290 -0.1349
  419MPD2     C 6301   1.318   0.691  13.146  0.3561 -0.0894  0.3427
  419MPD2    C1 6302   1.199   0.725  13.091 -0.1194 -0.0704  0.4871
  419MPD2    C2 6303   1.094   0.765  13.179 -0.4517 -0.3470  0.4574
  419MPD2    C3 6304   1.105   0.764  13.317 -0.0460 -0.2093  0.8122
  419MPD2    C4 6305   1.227   0.724  13.371 -0.0953 -0.2460  0.2942
  419MPD2    C5 6306   1.326   0.698  13.282  1.0498 -0.0587  0.0209
  419MPD2     H 6307   1.003   0.799  13.131 -0.0465 -1.1576 -0.8845
  419MPD2    H1 6308   1.256   0.716  13.475 -0.7565 -0.9054  0.4284
  419MPD2    H2 6309   1.399   0.672  13.077  0.2263  1.2227 -0.1673
  419MPD2    H3 6310   1.424   0.685  13.328  0.4263 -2.4883  0.6673
  419MPD2     N 6311   0.997   0.818  13.389  0.2031  0.2769 -0.0996
  419MPD2    H5 6312   0.915   0.843  13.335 -0.0609 -0.0825  0.1423
  419MPD2    N1 6313   1.161   0.718  12.958  0.8450 -0.0615 -0.1191
  419MPD2    H7 6314   1.068   0.750  12.937  0.3974 -1.0670  0.3314
  420TMC3    C1 6315   0.861   0.875  13.573 -0.3805  0.8609 -0.5729
  420TMC3    C2 6316   0.807   0.980  13.503  0.9468  0.0773  0.2857
  420TMC3    C3 6317   0.675   1.007  13.531 -0.0134  0.3587  0.0029
  420TMC3    C4 6318   0.793   0.807  13.665 -0.1305  0.1460  0.4882
  420TMC3    C5 6319   0.665   0.837  13.693  0.2787 -0.1170 -0.2958
  420TMC3    C6 6320   0.603   0.931  13.620 -0.3834 -0.9083  0.6699
  420TMC3     C 6321   0.985   0.821  13.530  0.1542  0.3668 -1.0189
  420TMC3     O 6322   1.066   0.790  13.614  0.3422  0.2892 -0.4117
  420TMC3     H 6323   0.853   1.039  13.424  2.1585 -1.3492 -0.0884
  420TMC3    H1 6324   0.845   0.734  13.726  0.6549  1.1461  1.0124
  420TMC3    H2 6325   0.496   0.941  13.632 -0.2893  1.9801 -0.9502
  420TMC3    C7 6326   0.601   0.756  13.793  0.3574  0.4448  0.5147
  420TMC3    C8 6327   0.611   1.124  13.472 -0.0360  0.0931 -0.4281
  420TMC3    O1 6328   0.664   0.667  13.847 -0.3192  0.4449  0.9660
  420TMC3    O2 6329   0.657   1.167  13.366 -0.5092  0.1031  0.1982
  421TMC3    C1 6330   1.495   2.448  14.205  0.8100 -0.2902 -0.2322
  421TMC3    C2 6331   1.529   2.526  14.313  0.5048  0.0980 -0.0290
  421TMC3    C3 6332   1.658   2.521  14.359  1.0093 -0.8980 -0.0012
  421TMC3    C4 6333   1.600   2.394  14.129  0.1553  0.3054 -0.0546
  421TMC3    C5 6334   1.720   2.390  14.180 -0.1354  0.4463  0.1534
  421TMC3    C6 6335   1.756   2.455  14.295 -0.2593 -0.4321  0.5603
  421TMC3     C 6336   1.351   2.440  14.161 -0.2581 -0.3278  0.1441
  421TMC3     O 6337   1.273   2.512  14.221 -0.1236  0.2783  0.1213
  421TMC3     H 6338   1.464   2.584  14.377  0.5593  0.5860 -0.4144
  421TMC3    H1 6339   1.573   2.348  14.035 -1.9319  0.6624  0.3593
  421TMC3    H2 6340   1.856   2.439  14.332  0.0872 -0.2276 -0.2986
  421TMC3    C7 6341   1.825   2.319  14.113  0.9329 -0.3317  0.9065
  421TMC3    C8 6342   1.676   2.549  14.504  0.0193 -0.3747  0.0834
  421TMC3    O1 6343   1.942   2.353  14.131 -0.0245 -0.3182 -0.4433
  421TMC3    O2 6344   1.572   2.556  14.572  0.5669  0.5574 -0.4603
  422TMC3    C1 6345   4.426   3.325  13.062 -0.4980 -0.2307 -0.0360
  422TMC3    C2 6346   4.388   3.423  13.152 -0.1311  0.7266  0.2628
  422TMC3    C3 6347   4.265   3.480  13.137  0.2446  0.2805  0.3347
  422TMC3    C4 6348   4.336   3.269  12.975 -0.6371 -0.1883  0.2399
  422TMC3    C5 6349   4.211   3.325  12.976  0.6019  0.8319  0.4339
  422TMC3    C6 6350   4.174   3.437  13.052  0.9032 -0.8474 -0.1519
  422TMC3     C 6351   4.562   3.277  13.053  0.2076 -0.6826  0.3402
  422TMC3     O 6352   4.632   3.314  13.148  0.4485  0.0368  0.1848
  422TMC3     H 6353   4.457   3.452  13.231  0.7228 -0.4259 -0.0585
  422TMC3    H1 6354   4.356   3.184  12.911  0.8541  0.2441  0.1355
  422TMC3    H2 6355   4.076   3.483  13.041  0.7795 -1.3504 -1.1639
  422TMC3    C7 6356   4.123   3.302  12.862 -0.2454  0.1118  0.0949
  422TMC3    C8 6357   4.242   3.595  13.224  0.1101  0.4277  0.1212
  422TMC3    O1 6358   4.176   3.260  12.765 -0.2676  0.2787 -0.1593
  422TMC3    O2 6359   4.335   3.649  13.280 -0.4250  0.0298  0.4272
  423MPD2     C 6360   0.657   4.338   1.002  0.3678  0.2845  0.1545
  423MPD2    C1 6361   0.706   4.213   1.030 -0.5139 -0.2527 -0.2070
  423MPD2    C2 6362   0.726   4.124   0.921  0.9380  0.2321  0.4408
  423MPD2    C3 6363   0.688   4.166   0.794 -1.5538  0.0139  0.5243
  423MPD2    C4 6364   0.637   4.297   0.769  0.1149 -0.0382  0.5474
  423MPD2    C5 6365   0.620   4.377   0.871 -0.6107 -0.4482 -0.6943
  423MPD2     H 6366   0.769   4.026   0.937  0.9739  0.5007  2.0122
  423MPD2    H1 6367   0.609   4.330   0.670 -0.9881 -4.6061 -0.6724
  423MPD2    H2 6368   0.635   4.414   1.077  2.4080  0.1810  0.8583
  423MPD2    H3 6369   0.565   4.468   0.847  0.5399  0.2851 -0.5230
  423MPD2     N 6370   0.704   4.081   0.683  0.3844  0.0125 -0.2645
  423MPD2    H5 6371   0.715   4.131   0.596 -0.4076 -2.6653 -1.8908
  423MPD2    N1 6372   0.738   4.161   1.152  0.0559  0.1250  0.4003
  423MPD2    H7 6373   0.770   4.065   1.152  0.2813  0.1990  0.3509
  424TMC3    C1 6374   0.765   4.169   1.385  0.1669  0.2313 -0.4989
  424TMC3    C2 6375   0.889   4.107   1.401 -0.3894  0.3825 -0.3883
  424TMC3    C3 6376   0.912   4.048   1.522 -0.3308 -0.1139  0.9886
  424TMC3    C4 6377   0.667   4.171   1.479 -0.2533 -0.6177  0.0147
  424TMC3    C5 6378   0.703   4.114   1.602 -0.0104 -0.4865 -0.5175
  424TMC3    C6 6379   0.824   4.059   1.624  0.7809  0.2479 -0.2336
  424TMC3     C 6380   0.734   4.240   1.265 -0.7415  0.5534 -0.3908
  424TMC3     O 6381   0.682   4.350   1.285 -0.2477  0.5779  0.8727
  424TMC3     H 6382   0.945   4.093   1.309 -1.2318  1.1396 -1.0255
  424TMC3    H1 6383   0.574   4.226   1.471  1.0417  1.6884  0.5448
  424TMC3    H2 6384   0.831   3.974   1.691  1.3036  1.6754  1.5413
  424TMC3    C7 6385   0.601   4.085   1.702 -1.0297 -0.2388  0.1945
  424TMC3    C8 6386   1.018   3.951   1.535 -0.7046  0.4864  0.1162
  424TMC3    O1 6387   0.632   4.102   1.822  0.3304 -0.1324 -0.1124
  424TMC3    O2 6388   1.011   3.861   1.617 -0.0092 -0.7820  0.4077
  425MPD2     C 6389   4.278   3.041  17.440 -0.1668  0.3409  0.4128
  425MPD2    C1 6390   4.163   2.970  17.425 -0.5358 -0.8297  0.0830
  425MPD2    C2 6391   4.061   3.027  17.502  0.4451  0.1478 -0.2225
  425MPD2    C3 6392   4.072   3.135  17.580 -0.1896  0.4102 -0.1009
  425MPD2    C4 6393   4.190   3.203  17.594  0.3214  0.0727 -0.0355
  425MPD2    C5 6394   4.289   3.154  17.517 -0.2875  0.5502  0.4063
  425MPD2     H 6395   3.963   2.981  17.492  0.0191  1.0143 -0.1227
  425MPD2    H1 6396   4.202   3.290  17.657  0.6582 -1.3081  1.7908
  425MPD2    H2 6397   4.368   2.995  17.401 -0.4013 -0.2704  0.5938
  425MPD2    H3 6398   4.385   3.204  17.525  1.9543 -3.2376 -2.4034
  425MPD2     N 6399   3.953   3.165  17.650  0.5662  0.1684 -0.2252
  425MPD2    H5 6400   3.884   3.091  17.654  0.3674  0.3320 -0.6191
  425MPD2    N1 6401   4.158   2.845  17.361 -0.1484  0.4132  0.1271
  425MPD2    H7 6402   4.246   2.806  17.330 -1.6998 -2.3084 -0.8974
  426TMC3    C1 6403   4.068   2.637  17.312  0.6628 -0.0480  0.2112
  426TMC3    C2 6404   4.165   2.606  17.227  0.5677  0.2453 -0.2359
  426TMC3    C3 6405   4.173   2.474  17.193  0.6271  0.4265  0.3257
  426TMC3    C4 6406   3.981   2.550  17.375 -0.1998 -0.8221 -0.1480
  426TMC3    C5 6407   3.998   2.418  17.349  0.1263  0.3251 -0.2359
  426TMC3    C6 6408   4.095   2.386  17.257  0.7586 -0.1485 -0.2861
  426TMC3     C 6409   4.044   2.773  17.353  0.7114 -0.1050 -0.0969
  426TMC3     O 6410   3.931   2.801  17.380  0.6312 -0.7857  0.5552
  426TMC3     H 6411   4.215   2.686  17.173  0.9578 -0.6601 -1.2181
  426TMC3    H1 6412   3.910   2.584  17.450  2.8345  1.4158  1.6963
  426TMC3    H2 6413   4.116   2.283  17.231 -0.6448 -0.0853 -1.5933
  426TMC3    C7 6414   3.905   2.316  17.402 -0.7999  0.4819  0.3823
  426TMC3    C8 6415   4.266   2.435  17.091 -0.3497  0.5027  0.1135
  426TMC3    O1 6416   3.908   2.199  17.357  0.1644  0.1877  0.2231
  426TMC3    O2 6417   4.257   2.332  17.029  0.1771  0.3229 -0.1409
  427MPD2     C 6418   3.031   0.815  15.097  0.5062  1.1531  0.4208
  427MPD2    C1 6419   3.011   0.691  15.150 -0.4195  0.4373  0.0369
  427MPD2    C2 6420   2.884   0.670  15.200 -0.5167  0.6486 -0.4838
  427MPD2    C3 6421   2.778   0.753  15.180  0.0443  0.1366 -0.1661
  427MPD2    C4 6422   2.795   0.879  15.124 -0.7730  0.1026 -0.0301
  427MPD2    C5 6423   2.924   0.906  15.084  0.0789  0.2086  0.2751
  427MPD2     H 6424   2.866   0.573  15.244 -2.4990  2.4840  2.7720
  427MPD2    H1 6425   2.720   0.957  15.117  1.5224  2.3845  0.2457
  427MPD2    H2 6426   3.126   0.843  15.054  1.5923  0.4995  2.3904
  427MPD2    H3 6427   2.945   0.993  15.022  0.9790 -0.6968 -0.7053
  427MPD2     N 6428   2.644   0.721  15.200 -0.1206  0.5079 -0.3997
  427MPD2    H5 6429   2.577   0.788  15.165 -1.8456 -1.0928 -0.1487
  427MPD2    N1 6430   3.107   0.585  15.157 -0.2436  0.2553  0.2875
  427MPD2    H7 6431   3.084   0.511  15.222 -0.9679  0.2907  0.0741
  428TMC3    C1 6432   3.313   0.493  15.175 -0.5798  0.2575  0.3393
  428TMC3    C2 6433   3.260   0.370  15.201  0.8807  1.2524 -1.0523
  428TMC3    C3 6434   3.335   0.281  15.269  0.4598 -0.4347 -0.1670
  428TMC3    C4 6435   3.443   0.518  15.201  0.5784 -0.2680 -0.3654
  428TMC3    C5 6436   3.517   0.426  15.267  0.2627  0.3618  0.7647
  428TMC3    C6 6437   3.466   0.302  15.291 -0.4363 -0.5620 -0.1133
  428TMC3     C 6438   3.232   0.596  15.106 -0.2907 -0.2258  0.3956
  428TMC3     O 6439   3.288   0.662  15.018 -0.1419  0.1127 -0.5027
  428TMC3     H 6440   3.161   0.341  15.165  0.7009  0.5450  0.0310
  428TMC3    H1 6441   3.483   0.618  15.194 -1.2482  0.3361 -2.2511
  428TMC3    H2 6442   3.529   0.220  15.323 -0.5183 -0.7750 -0.4990
  428TMC3    C7 6443   3.645   0.460  15.320  0.1651  0.1765 -0.6615
  428TMC3    C8 6444   3.253   0.171  15.325 -1.2533 -0.3060 -0.1551
  428TMC3    O1 6445   3.692   0.378  15.398 -0.0449 -0.6363  0.4289
  428TMC3    O2 6446   3.131   0.181  15.315 -0.7023 -0.1463  0.6597
  429MPD2     C 6447   4.194   0.184   0.290 -0.2238 -0.1539  0.5146
  429MPD2    C1 6448   4.147   0.121   0.176 -0.0951 -0.0470 -0.1725
  429MPD2    C2 6449   4.161   0.178   0.048 -0.3248 -0.1095 -0.3700
  429MPD2    C3 6450   4.232   0.299   0.039  0.6629  0.5374  0.1093
  429MPD2    C4 6451   4.282   0.354   0.151 -0.2431 -0.1926  0.8091
  429MPD2    C5 6452   4.254   0.305   0.276  0.5973 -0.1722  0.5003
  429MPD2     H 6453   4.122   0.128  17.703 -0.7287 -0.5698  0.0675
  429MPD2    H1 6454   4.335   0.449   0.156 -2.9111  1.3875 -0.6272
  429MPD2    H2 6455   4.176   0.154   0.392  1.3342 -0.9049  0.5663
  429MPD2    H3 6456   4.287   0.358   0.365 -3.4520  1.7951  0.8328
  429MPD2     N 6457   4.246   0.355  17.654 -0.5290  0.6141  0.0385
  429MPD2    H5 6458   4.206   0.303  17.576  1.4520 -1.0724  0.1306
  429MPD2    N1 6459   4.071   4.735   0.191  0.0043  0.3335  0.1945
  429MPD2    H7 6460   4.040   4.703   0.100 -0.9101  1.8298 -0.0116
  430TMC3    C1 6461   4.313   0.484  17.473 -0.3687  0.0500  0.0581
  430TMC3    C2 6462   4.390   0.585  17.415  0.0096 -0.8315  0.6190
  430TMC3    C3 6463   4.404   0.603  17.284 -0.0228 -0.1595  0.3066
  430TMC3    C4 6464   4.256   0.388  17.391  0.1573  0.0263  0.5897
  430TMC3    C5 6465   4.264   0.412  17.261 -0.2768 -0.1602 -0.6164
  430TMC3    C6 6466   4.336   0.516  17.203 -0.2782  0.2359 -0.1904
  430TMC3     C 6467   4.313   0.477  17.617 -0.0125  0.0320 -0.6776
  430TMC3     O 6468   4.374   0.560  17.682 -0.0278 -0.1130 -0.0111
  430TMC3     H 6469   4.429   0.661  17.482 -1.6352  1.2975 -0.8354
  430TMC3    H1 6470   4.204   0.299  17.425 -0.3336  0.0969  0.0262
  430TMC3    H2 6471   4.345   0.524  17.095  1.6865 -0.5592 -0.0882
  430TMC3    C7 6472   4.246   0.297  17.176 -0.4569 -0.5598 -0.2657
  430TMC3    C8 6473   4.471   0.729  17.232  0.0653 -0.2188  0.2748
  430TMC3    O1 6474   4.259   0.190  17.239  0.1143 -0.2984 -0.1502
  430TMC3    O2 6475   4.488   0.824  17.306 -0.2951  0.7107  0.1668
  431MPD2     C 6476   0.624   1.307  12.509 -0.5757 -0.1248  0.0676
  431MPD2    C1 6477   0.723   1.318  12.597 -0.5764 -0.7256  0.3241
  431MPD2    C2 6478   0.803   1.216  12.637  0.5070 -0.1194 -0.3680
  431MPD2    C3 6479   0.784   1.087  12.594  0.5946  0.7136 -0.4814
  431MPD2    C4 6480   0.671   1.073  12.516 -0.4332 -0.0129  0.1512
  431MPD2    C5 6481   0.593   1.176  12.469 -0.3798 -0.2073  0.1191
  431MPD2     H 6482   0.887   1.241  12.701  0.0161  1.0762 -0.1952
  431MPD2    H1 6483   0.644   0.976  12.478 -0.1348 -0.3954  0.9152
  431MPD2    H2 6484   0.556   1.381  12.467 -1.0482  0.8836  2.6335
  431MPD2    H3 6485   0.511   1.157  12.401 -0.6320 -1.2782  0.7204
  431MPD2     N 6486   0.888   0.996  12.607 -0.7158 -0.2100 -0.4125
  431MPD2    H5 6487   0.965   1.029  12.664  1.0867 -0.7240 -2.5405
  431MPD2    N1 6488   0.765   1.445  12.636  0.3537 -0.5138  0.5802
  431MPD2    H7 6489   0.823   1.429  12.718 -0.1652  2.6423  1.5608
  432TMC3    C1 6490   0.996   0.782  12.583  0.4876 -0.2673 -0.7070
  432TMC3    C2 6491   1.052   0.722  12.477 -0.0549  0.1150  0.2592
  432TMC3    C3 6492   1.167   0.652  12.494  0.1058 -0.3046  0.9137
  432TMC3    C4 6493   1.060   0.798  12.704  0.9810 -0.3387 -0.2281
  432TMC3    C5 6494   1.177   0.723  12.717  0.0293 -0.6835  0.6395
  432TMC3    C6 6495   1.234   0.653  12.612  0.6787 -0.4317  0.1203
  432TMC3     C 6496   0.887   0.868  12.551  0.5870 -0.1692 -0.7532
  432TMC3     O 6497   0.810   0.814  12.476 -0.7339  0.3941 -0.2121
  432TMC3     H 6498   0.983   0.715  12.393 -1.0307 -0.4753  1.0962
  432TMC3    H1 6499   1.003   0.838  12.787 -3.1988 -1.7438 -2.4595
  432TMC3    H2 6500   1.322   0.592  12.631  0.2912 -0.6888  1.0875
  432TMC3    C7 6501   1.247   0.705  12.848  0.1434 -0.5878  0.0918
  432TMC3    C8 6502   1.233   0.606  12.370  0.1092 -0.0177  0.2112
  432TMC3    O1 6503   1.363   0.670  12.851 -0.7917  0.1154 -0.3048
  432TMC3    O2 6504   1.166   0.602  12.267  0.1235 -0.1566  0.1506
  433MPD2     C 6505   4.383   4.719  11.292 -1.3667  0.6643  0.4349
  433MPD2    C1 6506   4.427   4.600  11.352 -0.7456  0.1419 -0.0465
  433MPD2    C2 6507   4.501   4.608  11.468  0.3387 -0.0903  0.0074
  433MPD2    C3 6508   4.526   4.726  11.536  0.3746  0.0797 -1.0256
  433MPD2    C4 6509   4.493   0.104  11.470 -0.0208  0.8820  0.2675
  433MPD2    C5 6510   4.413   0.102  11.359  0.1024 -0.4757 -0.4505
  433MPD2     H 6511   4.542   4.518  11.512  0.3980 -0.1772 -0.2252
  433MPD2    H1 6512   4.514   0.202  11.511 -0.9657  1.9652 -1.7887
  433MPD2    H2 6513   4.324   4.727  11.202  1.0196 -0.5353 -1.2570
  433MPD2    H3 6514   4.378   0.198  11.321  1.1919  1.1713  2.6723
  433MPD2     N 6515   4.577   4.717  11.672 -0.3732  0.3287  0.5817
  433MPD2    H5 6516   4.594   4.622  11.704  1.2340 -0.1539 -1.7026
  433MPD2    N1 6517   4.404   4.471  11.304 -1.2963 -0.3127  0.0927
  433MPD2    H7 6518   4.460   4.391  11.330 -1.4299  0.0992  1.6350
  434TMC3    C1 6519   4.270   4.304  11.206  0.2488 -0.6601 -0.1449
  434TMC3    C2 6520   4.365   4.211  11.238 -0.3536 -0.2763 -0.2755
  434TMC3    C3 6521   4.331   4.081  11.262  0.0628  0.8032 -0.3247
  434TMC3    C4 6522   4.141   4.265  11.178 -0.2427 -0.2184 -0.5007
  434TMC3    C5 6523   4.113   4.128  11.200 -0.9509  0.0962  0.6069
  434TMC3    C6 6524   4.213   4.030  11.229 -0.3472  0.9753 -0.4796
  434TMC3     C 6525   4.287   4.445  11.233 -0.1830  0.8270  0.7373
  434TMC3     O 6526   4.188   4.518  11.212 -0.0607 -0.1142 -0.3727
  434TMC3     H 6527   4.463   4.242  11.273  0.1039 -1.9447 -0.0506
  434TMC3    H1 6528   4.058   4.334  11.171  0.5461  0.7296 -0.5216
  434TMC3    H2 6529   4.190   3.924  11.226  2.3191  0.3889  0.0545
  434TMC3    C7 6530   3.975   4.095  11.169 -0.0434  0.7540 -0.3325
  434TMC3    C8 6531   4.436   3.999  11.326  0.0735 -0.7022  0.0285
  434TMC3    O1 6532   3.896   4.182  11.142  0.1239  0.4811 -0.0227
  434TMC3    O2 6533   4.537   4.051  11.373  0.2176 -0.2366  0.6909
  435MPD2     C 6534   1.280   3.981  15.457 -0.0227 -1.3648  0.3404
  435MPD2    C1 6535   1.221   3.999  15.579  0.4248 -0.0758 -0.4500
  435MPD2    C2 6536   1.281   3.956  15.691  0.1834  0.4568 -0.7306
  435MPD2    C3 6537   1.399   3.881  15.685  0.2069 -0.3961 -0.1059
  435MPD2    C4 6538   1.462   3.870  15.562  1.2444  0.1156  0.3209
  435MPD2    C5 6539   1.401   3.912  15.450  0.6183  0.7180  0.3755
  435MPD2     H 6540   1.235   3.978  15.787 -0.1494 -0.9176 -0.5855
  435MPD2    H1 6541   1.558   3.822  15.545  0.9669 -0.6703  0.9904
  435MPD2    H2 6542   1.234   4.008  15.363  1.1338 -3.1344 -0.7336
  435MPD2    H3 6543   1.441   3.891  15.351  0.2029 -2.1304  0.8089
  435MPD2     N 6544   1.452   3.827  15.808  0.1715 -0.1648  0.2191
  435MPD2    H5 6545   1.390   3.828  15.888 -0.8513 -1.9371 -0.5396
  435MPD2    N1 6546   1.087   4.054  15.579 -0.1233  0.5614  0.1652
  435MPD2    H7 6547   1.045   4.050  15.671 -0.9170  0.2550 -0.2155
  436TMC3    C1 6548   0.752   4.231  15.673 -0.7549 -0.6489  0.2963
  436TMC3    C2 6549   0.881   4.205  15.637  0.2536  0.4233 -0.2071
  436TMC3    C3 6550   0.892   4.153  15.512 -0.1380 -0.6831 -0.1047
  436TMC3    C4 6551   0.641   4.213  15.596 -0.0451 -0.7562 -0.1004
  436TMC3    C5 6552   0.662   4.177  15.469  0.1407 -0.2051 -0.3839
  436TMC3    C6 6553   0.783   4.144  15.422 -0.2494 -0.4726  0.1623
  436TMC3     C 6554   0.727   4.304  15.800  0.1920 -0.8488  0.3515
  436TMC3     O 6555   0.620   4.290  15.857 -0.1964  0.3515  0.2192
  436TMC3     H 6556   0.965   4.209  15.706 -0.8734  0.5249  1.1766
  436TMC3    H1 6557   0.539   4.242  15.619 -0.5990 -2.5736 -0.2469
  436TMC3    H2 6558   0.782   4.110  15.319  0.1562  1.1741 -0.3825
  436TMC3    C7 6559   0.549   4.116  15.394  0.1316 -0.1205  0.6494
  436TMC3    C8 6560   1.010   4.089  15.472  0.1729 -0.4310  0.4077
  436TMC3    O1 6561   0.553   4.084  15.276 -0.5523 -0.6146  0.2079
  436TMC3    O2 6562   1.020   4.067  15.352 -0.3745  0.8556 -0.0831
  437TMC3    C1 6563   0.019   1.923  12.069  0.0942 -0.1114  0.1111
  437TMC3    C2 6564   4.692   1.947  11.950  0.5424  0.5675 -0.2302
  437TMC3    C3 6565   0.025   2.026  11.854 -0.1816 -0.7141 -0.3546
  437TMC3    C4 6566   0.146   1.968  12.095 -0.0564  0.7519 -0.0043
  437TMC3    C5 6567   0.208   2.042  11.995  0.5063 -0.4013  0.9170
  437TMC3    C6 6568   0.155   2.070  11.869  0.8268  0.5854  0.6608
  437TMC3     C 6569   4.664   1.868  12.167 -0.0835  0.2911 -0.8907
  437TMC3     O 6570   4.567   1.804  12.128 -0.0930  0.1476 -0.4628
  437TMC3     H 6571   4.586   1.931  11.936  0.7135 -1.9010  1.3450
  437TMC3    H1 6572   0.188   1.936  12.189  1.2651  0.4974 -0.6811
  437TMC3    H2 6573   0.198   2.139  11.797 -0.0106 -1.0064 -1.3732
  437TMC3    C7 6574   0.335   2.104  12.018  0.1405 -0.0598  0.2542
  437TMC3    C8 6575   4.696   2.063  11.732 -0.3296 -0.3012  0.4251
  437TMC3    O1 6576   0.378   2.179  11.928  0.1103  0.3657  0.1653
  437TMC3    O2 6577   0.015   2.149  11.666 -0.4832 -0.0344  0.6607
  438MPD2     C 6578   1.825   2.095  16.687  0.3071  0.2348 -0.2697
  438MPD2    C1 6579   1.903   2.016  16.763  0.6626  0.8529  0.2610
  438MPD2    C2 6580   1.901   2.031  16.898 -0.5572 -1.1415 -0.4758
  438MPD2    C3 6581   1.814   2.118  16.959  0.5132  1.0039  0.5859
  438MPD2    C4 6582   1.735   2.194  16.881  0.4322  0.6084  0.5746
  438MPD2    C5 6583   1.730   2.181  16.744 -0.6911 -0.1642 -0.5622
  438MPD2     H 6584   1.971   1.965  16.949  1.5369  2.0519  0.8048
  438MPD2    H1 6585   1.675   2.265  16.937 -1.0948 -0.6061  0.4935
  438MPD2    H2 6586   1.836   2.087  16.579  1.7512  0.9031 -0.1703
  438MPD2    H3 6587   1.676   2.244  16.674  0.2047  3.0753  1.6623
  438MPD2     N 6588   1.805   2.113  17.102  0.4984  0.4829 -0.0152
  438MPD2    H5 6589   1.744   2.182  17.144  1.0551  0.1524  1.3296
  438MPD2    N1 6590   2.002   1.928  16.712  0.4285 -0.0003 -0.1056
  438MPD2    H7 6591   2.056   1.891  16.788 -0.4427 -1.5857 -0.2602
  439TMC3    C1 6592   2.120   1.777  16.576  0.7765  0.8253  0.7257
  439TMC3    C2 6593   2.176   1.753  16.453  0.1120  1.1903  0.1286
  439TMC3    C3 6594   2.247   1.634  16.443  0.4516  0.6010 -0.0733
  439TMC3    C4 6595   2.125   1.690  16.678 -0.7307  0.3459 -0.1584
  439TMC3    C5 6596   2.209   1.578  16.661 -1.1910 -0.4042 -0.3505
  439TMC3    C6 6597   2.264   1.543  16.543 -0.1893 -0.2103  0.2946
  439TMC3     C 6598   2.025   1.882  16.582 -0.5446 -0.0616 -0.3556
  439TMC3     O 6599   1.959   1.904  16.483 -0.2344  0.1423  0.3080
  439TMC3     H 6600   2.177   1.831  16.377 -1.0412  1.5576  0.4873
  439TMC3    H1 6601   2.087   1.707  16.778  0.5479 -0.8389  0.5280
  439TMC3    H2 6602   2.334   1.461  16.533 -1.4177 -1.4126  1.6749
  439TMC3    C7 6603   2.242   1.503  16.781  0.2174 -0.3957 -0.6551
  439TMC3    C8 6604   2.362   1.646  16.365  0.1301  0.1585 -0.1769
  439TMC3    O1 6605   2.152   1.506  16.863  0.5635  0.2568 -0.3499
  439TMC3    O2 6606   2.459   1.580  16.399 -0.0817  0.6491  0.0152
  440MPD2     C 6607   1.085   2.178  14.950 -0.2221 -0.7193  0.1544
  440MPD2    C1 6608   1.115   2.217  15.084 -0.5618 -0.5314 -0.0748
  440MPD2    C2 6609   1.121   2.115  15.176  0.6855 -0.4748 -0.5902
  440MPD2    C3 6610   1.106   1.978  15.147 -1.1333 -0.3831  0.3429
  440MPD2    C4 6611   1.073   1.947  15.016 -0.4885 -0.2014  0.2506
  440MPD2    C5 6612   1.069   2.048  14.928  0.5165  0.1575 -0.5942
  440MPD2     H 6613   1.138   2.149  15.278 -2.1412  1.3765 -0.7332
  440MPD2    H1 6614   1.059   1.845  14.982  0.7987 -0.3639  0.2134
  440MPD2    H2 6615   1.080   2.254  14.873  1.4420 -0.8484 -0.0804
  440MPD2    H3 6616   1.047   2.029  14.823  0.8917 -1.4299 -0.3826
  440MPD2     N 6617   1.113   1.877  15.246  1.0803 -0.0111 -0.0604
  440MPD2    H5 6618   1.086   1.787  15.209  0.4014  0.0304  0.3319
  440MPD2    N1 6619   1.130   2.352  15.139 -0.6446  0.8722 -0.2744
  440MPD2    H7 6620   1.152   2.354  15.238  0.4628  0.4504 -0.5146
  441TMC3    C1 6621   1.122   1.786  15.461 -0.2512 -0.2206  0.3039
  441TMC3    C2 6622   1.165   1.805  15.592  0.4824 -0.2293 -0.1561
  441TMC3    C3 6623   1.125   1.716  15.687  0.1634 -0.0705  0.5560
  441TMC3    C4 6624   1.043   1.681  15.420 -0.2372  0.3221 -0.2906
  441TMC3    C5 6625   0.999   1.593  15.517  0.2944  0.1528 -0.3374
  441TMC3    C6 6626   1.049   1.610  15.648  0.4679 -0.1804 -0.0928
  441TMC3     C 6627   1.166   1.888  15.375 -0.2480  0.3866  0.2522
  441TMC3     O 6628   1.229   1.978  15.426  0.0789  0.0267 -0.6370
  441TMC3     H 6629   1.243   1.878  15.613  1.0576 -0.1309 -2.6819
  441TMC3    H1 6630   1.008   1.670  15.318 -0.2118 -3.3594  0.1098
  441TMC3    H2 6631   1.036   1.539  15.729  1.3569  2.9844  2.8356
  441TMC3    C7 6632   0.938   1.473  15.462 -0.0583  0.8601  0.1861
  441TMC3    C8 6633   1.100   1.775  15.819  0.5371  0.0728  1.0739
  441TMC3    O1 6634   0.973   1.446  15.347 -0.0485  0.1084  0.0127
  441TMC3    O2 6635   1.081   1.700  15.913  0.3789  0.2016  0.1094
  442MPD2     C 6636   3.985   2.615  16.426 -0.1121  0.2140  0.1056
  442MPD2    C1 6637   3.905   2.555  16.517  0.2874  0.1177 -0.1014
  442MPD2    C2 6638   3.869   2.422  16.502 -0.0283 -0.1848  0.0763
  442MPD2    C3 6639   3.914   2.343  16.392 -0.7234  0.0835  0.3343
  442MPD2    C4 6640   3.998   2.404  16.304  0.1310  0.2270  0.1854
  442MPD2    C5 6641   4.026   2.538  16.314  0.5844  0.7676 -0.5144
  442MPD2     H 6642   3.804   2.373  16.573 -0.2739 -1.3079 -0.9233
  442MPD2    H1 6643   4.042   2.350  16.221 -0.0368  1.7615 -0.9214
  442MPD2    H2 6644   4.044   2.705  16.440 -0.1961  0.3052 -0.1240
  442MPD2    H3 6645   4.108   2.569  16.251  0.9401  0.4477 -0.2115
  442MPD2     N 6646   3.871   2.207  16.368 -0.5970 -0.0631  0.5738
  442MPD2    H5 6647   3.893   2.172  16.276  1.4556 -0.1956  1.0925
  442MPD2    N1 6648   3.848   2.622  16.626  0.0484 -0.2514 -0.5505
  442MPD2    H7 6649   3.782   2.569  16.682 -0.7685  0.4224 -0.8721
  443TMC3    C1 6650   3.784   2.786  16.780 -0.4442 -0.3394  0.3852
  443TMC3    C2 6651   3.786   2.915  16.809  0.0300 -0.4995 -0.2833
  443TMC3    C3 6652   3.674   2.963  16.870 -0.3883 -0.2071 -0.0938
  443TMC3    C4 6653   3.679   2.699  16.816 -0.1417  0.7896 -0.2421
  443TMC3    C5 6654   3.580   2.754  16.895  0.2183  0.4698  0.0329
  443TMC3    C6 6655   3.574   2.886  16.925 -0.5025  0.2893 -0.8557
  443TMC3     C 6656   3.872   2.751  16.668 -0.1344 -0.0391  0.4406
  443TMC3     O 6657   3.955   2.828  16.626  0.3045  0.2216 -0.0933
  443TMC3     H 6658   3.865   2.975  16.765  0.8915  1.1346  3.5607
  443TMC3    H1 6659   3.675   2.591  16.811  0.6081  0.8858 -2.6966
  443TMC3    H2 6660   3.485   2.927  16.970 -0.0928  1.0745 -0.7685
  443TMC3    C7 6661   3.474   2.668  16.950  0.1923 -0.5293 -0.2752
  443TMC3    C8 6662   3.636   3.107  16.866 -0.0449  0.0964 -0.1826
  443TMC3    O1 6663   3.455   2.563  16.890  0.4675  0.0874  0.1962
  443TMC3    O2 6664   3.582   3.151  16.970  0.3108  0.2948 -0.1709
  444MPD2     C 6665   3.888   2.499  17.008 -0.2152 -0.2084  0.7699
  444MPD2    C1 6666   3.835   2.379  17.034  0.3315  0.2700 -0.1672
  444MPD2    C2 6667   3.884   2.268  16.969 -0.0386  0.0981  0.1208
  444MPD2    C3 6668   3.985   2.285  16.868 -0.6670 -0.3300 -0.6831
  444MPD2    C4 6669   4.033   2.414  16.836 -0.4128 -0.6304  0.2477
  444MPD2    C5 6670   3.991   2.516  16.917 -0.5838  0.4903  0.3900
  444MPD2     H 6671   3.845   2.170  16.994 -1.3334  0.2130 -1.3714
  444MPD2    H1 6672   4.116   2.437  16.770 -0.8233  0.1394  0.0066
  444MPD2    H2 6673   3.865   2.589  17.064  0.3528  0.3708  0.0706
  444MPD2    H3 6674   4.024   2.615  16.886 -0.1191  0.4459  0.7518
  444MPD2     N 6675   4.037   2.170  16.814 -0.4845  0.4949 -0.2355
  444MPD2    H5 6676   3.991   2.084  16.843  2.6983 -1.2167 -0.2958
  444MPD2    N1 6677   3.728   2.355  17.121  0.1539  0.4343 -0.0492
  444MPD2    H7 6678   3.702   2.259  17.140 -1.5536  0.8324 -0.3761
  445TMC3    C1 6679   4.213   2.031  16.755  1.2133  0.2680  0.1407
  445TMC3    C2 6680   4.146   1.913  16.737 -0.5384 -0.4514  0.9634
  445TMC3    C3 6681   4.217   1.797  16.739  0.4770  0.1870  0.0349
  445TMC3    C4 6682   4.346   2.037  16.761 -0.9450  0.5585  0.4629
  445TMC3    C5 6683   4.412   1.921  16.745 -0.2138  0.1998 -0.5479
  445TMC3    C6 6684   4.354   1.800  16.738  0.0993 -0.6977 -0.5385
  445TMC3     C 6685   4.153   2.158  16.751 -0.1970 -0.0793  0.3283
  445TMC3     O 6686   4.221   2.243  16.695 -0.8499 -0.2586 -0.1826
  445TMC3     H 6687   4.039   1.905  16.716 -0.4222  0.3993  0.0405
  445TMC3    H1 6688   4.394   2.135  16.763 -0.8671  0.5946 -1.9941
  445TMC3    H2 6689   4.410   1.716  16.700  0.8396 -0.5127  0.1493
  445TMC3    C7 6690   4.558   1.921  16.744  0.2902  0.5055 -0.0899
  445TMC3    C8 6691   4.151   1.679  16.689  0.2312 -0.2468 -0.5228
  445TMC3    O1 6692   4.625   2.009  16.697  0.0414 -0.1941 -0.3819
  445TMC3    O2 6693   4.029   1.682  16.668  0.1351 -0.2307  0.3003
  446MPD2     C 6694   4.312   3.736  11.740 -0.6192  0.4109 -0.0415
  446MPD2    C1 6695   4.269   3.845  11.663 -0.4325  0.0239 -0.2756
  446MPD2    C2 6696   4.346   3.961  11.671  0.6145 -0.2761 -0.3048
  446MPD2    C3 6697   4.472   3.960  11.727 -0.4535 -0.2587  0.0219
  446MPD2    C4 6698   4.519   3.854  11.791 -0.3867  0.5673 -0.9628
  446MPD2    C5 6699   4.436   3.744  11.799  0.5886 -0.6113  0.2108
  446MPD2     H 6700   4.317   4.045  11.609 -0.8090  0.5861  1.5460
  446MPD2    H1 6701   4.613   3.851  11.844 -0.7115  1.3691 -0.3316
  446MPD2    H2 6702   4.262   3.640  11.744 -0.0139  0.0973 -0.0655
  446MPD2    H3 6703   4.463   3.654  11.852 -0.7899 -0.6474  0.8713
  446MPD2     N 6704   4.548   4.080  11.711 -0.1026  0.0268  0.0359
  446MPD2    H5 6705   4.511   4.151  11.649  1.1601 -1.6637 -2.6620
  446MPD2    N1 6706   4.153   3.849  11.581  0.7723  0.4960  0.1265
  446MPD2    H7 6707   4.127   3.938  11.539  2.0625 -0.0375 -1.8011
  447TMC3    C1 6708   0.019   4.204  11.686  0.4830 -0.0892 -0.4391
  447TMC3    C2 6709   4.713   4.267  11.575  0.3638  0.1579  0.5420
  447TMC3    C3 6710   0.069   4.337  11.508 -0.1937 -0.4741 -0.5145
  447TMC3    C4 6711   0.153   4.205  11.724 -0.6575  0.5586 -0.2397
  447TMC3    C5 6712   0.231   4.297  11.661  0.1508 -0.7101 -0.3110
  447TMC3    C6 6713   0.192   4.360  11.548 -0.0525 -0.1958 -0.1573
  447TMC3     C 6714   4.684   4.092  11.739 -0.4896  0.1696  0.2358
  447TMC3     O 6715   0.011   4.021  11.818 -0.3008  0.8393  0.4011
  447TMC3     H 6716   4.615   4.239  11.538  1.1951 -0.7674 -0.9832
  447TMC3    H1 6717   0.191   4.147  11.807 -1.8860 -0.9752 -0.7555
  447TMC3    H2 6718   0.252   4.436  11.498  1.9641 -1.2910  0.5717
  447TMC3    C7 6719   0.361   4.323  11.716 -0.0688 -0.1702 -0.2844
  447TMC3    C8 6720   0.035   4.342  11.363  0.3242  0.0215 -0.4700
  447TMC3    O1 6721   0.459   4.350  11.643  0.2722 -0.6204  0.1720
  447TMC3    O2 6722   4.655   4.347  11.328  0.4006  0.3205  0.7160
  448TMC3    C1 6723   1.710   3.393  17.157  0.8255 -0.6245 -0.2889
  448TMC3    C2 6724   1.698   3.256  17.156 -0.6667 -0.6284 -0.0555
  448TMC3    C3 6725   1.787   3.179  17.226  0.0472 -0.1063 -0.1561
  448TMC3    C4 6726   1.813   3.446  17.224 -0.2488 -0.0829 -0.0136
  448TMC3    C5 6727   1.889   3.369  17.309 -0.2988  0.1185  0.1984
  448TMC3    C6 6728   1.882   3.229  17.310  0.3672  1.0247  0.4001
  448TMC3     C 6729   1.702   3.431  17.015  0.1541  0.0940  0.2600
  448TMC3     O 6730   1.686   3.334  16.939  0.5080  0.2711 -0.0121
  448TMC3     H 6731   1.614   3.208  17.106 -0.7472  0.5739 -1.0963
  448TMC3    H1 6732   1.849   3.546  17.204 -0.8131 -0.2035 -1.6370
  448TMC3    H2 6733   1.955   3.168  17.362 -0.9407  1.0351  2.2559
  448TMC3    C7 6734   1.964   3.435  17.405  0.2342 -0.1826 -1.0028
  448TMC3    C8 6735   1.815   3.053  17.161 -0.4300 -0.4344  0.1651
  448TMC3    O1 6736   2.026   3.538  17.378 -0.3246 -0.3858 -0.4936
  448TMC3    O2 6737   1.879   2.964  17.216 -0.1992 -0.2898  0.3873
  449MPD2     C 6738   3.719   1.757  14.306 -0.4740 -0.9558 -0.0122
  449MPD2    C1 6739   3.639   1.868  14.292  0.1761  0.2082  0.8091
  449MPD2    C2 6740   3.506   1.851  14.271  0.3596  0.5822 -1.2020
  449MPD2    C3 6741   3.448   1.726  14.258  0.0290 -0.1129  0.3822
  449MPD2    C4 6742   3.525   1.613  14.280 -0.0911  0.0301  0.0599
  449MPD2    C5 6743   3.661   1.632  14.313  0.2730 -0.2832  0.1754
  449MPD2     H 6744   3.442   1.935  14.249 -0.9409  0.5014  2.2140
  449MPD2    H1 6745   3.491   1.510  14.271  0.6834 -0.3043  0.9418
  449MPD2    H2 6746   3.827   1.764  14.312 -0.5965  3.5387 -3.2885
  449MPD2    H3 6747   3.727   1.549  14.333 -2.0087 -2.0584  0.2613
  449MPD2     N 6748   3.310   1.717  14.234  0.0468  0.1389  0.2790
  449MPD2    H5 6749   3.263   1.805  14.214  3.4044  1.6443 -0.9279
  449MPD2    N1 6750   3.685   1.998  14.311  0.0305 -0.2089  0.5706
  449MPD2    H7 6751   3.606   2.062  14.303 -1.2838 -1.9357 -0.4343
  450TMC3    C1 6752   3.816   2.188  14.305 -0.3477 -0.0819 -0.4320
  450TMC3    C2 6753   3.869   2.249  14.188 -0.2707  0.2824  0.0670
  450TMC3    C3 6754   3.798   2.350  14.130  0.0336 -0.0426 -0.8122
  450TMC3    C4 6755   3.703   2.245  14.356 -0.3070 -0.0043 -0.3711
  450TMC3    C5 6756   3.631   2.343  14.291  0.5319  0.5670  0.4115
  450TMC3    C6 6757   3.679   2.406  14.176 -0.2613  0.7064  0.4748
  450TMC3     C 6758   3.816   2.045  14.313  0.1111 -0.3875  0.2351
  450TMC3     O 6759   3.925   1.985  14.317 -0.2927 -0.5844  0.2916
  450TMC3     H 6760   3.962   2.212  14.149 -1.0467 -0.5493 -0.9747
  450TMC3    H1 6761   3.660   2.194  14.441 -2.1546  1.9082 -0.1652
  450TMC3    H2 6762   3.617   2.471  14.116 -0.9884  1.0863  1.6449
  450TMC3    C7 6763   3.490   2.301  14.285  0.3799 -0.3170  1.3101
  450TMC3    C8 6764   3.836   2.403  14.003  0.3403  0.5276  0.3661
  450TMC3    O1 6765   3.475   2.188  14.330  0.2041 -0.2323 -0.4165
  450TMC3    O2 6766   3.833   2.522  14.000 -0.4199 -0.1145  0.2522
  451MPD2     C 6767   4.732   0.436   1.552 -0.0629 -0.8411  0.0049
  451MPD2    C1 6768   4.720   0.514   1.441 -0.0756 -0.6557 -0.3134
  451MPD2    C2 6769   0.048   0.471   1.326 -0.3405 -0.0024  0.5733
  451MPD2    C3 6770   0.126   0.347   1.328  0.0579  0.0308  0.6701
  451MPD2    C4 6771   0.114   0.267   1.439 -0.6298  0.4358  0.5484
  451MPD2    C5 6772   0.061   0.317   1.553  0.0416  0.2550  0.4898
  451MPD2     H 6773   0.041   0.529   1.234 -1.4454  0.0638  0.6932
  451MPD2    H1 6774   0.147   0.165   1.424  0.0862  0.8410 -0.6495
  451MPD2    H2 6775   4.680   0.462   1.643 -0.1915 -1.6632  0.1678
  451MPD2    H3 6776   0.062   0.272   1.651 -0.2646 -0.0802  0.3401
  451MPD2     N 6777   0.195   0.296   1.210 -0.0957  0.2931 -0.0227
  451MPD2    H5 6778   0.228   0.201   1.210 -0.3410  0.2070 -0.8898
  451MPD2    N1 6779   4.660   0.643   1.453  0.3529  0.0935  0.2614
  451MPD2    H7 6780   4.620   0.659   1.545  1.1518  4.1717 -0.1027
  452TMC3    C1 6781   0.284   0.275   0.988  0.5579 -0.5722  0.2966
  452TMC3    C2 6782   0.254   0.137   0.992 -0.3199 -0.5975 -0.5183
  452TMC3    C3 6783   0.327   0.058   0.902  0.5823 -0.2624 -0.1659
  452TMC3    C4 6784   0.366   0.330   0.900  0.3080 -0.1533  0.7094
  452TMC3    C5 6785   0.417   0.247   0.803  0.3319  0.3584  0.1536
  452TMC3    C6 6786   0.408   0.111   0.807  0.6398 -0.7570  0.5492
  452TMC3     C 6787   0.214   0.359   1.092  0.5905  0.2727 -0.8591
  452TMC3     O 6788   0.188   0.473   1.067  0.1602  0.5670 -0.6670
  452TMC3     H 6789   0.170   0.095   1.048  0.7546 -1.4357  0.4707
  452TMC3    H1 6790   0.381   0.438   0.895  0.1613 -0.2818 -2.0497
  452TMC3    H2 6791   0.456   0.051   0.731 -0.4569  0.6106 -1.2215
  452TMC3    C7 6792   0.471   0.311   0.683  0.3256  0.0171 -0.1371
  452TMC3    C8 6793   0.281   4.656   0.876  0.1499 -0.5378  0.2124
  452TMC3    O1 6794   0.462   0.435   0.684  0.2795  0.2170  0.2162
  452TMC3    O2 6795   0.333   4.611   0.776  0.0909  1.0183  0.6844
  453TMC3    C1 6796   1.732   3.069  12.453  1.0749 -0.0573  0.0065
  453TMC3    C2 6797   1.643   3.001  12.531  0.8406  1.2330  0.1054
  453TMC3    C3 6798   1.568   2.900  12.473  0.4988  0.1337  0.0007
  453TMC3    C4 6799   1.751   3.024  12.328  0.0832 -0.0416  0.1965
  453TMC3    C5 6800   1.679   2.920  12.270  0.2981  0.5312 -0.6220
  453TMC3    C6 6801   1.590   2.851  12.343 -1.1341 -0.4003 -0.5056
  453TMC3     C 6802   1.850   3.139  12.513 -0.3630  0.1097 -0.5473
  453TMC3     O 6803   1.953   3.134  12.444  0.0052  0.0297  0.0076
  453TMC3     H 6804   1.625   3.037  12.631  0.1899  0.4952  0.2597
  453TMC3    H1 6805   1.812   3.082  12.260  0.8845  0.5994  1.4556
  453TMC3    H2 6806   1.528   2.775  12.297 -1.5829 -1.8884  2.5062
  453TMC3    C7 6807   1.736   2.866  12.151 -0.1810 -0.4442 -0.5094
  453TMC3    C8 6808   1.504   2.809  12.562 -0.3613 -0.2239 -0.4675
  453TMC3    O1 6809   1.826   2.932  12.106  0.0285 -0.3245 -0.3014
  453TMC3    O2 6810   1.479   2.846  12.676  0.1517  0.1274  0.5461
  454MPD2     C 6811   0.169   1.894  16.269 -0.3124  0.7465 -0.0403
  454MPD2    C1 6812   0.089   1.896  16.155 -0.7422  0.0267 -0.6703
  454MPD2    C2 6813   0.035   2.023  16.114 -0.1803 -0.4613 -0.0154
  454MPD2    C3 6814   0.035   2.133  16.197  1.1153  0.3229  0.5348
  454MPD2    C4 6815   0.118   2.123  16.310  0.0242 -0.3754 -0.4772
  454MPD2    C5 6816   0.190   2.008  16.342 -0.1934 -0.1561  0.2816
  454MPD2     H 6817   4.702   2.027  16.030 -0.2065  0.8342  0.0695
  454MPD2    H1 6818   0.115   2.200  16.386 -0.1197 -1.5517  0.7300
  454MPD2    H2 6819   0.209   1.799  16.302 -0.1971  1.2339  1.2300
  454MPD2    H3 6820   0.240   2.013  16.439  0.6606  0.9284 -0.2192
  454MPD2     N 6821   4.684   2.247  16.186  0.0305 -0.3783  0.2915
  454MPD2    H5 6822   4.692   2.309  16.267  4.1889 -0.1105 -0.3108
  454MPD2    N1 6823   0.060   1.781  16.079  0.1324 -0.0050  0.5568
  454MPD2    H7 6824   4.733   1.787  15.999  1.0955 -1.6898 -0.3394
  455TMC3    C1 6825   4.468   2.297  16.167 -0.0382 -0.5190 -0.6829
  455TMC3    C2 6826   4.478   2.394  16.259  0.3319  0.7795  0.0263
  455TMC3    C3 6827   4.392   2.389  16.367  0.7685 -0.0501 -0.6366
  455TMC3    C4 6828   4.379   2.191  16.181  0.0053 -0.0437  0.0564
  455TMC3    C5 6829   4.312   2.178  16.300  0.3934  0.9690 -0.3866
  455TMC3    C6 6830   4.314   2.279  16.398 -0.3470  0.0253  0.5039
  455TMC3     C 6831   4.582   2.263  16.091  0.3183 -0.0449 -0.7521
  455TMC3     O 6832   4.563   2.196  15.992  0.2212 -0.2063  0.4562
  455TMC3     H 6833   4.558   2.465  16.241  0.0093  1.4854  1.3724
  455TMC3    H1 6834   4.395   2.103  16.119 -1.4799  0.0653 -0.4831
  455TMC3    H2 6835   4.242   2.273  16.478 -1.3802  3.2088 -0.1886
  455TMC3    C7 6836   4.324   2.043  16.343  0.0648 -0.6626  0.1157
  455TMC3    C8 6837   4.403   2.502  16.458 -0.4165 -0.0514 -0.3499
  455TMC3    O1 6838   4.227   1.990  16.395  0.1616 -0.0142  0.5398
  455TMC3    O2 6839   4.463   2.599  16.407  0.5507  0.0028 -0.4461
  456MPD2     C 6840   2.445   2.141  16.191  0.1679  0.4228 -0.7850
  456MPD2    C1 6841   2.484   2.077  16.310  0.1828  0.3249 -0.0728
  456MPD2    C2 6842   2.408   2.093  16.420 -0.1493 -0.4354 -0.0595
  456MPD2    C3 6843   2.296   2.172  16.435 -0.4109  0.1906  0.3643
  456MPD2    C4 6844   2.256   2.235  16.316 -0.5125  0.4867  0.0136
  456MPD2    C5 6845   2.329   2.217  16.202 -0.1351 -0.0158 -0.2194
  456MPD2     H 6846   2.443   2.045  16.510  1.2206  1.1020  0.2308
  456MPD2    H1 6847   2.167   2.297  16.303 -0.7782  0.1981  0.4748
  456MPD2    H2 6848   2.498   2.131  16.096  0.9068 -1.0129 -0.2257
  456MPD2    H3 6849   2.299   2.274  16.115 -0.8833 -1.9915 -1.2489
  456MPD2     N 6850   2.239   2.187  16.567 -0.3811 -0.2751 -0.3352
  456MPD2    H5 6851   2.295   2.146  16.640 -0.7441 -1.0612 -0.5028
  456MPD2    N1 6852   2.597   1.990  16.301 -0.1455 -0.2259  0.2370
  456MPD2    H7 6853   2.645   1.994  16.211 -0.7368 -1.4354 -0.1234
  457TMC3    C1 6854   2.104   2.290  16.736 -0.0929 -0.0644 -0.0979
  457TMC3    C2 6855   2.016   2.387  16.759  0.3513 -0.8929  0.7088
  457TMC3    C3 6856   1.995   2.421  16.889 -0.2352 -0.8924  0.3590
  457TMC3    C4 6857   2.178   2.220  16.828 -0.4144  0.5473  0.9027
  457TMC3    C5 6858   2.166   2.273  16.952 -0.2935  0.0044 -0.0621
  457TMC3    C6 6859   2.073   2.360  16.986  0.2453 -0.0195  0.1910
  457TMC3     C 6860   2.134   2.272  16.594  0.1424 -0.3184 -0.0642
  457TMC3     O 6861   2.080   2.345  16.511 -0.1291  0.5555  0.0097
  457TMC3     H 6862   1.973   2.442  16.676 -0.8786 -0.7994  1.4107
  457TMC3    H1 6863   2.245   2.136  16.809 -0.3911  0.9234 -0.6689
  457TMC3    H2 6864   2.046   2.370  17.091 -3.6561 -1.3626 -0.6918
  457TMC3    C7 6865   2.263   2.228  17.044  0.4882 -0.3184 -0.8076
  457TMC3    C8 6866   1.952   2.553  16.924 -0.7466  0.6449  0.2515
  457TMC3    O1 6867   2.306   2.110  17.035  0.3651 -0.6882 -0.0091
  457TMC3    O2 6868   1.936   2.573  17.044  0.1843  0.4864  0.3400
  458MPD2     C 6869   0.744   2.179  12.298  0.5608 -0.2913  0.4303
  458MPD2    C1 6870   0.656   2.120  12.381 -0.7092 -0.1598 -0.9786
  458MPD2    C2 6871   0.537   2.071  12.324 -0.2253  0.4264  0.3015
  458MPD2    C3 6872   0.507   2.104  12.189 -0.1696  0.2615  0.2011
  458MPD2    C4 6873   0.599   2.191  12.121 -0.4056 -0.7422  0.0734
  458MPD2    C5 6874   0.722   2.216  12.170  0.1399 -0.4043  0.2743
  458MPD2     H 6875   0.457   2.026  12.380  0.7108  0.3570  1.5768
  458MPD2    H1 6876   0.587   2.229  12.021  0.1007  0.4745  0.4763
  458MPD2    H2 6877   0.841   2.217  12.329 -0.1947  1.5070  0.5559
  458MPD2    H3 6878   0.793   2.270  12.107  0.1665  0.3757  0.9808
  458MPD2     N 6879   0.380   2.065  12.141  0.4924 -0.0518 -0.0492
  458MPD2    H5 6880   0.325   2.001  12.199  2.3601 -1.0369  0.6305
  458MPD2    N1 6881   0.698   2.110  12.518  0.1504 -0.1444  0.7623
  458MPD2    H7 6882   0.776   2.171  12.541  0.8189 -1.0712  0.9426
  459TMC3    C1 6883   0.673   2.043  12.746  0.6960  0.3042  0.2649
  459TMC3    C2 6884   0.744   2.154  12.781  0.2755  0.0268  0.0674
  459TMC3    C3 6885   0.778   2.172  12.911  0.4215 -0.5258  0.0213
  459TMC3    C4 6886   0.635   1.949  12.833  0.0731  0.7156  0.2549
  459TMC3    C5 6887   0.660   1.979  12.966  0.1373  0.6630 -0.0161
  459TMC3    C6 6888   0.735   2.082  13.010 -0.0630 -0.0754 -0.4044
  459TMC3     C 6889   0.641   2.019  12.608  0.0466 -0.4050 -0.4946
  459TMC3     O 6890   0.575   1.920  12.574  0.4249  0.1932  0.3540
  459TMC3     H 6891   0.768   2.235  12.713  0.7415  0.2274  0.4649
  459TMC3    H1 6892   0.587   1.858  12.798  0.9612 -0.2075  1.4440
  459TMC3    H2 6893   0.778   2.083  13.110  3.8111  2.2456 -2.0722
  459TMC3    C7 6894   0.633   1.868  13.061  0.6267  0.3363  0.4038
  459TMC3    C8 6895   0.905   2.233  12.928  0.3093  0.3876  0.1813
  459TMC3    O1 6896   0.621   1.751  13.024  0.0001  0.4964  0.1187
  459TMC3    O2 6897   0.996   2.207  12.847 -0.1597  0.7763 -0.4945
  460MPD2     C 6898   0.237   4.195  11.098  0.3296  0.3472  0.3818
  460MPD2    C1 6899   0.135   4.263  11.149 -0.3706 -0.3659  0.0576
  460MPD2    C2 6900   0.029   4.299  11.069  0.6916  0.4009  0.0614
  460MPD2    C3 6901   0.028   4.258  10.937 -0.4006 -0.5950  0.4887
  460MPD2    C4 6902   0.132   4.183  10.887 -0.9472 -0.4296  0.6043
  460MPD2    C5 6903   0.244   4.159  10.964 -0.0599  1.1279 -0.2758
  460MPD2     H 6904   4.678   4.351  11.107  0.6147 -0.6889  1.3874
  460MPD2    H1 6905   0.132   4.146  10.786 -2.3081 -1.8171  1.1152
  460MPD2    H2 6906   0.325   4.165  11.154  1.1342 -0.3079 -1.2341
  460MPD2    H3 6907   0.331   4.106  10.927 -0.2733  2.1717 -2.2656
  460MPD2     N 6908   4.653   4.294  10.862 -0.4248  0.7171 -0.1992
  460MPD2    H5 6909   4.579   4.341  10.913 -3.1253 -3.5414 -0.3151
  460MPD2    N1 6910   0.139   4.297  11.289  0.5565 -0.2436 -0.0205
  460MPD2    H7 6911   0.219   4.257  11.337 -0.9598 -1.4125  1.5248
  461TMC3    C1 6912   4.494   4.313  10.694  0.5265  0.9248 -0.0254
  461TMC3    C2 6913   4.423   4.208  10.639  0.0897  0.4410  0.0283
  461TMC3    C3 6914   4.311   4.237  10.563  0.6587 -0.7348 -0.3898
  461TMC3    C4 6915   4.475   4.440  10.655  0.1673 -0.3455 -0.4676
  461TMC3    C5 6916   4.368   4.461  10.575 -0.2577  0.4792  0.2742
  461TMC3    C6 6917   4.288   4.365  10.527  0.6387  0.4481 -0.1138
  461TMC3     C 6918   4.631   4.282  10.727 -0.4424  0.0404 -0.4078
  461TMC3     O 6919   4.705   4.248  10.640  0.0403  0.3866 -0.1919
  461TMC3     H 6920   4.453   4.107  10.666 -1.3190 -0.1559 -0.5883
  461TMC3    H1 6921   4.535   4.518  10.700 -0.4782  0.4136 -0.9416
  461TMC3    H2 6922   4.208   4.394  10.460  0.5685 -0.2850 -0.3491
  461TMC3    C7 6923   4.341   4.593  10.504  0.3006  0.1848  0.1355
  461TMC3    C8 6924   4.271   4.136  10.469  0.2698  0.3411  0.3651
  461TMC3    O1 6925   4.260   4.598  10.412 -0.2901  0.5466 -0.1032
  461TMC3    O2 6926   4.338   4.031  10.467  0.1965  0.0796  0.5019
  462TMC3    C1 6927   4.438   4.566   1.126 -0.3694  0.1602  0.2840
  462TMC3    C2 6928   4.515   4.635   1.037  0.0459 -0.7544 -0.1850
  462TMC3    C3 6929   4.472   4.630   0.906  0.2784  0.6001 -0.2856
  462TMC3    C4 6930   4.328   4.499   1.091  0.0216 -0.4891 -0.9489
  462TMC3    C5 6931   4.287   4.498   0.960  0.6925  0.1289  0.4483
  462TMC3    C6 6932   4.357   4.571   0.870  0.3375  0.2475  0.2909
  462TMC3     C 6933   4.480   4.569   1.265 -0.2721  0.8531 -0.1532
  462TMC3     O 6934   4.514   4.672   1.320 -0.1691  0.4544 -0.4366
  462TMC3     H 6935   4.614   4.660   1.073 -0.3753  0.6467  0.0033
  462TMC3    H1 6936   4.263   4.449   1.161  1.2905  0.2028  0.7098
  462TMC3    H2 6937   4.335   4.570   0.764 -2.3888 -1.5317  0.8725
  462TMC3    C7 6938   4.143   4.483   0.932  0.2729 -0.1579 -0.6082
  462TMC3    C8 6939   4.570   4.673   0.801 -0.2363 -0.0296 -0.4012
  462TMC3    O1 6940   4.088   4.395   0.989  0.1428  0.1527  0.0374
  462TMC3    O2 6941   4.580   4.606   0.698  0.3160 -0.2766 -0.0751
  463MPD2     C 6942   0.434   2.523   1.362  0.4237  0.3244  0.1370
  463MPD2    C1 6943   0.434   2.636   1.442 -0.0846 -0.1226 -0.3550
  463MPD2    C2 6944   0.556   2.678   1.494  0.1077 -0.2737 -0.5598
  463MPD2    C3 6945   0.668   2.625   1.442 -0.6254 -0.3892  0.5866
  463MPD2    C4 6946   0.670   2.527   1.347 -0.0700 -0.6945  0.9229
  463MPD2    C5 6947   0.547   2.469   1.316 -0.8873 -0.0985 -0.2954
  463MPD2     H 6948   0.556   2.758   1.567 -0.0463 -0.9964  0.2283
  463MPD2    H1 6949   0.759   2.482   1.304 -0.5761  0.6158 -1.4789
  463MPD2    H2 6950   0.344   2.470   1.330 -1.0485  1.0308  3.0772
  463MPD2    H3 6951   0.541   2.378   1.258  1.5313 -0.3634 -0.1616
  463MPD2     N 6952   0.794   2.667   1.485 -0.0923  0.4539  0.4745
  463MPD2    H5 6953   0.875   2.626   1.441 -0.0509  0.4510  0.5535
  463MPD2    N1 6954   0.322   2.698   1.498  0.4925  0.4425  0.2936
  463MPD2    H7 6955   0.340   2.764   1.573 -1.2428 -0.1954  1.2682
  464TMC3    C1 6956   0.095   2.746   1.544 -0.0393  0.1543  0.0406
  464TMC3    C2 6957   0.124   2.879   1.580  0.2757  0.3624 -0.0964
  464TMC3    C3 6958   0.025   2.957   1.624 -0.1948  0.1066  0.0367
  464TMC3    C4 6959   4.703   2.703   1.542 -1.1221 -0.7230  0.3703
  464TMC3    C5 6960   4.604   2.782   1.594  0.3234  0.3722  0.3045
  464TMC3    C6 6961   4.637   2.908   1.641  0.0116  0.5674 -0.2999
  464TMC3     C 6962   0.196   2.669   1.466 -0.7916  0.0794  0.6286
  464TMC3     O 6963   0.155   2.586   1.385  0.4241  0.3323 -0.9044
  464TMC3     H 6964   0.225   2.917   1.570  0.8460 -0.5015  2.3597
  464TMC3    H1 6965   4.685   2.601   1.512 -1.8914 -0.6030  0.4247
  464TMC3    H2 6966   4.565   2.974   1.689 -0.9987  0.3563 -1.5367
  464TMC3    C7 6967   4.500   2.712   1.673 -0.5942  0.1395  0.2498
  464TMC3    C8 6968   0.056   3.095   1.662 -0.5029 -0.2356 -0.5740
  464TMC3    O1 6969   4.475   2.753   1.784 -0.1806 -0.0507  0.1482
  464TMC3    O2 6970   0.153   3.156   1.601  0.1609 -0.7008 -0.2026
  465MPD2     C 6971   1.521   2.469  17.025  0.3464  0.5423 -0.5317
  465MPD2    C1 6972   1.389   2.436  17.032  0.0969 -0.0730  0.3974
  465MPD2    C2 6973   1.299   2.471  16.943 -0.9218  0.3554  0.0147
  465MPD2    C3 6974   1.330   2.545  16.828 -0.0115 -0.1929  0.3369
  465MPD2    C4 6975   1.466   2.569  16.808  0.3586  0.5885 -0.9928
  465MPD2    C5 6976   1.556   2.524  16.900  0.2258  0.2085  0.3584
  465MPD2     H 6977   1.195   2.445  16.962 -0.7007 -1.1726 -0.8563
  465MPD2    H1 6978   1.516   2.630  16.734 -2.1067  0.0397 -3.0878
  465MPD2    H2 6979   1.593   2.445  17.103 -0.7928  1.1555  0.6950
  465MPD2    H3 6980   1.661   2.552  16.894  1.0986 -2.6097  2.2075
  465MPD2     N 6981   1.228   2.576  16.739 -0.0005  0.1245  0.6072
  465MPD2    H5 6982   1.132   2.551  16.762  1.1772 -3.8328  1.1484
  465MPD2    N1 6983   1.340   2.367  17.148 -0.2214 -0.4926 -0.1099
  465MPD2    H7 6984   1.241   2.353  17.165  0.0474 -1.6664  0.4941
  466TMC3    C1 6985   0.913   2.616  16.466 -1.0127 -0.3875  0.3837
  466TMC3    C2 6986   0.911   2.729  16.387 -0.6456  0.1016  0.3568
  466TMC3    C3 6987   1.011   2.823  16.402  0.1895  0.0930 -0.1489
  466TMC3    C4 6988   1.023   2.583  16.544  0.0364 -0.2133  0.5161
  466TMC3    C5 6989   1.123   2.679  16.550  0.3778  0.3759 -0.6436
  466TMC3    C6 6990   1.114   2.801  16.480 -0.3041  0.2393  0.2213
  466TMC3     C 6991   0.790   2.582  16.536  0.3953 -0.1942  0.2875
  466TMC3     O 6992   0.789   2.491  16.620 -0.1900 -0.1825 -0.2920
  466TMC3     H 6993   0.824   2.766  16.335 -1.1860  0.1121  1.2627
  466TMC3    H1 6994   1.034   2.491  16.601 -1.0749 -0.5299  0.2121
  466TMC3    H2 6995   1.192   2.876  16.489  1.4488 -1.4203 -0.9507
  466TMC3    C7 6996   1.240   2.663  16.631  0.1011 -0.4261  0.3636
  466TMC3    C8 6997   0.959   2.956  16.391  0.1799  1.1761  0.2201
  466TMC3    O1 6998   1.334   2.730  16.592  0.1827  0.1752  0.7988
  466TMC3    O2 6999   0.909   2.985  16.284  0.0669  0.5206 -0.5206
  467TMC3    C1 7000   2.686   1.252  14.313  1.0779 -0.0792  0.8259
  467TMC3    C2 7001   2.777   1.326  14.241 -0.1959 -0.3075  0.5463
  467TMC3    C3 7002   2.734   1.444  14.178 -0.3889 -0.3708 -0.8866
  467TMC3    C4 7003   2.558   1.288  14.335  0.1375 -0.3653  0.1198
  467TMC3    C5 7004   2.514   1.399  14.268 -0.2158  0.2910 -1.0159
  467TMC3    C6 7005   2.603   1.479  14.199 -0.2302  0.0850  0.4650
  467TMC3     C 7006   2.747   1.136  14.377  0.0769  0.1469 -0.0392
  467TMC3     O 7007   2.866   1.137  14.396  0.2645  0.7115 -0.5188
  467TMC3     H 7008   2.882   1.298  14.238  0.1193  0.9274  0.0277
  467TMC3    H1 7009   2.490   1.236  14.402 -0.5525  1.3078  0.7074
  467TMC3    H2 7010   2.573   1.567  14.142  1.3827  0.7180  0.5969
  467TMC3    C7 7011   2.377   1.440  14.269 -0.1809  0.5396 -0.2714
  467TMC3    C8 7012   2.792   1.485  14.058 -0.3372 -0.2838  0.2560
  467TMC3    O1 7013   2.360   1.559  14.240 -0.2796 -0.5444  1.1233
  467TMC3    O2 7014   2.734   1.572  13.997  0.3789  0.4421  0.2263
  468MPD2     C 7015   1.639   3.712  10.989  0.0842  0.2189 -0.4864
  468MPD2    C1 7016   1.754   3.670  11.059 -0.1632 -0.3834  0.2961
  468MPD2    C2 7017   1.836   3.563  11.016  0.6826 -0.3323 -0.4376
  468MPD2    C3 7018   1.782   3.484  10.914  0.3927  0.0940  1.0020
  468MPD2    C4 7019   1.659   3.519  10.853  0.2159 -1.0266  0.5823
  468MPD2    C5 7020   1.596   3.637  10.884  0.4908  0.4208 -0.2930
  468MPD2     H 7021   1.928   3.531  11.062  1.7635  1.7069 -1.1593
  468MPD2    H1 7022   1.616   3.465  10.770 -0.8603  2.6889 -1.2601
  468MPD2    H2 7023   1.581   3.800  11.011 -0.2127 -0.7151  2.4571
  468MPD2    H3 7024   1.513   3.679  10.828 -0.0313  2.6296  2.1842
  468MPD2     N 7025   1.835   3.359  10.874 -0.2705  0.2442 -0.1962
  468MPD2    H5 7026   1.767   3.295  10.832  0.6178 -0.1481 -1.0463
  468MPD2    N1 7027   1.789   3.740  11.185 -0.0174 -0.0047 -0.9434
  468MPD2    H7 7028   1.854   3.688  11.243  1.5527  0.2319 -2.5124
  469TMC3    C1 7029   1.770   3.907  11.353  0.6864  0.6804  0.1578
  469TMC3    C2 7030   1.842   3.826  11.440  1.0556 -0.0877  0.6704
  469TMC3    C3 7031   1.864   3.864  11.575 -0.0234  0.1490 -0.5959
  469TMC3    C4 7032   1.705   4.019  11.405  1.1615  0.4650 -0.1641
  469TMC3    C5 7033   1.718   4.051  11.535 -0.5408 -0.1176 -0.1038
  469TMC3    C6 7034   1.798   3.978  11.621 -0.1865  0.2921  0.1789
  469TMC3     C 7035   1.744   3.870  11.214 -0.2357 -0.0603 -0.1918
  469TMC3     O 7036   1.678   3.943  11.141 -0.3859  0.4210 -0.0961
  469TMC3     H 7037   1.910   3.748  11.411  2.8264  1.5977  0.2561
  469TMC3    H1 7038   1.646   4.084  11.340  0.2033 -0.6049 -0.3596
  469TMC3    H2 7039   1.797   4.002  11.727 -1.2567 -0.7488  0.4066
  469TMC3    C7 7040   1.644   4.168  11.578  0.2578 -0.7279 -0.5219
  469TMC3    C8 7041   1.978   3.801  11.634  0.6050 -0.1622  0.0923
  469TMC3    O1 7042   1.559   4.215  11.500  0.1267 -0.3425  0.1899
  469TMC3    O2 7043   2.005   3.682  11.603 -0.2457 -0.7235 -0.1623
  470TMC3    C1 7044   3.730   0.363   0.621  0.5840  0.1035  0.4331
  470TMC3    C2 7045   3.663   0.476   0.662 -0.1057  0.1111 -0.3155
  470TMC3    C3 7046   3.708   0.539   0.779  0.1034 -0.4172  0.0507
  470TMC3    C4 7047   3.830   0.308   0.699 -0.7614 -0.6964 -0.1862
  470TMC3    C5 7048   3.863   0.369   0.818 -0.3955 -0.2100  0.6706
  470TMC3    C6 7049   3.804   0.483   0.857  0.3135  0.0599 -0.1516
  470TMC3     C 7050   3.659   0.272   0.528  0.1030  1.0994 -0.1071
  470TMC3     O 7051   3.561   0.216   0.578 -0.3131 -0.8498  0.1763
  470TMC3     H 7052   3.584   0.518   0.601 -0.5579 -0.0109  0.1912
  470TMC3    H1 7053   3.882   0.220   0.662 -0.1602 -0.0128 -0.9736
  470TMC3    H2 7054   3.844   0.533   0.944  0.9705  0.1261 -0.4887
  470TMC3    C7 7055   3.922   0.280   0.911 -0.0705  0.1853  0.2038
  470TMC3    C8 7056   3.635   0.655   0.823  0.2257 -0.6970  0.8062
  470TMC3    O1 7057   3.980   0.177   0.876 -0.0956  0.1985 -0.3620
  470TMC3    O2 7058   3.688   0.725   0.909 -0.0325 -0.2429 -1.0620
  471MPD2     C 7059   4.547   1.034  16.818 -0.0107  0.3678 -0.2993
  471MPD2    C1 7060   4.515   0.903  16.788 -0.8029  0.0980  0.3591
  471MPD2    C2 7061   4.483   0.807  16.881 -0.0477 -0.2345 -0.5153
  471MPD2    C3 7062   4.507   0.833  17.015 -0.6731 -0.3988  0.3597
  471MPD2    C4 7063   4.540   0.966  17.050 -0.2291 -0.1833 -1.2258
  471MPD2    C5 7064   4.556   1.064  16.950 -0.2880 -0.2262 -0.1551
  471MPD2     H 7065   4.444   0.709  16.854 -1.4606 -0.4798  2.4152
  471MPD2    H1 7066   4.559   0.995  17.152 -0.0591 -0.2463 -1.2391
  471MPD2    H2 7067   4.563   1.112  16.744 -0.0456  1.6501  1.0593
  471MPD2    H3 7068   4.581   1.165  16.979 -0.8424 -0.5297  1.3992
  471MPD2     N 7069   4.482   0.723  17.098 -0.5353 -0.1251 -0.2097
  471MPD2    H5 7070   4.463   0.630  17.060 -0.6437  0.2521 -1.0913
  471MPD2    N1 7071   4.482   0.871  16.654 -0.8110 -0.2072 -0.5703
  471MPD2    H7 7072   4.482   0.945  16.584 -0.1889 -1.1660 -1.5741
  472TMC3    C1 7073   4.415   0.726  16.475  0.1301  0.2575 -0.1821
  472TMC3    C2 7074   4.319   0.824  16.443 -0.1412  0.1266 -0.2788
  472TMC3    C3 7075   4.215   0.770  16.367 -0.9591 -0.1232 -0.2344
  472TMC3    C4 7076   4.417   0.593  16.437  0.1558 -1.2539 -0.2379
  472TMC3    C5 7077   4.309   0.551  16.363  0.5245 -1.1185  0.7027
  472TMC3    C6 7078   4.213   0.641  16.317 -0.3502  0.5440  0.0204
  472TMC3     C 7079   4.470   0.743  16.609 -0.2807  0.8882  0.4594
  472TMC3     O 7080   4.517   0.639  16.660 -0.1638 -0.2413 -0.0430
  472TMC3     H 7081   4.310   0.919  16.494 -1.3545  0.3253 -0.8555
  472TMC3    H1 7082   4.495   0.522  16.463  0.5632 -0.8971 -0.4750
  472TMC3    H2 7083   4.116   0.608  16.279  0.5427 -0.1232 -1.6649
  472TMC3    C7 7084   4.297   0.408  16.353  0.0684 -0.3488 -0.0788
  472TMC3    C8 7085   4.087   0.835  16.376  0.3970 -0.2189 -0.2266
  472TMC3    O1 7086   4.363   0.338  16.429  0.2727 -1.1526  0.0765
  472TMC3    O2 7087   4.077   0.960  16.361 -0.3358  0.3858  0.2698
  473MPD2     C 7088   4.397   3.143  14.074  0.3844 -0.7664  0.3649
  473MPD2    C1 7089   4.266   3.183  14.099  0.2059  0.0052  0.4812
  473MPD2    C2 7090   4.245   3.272  14.200 -0.4041 -0.4884  0.3351
  473MPD2    C3 7091   4.350   3.314  14.288 -0.1461  0.1342  0.1887
  473MPD2    C4 7092   4.477   3.276  14.265  0.4658  0.3703 -0.6887
  473MPD2    C5 7093   4.498   3.192  14.153  0.4554  0.2902  0.0476
  473MPD2     H 7094   4.142   3.298  14.222  0.6722  2.8970  1.3471
  473MPD2    H1 7095   4.560   3.298  14.331 -0.6200  0.4116  0.6816
  473MPD2    H2 7096   4.423   3.083  13.987  2.3164 -0.6499  0.8752
  473MPD2    H3 7097   4.601   3.160  14.140  0.3070  0.2692 -1.1291
  473MPD2     N 7098   4.323   3.402  14.394 -0.0224  0.4387 -0.2197
  473MPD2    H5 7099   4.395   3.418  14.463  1.5861 -0.0406 -1.7991
  473MPD2    N1 7100   4.153   3.150  14.016  0.1910 -0.2491 -0.5601
  473MPD2    H7 7101   4.079   3.214  14.046 -0.1004 -1.7786  2.0332
  474TMC3    C1 7102   4.236   3.593  14.510 -0.0090 -0.1915 -0.1844
  474TMC3    C2 7103   4.135   3.689  14.524  0.5396 -0.2734  1.1754
  474TMC3    C3 7104   4.162   3.801  14.594  0.0629  0.1499  1.3247
  474TMC3    C4 7105   4.355   3.608  14.576 -0.3367 -0.4567 -0.5248
  474TMC3    C5 7106   4.371   3.711  14.659 -0.3088  0.8455 -0.1630
  474TMC3    C6 7107   4.289   3.819  14.651 -0.3983  0.4421  0.4092
  474TMC3     C 7108   4.222   3.497  14.394  0.2112  0.1880  0.0151
  474TMC3     O 7109   4.112   3.498  14.334 -0.3863  0.2980  0.0129
  474TMC3     H 7110   4.046   3.684  14.462  1.3625  0.2552 -0.0391
  474TMC3    H1 7111   4.431   3.539  14.543 -0.1436 -0.5236  0.0503
  474TMC3    H2 7112   4.308   3.911  14.705  0.6883 -0.6278  1.8647
  474TMC3    C7 7113   4.507   3.748  14.692 -0.3363 -0.4450 -0.0731
  474TMC3    C8 7114   4.060   3.897  14.598 -0.2039  0.0071  0.1346
  474TMC3    O1 7115   4.579   3.717  14.600  0.4232 -0.3528 -0.6117
  474TMC3    O2 7116   3.947   3.854  14.587 -0.5816  0.2048  0.0035
  475MPD2     C 7117   2.881   1.537  10.634 -0.7117 -0.7295 -0.6131
  475MPD2    C1 7118   2.953   1.651  10.644  0.6353 -0.3535  0.1066
  475MPD2    C2 7119   2.919   1.742  10.739 -0.0243  0.4844  0.5342
  475MPD2    C3 7120   2.793   1.733  10.798 -0.9360  0.1979 -0.4419
  475MPD2    C4 7121   2.708   1.632  10.762 -1.0582  0.9286 -0.1499
  475MPD2    C5 7122   2.751   1.533  10.678  0.3470 -0.1795  0.1357
  475MPD2     H 7123   2.982   1.826  10.766  0.5721  1.0640 -2.6664
  475MPD2    H1 7124   2.603   1.635  10.788 -0.9145  1.0480  0.4122
  475MPD2    H2 7125   2.916   1.458  10.569 -1.3152 -0.3385 -1.4110
  475MPD2    H3 7126   2.684   1.450  10.659 -1.5594  1.0718  1.4853
  475MPD2     N 7127   2.756   1.843  10.880  0.6346 -0.3956  0.3730
  475MPD2    H5 7128   2.820   1.922  10.878  0.1232  0.0021 -0.2294
  475MPD2    N1 7129   3.068   1.667  10.559  0.1708  0.2828 -0.6174
  475MPD2    H7 7130   3.111   1.579  10.532 -1.4791  0.2021 -2.9082
  476TMC3    C1 7131   3.043   1.897  10.525 -0.2525  0.0966 -0.6812
  476TMC3    C2 7132   2.925   1.884  10.455 -0.7065  0.3502  0.2672
  476TMC3    C3 7133   2.837   1.988  10.475 -0.2748  0.4297 -0.6212
  476TMC3    C4 7134   3.087   2.006  10.592  0.5964  0.1185 -0.1384
  476TMC3    C5 7135   2.993   2.101  10.603 -0.1069 -0.1550 -0.7103
  476TMC3    C6 7136   2.869   2.099  10.549  0.0711 -0.1644 -0.6925
  476TMC3     C 7137   3.133   1.788  10.542  0.1048  0.0299 -0.1485
  476TMC3     O 7138   3.245   1.810  10.505 -0.0697  0.0729  0.0670
  476TMC3     H 7139   2.899   1.789  10.411  0.5274  0.2115 -0.1606
  476TMC3    H1 7140   3.177   2.008  10.652 -0.1932  0.2088  1.0541
  476TMC3    H2 7141   2.801   2.175  10.586  1.5436 -0.5226  2.7744
  476TMC3    C7 7142   2.983   2.148  10.735 -0.3154  0.1702  0.2157
  476TMC3    C8 7143   2.693   1.963  10.481 -0.1847  0.3403 -0.1208
  476TMC3    O1 7144   2.934   2.067  10.815 -0.1691  0.3895  0.2490
  476TMC3    O2 7145   2.628   2.031  10.559 -0.4719  0.2793  0.7279
  477MPD2     C 7146   0.782   3.335  11.668 -0.4616 -0.3632 -0.5182
  477MPD2    C1 7147   0.724   3.376  11.791 -0.1588 -0.1687  0.1832
  477MPD2    C2 7148   0.758   3.307  11.903  0.0847  0.6241 -0.0489
  477MPD2    C3 7149   0.859   3.224  11.911 -0.4584  0.2201  0.5413
  477MPD2    C4 7150   0.926   3.192  11.797  1.1645  0.3073 -0.1491
  477MPD2    C5 7151   0.886   3.248  11.680  0.1319  0.1270  0.7723
  477MPD2     H 7152   0.699   3.322  11.993 -1.0133 -0.5164 -0.5881
  477MPD2    H1 7153   1.011   3.125  11.798  0.3603 -0.6735  1.2583
  477MPD2    H2 7154   0.757   3.382  11.574  0.6662  0.5871 -0.3372
  477MPD2    H3 7155   0.936   3.217  11.589 -0.2063  1.4599  0.1452
  477MPD2     N 7156   0.871   3.148  12.032 -0.2637  0.3258 -0.8666
  477MPD2    H5 7157   0.899   3.050  12.030 -1.1219  0.1056 -2.9736
  477MPD2    N1 7158   0.614   3.461  11.786  0.1530  0.4830  0.1980
  477MPD2    H7 7159   0.586   3.487  11.692  0.0625 -0.3178  0.0013
  478TMC3    C1 7160   0.440   3.614  11.867 -1.0147 -0.7988  0.5874
  478TMC3    C2 7161   0.421   3.706  11.960  0.0114  0.1661 -0.1567
  478TMC3    C3 7162   0.310   3.786  11.955  0.5728 -0.2942  0.5474
  478TMC3    C4 7163   0.349   3.593  11.766  0.6657 -0.4976 -0.8817
  478TMC3    C5 7164   0.234   3.672  11.766 -0.1387 -0.1223  0.3334
  478TMC3    C6 7165   0.212   3.773  11.859 -0.9171  0.6948 -0.2611
  478TMC3     C 7166   0.543   3.512  11.897  0.3097  0.4156 -0.1366
  478TMC3     O 7167   0.555   3.499  12.020  0.0242 -0.3110  0.3454
  478TMC3     H 7168   0.484   3.703  12.049  1.8783 -0.2646 -1.5022
  478TMC3    H1 7169   0.373   3.508  11.703 -1.7429 -1.8330  0.0047
  478TMC3    H2 7170   0.125   3.838  11.859  1.0442  3.3715 -2.2367
  478TMC3    C7 7171   0.121   3.620  11.686 -0.2037 -0.2039 -0.2662
  478TMC3    C8 7172   0.298   3.875  12.069 -0.1583 -0.4716 -0.2946
  478TMC3    O1 7173   0.122   3.502  11.651 -0.2654 -0.1128 -0.3898
  478TMC3    O2 7174   0.360   3.835  12.168 -0.0233 -0.2478  0.1526
  479MPD2     C 7175   3.903   0.720  15.240 -1.0378  0.1532 -0.4259
  479MPD2    C1 7176   3.842   0.615  15.314 -0.4721 -0.4468 -0.3215
  479MPD2    C2 7177   3.892   0.582  15.441 -0.5783  0.3570  0.1504
  479MPD2    C3 7178   3.983   0.666  15.504 -0.3189 -0.5580  0.2966
  479MPD2    C4 7179   4.043   0.767  15.425  0.1691  0.2116 -0.5436
  479MPD2    C5 7180   4.011   0.780  15.294 -0.8334  0.0332 -0.2477
  479MPD2     H 7181   3.845   0.504  15.499  0.2722 -0.6640 -0.5275
  479MPD2    H1 7182   4.135   0.810  15.463  0.6999 -1.3557 -0.0602
  479MPD2    H2 7183   3.880   0.741  15.136 -1.1895  1.1257 -0.1896
  479MPD2    H3 7184   4.052   0.864  15.238  2.0887  0.2361  2.1472
  479MPD2     N 7185   4.028   0.649  15.636  0.8741 -0.5275  0.3201
  479MPD2    H5 7186   4.114   0.697  15.660  2.5603 -4.2041  1.5646
  479MPD2    N1 7187   3.720   0.560  15.259  0.6292  0.0777 -0.2737
  479MPD2    H7 7188   3.694   0.606  15.173 -0.9130  0.8307  0.5978
  480TMC3    C1 7189   3.638   0.488  15.854 -0.8172  0.2492  0.5669
  480TMC3    C2 7190   3.565   0.598  15.831 -0.2823 -0.1453 -0.1692
  480TMC3    C3 7191   3.626   0.681  15.749 -0.3027  0.0551 -0.1316
  480TMC3    C4 7192   3.769   0.469  15.820 -0.5209 -0.3358  0.4761
  480TMC3    C5 7193   3.830   0.565  15.742  0.2172 -0.1612 -0.1630
  480TMC3    C6 7194   3.759   0.679  15.711  0.5244 -0.0684 -0.1875
  480TMC3     C 7195   3.590   0.404  15.953  0.6395  0.0959  0.0300
  480TMC3     O 7196   3.477   0.358  15.943 -0.4502  0.0692  0.4263
  480TMC3     H 7197   3.470   0.621  15.877  0.0319  1.8917 -0.5071
  480TMC3    H1 7198   3.821   0.381  15.857  0.5247  0.8039  1.7047
  480TMC3    H2 7199   3.808   0.764  15.664 -0.0375 -1.2824 -2.9428
  480TMC3    C7 7200   3.979   0.566  15.740 -0.2775 -0.2280  0.1093
  480TMC3    C8 7201   3.534   0.737  15.659 -0.5788 -0.1813 -1.0728
  480TMC3    O1 7202   4.043   0.502  15.817 -0.0455  0.0227 -0.0750
  480TMC3    O2 7203   3.424   0.689  15.665 -0.3178  0.4435 -0.2728
  481MPD2     C 7204   0.757   0.201  14.398 -0.0156  0.0598  0.3329
  481MPD2    C1 7205   0.654   0.114  14.432  0.6272  0.3167  0.4190
  481MPD2    C2 7206   0.660   0.040  14.549  0.2317  0.4700 -0.6389
  481MPD2    C3 7207   0.768   0.053  14.637 -0.5597 -0.1220  0.1766
  481MPD2    C4 7208   0.882   0.119  14.597  0.0641 -0.3273 -0.4413
  481MPD2    C5 7209   0.866   0.192  14.478 -0.7308  0.4215 -0.0972
  481MPD2     H 7210   0.577   4.715  14.583  0.4050  0.6638  0.1335
  481MPD2    H1 7211   0.969   0.113  14.661 -0.2947  1.8911  0.2378
  481MPD2    H2 7212   0.748   0.266  14.312  2.1207  0.6035  0.5327
  481MPD2    H3 7213   0.947   0.247  14.432  0.2105 -1.0335 -0.1410
  481MPD2     N 7214   0.769   4.725  14.762  0.0523 -0.1427  0.0106
  481MPD2    H5 7215   0.861   4.718  14.805  0.2509  0.4735 -0.3096
  481MPD2    N1 7216   0.539   0.115  14.354  0.3658 -0.5947 -0.1132
  481MPD2    H7 7217   0.535   0.183  14.279  1.2623 -0.5380 -0.1090
  482TMC3    C1 7218   0.327   0.070  14.268 -0.2847 -0.5535 -0.2052
  482TMC3    C2 7219   0.257   4.706  14.205 -0.2768  0.2650 -0.0908
  482TMC3    C3 7220   0.172   0.006  14.101  0.3739 -0.3689 -0.0916
  482TMC3    C4 7221   0.327   0.203  14.229  0.4207  0.3535  0.0826
  482TMC3    C5 7222   0.235   0.233  14.131 -0.0580 -0.0428  0.1975
  482TMC3    C6 7223   0.157   0.140  14.066  0.1613 -0.2941 -0.5191
  482TMC3     C 7224   0.433   0.031  14.359 -0.1415 -0.4196  0.0245
  482TMC3     O 7225   0.419   4.657  14.415 -0.4843  0.4582 -0.4292
  482TMC3     H 7226   0.274   4.601  14.223 -0.7018 -0.2071 -2.4461
  482TMC3    H1 7227   0.382   0.288  14.266  0.4476  0.0698  0.7027
  482TMC3    H2 7228   0.082   0.175  13.995  1.6338  1.4796 -1.1953
  482TMC3    C7 7229   0.212   0.372  14.100 -0.3764 -0.0389 -0.5047
  482TMC3    C8 7230   0.125   4.635  14.012 -0.0191 -0.0437  0.0223
  482TMC3    O1 7231   0.096   0.401  14.068  0.5647 -0.4346  0.3790
  482TMC3    O2 7232   0.151   4.521  14.047  0.1697  0.6282  0.5681
  483TMC3    C1 7233   2.369   3.726   0.692 -0.7226  1.1355  0.1967
  483TMC3    C2 7234   2.473   3.812   0.711  0.4279  0.2388  0.8701
  483TMC3    C3 7235   2.537   3.808   0.833  0.0569 -0.9003 -1.0359
  483TMC3    C4 7236   2.316   3.647   0.798 -0.0820 -0.1214 -0.4675
  483TMC3    C5 7237   2.382   3.646   0.918 -0.7062 -1.3663 -0.4772
  483TMC3    C6 7238   2.498   3.717   0.932 -0.4396  0.5994 -0.3846
  483TMC3     C 7239   2.380   3.680   0.562 -0.0469  0.0775  0.0635
  483TMC3     O 7240   2.405   3.762   0.474  0.2282  0.4422  0.6630
  483TMC3     H 7241   2.516   3.876   0.634  0.8826 -0.3693  0.6151
  483TMC3    H1 7242   2.244   3.569   0.775 -0.3266  0.3325 -1.2528
  483TMC3    H2 7243   2.558   3.700   1.020 -0.6967  1.2987 -0.0691
  483TMC3    C7 7244   2.376   3.532   0.999 -0.4732 -1.0079 -0.5257
  483TMC3    C8 7245   2.649   3.899   0.849  0.0971 -0.7585 -0.1482
  483TMC3    O1 7246   2.481   3.486   1.041 -0.5280 -0.1617 -0.0000
  483TMC3    O2 7247   2.683   3.977   0.760 -0.0600 -1.0354  0.3798
  484MPD2     C 7248   0.983   2.537  13.112  0.2313 -0.5030  0.7662
  484MPD2    C1 7249   1.012   2.422  13.042 -0.2274  0.2164 -0.0227
  484MPD2    C2 7250   1.145   2.402  13.006 -0.2130 -0.0332  0.1052
  484MPD2    C3 7251   1.251   2.468  13.064  0.3042 -0.1233 -0.0027
  484MPD2    C4 7252   1.226   2.577  13.143 -0.4596  0.5286  0.4380
  484MPD2    C5 7253   1.088   2.613  13.154 -0.6569  0.3155  0.1049
  484MPD2     H 7254   1.166   2.321  12.937  0.4787  0.7592 -0.6051
  484MPD2    H1 7255   1.306   2.636  13.186 -0.4401  0.2969  0.7217
  484MPD2    H2 7256   0.879   2.555  13.138  0.2367 -1.3965  1.4038
  484MPD2    H3 7257   1.068   2.704  13.210 -0.6618 -1.1036  2.4180
  484MPD2     N 7258   1.388   2.429  13.034  0.2814 -0.2295 -0.2745
  484MPD2    H5 7259   1.458   2.489  13.076  0.7227  0.2928 -1.7384
  484MPD2    N1 7260   0.900   2.340  13.009 -0.4048  0.0200  0.3366
  484MPD2    H7 7261   0.808   2.376  13.031  0.6571  3.3618 -0.6456
  485TMC3    C1 7262   1.567   2.306  12.955 -0.4836 -0.2334 -0.2168
  485TMC3    C2 7263   1.626   2.224  13.050 -0.0779  0.2178  0.3368
  485TMC3    C3 7264   1.756   2.259  13.073 -0.0506 -0.7227  0.2916
  485TMC3    C4 7265   1.629   2.393  12.872  0.6249 -0.2124  0.2637
  485TMC3    C5 7266   1.760   2.419  12.889  0.0311 -0.1661  0.0054
  485TMC3    C6 7267   1.816   2.364  13.001 -0.1831  0.4996  0.0420
  485TMC3     C 7268   1.428   2.316  12.969 -1.0205  0.3294 -0.4586
  485TMC3     O 7269   1.369   2.214  12.938 -0.4660 -0.4611 -0.3100
  485TMC3     H 7270   1.571   2.149  13.107  1.3945 -2.9311 -2.3950
  485TMC3    H1 7271   1.576   2.446  12.794 -0.2231  0.1924  1.1155
  485TMC3    H2 7272   1.919   2.396  13.010  0.9955 -2.8606 -1.7132
  485TMC3    C7 7273   1.846   2.410  12.773  0.3430 -0.1660  0.2837
  485TMC3    C8 7274   1.838   2.144  13.086  0.1112 -0.2107 -0.0701
  485TMC3    O1 7275   1.936   2.328  12.774  0.4675 -0.2699  0.0432
  485TMC3    O2 7276   1.798   2.071  13.174  0.0233 -0.4329  0.2537
  486MPD2     C 7277   3.099   1.178  13.543  0.0857 -0.0851 -0.0077
  486MPD2    C1 7278   3.133   1.124  13.420  0.3061 -0.1003 -0.1537
  486MPD2    C2 7279   3.135   1.192  13.299  0.0502  0.0913 -0.4002
  486MPD2    C3 7280   3.087   1.328  13.305 -0.8784  0.5849  0.3704
  486MPD2    C4 7281   3.047   1.379  13.425  0.3950 -0.1809  0.8328
  486MPD2    C5 7282   3.056   1.306  13.542 -0.0479  0.3729  0.3895
  486MPD2     H 7283   3.177   1.148  13.209  0.1350  0.7583 -0.6873
  486MPD2    H1 7284   3.012   1.481  13.442  2.6351  0.5885  0.7838
  486MPD2    H2 7285   3.108   1.128  13.639  2.3448 -0.8924 -0.6360
  486MPD2    H3 7286   3.046   1.355  13.638 -1.8340  0.2659  0.2584
  486MPD2     N 7287   3.083   1.404  13.185  0.2948  0.0204 -0.0588
  486MPD2    H5 7288   3.116   1.365  13.097  0.5603  0.3583 -0.1067
  486MPD2    N1 7289   3.192   0.991  13.436 -0.3069 -0.1770  0.7148
  486MPD2    H7 7290   3.191   0.951  13.530  0.3623 -0.3817  0.6296
  487TMC3    C1 7291   3.256   0.776  13.387  0.0027  0.1081  1.1414
  487TMC3    C2 7292   3.254   0.681  13.292  0.5408  0.4618 -1.2244
  487TMC3    C3 7293   3.281   0.549  13.322  1.0220  0.2466 -0.0941
  487TMC3    C4 7294   3.262   0.743  13.519  0.0924 -0.5625 -0.2857
  487TMC3    C5 7295   3.269   0.606  13.552  0.3490  0.2327 -0.1384
  487TMC3    C6 7296   3.289   0.512  13.453  0.0830 -0.1205 -0.3218
  487TMC3     C 7297   3.233   0.905  13.338 -0.0531 -0.3578 -0.5778
  487TMC3     O 7298   3.220   0.934  13.219  0.2384  0.3116  0.1120
  487TMC3     H 7299   3.250   0.700  13.185 -4.3068 -2.3852 -1.5685
  487TMC3    H1 7300   3.264   0.811  13.603 -0.6685 -0.4125 -0.3878
  487TMC3    H2 7301   3.289   0.407  13.480  1.2598  0.0393  0.2940
  487TMC3    C7 7302   3.210   0.554  13.672  0.1251 -0.2160 -0.1629
  487TMC3    C8 7303   3.189   0.455  13.261 -0.0303  0.4407  0.3374
  487TMC3    O1 7304   3.235   0.437  13.696  0.0670 -0.2026  0.0544
  487TMC3    O2 7305   3.232   0.361  13.197  0.2398  0.1118 -0.0977
  488MPD2     C 7306   3.312   2.084  16.352 -0.5736 -0.0163  0.0167
  488MPD2    C1 7307   3.310   2.193  16.427 -0.2267 -0.0068  0.0046
  488MPD2    C2 7308   3.213   2.201  16.528  0.3507  0.4569  0.3476
  488MPD2    C3 7309   3.118   2.103  16.546  0.1316  0.7723  0.1446
  488MPD2    C4 7310   3.122   1.991  16.466 -0.2683 -0.5269  0.6119
  488MPD2    C5 7311   3.220   1.989  16.366  0.2056 -0.3328  0.0886
  488MPD2     H 7312   3.204   2.290  16.588 -3.2349  0.4307 -0.1456
  488MPD2    H1 7313   3.042   1.918  16.459 -0.7300 -0.0104  0.4672
  488MPD2    H2 7314   3.381   2.068  16.270  1.0249 -2.1248  1.7608
  488MPD2    H3 7315   3.218   1.904  16.299 -0.1959  1.5461 -2.3159
  488MPD2     N 7316   3.022   2.128  16.641  0.7149  0.0186  0.1783
  488MPD2    H5 7317   3.032   2.220  16.683  0.6741 -0.2315  0.7404
  488MPD2    N1 7318   3.407   2.299  16.412  0.4348 -0.3937  0.1063
  488MPD2    H7 7319   3.391   2.375  16.477  3.2412  0.6838 -0.4720
  489TMC3    C1 7320   2.890   2.071  16.824  0.3351  0.8900  0.3877
  489TMC3    C2 7321   2.903   2.208  16.850  0.0455 -0.2603  0.1329
  489TMC3    C3 7322   2.934   2.250  16.975 -0.3912 -0.3165  0.1874
  489TMC3    C4 7323   2.885   1.979  16.923 -0.2106  0.4754  0.0998
  489TMC3    C5 7324   2.884   2.026  17.053 -0.5764 -0.2122 -0.3328
  489TMC3    C6 7325   2.919   2.161  17.076  0.2804  0.2006  0.4502
  489TMC3     C 7326   2.951   2.027  16.697 -0.0963  0.1903  0.0301
  489TMC3     O 7327   2.931   1.914  16.658  0.0112 -0.1674  0.0638
  489TMC3     H 7328   2.894   2.288  16.778  1.2696  1.2045  1.6027
  489TMC3    H1 7329   2.879   1.874  16.895  1.6064  0.6276 -0.8866
  489TMC3    H2 7330   2.958   2.179  17.176  1.1189 -0.6401  0.2793
  489TMC3    C7 7331   2.890   1.928  17.163  0.1010 -0.4303  0.0819
  489TMC3    C8 7332   3.037   2.349  16.981  0.0399 -0.0745 -0.3289
  489TMC3    O1 7333   2.899   1.984  17.274 -0.0597 -0.2759 -0.5269
  489TMC3    O2 7334   3.102   2.375  16.881 -0.1373  0.8565 -0.5824
  490MPD2     C 7335   4.013   1.746  17.096 -0.0739  0.6861 -0.0438
  490MPD2    C1 7336   4.146   1.712  17.109  0.0215  0.0773  0.4603
  490MPD2    C2 7337   4.246   1.809  17.126 -0.3255  0.2058  0.0026
  490MPD2    C3 7338   4.208   1.943  17.114  0.4472 -0.0757 -0.0803
  490MPD2    C4 7339   4.074   1.982  17.108 -0.4267 -0.2488 -0.2243
  490MPD2    C5 7340   3.982   1.883  17.095 -0.8150 -0.5132  0.0952
  490MPD2     H 7341   4.344   1.771  17.152 -1.1945 -3.1752 -1.6886
  490MPD2    H1 7342   4.044   2.086  17.106  0.2182  0.0260  3.4464
  490MPD2    H2 7343   3.943   1.670  17.066 -0.2847  0.8582  0.0115
  490MPD2    H3 7344   3.878   1.914  17.096 -0.8504 -0.6329  0.0610
  490MPD2     N 7345   4.305   2.047  17.124 -1.0014  0.0667  0.0233
  490MPD2    H5 7346   4.269   2.140  17.102  0.4948  0.6941  0.2269
  490MPD2    N1 7347   4.193   1.579  17.115  0.1900  0.0703  0.0431
  490MPD2    H7 7348   4.289   1.564  17.144 -0.1026  1.3633  1.6435
  491TMC3    C1 7349   4.184   1.354  17.144 -0.3848 -0.5992  0.4916
  491TMC3    C2 7350   4.220   1.355  17.275 -0.3521  0.3088 -0.2530
  491TMC3    C3 7351   4.271   1.242  17.332 -0.1821 -0.3963 -0.2834
  491TMC3    C4 7352   4.190   1.242  17.073 -0.0028  0.1941  0.4727
  491TMC3    C5 7353   4.253   1.133  17.122  0.0818  0.6174  0.1776
  491TMC3    C6 7354   4.289   1.132  17.257 -0.3007  0.6122  0.6599
  491TMC3     C 7355   4.115   1.465  17.090 -0.2165  0.2326  0.3252
  491TMC3     O 7356   4.012   1.450  17.025 -0.3289 -0.2130 -0.5211
  491TMC3     H 7357   4.208   1.448  17.329  2.3588  0.7922 -0.4739
  491TMC3    H1 7358   4.154   1.241  16.970 -1.0265  0.9486  0.8270
  491TMC3    H2 7359   4.348   1.049  17.292  1.1487  0.9793 -0.8839
  491TMC3    C7 7360   4.178   1.014  17.080  0.0087 -0.0205  0.1063
  491TMC3    C8 7361   4.194   1.214  17.448 -0.1515 -0.3428 -0.6483
  491TMC3    O1 7362   4.134   1.013  16.968 -0.2279  0.1679 -0.0476
  491TMC3    O2 7363   4.097   1.282  17.461 -0.0058  0.3608  0.0896
  492MPD2     C 7364   0.375   1.842  11.711 -0.0954 -0.0731  0.9580
  492MPD2    C1 7365   0.254   1.784  11.683  0.1813 -0.1215 -0.2344
  492MPD2    C2 7366   0.197   1.707  11.781 -0.0489 -0.2746 -1.0872
  492MPD2    C3 7367   0.261   1.682  11.902 -0.5312 -0.1201  0.4120
  492MPD2    C4 7368   0.390   1.735  11.921  1.0265 -0.3171  0.0827
  492MPD2    C5 7369   0.438   1.818  11.829 -0.3229  0.0037  0.4328
  492MPD2     H 7370   0.105   1.661  11.746 -1.5039  2.6538 -1.1005
  492MPD2    H1 7371   0.444   1.746  12.015  0.8927  1.7028 -0.0865
  492MPD2    H2 7372   0.423   1.901  11.633 -1.5733 -2.6814 -1.9514
  492MPD2    H3 7373   0.526   1.875  11.857 -0.4411  1.0613 -1.3331
  492MPD2     N 7374   0.195   1.608  12.007 -0.1538  0.1124  0.3336
  492MPD2    H5 7375   0.260   1.599  12.085  0.0638 -0.3856  0.0943
  492MPD2    N1 7376   0.195   1.802  11.559 -0.3506 -0.3444  0.1868
  492MPD2    H7 7377   0.248   1.864  11.498 -1.0167 -2.4054 -2.4861
  493TMC3    C1 7378   0.065   1.797  11.365 -0.6955  0.0285  0.0975
  493TMC3    C2 7379   0.118   1.912  11.321 -0.7055 -0.6527  0.0335
  493TMC3    C3 7380   0.073   1.952  11.194  0.2089 -0.4150  0.0562
  493TMC3    C4 7381   4.708   1.724  11.293  0.0980  0.5623 -0.1335
  493TMC3    C5 7382   4.683   1.762  11.165  0.9743  0.4795  0.2026
  493TMC3    C6 7383   4.731   1.878  11.115  0.1411 -0.2883  0.3501
  493TMC3     C 7384   0.079   1.760  11.508 -0.3908 -0.1433  0.0481
  493TMC3     O 7385   0.005   1.669  11.542 -0.5291  0.5633  0.1925
  493TMC3     H 7386   0.175   1.979  11.384  0.8517 -2.0299  0.0639
  493TMC3    H1 7387   4.682   1.628  11.337  0.3701  0.6472  0.2094
  493TMC3    H2 7388   4.703   1.904  11.014  1.0427  0.4924  0.3002
  493TMC3    C7 7389   4.570   1.699  11.095 -0.0852 -0.2499 -0.1740
  493TMC3    C8 7390   0.097   2.083  11.148 -0.1595 -0.1687  0.1394
  493TMC3    O1 7391   4.542   1.752  10.990  0.7556  0.3950  0.2939
  493TMC3    O2 7392   0.032   2.114  11.048 -0.2408  0.0225  0.3897
  494TMC3    C1 7393   0.353   3.668   0.891 -0.1209 -0.4685  0.0321
  494TMC3    C2 7394   0.305   3.538   0.877  0.3849  0.2116 -0.5683
  494TMC3    C3 7395   0.275   3.497   0.747 -0.7041 -0.5036  0.0511
  494TMC3    C4 7396   0.373   3.748   0.787  0.3150  0.0543 -0.6678
  494TMC3    C5 7397   0.342   3.703   0.662 -0.0934  0.3754  0.5694
  494TMC3    C6 7398   0.307   3.573   0.639  0.0434 -0.1236 -0.1212
  494TMC3     C 7399   0.417   3.691   1.020  0.0589 -0.2325  0.3185
  494TMC3     O 7400   0.371   3.618   1.116 -0.5011  0.0073 -0.0279
  494TMC3     H 7401   0.296   3.475   0.965 -1.0078  1.8180  0.4658
  494TMC3    H1 7402   0.416   3.847   0.802 -0.7990  0.4602 -0.1425
  494TMC3    H2 7403   0.283   3.533   0.541 -0.3027  1.5964 -0.7379
  494TMC3    C7 7404   0.336   3.792   0.540 -0.1456 -0.7806 -0.4475
  494TMC3    C8 7405   0.249   3.351   0.730  0.0336 -0.2506  1.1265
  494TMC3    O1 7406   0.289   3.749   0.434 -0.0926  0.0772  0.1287
  494TMC3    O2 7407   0.275   3.283   0.828 -0.3980 -0.2027 -0.5630
  495TMC3    C1 7408   3.843   1.023  14.795 -0.7409 -0.5823  0.9236
  495TMC3    C2 7409   3.746   1.066  14.709  0.0471  0.3360 -0.1560
  495TMC3    C3 7410   3.626   1.096  14.767 -0.1101 -0.7534  0.5449
  495TMC3    C4 7411   3.838   1.045  14.929 -0.2136  0.5681 -0.2719
  495TMC3    C5 7412   3.719   1.096  14.973 -0.0497 -0.2524 -1.0016
  495TMC3    C6 7413   3.612   1.125  14.901 -0.2599 -0.2440  0.0306
  495TMC3     C 7414   3.925   0.924  14.738  0.2793  0.3821  0.7495
  495TMC3     O 7415   3.854   0.856  14.661  0.1441  0.1543 -0.1945
  495TMC3     H 7416   3.761   1.048  14.603 -0.9758  0.3941 -0.3093
  495TMC3    H1 7417   3.913   1.003  14.994 -1.6000 -0.5837  0.5764
  495TMC3    H2 7418   3.516   1.158  14.939  0.6000 -1.0838  3.0111
  495TMC3    C7 7419   3.695   1.053  15.104 -0.0218 -0.6914 -1.0975
  495TMC3    C8 7420   3.521   1.010  14.726 -0.7878  0.2464  0.4306
  495TMC3    O1 7421   3.787   1.050  15.182 -0.1384  0.0521 -0.0657
  495TMC3    O2 7422   3.416   1.002  14.788  0.3749  0.2598 -0.1212
  496MPD2     C 7423   1.077   1.381  15.975  0.0874 -0.1093 -1.2183
  496MPD2    C1 7424   1.035   1.279  15.897  0.1309  0.2195 -0.9524
  496MPD2    C2 7425   0.953   1.186  15.965 -0.0924  0.4563  0.2443
  496MPD2    C3 7426   0.915   1.193  16.093  0.4082 -0.2368  0.0059
  496MPD2    C4 7427   0.944   1.313  16.158  0.2938  0.0409  0.2485
  496MPD2    C5 7428   1.024   1.404  16.095  0.2750  0.1947 -0.2114
  496MPD2     H 7429   0.918   1.103  15.904  0.5163  0.3730  0.0062
  496MPD2    H1 7430   0.906   1.336  16.257  0.7376  1.7416  0.0262
  496MPD2    H2 7431   1.151   1.451  15.938 -0.3538  0.7222 -0.5388
  496MPD2    H3 7432   1.063   1.488  16.151  1.7309 -1.5547  1.4093
  496MPD2     N 7433   0.848   1.089  16.165 -0.4021 -0.1098  0.5570
  496MPD2    H5 7434   0.816   1.115  16.258 -3.8867  1.4743 -1.1006
  496MPD2    N1 7435   1.112   1.261  15.779  0.5187 -0.1730  0.9696
  496MPD2    H7 7436   1.184   1.332  15.769 -0.3690  0.2203 -2.4795
  497TMC3    C1 7437   0.752   0.883  16.223 -0.0001 -0.4633  0.0942
  497TMC3    C2 7438   0.649   0.796  16.197 -1.0989 -0.2886  0.3698
  497TMC3    C3 7439   0.590   0.726  16.298 -0.4571  0.1609  0.2709
  497TMC3    C4 7440   0.783   0.907  16.357  1.0920  0.2944  0.5794
  497TMC3    C5 7441   0.725   0.838  16.459  0.1880 -0.6872  0.1855
  497TMC3    C6 7442   0.626   0.746  16.432  0.5774  0.6921  0.0481
  497TMC3     C 7443   0.820   0.955  16.122  0.2221  0.2857  0.2827
  497TMC3     O 7444   0.820   0.917  16.007  0.3663 -0.0378 -0.7244
  497TMC3     H 7445   0.629   0.779  16.092  0.4721  0.4321 -0.0452
  497TMC3    H1 7446   0.854   0.986  16.381  1.3227 -0.7368  3.3775
  497TMC3    H2 7447   0.569   0.702  16.512  0.4306  0.2865 -0.2814
  497TMC3    C7 7448   0.758   0.862  16.599  0.3885  0.0226 -0.5098
  497TMC3    C8 7449   0.485   0.636  16.268  0.1422 -0.1272  0.3348
  497TMC3    O1 7450   0.747   0.778  16.683 -0.3773 -0.4441 -0.2170
  497TMC3    O2 7451   0.417   0.598  16.361  0.0274  0.8062  0.6036
  498MPD2     C 7452   2.184   1.723   9.770  0.1190 -0.4212 -0.4349
  498MPD2    C1 7453   2.188   1.762   9.900 -0.0032  0.1645 -0.5339
  498MPD2    C2 7454   2.102   1.704   9.988 -0.3357  0.1282 -0.2407
  498MPD2    C3 7455   2.003   1.614   9.947 -0.3265  0.3384 -0.6316
  498MPD2    C4 7456   1.992   1.577   9.816 -0.5522 -0.3701  1.1560
  498MPD2    C5 7457   2.087   1.630   9.734 -0.2209  0.2436  0.6753
  498MPD2     H 7458   2.094   1.735  10.092 -1.0340 -1.1925  0.1023
  498MPD2    H1 7459   1.917   1.517   9.766  0.5218  0.9363 -2.0180
  498MPD2    H2 7460   2.252   1.757   9.692  0.0297  3.1279  1.0293
  498MPD2    H3 7461   2.090   1.602   9.629  0.0348 -0.1573  0.7914
  498MPD2     N 7462   1.920   1.561  10.045  0.5347 -0.2843 -1.3480
  498MPD2    H5 7463   1.954   1.578  10.139 -0.8251 -0.2855 -0.8640
  498MPD2    N1 7464   2.293   1.842   9.953 -0.5781 -0.3149  0.4310
  498MPD2    H7 7465   2.303   1.854  10.053 -0.8125 -0.7857  0.5095
  499TMC3    C1 7466   2.461   2.011   9.922 -0.6504 -0.0660 -0.0531
  499TMC3    C2 7467   2.542   1.941  10.009 -0.1132 -0.2201 -0.4058
  499TMC3    C3 7468   2.638   2.014  10.069  0.6574  0.1603  0.2937
  499TMC3    C4 7469   2.457   2.148   9.916  0.2100 -0.9408 -0.1268
  499TMC3    C5 7470   2.542   2.218   9.989 -0.6631 -0.3436 -0.5068
  499TMC3    C6 7471   2.639   2.152  10.064 -0.7475  0.2468  0.1942
  499TMC3     C 7472   2.350   1.936   9.868 -0.7144  0.9453  0.3629
  499TMC3     O 7473   2.314   1.971   9.759  0.0570 -0.1977  0.1205
  499TMC3     H 7474   2.527   1.835  10.027  1.8672 -0.3379  0.6429
  499TMC3    H1 7475   2.391   2.197   9.846  0.4947  0.9406  0.9291
  499TMC3    H2 7476   2.720   2.209  10.108  0.8764 -2.6528  0.9264
  499TMC3    C7 7477   2.550   2.362   9.971  0.4892  0.2858  0.3007
  499TMC3    C8 7478   2.760   1.959  10.117 -0.5826  0.5071 -0.1020
  499TMC3    O1 7479   2.476   2.409   9.889  0.3830 -0.0829  0.8664
  499TMC3    O2 7480   2.833   2.040  10.167  0.1392 -0.3174 -0.1606
  500MPD2     C 7481   3.700   3.292  10.227 -0.6932 -0.1319  0.3825
  500MPD2    C1 7482   3.698   3.389  10.327  0.6707 -0.5369  0.4393
  500MPD2    C2 7483   3.596   3.477  10.336 -0.0301 -0.3132  0.0008
  500MPD2    C3 7484   3.493   3.485  10.241  0.2398 -0.5563 -0.2741
  500MPD2    C4 7485   3.495   3.389  10.139  1.1127 -0.0287  0.6967
  500MPD2    C5 7486   3.598   3.297  10.132  0.4224 -0.2572  0.6868
  500MPD2     H 7487   3.599   3.543  10.422 -2.4041 -2.3709  1.6705
  500MPD2    H1 7488   3.411   3.385  10.072  0.4146  0.9561  1.5062
  500MPD2    H2 7489   3.775   3.214  10.222 -0.0498  0.5519 -0.6447
  500MPD2    H3 7490   3.614   3.236  10.044  2.2033  3.7388 -1.7502
  500MPD2     N 7491   3.385   3.571  10.248  0.6264  0.5508  0.1447
  500MPD2    H5 7492   3.326   3.568  10.165 -2.2451  0.2523  2.1757
  500MPD2    N1 7493   3.794   3.390  10.423 -0.2823 -0.6584  0.1765
  500MPD2    H7 7494   3.765   3.451  10.499 -2.7853 -1.4784 -0.1163
  501TMC3    C1 7495   3.971   3.337  10.558  0.3690 -0.5641  0.0176
  501TMC3    C2 7496   3.935   3.432  10.647 -0.1010  0.0124  0.4857
  501TMC3    C3 7497   3.993   3.425  10.768 -0.7982 -0.0548  0.8979
  501TMC3    C4 7498   4.063   3.243  10.595  0.6436 -0.4188  0.6734
  501TMC3    C5 7499   4.118   3.235  10.723  0.3931  0.4525  0.0046
  501TMC3    C6 7500   4.077   3.322  10.815  0.0961  0.3086 -0.9624
  501TMC3     C 7501   3.901   3.309  10.437  0.2367 -0.1539  0.3910
  501TMC3     O 7502   3.959   3.238  10.356 -0.5583  0.9233  0.4244
  501TMC3     H 7503   3.869   3.516  10.626  0.5401  0.4926  0.3820
  501TMC3    H1 7504   4.088   3.159  10.531 -0.3075 -0.8360  0.8472
  501TMC3    H2 7505   4.114   3.316  10.917 -1.4692  0.1803 -0.4056
  501TMC3    C7 7506   4.156   3.097  10.765  0.8548 -0.2192  0.1143
  501TMC3    C8 7507   3.970   3.532  10.861  0.8327 -0.0540 -0.1368
  501TMC3    O1 7508   4.104   3.013  10.695 -0.4865 -0.2191  0.0682
  501TMC3    O2 7509   4.050   3.538  10.951  0.5771 -0.9055 -0.1533
  502TMC3    C1 7510   3.165   1.701  15.058 -0.0431  0.4369  1.1273
  502TMC3    C2 7511   3.121   1.827  15.075 -0.0324  0.5755  0.0838
  502TMC3    C3 7512   2.984   1.843  15.104  0.2031  0.7943 -0.3519
  502TMC3    C4 7513   3.074   1.594  15.066  0.5019 -0.0421 -0.8359
  502TMC3    C5 7514   2.945   1.609  15.094 -0.6011  0.3817  0.0682
  502TMC3    C6 7515   2.899   1.735  15.121 -0.0438 -0.0511  0.0565
  502TMC3     C 7516   3.274   1.680  15.148 -0.1088 -0.0862 -0.2801
  502TMC3     O 7517   3.359   1.767  15.148 -0.1881 -0.0648 -0.0722
  502TMC3     H 7518   3.188   1.912  15.080  0.6953  0.0901 -1.4482
  502TMC3    H1 7519   3.109   1.496  15.036  1.0373  0.2423 -1.1371
  502TMC3    H2 7520   2.800   1.759  15.157 -1.1454  0.2775 -3.1631
  502TMC3    C7 7521   2.889   1.487  15.150 -0.6580 -0.5623  0.0737
  502TMC3    C8 7522   2.930   1.978  15.126  0.0687 -0.4334 -0.4863
  502TMC3    O1 7523   2.971   1.406  15.195  0.0795  0.1844 -0.3330
  502TMC3    O2 7524   2.980   2.066  15.059  0.6088 -0.0578 -0.1113
  503MPD2     C 7525   0.096   2.802  17.029 -0.4019  0.1896 -0.1025
  503MPD2    C1 7526   0.162   2.815  17.150 -0.3363  0.3067  0.9726
  503MPD2    C2 7527   0.203   2.702  17.215 -0.5603 -0.1612  0.1948
  503MPD2    C3 7528   0.190   2.579  17.151  0.0208  0.0768  0.0181
  503MPD2    C4 7529   0.122   2.564  17.032 -0.3783 -0.1737 -0.3825
  503MPD2    C5 7530   0.069   2.680  16.983  0.1183 -0.1602  0.0883
  503MPD2     H 7531   0.259   2.710  17.308 -1.4287 -0.7360  0.7702
  503MPD2    H1 7532   0.107   2.468  16.985 -2.5582  0.4781 -1.0097
  503MPD2    H2 7533   0.079   2.891  16.970 -0.1604 -0.2280 -0.7948
  503MPD2    H3 7534   0.015   2.668  16.889 -0.4795  3.3469  0.0103
  503MPD2     N 7535   0.242   2.461  17.210 -0.3413 -0.4439 -0.1183
  503MPD2    H5 7536   0.247   2.379  17.149  1.2906 -0.7573  0.4476
  503MPD2    N1 7537   0.184   2.946  17.216  0.2388 -0.1537 -0.2351
  503MPD2    H7 7538   0.218   2.948  17.312 -0.7815 -0.4471  0.1305
  504TMC3    C1 7539   0.320   2.309  17.364  0.0644 -0.5225 -0.4277
  504TMC3    C2 7540   0.289   2.269  17.495  0.8148  0.1877 -0.3860
  504TMC3    C3 7541   0.358   2.163  17.547  0.2258  0.0503  0.5146
  504TMC3    C4 7542   0.427   2.260  17.302 -0.6869 -0.3036  0.4446
  504TMC3    C5 7543   0.505   2.162  17.362 -0.0436  0.1562  0.2298
  504TMC3    C6 7544   0.469   2.111  17.487 -0.8897 -0.5668  0.1789
  504TMC3     C 7545   0.277   2.444  17.337  0.1052  0.6336 -0.3416
  504TMC3     O 7546   0.257   2.509  17.437  0.2866 -0.6080  0.9118
  504TMC3     H 7547   0.211   2.318  17.552  0.1695 -2.5560  1.0815
  504TMC3    H1 7548   0.449   2.307  17.206 -1.8267 -1.1599 -0.2307
  504TMC3    H2 7549   0.508   2.017  17.524  0.5318 -1.2469 -3.0833
  504TMC3    C7 7550   0.637   2.138  17.301  0.1882  0.2134  0.1228
  504TMC3    C8 7551   0.283   2.102  17.649 -0.3036 -0.4679 -0.2059
  504TMC3    O1 7552   0.680   2.218  17.222 -0.2000 -0.2307 -0.2648
  504TMC3    O2 7553   0.161   2.121  17.639  0.7226 -0.5911  0.5760
  505MPD2     C 7554   1.122   1.553  11.128  0.0026  0.0560 -0.2469
  505MPD2    C1 7555   1.154   1.425  11.149  0.2510  0.4113  0.0227
  505MPD2    C2 7556   1.278   1.384  11.196 -0.2075 -0.0563 -0.3122
  505MPD2    C3 7557   1.365   1.483  11.240  0.6132  0.2954 -0.3301
  505MPD2    C4 7558   1.336   1.612  11.222  0.1504  0.2583  0.0142
  505MPD2    C5 7559   1.219   1.650  11.159 -0.6684  0.4259 -0.3186
  505MPD2     H 7560   1.304   1.279  11.191  0.5045 -0.0163  2.5158
  505MPD2    H1 7561   1.412   1.686  11.244  0.0628 -0.3256  2.2188
  505MPD2    H2 7562   1.025   1.586  11.093  0.1718  1.6453  0.7509
  505MPD2    H3 7563   1.202   1.757  11.157 -1.3181  0.3183 -0.5161
  505MPD2     N 7564   1.497   1.462  11.279 -0.4777 -0.2090  0.3868
  505MPD2    H5 7565   1.564   1.536  11.295  1.2521 -2.1584  2.1831
  505MPD2    N1 7566   1.056   1.328  11.107 -0.5792 -0.4101  0.2241
  505MPD2    H7 7567   0.980   1.356  11.045 -1.9801 -1.3067  1.5345
  506TMC3    C1 7568   0.977   1.109  11.059  0.4664 -0.1670 -0.3250
  506TMC3    C2 7569   0.985   1.120  10.922 -0.3523 -0.2728  0.2121
  506TMC3    C3 7570   0.980   1.000  10.857  0.9561 -0.0214  0.5263
  506TMC3    C4 7571   0.964   0.988  11.125  0.0794  0.0553  0.4547
  506TMC3    C5 7572   0.989   0.876  11.045  0.5974  0.3466  0.4511
  506TMC3    C6 7573   0.984   0.875  10.913 -1.0497 -0.3666  0.3475
  506TMC3     C 7574   1.062   1.197  11.135  0.1491 -0.2516  0.2568
  506TMC3     O 7575   1.124   1.142  11.224 -1.0726  0.1152  0.0299
  506TMC3     H 7576   1.011   1.212  10.871 -2.7627 -0.3024 -1.0944
  506TMC3    H1 7577   0.960   0.982  11.233 -3.0425  1.1195  0.4287
  506TMC3    H2 7578   1.001   0.783  10.860 -1.9194 -1.0727  1.3048
  506TMC3    C7 7579   1.100   0.796  11.092 -0.5614 -0.3211 -0.1854
  506TMC3    C8 7580   0.971   1.005  10.712  0.0518  0.1277 -0.7046
  506TMC3    O1 7581   1.109   0.678  11.056 -0.1579  0.2804  0.4000
  506TMC3    O2 7582   0.885   0.937  10.656 -0.1579 -0.1120 -0.6190
  507TMC3    C1 7583   1.514   1.823  15.379 -0.1451 -0.3124 -1.0587
  507TMC3    C2 7584   1.473   1.737  15.275 -0.3687 -0.5223 -0.2075
  507TMC3    C3 7585   1.541   1.758  15.156  0.3272  0.3678 -0.0326
  507TMC3    C4 7586   1.588   1.937  15.360 -0.0480  0.3662  0.0245
  507TMC3    C5 7587   1.637   1.952  15.241  0.8529 -0.4584 -0.5639
  507TMC3    C6 7588   1.625   1.866  15.135 -0.2695 -0.1870 -0.5001
  507TMC3     C 7589   1.490   1.769  15.505  0.2461  0.0266  0.1875
  507TMC3     O 7590   1.463   1.652  15.520 -0.1051  0.3835 -0.3081
  507TMC3     H 7591   1.414   1.647  15.292  0.1913 -0.3383  2.8044
  507TMC3    H1 7592   1.619   2.003  15.441 -1.5371  0.7604  0.2714
  507TMC3    H2 7593   1.682   1.872  15.042  0.1219 -2.5391 -0.4065
  507TMC3    C7 7594   1.618   2.083  15.185 -0.4899 -0.5396 -0.4078
  507TMC3    C8 7595   1.449   1.744  15.044 -0.1962  0.2848  0.6073
  507TMC3    O1 7596   1.653   2.089  15.067 -0.3724  0.3011  0.4453
  507TMC3    O2 7597   1.373   1.648  15.045  0.2028 -0.5462  0.5178
  508MPD2     C 7598   1.861   4.421  16.584  0.8280 -0.2432 -0.7534
  508MPD2    C1 7599   1.988   4.433  16.531 -0.6623 -0.0563 -0.0503
  508MPD2    C2 7600   2.001   4.436  16.391 -0.0254  0.9349  0.2765
  508MPD2    C3 7601   1.892   4.422  16.310 -0.0769 -0.3710 -0.6357
  508MPD2    C4 7602   1.766   4.420  16.367 -0.1166 -0.5140 -0.1384
  508MPD2    C5 7603   1.753   4.412  16.501 -1.3426 -0.0527  0.7169
  508MPD2     H 7604   2.099   4.446  16.346  0.9004 -2.4817  1.5466
  508MPD2    H1 7605   1.677   4.430  16.307  0.0474 -1.9157 -0.6171
  508MPD2    H2 7606   1.853   4.400  16.690 -0.4267 -0.2434 -0.8451
  508MPD2    H3 7607   1.656   4.395  16.546 -0.3179 -0.7102  2.7020
  508MPD2     N 7608   1.919   4.429  16.173  0.0603  0.0561  0.3560
  508MPD2    H5 7609   2.020   4.436  16.169  0.1601 -0.2949  2.3088
  508MPD2    N1 7610   2.099   4.450  16.611  0.2504  0.4945 -0.2838
  508MPD2    H7 7611   2.085   4.469  16.710 -1.2474 -0.5116 -0.3013
  509TMC3    C1 7612   1.942   4.593  15.745  0.5674 -0.0501 -0.0954
  509TMC3    C2 7613   2.079   4.566  15.755  0.1012  0.5184  0.3512
  509TMC3    C3 7614   2.122   4.486  15.857  0.4353  0.0680  0.4361
  509TMC3    C4 7615   1.856   4.534  15.838  0.2247 -0.1319  0.8222
  509TMC3    C5 7616   1.911   4.457  15.939 -0.6359 -0.2596 -0.1834
  509TMC3    C6 7617   2.040   4.426  15.948  0.2850  0.1096 -0.4007
  509TMC3     C 7618   1.889   4.655  15.625 -0.0672 -0.4596 -0.1126
  509TMC3     O 7619   1.769   4.670  15.610 -0.5921 -0.5072  0.4292
  509TMC3     H 7620   2.160   4.603  15.693 -0.3754  1.4577  0.2951
  509TMC3    H1 7621   1.749   4.555  15.835  0.3934  0.4465 -0.9819
  509TMC3    H2 7622   2.090   4.376  16.030  1.4641  1.5268 -0.2566
  509TMC3    C7 7623   1.838   4.433  16.059 -0.6689  0.2189 -0.0701
  509TMC3    C8 7624   2.260   4.472  15.884  1.3440  0.1838  0.5188
  509TMC3    O1 7625   1.716   4.451  16.053  0.0555  0.1836 -0.6807
  509TMC3    O2 7626   2.290   4.363  15.936  0.5377  0.1262 -0.4956
  510MPD2     C 7627   0.433   1.196  15.175 -0.2750 -0.1733  0.1526
  510MPD2    C1 7628   0.501   1.072  15.190  0.5648  0.2229 -0.7160
  510MPD2    C2 7629   0.608   1.049  15.104  0.2289  0.1379  0.3853
  510MPD2    C3 7630   0.655   1.140  15.008  0.5997  0.1076  0.5278
  510MPD2    C4 7631   0.598   1.261  15.005  0.6367  0.6810  0.2469
  510MPD2    C5 7632   0.486   1.287  15.085 -0.7580  0.3028  0.1966
  510MPD2     H 7633   0.658   0.954  15.121 -0.7347 -0.8152 -2.0676
  510MPD2    H1 7634   0.644   1.338  14.944  1.9110 -2.5303 -2.7883
  510MPD2    H2 7635   0.337   1.215  15.220  0.2539  0.4357  1.0093
  510MPD2    H3 7636   0.438   1.382  15.065  2.4291  1.4953 -1.7435
  510MPD2     N 7637   0.767   1.100  14.928  0.3026 -0.0151  0.1749
  510MPD2    H5 7638   0.798   1.006  14.951 -2.9617 -0.7873  1.3928
  510MPD2    N1 7639   0.455   0.969  15.271  0.0243 -0.3535 -0.7097
  510MPD2    H7 7640   0.497   0.878  15.252 -1.4110 -1.1034 -0.3593
  511TMC3    C1 7641   0.305   0.851  15.420  0.0100  0.1790  0.0501
  511TMC3    C2 7642   0.235   0.864  15.537  0.4227 -0.1124  0.0667
  511TMC3    C3 7643   0.139   0.775  15.574 -0.1057  0.4211 -0.2856
  511TMC3    C4 7644   0.267   0.758  15.333  1.4881 -0.8312 -0.4246
  511TMC3    C5 7645   0.172   0.663  15.373  0.6212 -0.3497 -0.2732
  511TMC3    C6 7646   0.104   0.675  15.490  0.3508  0.0523  0.4204
  511TMC3     C 7647   0.357   0.981  15.367  0.4294  0.1967 -0.1900
  511TMC3     O 7648   0.334   1.081  15.430  0.4665 -0.2634 -0.6329
  511TMC3     H 7649   0.244   0.954  15.597 -1.1506 -0.2094  0.4591
  511TMC3    H1 7650   0.322   0.741  15.241  1.6764  0.4305 -0.5427
  511TMC3    H2 7651   0.018   0.611  15.506  0.2531  0.6761  2.4159
  511TMC3    C7 7652   0.130   0.574  15.267  0.3271 -0.3292 -0.4256
  511TMC3    C8 7653   0.051   0.827  15.678  0.2580 -0.1399 -0.8155
  511TMC3    O1 7654   0.160   0.609  15.150  0.5122  1.1774  0.2862
  511TMC3    O2 7655   0.046   0.944  15.700  0.1442  0.2059 -0.0970
  512TMC3    C1 7656   3.550   0.404  13.868  0.0922  0.8887 -1.1620
  512TMC3    C2 7657   3.627   0.311  13.940  0.1045 -0.8188 -0.1507
  512TMC3    C3 7658   3.685   0.209  13.877  0.6310 -0.0878 -0.4661
  512TMC3    C4 7659   3.541   0.388  13.730 -0.0366  0.0500 -0.5469
  512TMC3    C5 7660   3.616   0.285  13.677  0.0712  0.6917  0.1198
  512TMC3    C6 7661   3.672   0.184  13.745 -0.2717  0.6122 -0.5625
  512TMC3     C 7662   3.457   0.495  13.930 -0.1014  0.4938  0.0687
  512TMC3     O 7663   3.409   0.463  14.038 -0.0109  0.1533  0.4791
  512TMC3     H 7664   3.645   0.322  14.046  1.0372 -2.2326 -0.1672
  512TMC3    H1 7665   3.494   0.466  13.672  1.2016  2.5615  1.7807
  512TMC3    H2 7666   3.731   0.105  13.699 -2.7244 -0.6377 -1.5949
  512TMC3    C7 7667   3.618   0.279  13.528  0.2720 -0.1720 -0.1135
  512TMC3    C8 7668   3.814   0.171  13.931  0.5522 -0.1473  0.0637
  512TMC3    O1 7669   3.531   0.347  13.468  0.7532  0.0135 -0.3419
  512TMC3    O2 7670   3.872   0.070  13.884  0.6494  0.7587  0.1133
  513MPD2     C 7671   1.869   0.828  13.602  0.2605  0.1064  0.0117
  513MPD2    C1 7672   1.802   0.710  13.580  0.0737 -0.3922  0.2410
  513MPD2    C2 7673   1.745   0.656  13.693 -0.0794  0.0502 -0.9764
  513MPD2    C3 7674   1.753   0.709  13.821 -0.2562 -0.1274  0.1300
  513MPD2    C4 7675   1.839   0.812  13.840  0.3904 -0.5008 -0.4005
  513MPD2    C5 7676   1.881   0.877  13.728  0.4319  0.3807  0.5650
  513MPD2     H 7677   1.681   0.571  13.675  1.8828 -1.9690  1.4635
  513MPD2    H1 7678   1.857   0.860  13.935  0.4447 -0.2337 -0.5463
  513MPD2    H2 7679   1.908   0.883  13.516  0.5713  0.0568  0.1189
  513MPD2    H3 7680   1.928   0.974  13.742  0.0254  0.6588 -0.0052
  513MPD2     N 7681   1.676   0.650  13.927 -0.3089  0.0007 -0.2428
  513MPD2    H5 7682   1.637   0.561  13.896 -2.3382  0.3239  1.4508
  513MPD2    N1 7683   1.795   0.636  13.461 -0.0479  0.2158 -0.1317
  513MPD2    H7 7684   1.726   0.562  13.467  0.0633  0.0260 -1.3167
  514TMC3    C1 7685   1.817   0.548  13.260  0.6558 -0.6319 -0.3363
  514TMC3    C2 7686   1.932   0.483  13.230  0.3706 -0.1526  0.1957
  514TMC3    C3 7687   1.917   0.348  13.236 -0.0446 -0.5885 -0.8391
  514TMC3    C4 7688   1.691   0.489  13.296  0.1565 -0.1287  0.2251
  514TMC3    C5 7689   1.694   0.354  13.314  0.3838 -0.4868  0.0691
  514TMC3    C6 7690   1.807   0.278  13.285 -0.0113  0.3221 -0.4330
  514TMC3     C 7691   1.852   0.662  13.339 -0.3848 -0.5421 -0.3261
  514TMC3     O 7692   1.947   0.732  13.312 -0.1724  0.6533  0.2331
  514TMC3     H 7693   2.018   0.541  13.197  1.1476 -1.5688 -0.2595
  514TMC3    H1 7694   1.603   0.541  13.333 -0.3056  0.8204 -2.1717
  514TMC3    H2 7695   1.822   0.171  13.290 -1.2348  0.3088  2.6074
  514TMC3    C7 7696   1.623   0.316  13.436 -0.5408 -0.4043  0.2634
  514TMC3    C8 7697   2.006   0.266  13.154  0.6286  0.7846  0.0699
  514TMC3    O1 7698   1.574   0.410  13.495  0.2109 -0.3524  0.2473
  514TMC3    O2 7699   2.002   0.142  13.162 -0.3534  0.7992  0.0349
  515MPD2     C 7700   4.241   1.974  14.605  0.3206  0.1075  0.3449
  515MPD2    C1 7701   4.116   2.004  14.657  0.1339  0.4848  0.6159
  515MPD2    C2 7702   4.095   2.132  14.706 -0.3158 -0.9448 -0.4137
  515MPD2    C3 7703   4.194   2.226  14.713  0.3128 -0.3767 -0.4887
  515MPD2    C4 7704   4.318   2.187  14.662  0.5640  0.3582  0.0106
  515MPD2    C5 7705   4.341   2.065  14.608 -0.5020 -0.0856  0.2650
  515MPD2     H 7706   3.995   2.150  14.743  0.6824 -0.1290  1.9014
  515MPD2    H1 7707   4.382   2.274  14.653  0.3248  0.4321 -0.9439
  515MPD2    H2 7708   4.260   1.876  14.564 -0.8707  0.9562 -2.2115
  515MPD2    H3 7709   4.439   2.043  14.567 -1.1204 -1.8017 -0.3055
  515MPD2     N 7710   4.180   2.361  14.768  0.2600 -0.0582 -0.0491
  515MPD2    H5 7711   4.250   2.430  14.745  0.0695  0.7059  1.7020
  515MPD2    N1 7712   4.005   1.920  14.653 -0.2800 -0.3373  0.0550
  515MPD2    H7 7713   3.923   1.953  14.702  0.7220  3.8362 -1.1384
  516TMC3    C1 7714   3.853   1.764  14.623 -0.2870  0.2549 -0.1930
  516TMC3    C2 7715   3.766   1.867  14.613  0.4451  0.2110 -0.4381
  516TMC3    C3 7716   3.635   1.836  14.625 -0.7833  0.1409  0.2869
  516TMC3    C4 7717   3.813   1.640  14.660 -0.5453 -0.2622  0.4304
  516TMC3    C5 7718   3.682   1.613  14.678 -0.2621  0.0783  0.3790
  516TMC3    C6 7719   3.584   1.716  14.655 -0.4715 -0.5649  0.0313
  516TMC3     C 7720   3.990   1.792  14.596 -0.2155 -0.3760 -0.0597
  516TMC3     O 7721   4.070   1.710  14.549 -0.0559 -0.8264  0.1982
  516TMC3     H 7722   3.792   1.963  14.570 -0.3156  0.3025 -0.6927
  516TMC3    H1 7723   3.886   1.563  14.684  0.8474  1.3709  1.4153
  516TMC3    H2 7724   3.478   1.694  14.661 -0.2709 -1.6100 -0.3586
  516TMC3    C7 7725   3.651   1.499  14.763  0.2729  0.8101  0.0230
  516TMC3    C8 7726   3.546   1.957  14.639 -0.2999 -0.0177 -0.5555
  516TMC3    O1 7727   3.729   1.465  14.850 -0.0150 -0.2701 -0.1539
  516TMC3    O2 7728   3.434   1.953  14.592 -0.1606  0.0609  0.6814
  517MPD2     C 7729   3.167   3.551   0.179  0.5888 -0.3091 -0.3944
  517MPD2    C1 7730   3.301   3.560   0.208 -0.0685  0.0859  0.2389
  517MPD2    C2 7731   3.342   3.670   0.284 -0.1101  0.1036  0.4492
  517MPD2    C3 7732   3.246   3.745   0.348 -0.9818 -0.7350  0.6633
  517MPD2    C4 7733   3.115   3.737   0.324  0.6015 -0.5224  0.4975
  517MPD2    C5 7734   3.078   3.640   0.239 -0.3066 -0.7319 -0.1539
  517MPD2     H 7735   3.449   3.677   0.304  0.2305 -0.8628 -1.0599
  517MPD2    H1 7736   3.035   3.784   0.380  1.4635  0.7965  0.6101
  517MPD2    H2 7737   3.129   3.477   0.110  0.3715  0.8905 -1.5831
  517MPD2    H3 7738   2.971   3.639   0.223 -0.3882  0.0445  0.3585
  517MPD2     N 7739   3.290   3.833   0.448 -0.3466  0.2356 -0.0379
  517MPD2    H5 7740   3.224   3.871   0.514  0.6106 -0.2593  1.2058
  517MPD2    N1 7741   3.385   3.465   0.143  0.1791  0.0957  0.1973
  517MPD2    H7 7742   3.334   3.383   0.112 -0.2928  0.0965  0.9719
  518TMC3    C1 7743   3.590   3.355   0.103 -0.4834 -0.4162  0.7823
  518TMC3    C2 7744   3.533   3.228   0.125  0.1145  0.1805  0.1923
  518TMC3    C3 7745   3.616   3.117   0.096  0.1371  0.4158  0.5383
  518TMC3    C4 7746   3.717   3.368   0.070 -0.2364 -0.0685 -0.9071
  518TMC3    C5 7747   3.794   3.260   0.037 -0.2063 -0.2660  0.0315
  518TMC3    C6 7748   3.747   3.136   0.054  0.2831 -0.3423  0.1430
  518TMC3     C 7749   3.521   3.477   0.136  0.1763 -0.5581  0.3989
  518TMC3     O 7750   3.589   3.576   0.146 -0.2351  0.4879  0.0909
  518TMC3     H 7751   3.445   3.222   0.187 -0.2322  0.4420 -0.2746
  518TMC3    H1 7752   3.762   3.466   0.066  2.1299 -1.1252 -0.5416
  518TMC3    H2 7753   3.815   3.052   0.058  0.2810 -0.4181 -1.8223
  518TMC3    C7 7754   3.927   3.276  17.724 -0.0853 -0.5779  0.2436
  518TMC3    C8 7755   3.566   2.990   0.066 -0.3806  1.0283  0.1875
  518TMC3    O1 7756   3.981   3.386  17.713  0.7616 -0.4705 -0.2443
  518TMC3    O2 7757   3.648   2.902   0.055  0.1895  0.5310  0.0138
  519MPD2     C 7758   0.486   2.468  14.565  0.2458 -0.7090 -0.2033
  519MPD2    C1 7759   0.448   2.399  14.451 -0.2333 -0.4117 -0.2400
  519MPD2    C2 7760   0.490   2.265  14.446 -0.6610 -0.3041 -0.1075
  519MPD2    C3 7761   0.548   2.201  14.553  0.1305  0.3993  0.2557
  519MPD2    C4 7762   0.580   2.274  14.668  0.0253 -0.5406 -0.1853
  519MPD2    C5 7763   0.538   2.401  14.668  0.3590 -0.0750 -0.0012
  519MPD2     H 7764   0.490   2.208  14.353 -0.7343  0.4680 -0.5808
  519MPD2    H1 7765   0.627   2.227  14.753  0.4380 -1.0681 -0.7044
  519MPD2    H2 7766   0.467   2.573  14.584  0.8865 -0.6318 -0.0008
  519MPD2    H3 7767   0.553   2.453  14.762  1.6719  0.8225 -0.6977
  519MPD2     N 7768   0.583   2.068  14.551  0.2633  0.3856  0.3783
  519MPD2    H5 7769   0.657   2.042  14.615 -0.1829  0.6454  0.9905
  519MPD2    N1 7770   0.386   2.469  14.346 -0.1727  0.3685 -0.5485
  519MPD2    H7 7771   0.366   2.566  14.367  0.8457  0.8320 -1.6991
  520TMC3    C1 7772   0.559   1.846  14.476  0.1390  0.6290  0.0968
  520TMC3    C2 7773   0.468   1.755  14.434  0.0164  0.5695 -0.0333
  520TMC3    C3 7774   0.525   1.629  14.403 -0.4943 -0.1061 -0.8947
  520TMC3    C4 7775   0.694   1.824  14.483 -0.2370 -0.0966 -0.1380
  520TMC3    C5 7776   0.741   1.701  14.447 -0.7116  0.6753  0.5727
  520TMC3    C6 7777   0.658   1.600  14.405  0.8793 -0.3880 -0.1862
  520TMC3     C 7778   0.501   1.977  14.488 -0.1172  0.2075  0.2989
  520TMC3     O 7779   0.392   1.985  14.433  0.5887 -0.0005  0.4112
  520TMC3     H 7780   0.362   1.773  14.443  0.3400  2.3311  0.2459
  520TMC3    H1 7781   0.761   1.903  14.516 -1.4071  1.3399 -1.1791
  520TMC3    H2 7782   0.706   1.506  14.380  1.3293 -1.3399  4.3006
  520TMC3    C7 7783   0.881   1.657  14.451  0.1200 -0.4877 -1.0441
  520TMC3    C8 7784   0.444   1.545  14.314 -0.2850 -0.3153 -0.2080
  520TMC3    O1 7785   0.897   1.552  14.508  0.5610  0.1075 -0.1391
  520TMC3    O2 7786   0.479   1.430  14.296  0.0726  0.1090 -0.0118
  521MPD2     C 7787   1.795   4.712   0.165  0.4218  0.6596 -0.4516
  521MPD2    C1 7788   1.714   0.010   0.065  0.6463 -0.3994  0.4272
  521MPD2    C2 7789   1.756   0.105  17.720  0.5701 -0.0297 -0.6638
  521MPD2    C3 7790   1.870   0.176   0.001 -0.4158 -0.3926  0.4568
  521MPD2    C4 7791   1.950   0.145   0.107  0.0639 -0.6590  0.2160
  521MPD2    C5 7792   1.917   0.032   0.184  0.3678 -0.8805 -0.2236
  521MPD2     H 7793   1.692   0.132  17.637 -0.3490 -1.9749 -0.5999
  521MPD2    H1 7794   2.045   0.191   0.132  0.2944 -1.3441  0.5701
  521MPD2    H2 7795   1.774   4.628   0.229  2.9737  0.3458 -0.0325
  521MPD2    H3 7796   1.983   4.733   0.263 -1.7561 -0.9773  1.4992
  521MPD2     N 7797   1.902   0.277  17.647  0.0044  0.0035  0.4362
  521MPD2    H5 7798   1.829   0.302  17.581  0.3518 -1.6421 -0.5728
  521MPD2    N1 7799   1.591   4.677   0.053 -0.0064 -0.8232  0.1262
  521MPD2    H7 7800   1.574   4.591   0.104  1.2167 -0.9998  0.2143
  522TMC3    C1 7801   2.034   0.408  17.513  0.3711 -0.2105  0.2134
  522TMC3    C2 7802   2.157   0.446  17.480  0.8158 -0.3457  0.4909
  522TMC3    C3 7803   2.175   0.521  17.370  0.1602 -0.2261 -0.0779
  522TMC3    C4 7804   1.923   0.447  17.443  0.4780  0.0757  0.1623
  522TMC3    C5 7805   1.941   0.518  17.331  0.3118 -0.3051  0.0785
  522TMC3    C6 7806   2.069   0.552  17.294 -0.2227  0.8689  0.4493
  522TMC3     C 7807   2.024   0.337  17.634 -0.7850 -0.5919  0.3450
  522TMC3     O 7808   2.124   0.313  17.703  0.0047 -0.2501  0.0516
  522TMC3     H 7809   2.247   0.415  17.533 -0.3267 -0.6718  2.2221
  522TMC3    H1 7810   1.820   0.422  17.469  0.7337 -0.2842  0.8323
  522TMC3    H2 7811   2.081   0.606  17.201  0.6327  2.1443  1.2973
  522TMC3    C7 7812   1.829   0.527  17.237 -0.6485 -0.1978 -0.0925
  522TMC3    C8 7813   2.309   0.512  17.310 -0.0001  0.0276 -0.5031
  522TMC3    O1 7814   1.721   0.550  17.291 -0.2162  0.3621 -0.4321
  522TMC3    O2 7815   2.388   0.607  17.328 -0.3925 -0.3548 -1.0850
  523MPD2     C 7816   4.534   0.170  10.548  0.0176  0.1963  0.6397
  523MPD2    C1 7817   4.439   0.094  10.495  0.2833  0.1732 -0.5077
  523MPD2    C2 7818   4.357   0.147  10.396 -0.5799  0.3747 -0.1168
  523MPD2    C3 7819   4.375   0.278  10.358  0.3039  0.4576 -0.9479
  523MPD2    C4 7820   4.476   0.355  10.407  0.1307  0.5348  0.5264
  523MPD2    C5 7821   4.545   0.299  10.512  0.0089 -0.6092  0.2031
  523MPD2     H 7822   4.276   0.083  10.364  0.8753 -0.6890 -1.7189
  523MPD2    H1 7823   4.504   0.455  10.374 -1.4742  0.2722 -1.5856
  523MPD2    H2 7824   4.601   0.130  10.624 -0.6654 -1.5037  0.3414
  523MPD2    H3 7825   4.615   0.371  10.553 -1.7151  2.7665 -2.7507
  523MPD2     N 7826   4.291   0.348  10.274 -0.7281 -0.4517 -0.2864
  523MPD2    H5 7827   4.311   0.444  10.247  0.5819 -1.1107 -1.6349
  523MPD2    N1 7828   4.435   4.695  10.540 -0.3146  0.6397 -0.2398
  523MPD2    H7 7829   4.494   4.678  10.620 -1.5272  4.5202  1.4633
  524TMC3    C1 7830   4.114   0.403  10.126  0.4048  0.1916 -0.1381
  524TMC3    C2 7831   4.017   0.353  10.046  0.2396 -0.2010  0.1365
  524TMC3    C3 7832   3.920   0.446  10.018 -0.0692  0.2505  0.2874
  524TMC3    C4 7833   4.128   0.538  10.166 -0.3502 -0.1086 -0.3894
  524TMC3    C5 7834   4.027   0.626  10.135  0.1283 -0.4625  0.9606
  524TMC3    C6 7835   3.920   0.577  10.058 -0.0837 -0.3606  0.2280
  524TMC3     C 7836   4.192   0.302  10.202 -0.7295  0.0742 -0.8615
  524TMC3     O 7837   4.155   0.186  10.178  0.6118 -0.0843 -0.2783
  524TMC3     H 7838   3.985   0.250  10.032 -0.7238 -0.1669  2.0729
  524TMC3    H1 7839   4.212   0.572  10.225 -0.8241  0.3095  0.0495
  524TMC3    H2 7840   3.829   0.634  10.042  0.6608  1.5366  2.7480
  524TMC3    C7 7841   4.021   0.756  10.197 -0.4842 -0.3565 -0.2271
  524TMC3    C8 7842   3.803   0.396   9.942 -0.1618  0.0559 -0.0621
  524TMC3    O1 7843   4.097   0.765  10.291  0.0590  0.2179 -0.6981
  524TMC3    O2 7844   3.700   0.462   9.968  0.2802  0.2075 -0.2362
  525MPD2     C 7845   1.768   1.651  14.850  0.4489  1.0672 -0.3323
  525MPD2    C1 7846   1.882   1.678  14.920 -0.0182 -0.4240  0.2586
  525MPD2    C2 7847   1.928   1.804  14.928 -0.1291  0.8674  0.6336
  525MPD2    C3 7848   1.866   1.911  14.865  0.3275  0.1473 -0.0623
  525MPD2    C4 7849   1.751   1.887  14.791 -0.1458  0.8557  0.0576
  525MPD2    C5 7850   1.709   1.759  14.780 -0.1146 -0.4984  0.1685
  525MPD2     H 7851   2.010   1.819  14.997 -0.5487 -1.2021  1.5705
  525MPD2    H1 7852   1.691   1.965  14.744  0.1201  0.5794 -0.7435
  525MPD2    H2 7853   1.735   1.548  14.846  1.0123  0.8881 -0.3508
  525MPD2    H3 7854   1.619   1.736  14.724 -0.0278 -2.2584  0.7598
  525MPD2     N 7855   1.912   2.040  14.895 -0.2406  0.6855  0.5050
  525MPD2    H5 7856   1.993   2.041  14.956 -1.0250 -1.9255  1.5800
  525MPD2    N1 7857   1.969   1.581  14.979  0.2000  0.2490 -0.3059
  525MPD2    H7 7858   2.054   1.614  15.024  0.8866  0.4014 -1.7035
  526TMC3    C1 7859   2.052   1.373  15.058 -0.4727  0.6285  0.0672
  526TMC3    C2 7860   2.023   1.258  15.120 -0.5727  0.3236 -0.2282
  526TMC3    C3 7861   2.128   1.182  15.160 -0.7305  0.5444 -0.1367
  526TMC3    C4 7862   2.183   1.409  15.019 -0.4556 -0.3995 -0.4675
  526TMC3    C5 7863   2.276   1.314  15.040  0.0449 -0.4514 -0.1964
  526TMC3    C6 7864   2.252   1.200  15.109  0.5326 -0.5263 -0.7290
  526TMC3     C 7865   1.937   1.451  15.009  0.1912  1.1966 -0.3821
  526TMC3     O 7866   1.830   1.397  14.996  0.2462  0.7339  0.1023
  526TMC3     H 7867   1.919   1.228  15.127 -0.3098 -0.1391  1.8113
  526TMC3    H1 7868   2.214   1.487  14.950 -1.1804  1.1459  0.9648
  526TMC3    H2 7869   2.327   1.125  15.129  0.1797 -0.9393 -0.9689
  526TMC3    C7 7870   2.407   1.336  14.984  0.2179  0.3943  0.2949
  526TMC3    C8 7871   2.104   1.064  15.237  0.6162  0.0090  0.2233
  526TMC3    O1 7872   2.449   1.445  14.952 -0.6268  0.0065  0.0893
  526TMC3    O2 7873   2.197   0.990  15.260  0.4220 -0.4885  0.5600
  527MPD2     C 7874   0.137   3.928   1.848 -0.5888 -0.6223  0.0101
  527MPD2    C1 7875   0.167   3.892   1.717  0.4202  0.5249 -0.0841
  527MPD2    C2 7876   0.282   3.934   1.651  0.0200  0.2731 -0.0818
  527MPD2    C3 7877   0.371   4.014   1.714 -0.3907  0.1168  0.2213
  527MPD2    C4 7878   0.341   4.065   1.838  0.2740 -0.3199  0.2574
  527MPD2    C5 7879   0.231   4.010   1.908 -0.8083 -0.0982  0.7972
  527MPD2     H 7880   0.296   3.909   1.547  2.8503 -0.1807  0.4126
  527MPD2    H1 7881   0.413   4.132   1.882  0.8418 -1.5020  1.1123
  527MPD2    H2 7882   0.051   3.896   1.904 -0.1421  0.6419  1.4191
  527MPD2    H3 7883   0.222   4.038   2.013  0.6315  1.1032  0.5998
  527MPD2     N 7884   0.490   4.031   1.645  0.1694 -0.1225 -0.0611
  527MPD2    H5 7885   0.489   4.016   1.545 -2.0419  1.3668 -0.2763
  527MPD2    N1 7886   0.083   3.807   1.643 -0.1405  0.6507  0.3772
  527MPD2    H7 7887   0.106   3.797   1.544 -0.0345 -2.1495  0.6932
  528TMC3    C1 7888   4.641   3.654   1.586 -0.0717 -0.4422  0.0469
  528TMC3    C2 7889   4.663   3.670   1.452  1.2748  0.2697 -0.2011
  528TMC3    C3 7890   4.609   3.584   1.370  0.4261  0.6425  0.3661
  528TMC3    C4 7891   4.575   3.545   1.639 -1.0332 -0.3665  0.1972
  528TMC3    C5 7892   4.526   3.460   1.551 -0.3894 -0.4709  0.8190
  528TMC3    C6 7893   4.543   3.477   1.414  0.5543  0.0252 -0.3051
  528TMC3     C 7894   4.701   3.745   1.686  0.3677 -0.0233 -0.5582
  528TMC3     O 7895   4.663   3.741   1.802 -0.1949  0.4943 -0.2916
  528TMC3     H 7896   4.720   3.757   1.420  1.1592 -0.2092 -1.6960
  528TMC3    H1 7897   4.576   3.529   1.746  0.1132  1.5164  0.4701
  528TMC3    H2 7898   4.489   3.413   1.345  0.0533  1.0327 -0.8437
  528TMC3    C7 7899   4.445   3.346   1.595  0.0683  0.4693  0.2083
  528TMC3    C8 7900   4.619   3.611   1.218  0.4179 -0.1863 -0.6750
  528TMC3    O1 7901   4.432   3.256   1.519 -0.1483  0.5370 -0.0393
  528TMC3    O2 7902   4.657   3.724   1.188  0.4156 -0.3215  0.9126
  529MPD2     C 7903   2.140   2.478   0.328 -0.3077 -0.0484 -0.5981
  529MPD2    C1 7904   2.079   2.488   0.456 -0.1183  0.1263 -1.2431
  529MPD2    C2 7905   2.020   2.606   0.492  0.1627 -0.0591  0.3513
  529MPD2    C3 7906   2.015   2.710   0.406  0.1405 -0.1147 -0.1232
  529MPD2    C4 7907   2.067   2.698   0.280  0.0990 -0.0311 -0.5956
  529MPD2    C5 7908   2.124   2.579   0.235 -0.4889 -0.0308  0.7052
  529MPD2     H 7909   1.981   2.618   0.592  0.0421 -0.0638  0.3038
  529MPD2    H1 7910   2.074   2.790   0.223 -0.8496 -0.2429 -1.0457
  529MPD2    H2 7911   2.208   2.399   0.299  0.7808 -0.4590  3.0449
  529MPD2    H3 7912   2.175   2.565   0.140 -1.3709  0.5408  0.1481
  529MPD2     N 7913   1.962   2.836   0.438  0.1721  0.6084  0.3664
  529MPD2    H5 7914   1.934   2.892   0.357  1.8862 -0.0099 -0.6476
  529MPD2    N1 7915   2.103   2.393   0.555 -0.2194  0.5931  0.0574
  529MPD2    H7 7916   2.077   2.411   0.652  2.8575 -1.5593  1.2888
  530TMC3    C1 7917   2.169   2.198   0.663  0.2238  0.2049  0.0119
  530TMC3    C2 7918   2.198   2.270   0.776  0.3968 -0.8979 -0.2501
  530TMC3    C3 7919   2.221   2.189   0.890  0.1832 -0.3488 -0.1771
  530TMC3    C4 7920   2.161   2.062   0.662  0.9078 -0.5717  0.5520
  530TMC3    C5 7921   2.179   1.994   0.777  0.5329 -0.3901  0.1435
  530TMC3    C6 7922   2.199   2.051   0.893  0.1092 -0.6886  0.1017
  530TMC3     C 7923   2.148   2.264   0.537  0.4401 -0.1411 -0.1002
  530TMC3     O 7924   2.163   2.202   0.431  0.3001 -0.1869  0.4101
  530TMC3     H 7925   2.214   2.377   0.770  0.1833 -1.0013 -2.6232
  530TMC3    H1 7926   2.155   2.020   0.562  1.6891 -1.4742  0.8835
  530TMC3    H2 7927   2.207   1.994   0.984  1.7360 -1.2980 -0.4201
  530TMC3    C7 7928   2.194   1.855   0.772  0.5615  0.3209 -0.2593
  530TMC3    C8 7929   2.209   2.246   1.019  0.4626 -0.7565  0.9137
  530TMC3    O1 7930   2.239   1.798   0.671 -0.1363 -0.4348 -0.1386
  530TMC3    O2 7931   2.122   2.328   1.042 -0.2859 -0.4301 -0.6538
  531MPD2     C 7932   1.553   4.707  13.803  0.6164  0.4362  0.4018
  531MPD2    C1 7933   1.573   0.108  13.817  0.7015  0.0093 -0.1824
  531MPD2    C2 7934   1.586   0.181  13.698  0.2946 -0.1791 -0.2395
  531MPD2    C3 7935   1.608   0.120  13.581 -0.0951  0.3682 -0.6218
  531MPD2    C4 7936   1.599   4.722  13.573 -0.2366 -0.6514 -0.2341
  531MPD2    C5 7937   1.562   4.649  13.680 -1.1979 -0.9021 -0.0849
  531MPD2     H 7938   1.576   0.289  13.699  0.4451 -0.1627 -0.6975
  531MPD2    H1 7939   1.607   4.675  13.475 -1.3178  1.2383 -1.2386
  531MPD2    H2 7940   1.521   4.640  13.882 -2.1013 -0.1070 -1.1483
  531MPD2    H3 7941   1.544   4.542  13.687 -0.7883 -0.9846 -0.3076
  531MPD2     N 7942   1.632   0.179  13.460  0.7067 -0.2107  0.0703
  531MPD2    H5 7943   1.650   0.115  13.383 -0.4170  0.5646 -0.8398
  531MPD2    N1 7944   1.541   0.170  13.938 -0.6217 -0.4738  0.1863
  531MPD2    H7 7945   1.492   0.120  14.011 -1.2532 -0.4565 -0.2254
  532TMC3    C1 7946   1.528   0.353  14.091 -0.2988 -0.2984 -0.1675
  532TMC3    C2 7947   1.535   0.488  14.075 -0.0385  0.0287  0.1913
  532TMC3    C3 7948   1.627   0.572  14.133  0.7274  0.2762 -0.2541
  532TMC3    C4 7949   1.613   0.304  14.185 -0.9888  0.1760  0.1315
  532TMC3    C5 7950   1.705   0.389  14.237 -0.8587  0.2416 -0.0785
  532TMC3    C6 7951   1.717   0.523  14.214 -0.1503  0.1272  0.2509
  532TMC3     C 7952   1.553   0.307  13.957  0.0205  0.1209  0.3609
  532TMC3     O 7953   1.599   0.390  13.876  0.2376  0.4590  0.2150
  532TMC3     H 7954   1.457   0.535  14.017  0.4375  0.5759 -0.0139
  532TMC3    H1 7955   1.606   0.199  14.212  1.9112 -0.3755 -1.2695
  532TMC3    H2 7956   1.798   0.588  14.244 -0.0318  0.3308 -0.5085
  532TMC3    C7 7957   1.817   0.333  14.308 -0.2933 -0.6293 -0.6654
  532TMC3    C8 7958   1.676   0.686  14.056  0.4163  0.4750 -0.2052
  532TMC3    O1 7959   1.881   0.409  14.380  0.1263  0.0897  0.6817
  532TMC3    O2 7960   1.720   0.789  14.109 -0.0384 -0.2469 -0.0371
  533TMC3    C1 7961   1.944   2.271  14.879 -0.3025  0.4981  0.4995
  533TMC3    C2 7962   2.073   2.258  14.829 -0.2176  0.2496  0.1197
  533TMC3    C3 7963   2.165   2.335  14.894 -0.0409  0.1501 -0.3659
  533TMC3    C4 7964   1.919   2.309  15.007 -0.7173  0.1375 -1.1504
  533TMC3    C5 7965   2.014   2.385  15.072 -0.5039  0.2436 -0.9308
  533TMC3    C6 7966   2.135   2.401  15.007  0.1759  0.0448 -0.2373
  533TMC3     C 7967   1.861   2.158  14.839 -0.2625 -0.1794 -0.1284
  533TMC3     O 7968   1.775   2.184  14.757  0.0611  0.2874 -0.5674
  533TMC3     H 7969   2.090   2.205  14.735  0.4262 -0.6591  0.7504
  533TMC3    H1 7970   1.814   2.310  15.034 -0.1991  0.9127  0.8419
  533TMC3    H2 7971   2.221   2.444  15.057 -1.9721  1.1418  2.5106
  533TMC3    C7 7972   2.023   2.322  15.202 -0.4049 -0.3596 -0.1637
  533TMC3    C8 7973   2.305   2.345  14.849 -0.3028  0.8540 -1.0514
  533TMC3    O1 7974   2.129   2.261  15.212 -0.2997 -0.1084  0.5810
  533TMC3    O2 7975   2.345   2.457  14.871  0.3363  0.2003  0.2058
  534MPD2     C 7976   4.221   2.612   1.741  0.2199 -0.1915  0.5141
  534MPD2    C1 7977   4.295   2.593   1.621  0.2903 -0.3582  0.1641
  534MPD2    C2 7978   4.231   2.541   1.511  0.2513  0.6745  0.3265
  534MPD2    C3 7979   4.103   2.484   1.521  0.2706  0.2789 -0.9184
  534MPD2    C4 7980   4.036   2.503   1.640  0.0130  0.2211  0.2287
  534MPD2    C5 7981   4.093   2.571   1.748 -0.3342  0.1824  0.2057
  534MPD2     H 7982   4.292   2.523   1.422  1.3847 -0.2998  1.3036
  534MPD2    H1 7983   3.933   2.471   1.656  0.3301 -0.3555  1.0639
  534MPD2    H2 7984   4.260   2.676   1.820 -0.9542 -0.2580  1.1451
  534MPD2    H3 7985   4.032   2.589   1.837 -2.6447 -1.5215 -1.0484
  534MPD2     N 7986   4.036   2.417   1.417  0.5550 -0.3392  0.6240
  534MPD2    H5 7987   3.944   2.381   1.441 -0.0661 -0.5098 -1.9708
  534MPD2    N1 7988   4.422   2.641   1.588 -0.3592 -0.5546 -0.2877
  534MPD2    H7 7989   4.457   2.622   1.494  0.6884  0.2370 -0.0533
  535TMC3    C1 7990   3.979   2.369   1.190  0.1036 -0.6451 -0.8269
  535TMC3    C2 7991   3.852   2.350   1.239  0.5931 -0.8262  0.2626
  535TMC3    C3 7992   3.744   2.363   1.159 -0.4042 -0.4219 -0.7648
  535TMC3    C4 7993   3.992   2.411   1.059 -0.2153 -0.2100  0.3409
  535TMC3    C5 7994   3.880   2.445   0.987 -0.6383 -0.3488 -0.2797
  535TMC3    C6 7995   3.753   2.409   1.030 -0.4054 -0.2724 -0.3753
  535TMC3     C 7996   4.077   2.419   1.281 -0.3673  1.2215 -0.1873
  535TMC3     O 7997   4.179   2.466   1.235  0.0721 -0.2183 -0.6106
  535TMC3     H 7998   3.841   2.298   1.333  0.0195 -0.6152  0.3109
  535TMC3    H1 7999   4.092   2.428   1.020 -0.2184 -0.2345  0.3219
  535TMC3    H2 8000   3.669   2.419   0.961 -1.3562 -3.3435  0.3533
  535TMC3    C7 8001   3.908   2.525   0.866 -0.8897 -0.4805 -0.2061
  535TMC3    C8 8002   3.614   2.323   1.212  0.0295 -0.2400  0.1790
  535TMC3    O1 8003   4.018   2.547   0.816 -0.5957  0.8365  0.4566
  535TMC3    O2 8004   3.535   2.286   1.124  0.2908 -0.3946  0.8619
  536MPD2     C 8005   3.584   1.252  16.428  0.2239  0.0363 -0.1124
  536MPD2    C1 8006   3.476   1.169  16.446 -0.1338  0.3914  0.4153
  536MPD2    C2 8007   3.380   1.172  16.350 -0.2839 -0.0253 -0.3817
  536MPD2    C3 8008   3.384   1.252  16.242 -0.4346  0.3879 -0.8538
  536MPD2    C4 8009   3.489   1.337  16.233 -0.5316 -0.2627 -0.2750
  536MPD2    C5 8010   3.586   1.336  16.323 -0.3044  0.3652 -0.1174
  536MPD2     H 8011   3.300   1.100  16.362  0.4616 -0.7747  0.1968
  536MPD2    H1 8012   3.500   1.399  16.144  0.7502  0.8090  0.6351
  536MPD2    H2 8013   3.670   1.253  16.494  1.2657  1.7590 -1.4896
  536MPD2    H3 8014   3.673   1.400  16.317  1.4407 -1.9670  0.0294
  536MPD2     N 8015   3.281   1.273  16.145 -0.0538  0.5786  0.4147
  536MPD2    H5 8016   3.308   1.339  16.073  2.3825 -0.8111  0.0468
  536MPD2    N1 8017   3.482   1.078  16.547  0.0528 -0.0726  0.5572
  536MPD2    H7 8018   3.570   1.074  16.598 -2.1893  4.0260  4.6982
  537TMC3    C1 8019   3.428   0.902  16.684  0.2030  0.5759  0.6958
  537TMC3    C2 8020   3.555   0.917  16.744  0.0456 -0.2841  0.2662
  537TMC3    C3 8021   3.579   0.828  16.848  0.0187  0.5990  0.2986
  537TMC3    C4 8022   3.342   0.801  16.718  0.3991 -0.3422 -0.5188
  537TMC3    C5 8023   3.369   0.725  16.824 -0.1514  0.0683 -0.6898
  537TMC3    C6 8024   3.493   0.727  16.882 -0.0524 -0.1743 -0.6170
  537TMC3     C 8025   3.381   0.994  16.585  0.4997  0.4081 -0.5721
  537TMC3     O 8026   3.263   0.997  16.551 -0.2780 -0.1373  0.1833
  537TMC3     H 8027   3.625   0.997  16.723 -0.0544 -0.4057 -0.5136
  537TMC3    H1 8028   3.245   0.803  16.669  0.4227  0.2031 -0.5419
  537TMC3    H2 8029   3.518   0.645  16.948  1.8724 -1.3984 -2.8840
  537TMC3    C7 8030   3.280   0.620  16.850 -0.3374 -0.3471  0.1006
  537TMC3    C8 8031   3.696   0.855  16.935  0.1548 -1.0646  0.0828
  537TMC3    O1 8032   3.190   0.598  16.769  0.6191 -0.3298  0.5857
  537TMC3    O2 8033   3.742   0.968  16.921  0.3538 -0.6783  0.2310
  538TMC3    C1 8034   0.245   4.623  11.223 -0.6374  0.3416 -0.0175
  538TMC3    C2 8035   0.331   4.528  11.172  0.1783 -0.0815  0.0001
  538TMC3    C3 8036   0.326   4.487  11.037  0.1881 -0.5395 -0.3725
  538TMC3    C4 8037   0.150   4.677  11.143  0.2608  1.4445 -0.3706
  538TMC3    C5 8038   0.159   4.651  11.008  0.1000 -0.4043  0.3201
  538TMC3    C6 8039   0.242   4.557  10.954 -0.2224 -0.7936 -0.8775
  538TMC3     C 8040   0.241   4.659  11.365  0.1436 -0.0151 -0.1591
  538TMC3     O 8041   0.136   4.693  11.416 -0.1366  0.0676 -0.1504
  538TMC3     H 8042   0.396   4.470  11.235  0.8943  1.2068  0.4524
  538TMC3    H1 8043   0.079   0.006  11.193  1.3577  1.6870  0.8936
  538TMC3    H2 8044   0.241   4.539  10.847 -1.2385 -1.9346 -0.6823
  538TMC3    C7 8045   0.063   4.707  10.923 -0.2599 -0.0892 -0.0203
  538TMC3    C8 8046   0.456   4.466  10.989  0.1993  0.0956 -0.8573
  538TMC3    O1 8047   0.013   4.642  10.830  0.3680  0.1121 -0.7997
  538TMC3    O2 8048   0.534   4.389  11.048  0.1013 -0.3808  0.0537
  539MPD2     C 8049   0.222   4.072  12.280 -0.2681 -0.1006  0.2264
  539MPD2    C1 8050   0.181   4.077  12.150 -0.2833  0.1195  0.1532
  539MPD2    C2 8051   0.104   4.191  12.109  0.0275  0.5605 -0.1516
  539MPD2    C3 8052   0.073   4.293  12.196  0.2361 -0.1139  0.5824
  539MPD2    C4 8053   0.115   4.286  12.328  0.2441 -0.6810 -0.1164
  539MPD2    C5 8054   0.174   4.169  12.368 -0.5490  0.0057 -0.6633
  539MPD2     H 8055   0.071   4.203  12.006 -0.8420 -1.9931 -0.1728
  539MPD2    H1 8056   0.108   4.374  12.392  0.6323 -0.7639  0.0387
  539MPD2    H2 8057   0.294   4.001  12.319 -0.0008 -0.3998 -0.8083
  539MPD2    H3 8058   0.199   4.160  12.473 -0.7022 -1.7596 -0.7766
  539MPD2     N 8059   0.026   4.414  12.159 -0.3930 -0.1151  0.0122
  539MPD2    H5 8060   4.732   4.470  12.239 -0.1808  0.3279 -0.2202
  539MPD2    N1 8061   0.214   3.985  12.047 -0.1731  0.6043  0.0652
  539MPD2    H7 8062   0.169   3.994  11.956  0.7677 -1.4627 -0.6211
  540TMC3    C1 8063   4.698   4.605  12.034  0.6785 -0.2190  0.5794
  540TMC3    C2 8064   4.698   4.661  11.907 -0.2154 -0.3447 -0.3453
  540TMC3    C3 8065   4.619   0.039  11.892  0.4158  0.2211 -0.2370
  540TMC3    C4 8066   4.605   4.635  12.133 -0.3636 -0.1013 -0.9936
  540TMC3    C5 8067   4.520   0.004  12.105  0.1655 -0.1697 -0.7841
  540TMC3    C6 8068   4.525   0.079  11.991  0.1922  0.2782  0.1963
  540TMC3     C 8069   0.011   4.473  12.037 -0.3287 -0.8391 -0.4274
  540TMC3     O 8070   0.061   4.436  11.932 -0.0023  0.9010 -0.2200
  540TMC3     H 8071   0.022   4.634  11.821 -0.7524  1.1833 -1.1861
  540TMC3    H1 8072   4.579   4.565  12.211  0.6153  0.7789  0.1036
  540TMC3    H2 8073   4.457   0.164  11.980 -0.6501 -0.5323 -0.8911
  540TMC3    C7 8074   4.410   0.025  12.199  0.6204  0.2432 -0.1249
  540TMC3    C8 8075   4.582   0.087  11.762  0.0976 -0.3051  0.6031
  540TMC3    O1 8076   4.300   0.044  12.152  0.6270  0.4239 -0.6622
  540TMC3    O2 8077   4.533   0.199  11.755 -0.6664  0.4622  0.8374
  541MPD2     C 8078   2.603   1.013  13.896  0.1508  0.0802  0.5075
  541MPD2    C1 8079   2.615   0.921  13.797 -0.3736  0.5973 -0.3926
  541MPD2    C2 8080   2.651   0.977  13.672 -0.1002 -0.4409 -0.5821
  541MPD2    C3 8081   2.677   1.110  13.664  0.2388 -0.4025 -0.0973
  541MPD2    C4 8082   2.666   1.197  13.764 -0.1325 -0.1718  0.0289
  541MPD2    C5 8083   2.637   1.144  13.884 -0.3703 -0.6759  0.6318
  541MPD2     H 8084   2.649   0.922  13.579  2.7106  0.1039 -0.9604
  541MPD2    H1 8085   2.686   1.304  13.754 -0.6128  0.0229  1.2350
  541MPD2    H2 8086   2.572   0.976  13.993 -0.4204  1.4820  0.8575
  541MPD2    H3 8087   2.636   1.218  13.964 -1.4978 -0.2142  0.1825
  541MPD2     N 8088   2.728   1.172  13.544  0.8008 -0.1979  0.0322
  541MPD2    H5 8089   2.740   1.272  13.531  0.6450 -0.3264 -1.1253
  541MPD2    N1 8090   2.570   0.785  13.816  0.0602 -0.3110 -0.1408
  541MPD2    H7 8091   2.528   0.763  13.905 -0.7977  3.8585  0.4711
  542TMC3    C1 8092   2.794   1.154  13.314  0.6828  0.0868 -0.2287
  542TMC3    C2 8093   2.857   1.078  13.220  0.3764 -0.0426 -0.0008
  542TMC3    C3 8094   2.843   1.102  13.088 -0.6141  0.1918 -0.5081
  542TMC3    C4 8095   2.714   1.255  13.280  0.3579  0.0281  0.5767
  542TMC3    C5 8096   2.703   1.286  13.143  0.6729 -0.0102 -0.1282
  542TMC3    C6 8097   2.769   1.210  13.046 -0.2043 -0.0723 -0.4290
  542TMC3     C 8098   2.783   1.093  13.445  0.0617 -0.0056  0.5166
  542TMC3     O 8099   2.829   0.985  13.449  0.5026  0.3736 -0.7370
  542TMC3     H 8100   2.932   1.004  13.246  0.6591  0.0825 -0.4787
  542TMC3    H1 8101   2.655   1.317  13.347  2.5887 -0.0282  2.5713
  542TMC3    H2 8102   2.749   1.224  12.940 -2.8886  1.4201  0.2656
  542TMC3    C7 8103   2.637   1.412  13.112  0.2296 -0.0841 -0.4824
  542TMC3    C8 8104   2.885   1.004  12.980  0.1698 -0.9040  0.2421
  542TMC3    O1 8105   2.590   1.480  13.198  0.1640  0.3284 -0.7565
  542TMC3    O2 8106   2.840   1.036  12.871 -0.4363 -0.0428  0.7939
  543TMC3    C1 8107   1.815   2.021  17.321  0.8225  0.1666  0.4323
  543TMC3    C2 8108   1.836   1.904  17.388 -0.3860 -0.8438  0.5006
  543TMC3    C3 8109   1.795   1.896  17.515  0.0552 -0.3470  0.0499
  543TMC3    C4 8110   1.748   2.130  17.377 -0.0423  0.0166 -0.0473
  543TMC3    C5 8111   1.722   2.122  17.509 -0.1567  0.5661 -0.2451
  543TMC3    C6 8112   1.736   2.006  17.578 -0.5935  0.1850 -0.6003
  543TMC3     C 8113   1.851   2.006  17.182  0.4146 -0.3488  0.0578
  543TMC3     O 8114   1.914   1.906  17.149 -0.1021 -0.2057  0.5815
  543TMC3     H 8115   1.904   1.834  17.342  0.0675 -0.5084  0.6702
  543TMC3    H1 8116   1.739   2.221  17.318 -1.1046 -0.6748 -0.9264
  543TMC3    H2 8117   1.701   2.006  17.681 -0.4764  0.3845 -0.5585
  543TMC3    C7 8118   1.639   2.223  17.577  0.0136 -0.0249  0.0842
  543TMC3    C8 8119   1.793   1.758  17.559  0.3399  0.6280  0.5219
  543TMC3    O1 8120   1.557   2.187  17.664  0.0098 -0.1116  0.8530
  543TMC3    O2 8121   1.839   1.673  17.481 -0.2411  0.5238  0.4155
  544MPD2     C 8122   1.638   1.415   0.157  0.1616 -0.5035 -0.4439
  544MPD2    C1 8123   1.687   1.402   0.028 -0.0603  0.7566  0.4955
  544MPD2    C2 8124   1.735   1.514  17.706  0.4670  0.2304 -0.0186
  544MPD2    C3 8125   1.726   1.637   0.023  0.6136 -1.0960  0.7422
  544MPD2    C4 8126   1.672   1.649   0.152 -0.3561  0.5550 -0.9141
  544MPD2    C5 8127   1.632   1.538   0.217  0.8408  0.2608  0.5053
  544MPD2     H 8128   1.775   1.504  17.606 -1.0107  0.9002 -0.6695
  544MPD2    H1 8129   1.664   1.747   0.197 -0.5302  0.7744 -1.4281
  544MPD2    H2 8130   1.623   1.333   0.226 -0.2357  0.5732  0.7494
  544MPD2    H3 8131   1.609   1.544   0.323 -2.0510 -1.2931 -0.0494
  544MPD2     N 8132   1.754   1.750  17.694 -0.1102 -0.5442  0.1861
  544MPD2    H5 8133   1.729   1.837  17.739  0.2116 -0.0012 -0.6841
  544MPD2    N1 8134   1.685   1.271  17.720  0.7030  0.3027  0.2489
  544MPD2    H7 8135   1.652   1.198   0.040  3.5600 -0.4596  0.8662
  545TMC3    C1 8136   1.724   1.096  17.577  0.2104 -0.1288 -0.0140
  545TMC3    C2 8137   1.602   1.037  17.604 -0.4508  0.2727  0.2099
  545TMC3    C3 8138   1.575   0.916  17.545 -0.2996  0.0378  0.0263
  545TMC3    C4 8139   1.820   1.035  17.503  0.5862 -0.1907  0.3387
  545TMC3    C5 8140   1.791   0.915  17.448 -0.6074  0.2209 -0.1496
  545TMC3    C6 8141   1.672   0.852  17.475  0.0308  0.4367 -0.0775
  545TMC3     C 8142   1.730   1.236  17.594  0.1663  0.2109 -0.8674
  545TMC3     O 8143   1.778   1.307  17.509 -0.0198 -0.5305  0.5411
  545TMC3     H 8144   1.518   1.089  17.650  0.8491  1.5078  1.1990
  545TMC3    H1 8145   1.909   1.095  17.486 -0.6066  1.9721  1.6733
  545TMC3    H2 8146   1.637   0.763  17.424  2.9034 -1.1701  0.7535
  545TMC3    C7 8147   1.852   0.887  17.324 -0.6227 -0.3712 -0.1052
  545TMC3    C8 8148   1.448   0.848  17.566  0.0076 -0.0432 -0.0665
  545TMC3    O1 8149   1.777   0.871  17.231 -0.2486  1.0297  0.1205
  545TMC3    O2 8150   1.454   0.724  17.557 -0.5850  0.2560 -0.2974
  546MPD2     C 8151   3.292   1.822  16.782 -0.5874  0.3495 -0.8574
  546MPD2    C1 8152   3.261   1.800  16.915  0.0189  1.0634 -0.4508
  546MPD2    C2 8153   3.269   1.909  17.000 -0.0623  0.0472  0.2398
  546MPD2    C3 8154   3.325   2.032  16.961  0.8290  0.0804  0.1712
  546MPD2    C4 8155   3.353   2.041  16.826 -0.0362 -0.1258 -0.6125
  546MPD2    C5 8156   3.334   1.940  16.738  0.5871 -0.5682  0.7094
  546MPD2     H 8157   3.261   1.887  17.106  1.4557 -1.6800 -0.0057
  546MPD2    H1 8158   3.408   2.125  16.784 -1.1574  2.1947  2.5993
  546MPD2    H2 8159   3.284   1.736  16.715 -0.1795  0.2186 -0.7379
  546MPD2    H3 8160   3.373   1.940  16.637 -0.3587 -0.6155  0.3424
  546MPD2     N 8161   3.338   2.143  17.038 -0.2108 -0.4047  0.1973
  546MPD2    H5 8162   3.365   2.229  16.992 -0.3126 -0.6377 -0.3007
  546MPD2    N1 8163   3.218   1.677  16.943 -0.6709 -0.5888 -0.1974
  546MPD2    H7 8164   3.190   1.611  16.871  1.3006 -1.0953 -0.4992
  547TMC3    C1 8165   3.168   1.479  17.061  0.9009  0.3103  0.2181
  547TMC3    C2 8166   3.062   1.454  16.974 -0.5171 -0.2634 -0.1249
  547TMC3    C3 8167   2.993   1.333  16.996  0.0377 -0.2701  0.0995
  547TMC3    C4 8168   3.202   1.385  17.163 -0.2483 -0.2039 -0.5434
  547TMC3    C5 8169   3.129   1.265  17.169 -0.4346  0.5900  0.2944
  547TMC3    C6 8170   3.028   1.232  17.086 -0.1709  0.6454 -0.1161
  547TMC3     C 8171   3.216   1.620  17.069 -0.1604 -0.2822  0.0451
  547TMC3     O 8172   3.273   1.649  17.173  0.7562  0.4141 -0.5748
  547TMC3     H 8173   3.042   1.523  16.893 -2.3055 -2.3829 -1.4736
  547TMC3    H1 8174   3.272   1.415  17.241  1.5900  2.6288 -3.2889
  547TMC3    H2 8175   2.974   1.138  17.088 -0.1403  0.6383  0.3750
  547TMC3    C7 8176   3.119   1.195  17.296 -0.7527 -0.3047  0.1771
  547TMC3    C8 8177   2.860   1.332  16.928 -0.2033 -0.0340  0.0630
  547TMC3    O1 8178   3.020   1.129  17.311 -0.2532 -0.3315 -0.0275
  547TMC3    O2 8179   2.865   1.407  16.834  0.3655 -0.4076 -0.0555
  548MPD2     C 8180   3.384   2.802  12.080  0.4877  0.0750  0.0106
  548MPD2    C1 8181   3.339   2.710  12.174 -0.1497 -0.2059  0.2767
  548MPD2    C2 8182   3.435   2.633  12.239  0.0072  0.4861 -0.4215
  548MPD2    C3 8183   3.566   2.657  12.211 -0.6774  0.1384  0.2979
  548MPD2    C4 8184   3.605   2.752  12.119  0.2198 -0.3034 -0.0636
  548MPD2    C5 8185   3.508   2.832  12.056 -0.1732 -0.3347 -0.1196
  548MPD2     H 8186   3.409   2.557  12.311  4.1977 -2.0361 -1.5514
  548MPD2    H1 8187   3.706   2.778  12.089  0.4452 -0.7774  0.2895
  548MPD2    H2 8188   3.311   2.858  12.022  1.1173 -0.7438 -1.5968
  548MPD2    H3 8189   3.525   2.906  11.978  0.4097  0.2470  0.5674
  548MPD2     N 8190   3.662   2.578  12.280 -0.3343 -0.9340 -0.6305
  548MPD2    H5 8191   3.620   2.503  12.334 -0.2019 -1.8909 -1.8393
  548MPD2    N1 8192   3.201   2.687  12.189 -0.3221 -0.5183  0.0931
  548MPD2    H7 8193   3.142   2.740  12.125  3.3656  2.5621 -0.7156
  549TMC3    C1 8194   2.987   2.605  12.275 -0.4801 -0.4148  0.3084
  549TMC3    C2 8195   2.950   2.736  12.291  0.5589  0.4264 -0.5338
  549TMC3    C3 8196   2.831   2.759  12.348  0.1146  0.1816  0.4034
  549TMC3    C4 8197   2.912   2.506  12.329 -0.5932  0.2735  0.7707
  549TMC3    C5 8198   2.787   2.534  12.382  0.8905  0.2448 -0.5194
  549TMC3    C6 8199   2.742   2.660  12.389 -0.6102 -0.4073  0.3250
  549TMC3     C 8200   3.136   2.590  12.279  0.2158 -0.1005  0.1761
  549TMC3     O 8201   3.196   2.513  12.357 -0.1287 -0.3451  0.2822
  549TMC3     H 8202   3.003   2.824  12.259  3.5069 -0.3729  2.1654
  549TMC3    H1 8203   2.949   2.404  12.328 -1.4686 -0.0472  0.8304
  549TMC3    H2 8204   2.643   2.678  12.428 -0.2261 -0.3499  1.2796
  549TMC3    C7 8205   2.712   2.435  12.453  0.2552 -0.0888 -0.4458
  549TMC3    C8 8206   2.788   2.897  12.362 -0.0804 -0.0610  0.3053
  549TMC3    O1 8207   2.588   2.435  12.452 -0.0130 -0.0875  0.9521
  549TMC3    O2 8208   2.665   2.909  12.354 -0.1727 -0.0321  0.2654
  550TMC3    C1 8209   2.329   1.225  13.192  0.1880  0.7021  0.6101
  550TMC3    C2 8210   2.243   1.282  13.282 -0.1845 -0.5252 -0.8856
  550TMC3    C3 8211   2.173   1.388  13.237 -0.3617  0.4682 -0.6917
  550TMC3    C4 8212   2.353   1.275  13.065  0.1988 -0.3914 -0.2641
  550TMC3    C5 8213   2.283   1.393  13.031  0.1860  1.2270 -0.2476
  550TMC3    C6 8214   2.189   1.447  13.120  0.2803 -0.5375 -0.0294
  550TMC3     C 8215   2.414   1.114  13.244  0.3656  0.0904  0.2039
  550TMC3     O 8216   2.435   1.102  13.362  0.5559 -0.2994  0.2640
  550TMC3     H 8217   2.234   1.232  13.377 -0.3476  2.9679  0.9512
  550TMC3    H1 8218   2.413   1.216  12.996 -1.3731 -1.9417 -0.3100
  550TMC3    H2 8219   2.133   1.538  13.099 -0.6820 -1.3098 -0.7831
  550TMC3    C7 8220   2.261   1.417  12.884  0.0679 -0.3022  0.0360
  550TMC3    C8 8221   2.048   1.427  13.305  0.3179  0.4334  0.2975
  550TMC3    O1 8222   2.204   1.523  12.850  0.0884 -0.9500  0.1155
  550TMC3    O2 8223   1.966   1.496  13.242  0.0720  0.4675  0.2216
  551TMC3    C1 8224   4.704   3.067  13.420  0.1522 -0.0320  0.2756
  551TMC3    C2 8225   0.072   2.999  13.365 -0.2193 -0.3158 -0.1763
  551TMC3    C3 8226   0.191   3.014  13.420 -0.2241 -0.0640  0.0272
  551TMC3    C4 8227   4.703   3.120  13.549  0.0452  0.0229  0.6731
  551TMC3    C5 8228   0.093   3.121  13.607 -0.2419  0.3022  0.1115
  551TMC3    C6 8229   0.205   3.079  13.546  0.6952  0.2987  0.3027
  551TMC3     C 8230   4.586   3.065  13.339  0.5477  0.7216 -0.2924
  551TMC3     O 8231   4.584   2.995  13.239 -0.0885  0.2075  0.1353
  551TMC3     H 8232   0.073   2.956  13.265 -1.6379  1.7048 -1.0537
  551TMC3    H1 8233   4.614   3.147  13.604  0.3326  0.8656  0.7231
  551TMC3    H2 8234   0.299   3.105  13.593 -0.3589 -0.6291  2.8963
  551TMC3    C7 8235   0.108   3.169  13.744 -0.2307  0.2912 -0.0778
  551TMC3    C8 8236   0.296   3.031  13.321 -0.5309  0.2364  0.0499
  551TMC3    O1 8237   0.214   3.143  13.795  0.6965  0.0567  0.3523
  551TMC3    O2 8238   0.320   2.929  13.259 -0.8209  0.3014 -0.3879
  552MPD2     C 8239   1.738   0.119  14.593 -0.1799  0.4739 -0.1444
  552MPD2    C1 8240   1.708   4.728  14.641 -0.8953  0.1434 -0.6515
  552MPD2    C2 8241   1.773   4.678  14.749 -0.2363 -0.0860  0.3196
  552MPD2    C3 8242   1.867   0.016  14.815 -0.1649 -0.3416 -0.2756
  552MPD2    C4 8243   1.884   0.140  14.772 -0.7793 -0.1475 -0.0318
  552MPD2    C5 8244   1.829   0.196  14.665 -0.2671 -0.2266  0.3126
  552MPD2     H 8245   1.741   4.583  14.790  0.5951 -1.4215 -2.1456
  552MPD2    H1 8246   1.970   0.194  14.811 -1.7979  0.9877  0.6282
  552MPD2    H2 8247   1.684   0.168  14.512 -0.8089  0.5984  0.3461
  552MPD2    H3 8248   1.847   0.299  14.637 -1.1204 -0.7774 -2.3548
  552MPD2     N 8249   1.946   4.697  14.918 -0.0928 -0.4032  0.8808
  552MPD2    H5 8250   2.027   0.009  14.955  0.0466 -0.1605  0.2651
  552MPD2    N1 8251   1.613   4.641  14.589  0.4167  0.3248 -0.6793
  552MPD2    H7 8252   1.596   4.552  14.635  1.3045 -0.4511 -1.8802
  553TMC3    C1 8253   1.483   4.542  14.425  0.2223  0.0952  0.2581
  553TMC3    C2 8254   1.529   4.527  14.299  0.5696  0.4902  0.1919
  553TMC3    C3 8255   1.623   4.436  14.278  0.0080  1.1161 -0.2141
  553TMC3    C4 8256   1.502   4.449  14.526 -0.0128 -0.1216 -0.2780
  553TMC3    C5 8257   1.585   4.343  14.493  0.4389  0.2785 -0.0014
  553TMC3    C6 8258   1.654   4.343  14.368  0.0532  0.7597  0.1763
  553TMC3     C 8259   1.547   4.663  14.468  0.1481 -0.8682 -0.5050
  553TMC3     O 8260   1.566   0.013  14.384 -0.4933 -0.2934  0.2846
  553TMC3     H 8261   1.517   4.603  14.223 -0.9741 -0.0946 -0.1520
  553TMC3    H1 8262   1.450   4.462  14.620 -0.0324 -2.5268  0.0389
  553TMC3    H2 8263   1.722   4.264  14.339 -0.4855 -0.4903  2.2468
  553TMC3    C7 8264   1.655   4.277  14.607 -0.1040 -0.2944  0.1926
  553TMC3    C8 8265   1.677   4.421  14.146  0.1346  0.0214  0.3931
  553TMC3    O1 8266   1.579   4.271  14.704 -0.5294  0.2105 -0.0499
  553TMC3    O2 8267   1.798   4.400  14.131 -0.5501 -0.2571  1.0621
  554TMC3    C1 8268   3.600   4.375  12.094  0.3340  0.0200  0.0733
  554TMC3    C2 8269   3.483   4.376  12.023 -0.4978  0.0261  0.3374
  554TMC3    C3 8270   3.484   4.453  11.911  0.0201 -0.3028 -0.3858
  554TMC3    C4 8271   3.717   4.435  12.056 -0.1148  0.1773  0.5430
  554TMC3    C5 8272   3.713   4.504  11.940  0.0425 -0.0777 -0.0556
  554TMC3    C6 8273   3.598   4.517  11.862 -0.2403 -0.3088  0.5398
  554TMC3     C 8274   3.607   4.269  12.188  0.5713 -0.3578  0.0263
  554TMC3     O 8275   3.510   4.219  12.240  0.4220  0.2090  0.1579
  554TMC3     H 8276   3.396   4.318  12.053 -1.0131  0.8998  0.5524
  554TMC3    H1 8277   3.793   4.448  12.131  1.8221 -0.6851 -1.2676
  554TMC3    H2 8278   3.594   4.581  11.774  0.2794  0.3701  1.0108
  554TMC3    C7 8279   3.829   4.560  11.879  0.1690  0.0573  0.2804
  554TMC3    C8 8280   3.374   4.452  11.816  0.1067  0.0069  0.4669
  554TMC3    O1 8281   3.923   4.573  11.960 -0.1066 -0.5161  0.3931
  554TMC3    O2 8282   3.404   4.491  11.704  0.1781 -0.0420 -0.1312
  555TMC3    C1 8283   2.318   3.519  15.802 -0.4688  0.3810 -0.6127
  555TMC3    C2 8284   2.315   3.560  15.933 -0.4999  0.1769 -0.4302
  555TMC3    C3 8285   2.322   3.472  16.036  0.0358  0.2050  0.6035
  555TMC3    C4 8286   2.356   3.391  15.770 -0.7108  0.8037  0.1986
  555TMC3    C5 8287   2.388   3.307  15.877 -0.5302  0.0845  0.6552
  555TMC3    C6 8288   2.368   3.341  16.006  0.6567 -0.0252 -0.6064
  555TMC3     C 8289   2.356   3.629  15.706  0.1497  0.0663 -0.0287
  555TMC3     O 8290   2.432   3.716  15.758 -0.2665  0.2361  0.1550
  555TMC3     H 8291   2.293   3.666  15.941  1.2400  0.5859 -1.0016
  555TMC3    H1 8292   2.357   3.355  15.668  2.2207 -0.3627  0.6541
  555TMC3    H2 8293   2.386   3.269  16.085  1.6039  0.1958 -0.6208
  555TMC3    C7 8294   2.414   3.172  15.851  1.1939 -0.0908 -0.1620
  555TMC3    C8 8295   2.308   3.527  16.164  1.2415 -0.6522 -0.3061
  555TMC3    O1 8296   2.383   3.090  15.934 -0.1320 -0.4077 -0.8258
  555TMC3    O2 8297   2.238   3.628  16.177  0.0648  0.5755 -0.2625
  556MPD2     C 8298   0.484   0.982  10.631 -0.1395 -0.1878 -0.3751
  556MPD2    C1 8299   0.519   0.882  10.720 -0.1556  0.1057  0.4255
  556MPD2    C2 8300   0.529   0.753  10.673 -0.1050 -0.1643 -0.7053
  556MPD2    C3 8301   0.501   0.712  10.550  0.3320 -0.5436 -1.3227
  556MPD2    C4 8302   0.459   0.807  10.463 -0.1335 -0.3071  0.9034
  556MPD2    C5 8303   0.454   0.939  10.501  0.0156  0.1158  0.1773
  556MPD2     H 8304   0.546   0.673  10.745 -4.7499 -1.8168 -1.4424
  556MPD2    H1 8305   0.455   0.794  10.355 -0.0696  1.2885  0.7184
  556MPD2    H2 8306   0.480   1.088  10.652  0.2210 -0.1508 -0.4859
  556MPD2    H3 8307   0.425   1.017  10.431 -1.3215 -1.0545 -0.5582
  556MPD2     N 8308   0.519   0.577  10.507 -0.6958 -0.0911  0.3893
  556MPD2    H5 8309   0.559   0.513  10.575 -0.9855  0.5416  1.1618
  556MPD2    N1 8310   0.557   0.893  10.858 -0.3166 -0.1451  0.0661
  556MPD2    H7 8311   0.577   0.808  10.910 -0.2647  0.4377  0.9873
  557TMC3    C1 8312   0.528   0.389  10.368  0.9671 -0.0410 -0.4027
  557TMC3    C2 8313   0.471   0.311  10.268  0.4585 -0.4523 -0.3277
  557TMC3    C3 8314   0.505   0.177  10.266  0.3251  0.6530 -0.3197
  557TMC3    C4 8315   0.627   0.344  10.452  0.3229 -0.1336 -0.3808
  557TMC3    C5 8316   0.662   0.215  10.435  0.0292  0.3514 -0.0005
  557TMC3    C6 8317   0.595   0.127  10.351  0.5457  0.0136  0.5543
  557TMC3     C 8318   0.481   0.523  10.387  0.1473  0.6040  0.4776
  557TMC3     O 8319   0.404   0.572  10.307  0.0941  0.9359  0.2394
  557TMC3     H 8320   0.374   0.343  10.232  1.9263 -0.3080 -4.1731
  557TMC3    H1 8321   0.700   0.406  10.502 -0.1526 -0.4968  0.7749
  557TMC3    H2 8322   0.628   0.024  10.342  0.9795  0.3503 -1.9037
  557TMC3    C7 8323   0.708   0.159  10.561  0.0715 -0.1010  0.4837
  557TMC3    C8 8324   0.405   0.094  10.209  0.4219 -0.4163  0.1375
  557TMC3    O1 8325   0.680   0.218  10.666 -0.6720 -0.5540  0.1330
  557TMC3    O2 8326   0.302   0.149  10.178 -0.1864 -0.0519 -0.1958
  558TMC3    C1 8327   3.251   3.752  10.338  0.5978  0.4235  0.4483
  558TMC3    C2 8328   3.210   3.808  10.457 -0.0509 -0.2244 -0.4574
  558TMC3    C3 8329   3.095   3.882  10.458 -0.4132 -0.1535 -0.1884
  558TMC3    C4 8330   3.185   3.770  10.226  0.6861  0.5557  0.3537
  558TMC3    C5 8331   3.081   3.863  10.223  0.0457  0.2622  0.1774
  558TMC3    C6 8332   3.039   3.915  10.342  0.2174 -0.1136  0.3360
  558TMC3     C 8333   3.366   3.667  10.345  0.6236 -0.5443  0.5609
  558TMC3     O 8334   3.407   3.654  10.461  0.0590  0.3997 -0.2714
  558TMC3     H 8335   3.267   3.798  10.548 -0.5566 -2.5983 -0.3956
  558TMC3    H1 8336   3.196   3.712  10.135 -2.5392  1.8681 -0.8898
  558TMC3    H2 8337   2.953   3.980  10.342 -1.4455 -2.3216 -4.1748
  558TMC3    C7 8338   3.008   3.888  10.095  0.6627  0.2153  0.0479
  558TMC3    C8 8339   3.009   3.872  10.579 -0.1120 -0.5147  0.5533
  558TMC3    O1 8340   2.988   4.004  10.058  0.2186 -0.2137 -0.0286
  558TMC3    O2 8341   2.912   3.946  10.586 -0.1287 -0.3652 -0.1308
  559MPD2     C 8342   3.177   4.041  11.514  0.3595  0.0264  0.3785
  559MPD2    C1 8343   3.190   3.909  11.485  0.5633 -0.2490 -0.5397
  559MPD2    C2 8344   3.315   3.854  11.449  0.2521  0.3612 -0.7491
  559MPD2    C3 8345   3.424   3.943  11.454  0.4604  0.3648 -0.2687
  559MPD2    C4 8346   3.413   4.071  11.507 -0.6434  0.0758 -0.0613
  559MPD2    C5 8347   3.294   4.118  11.535  0.3612 -0.0027  0.3265
  559MPD2     H 8348   3.327   3.754  11.410  1.4011  0.3230 -0.2815
  559MPD2    H1 8349   3.494   4.143  11.511 -2.6205  2.3205 -0.0701
  559MPD2    H2 8350   3.083   4.085  11.545  0.3971  0.0779  0.4171
  559MPD2    H3 8351   3.297   4.216  11.581 -2.3800 -0.0632  0.6686
  559MPD2     N 8352   3.551   3.883  11.419  0.1108  0.2017  0.2018
  559MPD2    H5 8353   3.556   3.785  11.392  1.0463  0.1442  0.5841
  559MPD2    N1 8354   3.071   3.831  11.469  0.2966 -0.2434 -0.2137
  559MPD2    H7 8355   2.982   3.876  11.489  0.7400 -0.3148  2.0116
  560TMC3    C1 8356   3.779   3.864  11.388  0.1026 -0.5839 -0.5301
  560TMC3    C2 8357   3.745   3.757  11.307 -0.0862 -0.2165 -0.8110
  560TMC3    C3 8358   3.830   3.646  11.294  0.3940  0.6278 -0.3721
  560TMC3    C4 8359   3.900   3.865  11.454 -0.0929 -0.2241 -0.1242
  560TMC3    C5 8360   3.986   3.755  11.439  0.9388  0.7290  0.1460
  560TMC3    C6 8361   3.951   3.638  11.370  0.5291 -0.1516  0.1156
  560TMC3     C 8362   3.671   3.949  11.428 -0.6648  0.0058  0.2702
  560TMC3     O 8363   3.697   4.067  11.454 -0.9106 -0.2858 -0.0116
  560TMC3     H 8364   3.663   3.778  11.240 -1.2297 -0.2772  0.5734
  560TMC3    H1 8365   3.918   3.948  11.522 -1.7718 -1.0774  1.3577
  560TMC3    H2 8366   4.014   3.550  11.361 -0.0099 -0.3439 -1.7758
  560TMC3    C7 8367   4.085   3.729  11.543  0.4695  0.3861 -0.9059
  560TMC3    C8 8368   3.766   3.529  11.222  0.5508  0.1839 -0.4754
  560TMC3    O1 8369   4.088   3.615  11.585 -0.3120 -0.1903  0.2186
  560TMC3    O2 8370   3.646   3.547  11.199 -0.0730 -0.4575  0.6307
  561TMC3    C1 8371   1.540   2.379  11.632  0.1441  0.9269 -1.0390
  561TMC3    C2 8372   1.489   2.349  11.759  0.0186 -0.5950  0.7355
  561TMC3    C3 8373   1.412   2.446  11.818 -0.2159  0.6629 -1.3245
  561TMC3    C4 8374   1.534   2.506  11.578  0.1364  0.3402  1.2595
  561TMC3    C5 8375   1.460   2.597  11.649  0.0915  0.2707  0.4246
  561TMC3    C6 8376   1.400   2.572  11.765 -0.0801  0.6284  0.5747
  561TMC3     C 8377   1.583   2.274  11.541  0.0329  0.4530  0.1219
  561TMC3     O 8378   1.532   2.165  11.569  0.5530  0.1907 -0.4215
  561TMC3     H 8379   1.489   2.247  11.797  1.2445 -0.9701 -0.2602
  561TMC3    H1 8380   1.568   2.521  11.476  0.1270 -1.6473  0.9595
  561TMC3    H2 8381   1.353   2.654  11.817 -0.3124 -0.3482  1.8807
  561TMC3    C7 8382   1.430   2.734  11.596 -0.0456  0.0554 -1.0399
  561TMC3    C8 8383   1.342   2.415  11.936  0.1261 -0.3652  0.2920
  561TMC3    O1 8384   1.339   2.804  11.642  0.7563 -0.8853  0.4204
  561TMC3    O2 8385   1.376   2.312  11.998 -0.2554 -0.1248  0.2151
  562TMC3    C1 8386   2.069   3.331  16.922  0.0362 -0.0556 -0.7450
  562TMC3    C2 8387   2.039   3.465  16.921  0.0926 -0.3184 -0.7792
  562TMC3    C3 8388   2.012   3.529  16.797  0.2385  0.3331  0.6436
  562TMC3    C4 8389   2.059   3.254  16.807  0.3057  0.8572  0.8095
  562TMC3    C5 8390   2.018   3.324  16.697 -0.2384  0.9495  1.2655
  562TMC3    C6 8391   2.000   3.462  16.685 -0.7243  0.1906  0.1123
  562TMC3     C 8392   2.132   3.284  17.045  0.1162 -0.8188 -0.1118
  562TMC3     O 8393   2.158   3.376  17.125 -0.1111  0.0398 -0.3725
  562TMC3     H 8394   2.013   3.524  17.009  2.6715 -0.5978  0.1573
  562TMC3    H1 8395   2.042   3.148  16.821  2.7976  0.4865  1.1475
  562TMC3    H2 8396   2.004   3.496  16.583 -0.1262  2.7086  0.9872
  562TMC3    C7 8397   2.015   3.259  16.571  0.1771  0.4563  0.0757
  562TMC3    C8 8398   2.005   3.670  16.807  0.6880 -0.3088 -0.6928
  562TMC3    O1 8399   1.932   3.294  16.486 -0.1037 -0.1995  0.2317
  562TMC3    O2 8400   2.068   3.720  16.899  0.0130  0.0621 -0.1856
  563MPD2     C 8401   0.037   0.144  15.653  0.4376 -0.4639 -0.1564
  563MPD2    C1 8402   0.049   0.116  15.787  0.8015  0.2153  0.4259
  563MPD2    C2 8403   0.181   0.126  15.844  0.4386  0.1437  0.2121
  563MPD2    C3 8404   0.286   0.160  15.760 -0.7997 -0.8618 -0.3458
  563MPD2    C4 8405   0.270   0.184  15.623 -0.6983  0.0550  0.0733
  563MPD2    C5 8406   0.142   0.178  15.572 -0.4395 -0.2283 -0.0038
  563MPD2     H 8407   0.194   0.109  15.951  1.1110  0.6487  0.2062
  563MPD2    H1 8408   0.357   0.207  15.562  0.5901 -2.9281  0.7610
  563MPD2    H2 8409   4.678   0.143  15.602 -0.2568 -1.7310  1.1827
  563MPD2    H3 8410   0.120   0.200  15.469 -2.3063 -1.7046  0.0875
  563MPD2     N 8411   0.408   0.165  15.829 -0.1378  0.9449 -0.0526
  563MPD2    H5 8412   0.407   0.144  15.928  0.2005  3.8324  0.5801
  563MPD2    N1 8413   4.667   0.100  15.872 -0.5363 -0.6161  0.4674
  563MPD2    H7 8414   4.576   0.095  15.827 -0.5521  1.5232  0.2706
  564TMC3    C1 8415   4.545   0.060  16.082 -0.4319  0.3003  0.5868
  564TMC3    C2 8416   4.431   0.014  16.021  0.2933 -0.2586  0.0889
  564TMC3    C3 8417   4.336   4.693  16.102 -0.1362 -0.0678 -0.3193
  564TMC3    C4 8418   4.557   0.081  16.217  0.4056  0.3596 -0.4868
  564TMC3    C5 8419   4.465   0.018  16.297 -0.6758  0.0018  0.0463
  564TMC3    C6 8420   4.358   4.697  16.236  0.3992 -0.1758  0.4726
  564TMC3     C 8421   4.671   0.066  16.009 -0.3133  0.3068 -0.3068
  564TMC3     O 8422   0.034   0.059  16.081  1.0950  0.4372  0.4556
  564TMC3     H 8423   4.432   4.734  15.913  2.4366 -1.7609  0.3156
  564TMC3    H1 8424   4.652   0.113  16.258 -1.0540  2.3224  1.3229
  564TMC3    H2 8425   4.286   4.659  16.307  3.1596 -1.7167  2.4733
  564TMC3    C7 8426   4.536   4.666  16.386  0.0067  0.2423  0.1895
  564TMC3    C8 8427   4.287   4.559  16.071  0.0405 -1.0144 -0.4588
  564TMC3    O1 8428   4.627   4.712  16.450  0.0584  0.0872 -0.1085
  564TMC3    O2 8429   4.318   4.464  16.143 -0.4773  0.3507 -0.3360
  565TMC3    C1 8430   0.436   1.502  10.627  0.2528 -0.3625  0.5072
  565TMC3    C2 8431   0.428   1.422  10.728  0.3251 -0.0432  0.6714
  565TMC3    C3 8432   0.323   1.335  10.729 -0.9918  0.5604  0.4281
  565TMC3    C4 8433   0.345   1.501  10.524 -0.0701  0.2611  0.3083
  565TMC3    C5 8434   0.245   1.419  10.533 -1.2364  0.5753  0.4387
  565TMC3    C6 8435   0.231   1.324  10.625  0.8851  0.2012 -0.0704
  565TMC3     C 8436   0.556   1.583  10.613 -0.3382  0.6030 -0.7337
  565TMC3     O 8437   0.581   1.637  10.509  0.0694 -0.0474 -0.7148
  565TMC3     H 8438   0.510   1.401  10.796 -0.2333 -1.0170  1.0552
  565TMC3    H1 8439   0.353   1.570  10.440  2.2343  0.7216  0.9077
  565TMC3    H2 8440   0.131   1.293  10.655  1.1781 -0.6822 -0.0137
  565TMC3    C7 8441   0.152   1.417  10.421  0.0866  0.1142  0.0822
  565TMC3    C8 8442   0.299   1.257  10.850 -0.1463  0.0230  0.5971
  565TMC3    O1 8443   0.146   1.517  10.354 -0.3367 -0.4315 -0.8453
  565TMC3    O2 8444   0.372   1.284  10.942 -0.0149  0.2655 -0.1076
  566MPD2     C 8445   2.013   3.140  14.709  0.7049 -0.2543 -0.0514
  566MPD2    C1 8446   1.978   3.220  14.604  0.3215 -0.3861  0.6062
  566MPD2    C2 8447   1.875   3.187  14.519  0.2942  0.3852  0.4809
  566MPD2    C3 8448   1.821   3.065  14.526 -0.1450 -0.3577  0.1358
  566MPD2    C4 8449   1.849   2.985  14.639 -0.2639  0.4838 -0.2224
  566MPD2    C5 8450   1.941   3.026  14.729 -0.5633 -0.8849  0.1289
  566MPD2     H 8451   1.848   3.256  14.441 -2.6285 -2.2272 -0.7975
  566MPD2    H1 8452   1.795   2.892  14.638 -0.1486  0.3875  2.1765
  566MPD2    H2 8453   2.094   3.156  14.779 -1.9340  0.8192  2.7829
  566MPD2    H3 8454   1.975   2.949  14.798  0.0015  1.2126  2.1703
  566MPD2     N 8455   1.717   3.013  14.434 -0.2621 -0.0338  0.4045
  566MPD2    H5 8456   1.662   2.938  14.475 -0.6024 -0.1552 -0.2889
  566MPD2    N1 8457   2.056   3.330  14.580 -0.4763 -0.5307  0.0616
  566MPD2    H7 8458   2.132   3.345  14.645  0.4700 -1.0384 -0.9302
  567TMC3    C1 8459   2.117   3.550  14.496  0.8116  0.0170  1.0129
  567TMC3    C2 8460   2.158   3.618  14.378 -0.1369  0.3272 -0.7603
  567TMC3    C3 8461   2.252   3.723  14.402  0.5888 -0.0741  0.3435
  567TMC3    C4 8462   2.173   3.584  14.613  0.5264  0.3385 -0.3261
  567TMC3    C5 8463   2.267   3.681  14.632  0.4577  0.9664  0.4003
  567TMC3    C6 8464   2.307   3.754  14.521  0.9946 -0.0238  0.8369
  567TMC3     C 8465   2.034   3.433  14.485  0.7375 -0.1117  0.5761
  567TMC3     O 8466   1.964   3.432  14.385 -0.3890 -0.0200  0.4921
  567TMC3     H 8467   2.109   3.594  14.285 -0.0516 -3.4380  0.1916
  567TMC3    H1 8468   2.134   3.546  14.707  1.3770  0.1665 -0.0335
  567TMC3    H2 8469   2.379   3.835  14.529  0.5052  0.1710  3.4278
  567TMC3    C7 8470   2.351   3.692  14.753  0.3828  0.2630 -0.0777
  567TMC3    C8 8471   2.263   3.809  14.282 -0.6076 -0.1494  0.5536
  567TMC3    O1 8472   2.419   3.794  14.756 -0.2934 -0.3590  0.3057
  567TMC3    O2 8473   2.210   3.771  14.178  0.2648 -0.3747  0.3606
  568MPD2     C 8474   3.560   3.528  16.733 -0.5638 -0.4643  0.3022
  568MPD2    C1 8475   3.694   3.541  16.764 -0.3500 -0.4243  0.3015
  568MPD2    C2 8476   3.783   3.597  16.678 -0.2759  0.2947  0.2064
  568MPD2    C3 8477   3.732   3.644  16.556  0.2691  0.4892 -0.5883
  568MPD2    C4 8478   3.600   3.640  16.527  0.1650 -0.1505  0.1603
  568MPD2    C5 8479   3.517   3.582  16.614  0.8223  0.2759 -0.1345
  568MPD2     H 8480   3.887   3.605  16.708  0.1604  2.4291 -1.8056
  568MPD2    H1 8481   3.557   3.666  16.431  1.7039  1.0187 -0.2017
  568MPD2    H2 8482   3.490   3.486  16.803  0.1235  0.6380  1.6544
  568MPD2    H3 8483   3.410   3.580  16.599  0.7578 -0.4798  0.4694
  568MPD2     N 8484   3.832   3.689  16.465 -0.5308  0.0996 -0.7553
  568MPD2    H5 8485   3.929   3.667  16.481 -0.2786  2.2994  0.7381
  568MPD2    N1 8486   3.737   3.495  16.897  0.1206  0.4638 -0.4452
  568MPD2    H7 8487   3.668   3.489  16.971 -1.2532  1.1246 -1.6842
  569TMC3    C1 8488   3.923   3.799  16.283  0.4072 -0.2469 -0.5156
  569TMC3    C2 8489   4.043   3.787  16.347 -1.0925  0.2721  0.7082
  569TMC3    C3 8490   4.143   3.852  16.279  0.2959 -0.3157 -0.0826
  569TMC3    C4 8491   3.896   3.860  16.159 -0.3034 -0.9883  0.0377
  569TMC3    C5 8492   4.001   3.925  16.098  0.1177 -0.7891 -0.8679
  569TMC3    C6 8493   4.122   3.913  16.156  0.5496  0.2157 -0.4439
  569TMC3     C 8494   3.806   3.755  16.349  0.2238 -0.1601  0.9537
  569TMC3     O 8495   3.696   3.788  16.303 -0.3433 -0.9337 -0.2889
  569TMC3     H 8496   4.061   3.740  16.443 -0.0813  0.5979  0.6760
  569TMC3    H1 8497   3.802   3.864  16.105 -0.5545 -0.5846  0.4986
  569TMC3    H2 8498   4.214   3.950  16.110  0.7979 -0.5907 -0.5893
  569TMC3    C7 8499   3.977   4.017  15.986 -0.4808 -0.0668 -0.2211
  569TMC3    C8 8500   4.245   3.910  16.358 -0.4159 -0.3061 -0.4349
  569TMC3    O1 8501   3.880   3.992  15.915  0.1638 -0.7296 -0.3801
  569TMC3    O2 8502   4.273   4.024  16.328 -0.4625 -0.3159  0.4247
  570TMC3    C1 8503   3.556   2.431  16.293 -0.5868  0.3353 -0.0933
  570TMC3    C2 8504   3.621   2.450  16.167 -0.2941 -0.5333 -0.8998
  570TMC3    C3 8505   3.684   2.563  16.143 -0.5668  0.5878  0.4314
  570TMC3    C4 8506   3.542   2.542  16.374  0.4580  0.0933  0.2424
  570TMC3    C5 8507   3.613   2.659  16.339 -0.6559 -0.2229 -0.4576
  570TMC3    C6 8508   3.696   2.670  16.231  0.4100 -0.0188  0.2886
  570TMC3     C 8509   3.497   2.301  16.316 -0.1557 -0.6594 -0.0628
  570TMC3     O 8510   3.530   2.221  16.230 -0.2913  0.4086 -0.8204
  570TMC3     H 8511   3.637   2.365  16.102  3.6512 -0.7822  0.3560
  570TMC3    H1 8512   3.467   2.552  16.451 -0.1555 -0.0504 -0.3338
  570TMC3    H2 8513   3.762   2.751  16.199  1.0105 -1.0727 -1.1762
  570TMC3    C7 8514   3.612   2.771  16.426  0.5245  0.1802  0.6993
  570TMC3    C8 8515   3.756   2.584  16.015 -0.0561 -1.3989 -0.7856
  570TMC3    O1 8516   3.567   2.755  16.537  0.4717  0.0495 -0.2447
  570TMC3    O2 8517   3.849   2.659  16.023  0.2835  0.0924 -0.0962
  571MPD2     C 8518   1.296   4.038   0.357  0.4198  0.3121  0.1505
  571MPD2    C1 8519   1.252   4.016   0.487 -0.0293  0.7994  0.0812
  571MPD2    C2 8520   1.278   4.113   0.584  0.4765  0.0113 -0.0936
  571MPD2    C3 8521   1.340   4.230   0.547 -0.1915 -0.3740  0.3770
  571MPD2    C4 8522   1.368   4.253   0.410  0.4027 -0.1621 -0.2365
  571MPD2    C5 8523   1.353   4.160   0.315  0.6921  0.2424  0.5209
  571MPD2     H 8524   1.266   4.095   0.690  2.0784 -0.2452  0.0414
  571MPD2    H1 8525   1.399   4.352   0.379 -2.0066  1.4276  2.4095
  571MPD2    H2 8526   1.288   3.969   0.274  0.8633  0.6787 -0.1974
  571MPD2    H3 8527   1.379   4.177   0.211  1.4805  1.2786  0.8892
  571MPD2     N 8528   1.357   4.344   0.635 -0.0206  0.1717 -0.0981
  571MPD2    H5 8529   1.403   4.426   0.596  2.2613 -1.2349 -0.3688
  571MPD2    N1 8530   1.181   3.903   0.509 -0.4638  0.9220  0.8648
  571MPD2    H7 8531   1.183   3.834   0.435  1.4525  0.0587  1.7202
  572TMC3    C1 8532   1.378   4.467   0.841 -0.3700  0.4793  0.2989
  572TMC3    C2 8533   1.348   4.467   0.973 -0.0055  0.2602  0.5341
  572TMC3    C3 8534   1.364   4.589   1.034  0.0020  0.1387  0.6685
  572TMC3    C4 8535   1.439   4.569   0.781  0.8400 -0.1404 -0.4054
  572TMC3    C5 8536   1.459   4.683   0.847 -0.3389 -0.6605  1.0623
  572TMC3    C6 8537   1.420   4.700   0.979 -0.0491  0.6669 -0.7997
  572TMC3     C 8538   1.346   4.339   0.777 -0.1991  0.3142 -0.4849
  572TMC3     O 8539   1.315   4.243   0.849  0.3080 -0.5970  0.2148
  572TMC3     H 8540   1.273   4.399   1.014 -0.3114 -1.1199 -2.3137
  572TMC3    H1 8541   1.468   4.563   0.677  0.5374 -0.0380 -0.4959
  572TMC3    H2 8542   1.423   0.062   1.025  1.4689  0.4161 -0.3556
  572TMC3    C7 8543   1.512   0.059   0.770  0.5625  0.5724  0.1540
  572TMC3    C8 8544   1.362   4.603   1.177 -0.0894 -0.3305 -0.0624
  572TMC3    O1 8545   1.505   0.049   0.644  0.4516  0.5853  0.0088
  572TMC3    O2 8546   1.360   4.719   1.218  0.2970 -0.4020  0.2105
  573MPD2     C 8547   3.077   0.572   0.132 -0.1927 -0.3907 -0.2294
  573MPD2    C1 8548   2.946   0.531   0.100  0.5350  0.3024 -0.1210
  573MPD2    C2 8549   2.914   0.527  17.707  0.2288 -0.3256  0.0405
  573MPD2    C3 8550   3.002   0.594  17.618 -0.3243 -0.1036  0.5400
  573MPD2    C4 8551   3.131   0.637  17.662 -0.1137  0.7228  0.1481
  573MPD2    C5 8552   3.169   0.615   0.045 -0.3794  0.7020  0.4998
  573MPD2     H 8553   2.820   0.483  17.677  0.1446  1.7954 -2.7481
  573MPD2    H1 8554   3.202   0.689  17.599  1.5605 -1.0740  0.5569
  573MPD2    H2 8555   3.101   0.572   0.238 -0.9644  0.4813 -0.0477
  573MPD2    H3 8556   3.271   0.630   0.077  0.0028  1.0688 -0.8552
  573MPD2     N 8557   2.967   0.638  17.488  0.1641 -0.1347 -0.1650
  573MPD2    H5 8558   3.034   0.700  17.443  1.1455  0.6634  2.4141
  573MPD2    N1 8559   2.859   0.494   0.209 -0.0205  0.8989  0.2430
  573MPD2    H7 8560   2.891   0.525   0.301  0.9426  3.4540 -0.9493
  574TMC3    C1 8561   2.824   0.696  17.298 -0.6681  0.1268 -0.1477
  574TMC3    C2 8562   2.699   0.728  17.254 -0.0401 -0.4220  0.0809
  574TMC3    C3 8563   2.684   0.817  17.152 -0.1881 -0.3573  0.3033
  574TMC3    C4 8564   2.933   0.741  17.239 -0.7234  0.5730  0.1467
  574TMC3    C5 8565   2.915   0.808  17.119 -0.3451 -0.1831  0.3683
  574TMC3    C6 8566   2.792   0.856  17.084 -0.0154  0.4991  0.0527
  574TMC3     C 8567   2.845   0.628  17.427 -0.5229 -0.7320  0.4675
  574TMC3     O 8568   2.741   0.582  17.472  0.1810  0.2145  0.1809
  574TMC3     H 8569   2.622   0.718  17.330 -0.4298  0.3944 -0.2086
  574TMC3    H1 8570   3.033   0.714  17.269 -0.9027  0.4206  0.6082
  574TMC3    H2 8571   2.774   0.910  16.992 -0.4316  0.4415  0.1016
  574TMC3    C7 8572   3.020   0.870  17.042 -0.3934 -0.0145 -0.1106
  574TMC3    C8 8573   2.554   0.837  17.089 -0.3468 -0.3704  0.5762
  574TMC3    O1 8574   2.981   0.917  16.937 -0.4662  0.5068 -0.0872
  574TMC3    O2 8575   2.552   0.877  16.972 -0.1713 -0.4530 -0.3693
  575TMC3    C1 8576   0.524   1.119  11.652  0.1815  0.6814  0.0827
  575TMC3    C2 8577   0.492   1.005  11.718 -0.0785 -0.0532 -0.1445
  575TMC3    C3 8578   0.395   0.924  11.664 -0.2577 -0.1222 -0.0883
  575TMC3    C4 8579   0.468   1.151  11.533 -0.3045  0.2320  0.6302
  575TMC3    C5 8580   0.373   1.065  11.486 -0.1682 -0.1772 -0.2693
  575TMC3    C6 8581   0.340   0.948  11.549 -0.0134  0.3174  0.2666
  575TMC3     C 8582   0.647   1.180  11.699 -0.0287  0.1084  0.4862
  575TMC3     O 8583   0.733   1.104  11.744  0.0677 -0.3530 -0.3017
  575TMC3     H 8584   0.529   0.996  11.820 -2.0257 -0.2628  0.5555
  575TMC3    H1 8585   0.503   1.233  11.472  0.4750  1.0332  2.1619
  575TMC3    H2 8586   0.302   0.868  11.485 -1.7189  0.4347  1.1374
  575TMC3    C7 8587   0.319   1.091  11.356 -0.7686  0.0099 -0.0658
  575TMC3    C8 8588   0.330   0.831  11.746 -0.1907  0.5205  0.4207
  575TMC3    O1 8589   0.366   1.186  11.300 -0.4090  0.3815  0.3742
  575TMC3    O2 8590   0.393   0.807  11.849  0.6841 -0.4493  0.1826
  576MPD2     C 8591   0.406   3.245  12.738 -0.4114 -0.2958 -0.5349
  576MPD2    C1 8592   0.465   3.305  12.624 -0.5059  0.3816 -0.4230
  576MPD2    C2 8593   0.418   3.435  12.592  0.0357  0.2094 -0.8480
  576MPD2    C3 8594   0.314   3.491  12.657  0.1944  0.2742  0.2389
  576MPD2    C4 8595   0.256   3.432  12.767  0.0709 -0.2561 -0.2163
  576MPD2    C5 8596   0.305   3.305  12.803  0.3626  0.6807  0.0284
  576MPD2     H 8597   0.483   3.498  12.532  1.7916 -0.5783  0.2158
  576MPD2    H1 8598   0.178   3.480  12.826  0.0827 -0.1541 -0.2848
  576MPD2    H2 8599   0.441   3.156  12.788 -0.4895 -0.1624 -0.2418
  576MPD2    H3 8600   0.256   3.265  12.891  1.2540 -4.0916 -1.6726
  576MPD2     N 8601   0.256   3.606  12.601  0.2778  0.3451  0.4537
  576MPD2    H5 8602   0.289   3.628  12.508 -0.7120 -0.2957 -0.0545
  576MPD2    N1 8603   0.563   3.246  12.542 -0.0244 -0.8577 -0.6514
  576MPD2    H7 8604   0.606   3.304  12.471 -1.1759  0.1398 -0.5397
  577TMC3    C1 8605   0.683   3.068  12.442  0.0613 -0.0777  0.0324
  577TMC3    C2 8606   0.723   2.935  12.446  0.2459  0.3486  0.2737
  577TMC3    C3 8607   0.792   2.888  12.334 -0.0397 -0.0880  0.5757
  577TMC3    C4 8608   0.719   3.152  12.342  0.1514 -0.8248  0.2714
  577TMC3    C5 8609   0.808   3.102  12.251 -0.0730  0.2256  0.5246
  577TMC3    C6 8610   0.832   2.968  12.232 -0.7169 -0.1230  0.6840
  577TMC3     C 8611   0.599   3.114  12.548  1.0352  0.0269 -0.8506
  577TMC3     O 8612   0.551   3.027  12.614 -0.1254  0.1365 -0.1007
  577TMC3     H 8613   0.707   2.864  12.526 -1.7877  0.8263  0.2798
  577TMC3    H1 8614   0.690   3.257  12.336  0.2408 -0.8672 -0.8809
  577TMC3    H2 8615   0.921   2.939  12.177  0.0918 -0.4854  2.1999
  577TMC3    C7 8616   0.837   3.200  12.153 -0.4312 -0.3873 -0.8365
  577TMC3    C8 8617   0.846   2.755  12.338 -0.1466  0.1706  0.3148
  577TMC3    O1 8618   0.842   3.318  12.188 -0.8350 -0.0637 -0.2521
  577TMC3    O2 8619   0.832   2.687  12.438 -0.3842  0.6243 -0.5297
  578MPD2     C 8620   2.298   2.701   0.987 -0.7497 -0.2561 -0.0649
  578MPD2    C1 8621   2.376   2.645   0.886  0.8569 -0.0656 -0.1542
  578MPD2    C2 8622   2.476   2.552   0.914  1.4807  0.1892  0.2242
  578MPD2    C3 8623   2.491   2.505   1.044 -0.5671  0.5304  0.8899
  578MPD2    C4 8624   2.406   2.556   1.141  0.1206  0.6471  0.0928
  578MPD2    C5 8625   2.315   2.656   1.114 -0.1541  0.0863  0.9470
  578MPD2     H 8626   2.544   2.506   0.843  1.3853 -0.7248  0.7242
  578MPD2    H1 8627   2.405   2.521   1.244 -0.6443  0.2760 -0.0374
  578MPD2    H2 8628   2.216   2.770   0.968 -1.0451 -0.8603 -0.9447
  578MPD2    H3 8629   2.247   2.692   1.191  2.6185  0.4090  3.2217
  578MPD2     N 8630   2.606   2.430   1.071  0.3427 -0.5757  0.7261
  578MPD2    H5 8631   2.661   2.389   0.996 -0.5325  0.2253 -0.3692
  578MPD2    N1 8632   2.334   2.674   0.758 -0.6810 -0.2285 -0.1598
  578MPD2    H7 8633   2.295   2.767   0.746  0.0337  0.3693  2.1750
  579TMC3    C1 8634   2.744   2.291   1.207  0.4700  0.3552 -0.3806
  579TMC3    C2 8635   2.810   2.296   1.324 -0.2798  0.1237 -0.3067
  579TMC3    C3 8636   2.915   2.208   1.332  0.4398 -0.3160 -0.9498
  579TMC3    C4 8637   2.770   2.201   1.107 -0.3922  0.1493 -0.0796
  579TMC3    C5 8638   2.867   2.114   1.132  0.4724 -0.3808 -0.2439
  579TMC3    C6 8639   2.951   2.116   1.238 -0.0228 -0.4981  0.7800
  579TMC3     C 8640   2.639   2.386   1.199  0.4405 -0.3924 -0.1652
  579TMC3     O 8641   2.601   2.436   1.305 -0.0371 -0.2632 -0.0352
  579TMC3     H 8642   2.784   2.370   1.399 -0.1036  0.1700 -0.2911
  579TMC3    H1 8643   2.704   2.200   1.021  0.2180 -1.0165 -0.5214
  579TMC3    H2 8644   3.035   2.048   1.249  1.6770  1.5827  0.5063
  579TMC3    C7 8645   2.894   2.009   1.037 -0.3552 -0.7815 -0.7776
  579TMC3    C8 8646   3.010   2.251   1.423  0.2174  0.1301 -0.5859
  579TMC3    O1 8647   2.961   1.910   1.073 -0.1634  0.1321  0.2748
  579TMC3    O2 8648   2.969   2.335   1.502  0.0131  0.3054 -0.4855
  580TMC3    C1 8649   2.801   2.007  11.840 -0.2003  0.2316 -0.5757
  580TMC3    C2 8650   2.854   1.925  11.742  0.0602  0.3995 -0.1295
  580TMC3    C3 8651   2.888   1.796  11.776 -0.6066 -0.6944 -0.1233
  580TMC3    C4 8652   2.784   1.967  11.972  0.1765 -0.0965  0.4581
  580TMC3    C5 8653   2.822   1.837  12.001  0.2383 -0.1578 -0.3368
  580TMC3    C6 8654   2.872   1.754  11.902  0.5091 -0.4458 -0.7872
  580TMC3     C 8655   2.806   2.151  11.811 -0.4230  0.0421 -0.5016
  580TMC3     O 8656   2.857   2.186  11.706  0.4145 -0.3920 -0.0747
  580TMC3     H 8657   2.867   1.963  11.641  1.0013  0.0262 -0.1502
  580TMC3    H1 8658   2.720   2.020  12.041  0.5092  0.8104  0.0576
  580TMC3    H2 8659   2.898   1.656  11.937  2.1403 -1.1778 -4.0228
  580TMC3    C7 8660   2.811   1.790  12.138  0.3416  0.2195 -0.6193
  580TMC3    C8 8661   2.981   1.721  11.689  0.2467  0.4658 -0.0539
  580TMC3    O1 8662   2.822   1.877  12.226  0.5877 -0.4824 -0.1094
  580TMC3    O2 8663   2.972   1.600  11.700  0.7648  0.0480 -0.0416
  581MPD2     C 8664   4.488   1.621  15.209  0.4079  0.7187 -0.5453
  581MPD2    C1 8665   4.615   1.573  15.211 -0.0744 -0.4152 -0.3991
  581MPD2    C2 8666   4.713   1.653  15.152  0.1175 -0.0008  0.1277
  581MPD2    C3 8667   4.683   1.770  15.093 -0.4046 -0.1550 -0.7391
  581MPD2    C4 8668   4.548   1.814  15.082 -0.6813 -0.1228 -0.6508
  581MPD2    C5 8669   4.453   1.742  15.154  0.8655 -0.2431 -0.1126
  581MPD2     H 8670   0.081   1.622  15.158  0.0944 -0.1726 -0.3319
  581MPD2    H1 8671   4.522   1.908  15.036  0.0059  0.5117  0.2540
  581MPD2    H2 8672   4.410   1.564  15.257  1.2685 -0.4756 -0.5684
  581MPD2    H3 8673   4.353   1.784  15.162  0.4130 -1.2900 -0.3634
  581MPD2     N 8674   0.057   1.846  15.045  0.4419 -0.2676 -0.4531
  581MPD2    H5 8675   0.149   1.804  15.049  0.4842 -0.2977 -1.8363
  581MPD2    N1 8676   4.634   1.452  15.277 -0.2400  0.7585 -0.2501
  581MPD2    H7 8677   4.555   1.415  15.331 -0.3262  1.0794 -0.1579
  582TMC3    C1 8678   0.002   1.265  15.368 -0.1793 -0.4245  0.1429
  582TMC3    C2 8679   0.119   1.263  15.447 -0.4518  0.3038 -1.4733
  582TMC3    C3 8680   0.098   1.248  15.580 -0.4350  0.8399 -0.3147
  582TMC3    C4 8681   4.615   1.251  15.432 -0.4797 -0.2258 -0.1714
  582TMC3    C5 8682   4.601   1.218  15.566  0.0981 -0.8127  0.0656
  582TMC3    C6 8683   4.709   1.226  15.638 -0.0292 -0.1593  1.0352
  582TMC3     C 8684   0.014   1.373  15.279  0.1188 -0.3162  0.5395
  582TMC3     O 8685   0.119   1.379  15.219 -0.1661 -0.4102 -0.0434
  582TMC3     H 8686   0.220   1.286  15.414  1.0794 -2.1144  1.5559
  582TMC3    H1 8687   4.519   1.244  15.382  0.8183  1.5586 -2.8940
  582TMC3    H2 8688   4.697   1.224  15.746  0.4679  1.3014  1.1291
  582TMC3    C7 8689   4.493   1.303  15.619 -0.3776 -0.4210  0.3474
  582TMC3    C8 8690   0.212   1.267  15.664  0.3648 -0.1594  0.5175
  582TMC3    O1 8691   4.390   1.242  15.647 -0.7981  0.4887  0.2386
  582TMC3    O2 8692   0.291   1.352  15.636  0.0587 -0.1575 -0.0539
  583MPD2     C 8693   0.545   3.353  16.987  0.0530  0.3835  0.0788
  583MPD2    C1 8694   0.608   3.471  16.963  0.4276 -0.6512  0.7249
  583MPD2    C2 8695   0.594   3.572  17.057 -0.3483  0.3639 -0.1268
  583MPD2    C3 8696   0.517   3.550  17.169  0.3395  0.3240 -0.3608
  583MPD2    C4 8697   0.463   3.428  17.196 -0.3791 -0.3177 -0.1467
  583MPD2    C5 8698   0.476   3.332  17.101 -0.2773  0.0240  0.9060
  583MPD2     H 8699   0.641   3.667  17.036  0.4671  0.2299  1.0946
  583MPD2    H1 8700   0.391   3.419  17.277  0.9587  0.2739  1.0959
  583MPD2    H2 8701   0.538   3.268  16.920 -1.8273  0.4181  0.2272
  583MPD2    H3 8702   0.434   3.233  17.113  1.8893 -1.3436 -2.5443
  583MPD2     N 8703   0.498   3.652  17.257  0.0212  0.2738  0.7284
  583MPD2    H5 8704   0.520   3.743  17.218 -2.1495  1.4703  2.3316
  583MPD2    N1 8705   0.662   3.496  16.832  0.2991 -0.2660  0.3339
  583MPD2    H7 8706   0.668   3.596  16.814 -0.9600 -0.4507 -1.0880
  584TMC3    C1 8707   0.444   3.772  17.443  0.1831  0.0777 -0.3180
  584TMC3    C2 8708   0.452   3.881  17.361 -0.2243 -0.3218  0.6206
  584TMC3    C3 8709   0.466   3.997  17.417 -0.3283 -0.0723  0.8149
  584TMC3    C4 8710   0.431   3.786  17.577 -0.3070 -0.2213 -0.4235
  584TMC3    C5 8711   0.439   3.908  17.633  0.3400  0.4455 -0.5635
  584TMC3    C6 8712   0.468   4.019  17.555 -0.0445 -0.3150 -0.4309
  584TMC3     C 8713   0.460   3.642  17.388 -0.1617 -0.5326  0.7605
  584TMC3     O 8714   0.440   3.551  17.467  0.1871  0.5217  0.3676
  584TMC3     H 8715   0.448   3.876  17.253 -0.5874  2.7383  0.4943
  584TMC3    H1 8716   0.426   3.696  17.637 -0.7348  0.4958  0.6175
  584TMC3    H2 8717   0.477   4.118  17.598  1.2562  0.1083 -1.6561
  584TMC3    C7 8718   0.441   3.912   0.035  0.4280 -0.4085 -0.4612
  584TMC3    C8 8719   0.512   4.104  17.324 -0.0613  0.2895  0.0064
  584TMC3    O1 8720   0.418   3.804   0.096  0.3507 -0.5583 -0.2206
  584TMC3    O2 8721   0.478   4.117  17.206 -0.0189 -0.8826 -0.2838
  585MPD2     C 8722   4.021   2.328   0.046 -0.0633 -0.0185 -0.0411
  585MPD2    C1 8723   4.104   2.426   0.003  0.2837  0.9459  0.0943
  585MPD2    C2 8724   4.210   2.394  17.667 -0.5031  0.2435  0.5752
  585MPD2    C3 8725   4.226   2.257  17.634 -0.4399 -0.4666  0.1834
  585MPD2    C4 8726   4.139   2.166  17.669  0.0587 -0.3108 -0.1786
  585MPD2    C5 8727   4.040   2.197   0.012 -0.3076  0.5473 -0.2104
  585MPD2     H 8728   4.281   2.474  17.649 -0.5485  0.2916  0.6071
  585MPD2    H1 8729   4.143   2.062  17.637  0.1313 -0.1556 -0.6689
  585MPD2    H2 8730   3.934   2.350   0.106 -0.4146 -0.9720 -0.2054
  585MPD2    H3 8731   3.974   2.120   0.050 -0.1673  0.5659  0.0702
  585MPD2     N 8732   4.321   2.216  17.545 -0.0933  0.0653 -0.0850
  585MPD2    H5 8733   4.317   2.121  17.510 -1.4053  0.4718 -1.0219
  585MPD2    N1 8734   4.078   2.555   0.052 -0.7006 -0.3264 -0.2025
  585MPD2    H7 8735   3.998   2.566   0.114 -0.5822  1.4662 -0.3901
  586TMC3    C1 8736   4.502   2.231  17.397 -0.3393 -0.1175  0.2079
  586TMC3    C2 8737   4.643   2.211  17.406 -1.1012 -0.1839 -0.3717
  586TMC3    C3 8738   4.708   2.161  17.290  0.2571 -0.1090 -0.2986
  586TMC3    C4 8739   4.436   2.212  17.279  0.3339  0.0037 -0.7284
  586TMC3    C5 8740   4.500   2.159  17.171 -0.2937  0.4588 -0.2792
  586TMC3    C6 8741   4.641   2.140  17.175 -0.4024 -0.0182 -0.2762
  586TMC3     C 8742   4.436   2.284  17.513  0.4560  0.1452 -0.6598
  586TMC3     O 8743   4.473   2.390  17.563 -0.3595 -0.1989  0.2922
  586TMC3     H 8744   4.681   2.214  17.508  0.5155 -1.4135 -0.9429
  586TMC3    H1 8745   4.340   2.261  17.267  0.1348 -0.1165  0.3819
  586TMC3    H2 8746   4.693   2.101  17.088  2.1541  3.1486 -0.1467
  586TMC3    C7 8747   4.442   2.035  17.133  0.1348  0.2883 -0.1454
  586TMC3    C8 8748   0.052   2.041  17.323 -0.0384 -0.2186  0.3494
  586TMC3    O1 8749   4.520   1.938  17.148  0.2205 -0.0055 -0.1364
  586TMC3    O2 8750   0.031   1.969  17.416  0.1272 -0.0263  0.4514
  587TMC3    C1 8751   1.700   1.323  16.173  0.1984 -0.1130  0.2997
  587TMC3    C2 8752   1.759   1.403  16.269 -0.5019  0.3519 -0.2395
  587TMC3    C3 8753   1.858   1.355  16.345  0.2113  0.2343 -0.6715
  587TMC3    C4 8754   1.757   1.202  16.135  0.1136  0.6528  0.2512
  587TMC3    C5 8755   1.876   1.176  16.200  0.0570  0.1796  0.1290
  587TMC3    C6 8756   1.925   1.245  16.303 -0.5235 -0.1799 -0.2687
  587TMC3     C 8757   1.566   1.356  16.130 -0.4062  0.7834 -0.0596
  587TMC3     O 8758   1.540   1.350  16.011 -0.0527  0.2176 -0.1690
  587TMC3     H 8759   1.724   1.505  16.266 -1.0210  0.1335 -1.5835
  587TMC3    H1 8760   1.713   1.143  16.056  0.5087  0.0540  0.4783
  587TMC3    H2 8761   1.995   1.194  16.368  1.1439  1.0461 -1.0738
  587TMC3    C7 8762   1.960   1.078  16.136 -0.1444 -0.1112  0.5170
  587TMC3    C8 8763   1.890   1.415  16.470 -0.3272 -0.3592  0.5969
  587TMC3    O1 8764   1.911   0.999  16.059 -0.3521 -0.6357 -0.1718
  587TMC3    O2 8765   1.990   1.369  16.531 -0.2543 -0.8491 -0.0421
  588TMC3    C1 8766   4.544   3.753  10.199 -0.1024 -0.0661  0.2784
  588TMC3    C2 8767   4.491   3.631  10.179 -0.1874 -0.6155 -0.2499
  588TMC3    C3 8768   4.527   3.523  10.259  0.0717  0.2061 -0.4205
  588TMC3    C4 8769   4.650   3.760  10.283 -0.2179  0.3923  0.8468
  588TMC3    C5 8770   4.685   3.650  10.356  0.4696 -0.1191  0.3321
  588TMC3    C6 8771   4.616   3.539  10.360 -0.2362  0.0341 -0.4529
  588TMC3     C 8772   4.485   3.868  10.148  0.3581  0.0952  0.4215
  588TMC3     O 8773   4.413   3.873  10.047 -0.6254  0.5361 -0.0654
  588TMC3     H 8774   4.419   3.622  10.098  3.5936 -0.8415 -3.5461
  588TMC3    H1 8775   4.717   3.844  10.274 -1.9387  1.7132  0.4597
  588TMC3    H2 8776   4.661   3.468  10.428 -0.9378 -0.1578 -0.1870
  588TMC3    C7 8777   0.073   3.656  10.436 -0.4876  0.5752  0.2952
  588TMC3    C8 8778   4.449   3.402  10.249  0.1221  0.2798 -1.2858
  588TMC3    O1 8779   0.153   3.561  10.431 -0.7247 -0.1735  0.6641
  588TMC3    O2 8780   4.378   3.404  10.151 -0.5194  0.0837  0.3645
  589TMC3    C1 8781   3.309   1.252   1.421  0.4419 -1.3140 -0.2031
  589TMC3    C2 8782   3.419   1.261   1.503  0.8725  0.2468  0.0801
  589TMC3    C3 8783   3.536   1.202   1.467  0.5151 -0.3404 -0.1282
  589TMC3    C4 8784   3.318   1.161   1.322 -0.2984  1.0062 -0.1718
  589TMC3    C5 8785   3.438   1.107   1.277  0.0516 -0.5987 -0.4199
  589TMC3    C6 8786   3.550   1.125   1.352 -0.4793 -0.3154 -0.1206
  589TMC3     C 8787   3.174   1.293   1.467 -0.8122  0.6416  0.2719
  589TMC3     O 8788   3.078   1.270   1.399  0.4712  0.3776 -0.1172
  589TMC3     H 8789   3.419   1.330   1.587  1.8517  0.8063 -0.3849
  589TMC3    H1 8790   3.228   1.146   1.264  0.8060 -1.5467 -1.2236
  589TMC3    H2 8791   3.640   1.074   1.320 -0.7506 -0.0240 -1.3534
  589TMC3    C7 8792   3.448   1.012   1.167 -0.3129 -0.4420 -0.3926
  589TMC3    C8 8793   3.636   1.207   1.565 -0.1780  0.4136 -0.5389
  589TMC3    O1 8794   3.553   0.943   1.162 -0.5212  0.0077  0.1422
  589TMC3    O2 8795   3.608   1.262   1.670 -0.4528 -0.2878 -0.4552
  590MPD2     C 8796   2.833   4.084  16.666 -0.2300  0.0607 -0.6523
  590MPD2    C1 8797   2.819   4.224  16.639 -0.0709 -0.4868  0.2016
  590MPD2    C2 8798   2.907   4.289  16.556  0.0413  0.1566  0.5413
  590MPD2    C3 8799   3.015   4.216  16.503  0.0948  0.0161 -0.4217
  590MPD2    C4 8800   3.018   4.081  16.523  0.5167  0.4882 -0.4699
  590MPD2    C5 8801   2.936   4.019  16.621 -0.4961 -0.2518  0.2823
  590MPD2     H 8802   2.884   4.391  16.527 -0.4922  0.1773  1.0615
  590MPD2    H1 8803   3.100   4.027  16.477 -0.9243 -1.9894 -0.1376
  590MPD2    H2 8804   2.763   4.029  16.728  0.2709 -0.4655 -0.5633
  590MPD2    H3 8805   2.956   3.915  16.644 -1.9224 -0.2883  1.3470
  590MPD2     N 8806   3.106   4.281  16.412 -0.2756 -0.1166  0.0362
  590MPD2    H5 8807   3.080   4.377  16.394  0.0357  0.3474  2.0273
  590MPD2    N1 8808   2.705   4.290  16.689 -0.0938  0.7964 -0.2429
  590MPD2    H7 8809   2.638   4.231  16.738 -0.5093 -1.7174 -3.8114
  591TMC3    C1 8810   3.290   4.326  16.276  0.1558 -0.4626 -0.1280
  591TMC3    C2 8811   3.357   4.274  16.172 -0.1349  0.4699 -0.1394
  591TMC3    C3 8812   3.447   4.358  16.106 -0.0700 -0.0522  0.1672
  591TMC3    C4 8813   3.314   4.454  16.324  0.1804 -0.2180  0.5965
  591TMC3    C5 8814   3.409   4.530  16.261  0.9173  0.8036 -0.1308
  591TMC3    C6 8815   3.477   4.483  16.155 -0.3844 -0.6192  0.1730
  591TMC3     C 8816   3.207   4.226  16.346 -0.2075 -0.7293  0.1310
  591TMC3     O 8817   3.230   4.109  16.324 -0.0644  0.1989  0.4503
  591TMC3     H 8818   3.334   4.177  16.130  0.0987  0.3115  0.0987
  591TMC3    H1 8819   3.275   4.485  16.421  1.0024  2.2392  0.1488
  591TMC3    H2 8820   3.557   4.529  16.099 -0.0028 -0.8132  0.5668
  591TMC3    C7 8821   3.461   4.650  16.328  0.9359 -0.7015  0.0249
  591TMC3    C8 8822   3.510   4.312  15.985 -0.2347  0.3858  0.1282
  591TMC3    O1 8823   3.443   4.667  16.446  0.3686 -0.4460  0.8636
  591TMC3    O2 8824   3.628   4.344  15.964  0.0109  0.1765 -0.5057
  592MPD2     C 8825   3.720   1.550  11.869 -0.6603  0.6791 -0.2800
  592MPD2    C1 8826   3.694   1.659  11.949  0.6211  0.3891 -0.4578
  592MPD2    C2 8827   3.633   1.632  12.071 -0.0727 -0.6900 -0.1729
  592MPD2    C3 8828   3.608   1.504  12.116  0.0116 -0.2044 -0.7691
  592MPD2    C4 8829   3.624   1.399  12.026 -0.2104 -0.7299 -0.4334
  592MPD2    C5 8830   3.680   1.423  11.907 -0.1306  0.1076  0.3750
  592MPD2     H 8831   3.618   1.713  12.142 -1.5981 -1.5958  0.5415
  592MPD2    H1 8832   3.598   1.296  12.047 -0.9383 -0.0526  1.9542
  592MPD2    H2 8833   3.752   1.572  11.767  0.9315  2.1344  0.5252
  592MPD2    H3 8834   3.692   1.338  11.841 -0.9817 -0.6206  1.1512
  592MPD2     N 8835   3.577   1.494  12.257 -0.5753 -0.5742  0.5306
  592MPD2    H5 8836   3.576   1.575  12.318  1.7103  0.6139 -0.9607
  592MPD2    N1 8837   3.756   1.780  11.912  0.0667  0.2694  0.1819
  592MPD2    H7 8838   3.821   1.779  11.834  0.6533  0.5016  0.6694
  593TMC3    C1 8839   3.768   2.013  11.902  0.5115 -0.4835  0.9848
  593TMC3    C2 8840   3.784   2.138  11.959 -0.3724  0.1352  0.2351
  593TMC3    C3 8841   3.824   2.241  11.879 -0.0469  0.2363 -0.0534
  593TMC3    C4 8842   3.800   1.997  11.772 -0.0528  0.1794 -0.8469
  593TMC3    C5 8843   3.836   2.101  11.696 -0.2190 -0.4539  0.0469
  593TMC3    C6 8844   3.853   2.225  11.745  0.2760  0.3326 -0.5821
  593TMC3     C 8845   3.721   1.899  11.971 -0.6751 -0.2314 -1.0207
  593TMC3     O 8846   3.664   1.923  12.073 -0.4936  0.3336  0.0610
  593TMC3     H 8847   3.732   2.158  12.052  3.7811  0.1489  2.5741
  593TMC3    H1 8848   3.764   1.905  11.726  1.9419 -0.2659 -1.5082
  593TMC3    H2 8849   3.880   2.308  11.681  3.2230 -0.3341 -0.1900
  593TMC3    C7 8850   3.866   2.083  11.552  0.5212  0.0629  0.2012
  593TMC3    C8 8851   3.876   2.362  11.940  0.5848  0.0495 -0.0673
  593TMC3    O1 8852   3.885   2.186  11.488 -0.1283 -0.4937 -0.9085
  593TMC3    O2 8853   3.858   2.472  11.889  0.0369  0.1662  0.5459
  594MPD2     C 8854   2.709   4.640  15.237 -0.4388 -0.1898 -0.4598
  594MPD2    C1 8855   2.599   4.698  15.179  0.1815 -0.3356 -0.2050
  594MPD2    C2 8856   2.616   0.088  15.115 -0.6170 -0.0618 -0.2478
  594MPD2    C3 8857   2.737   0.151  15.108 -0.8831  0.1752 -0.6852
  594MPD2    C4 8858   2.846   0.085  15.166 -0.3230 -0.5969  0.0138
  594MPD2    C5 8859   2.834   4.697  15.225  0.7777  0.0047 -0.6668
  594MPD2     H 8860   2.535   0.142  15.068 -0.1235  2.6519  1.9796
  594MPD2    H1 8861   2.943   0.132  15.166 -0.1557 -0.9428  0.3077
  594MPD2    H2 8862   2.694   4.542  15.281 -0.0991 -1.0781 -2.3546
  594MPD2    H3 8863   2.921   4.651  15.269  0.5780  0.7463  0.5061
  594MPD2     N 8864   2.752   0.273  15.036  0.2873 -0.1293 -0.3433
  594MPD2    H5 8865   2.675   0.315  14.985  0.0159 -0.5801 -0.3055
  594MPD2    N1 8866   2.472   4.634  15.189  0.5871  0.0485  0.2963
  594MPD2    H7 8867   2.470   4.537  15.220 -0.8906 -0.3010 -0.8775
  595TMC3    C1 8868   2.984   0.582  14.760  0.5548  0.7052 -0.1234
  595TMC3    C2 8869   2.990   0.486  14.857  0.0560  0.0875 -0.2077
  595TMC3    C3 8870   2.867   0.450  14.919 -0.4047  0.7996  0.1574
  595TMC3    C4 8871   2.872   0.653  14.722 -0.2513 -0.3362  0.5716
  595TMC3    C5 8872   2.761   0.632  14.796 -0.2207 -0.1633  0.3553
  595TMC3    C6 8873   2.757   0.536  14.896 -0.0121 -0.1864 -0.4841
  595TMC3     C 8874   3.104   0.651  14.708 -0.7954  0.8544 -0.3047
  595TMC3     O 8875   3.096   0.772  14.679  0.2046  0.1212  0.2558
  595TMC3     H 8876   3.076   0.428  14.887 -0.3260 -0.2315  0.2863
  595TMC3    H1 8877   2.878   0.731  14.647 -0.2769 -0.2462  0.6629
  595TMC3    H2 8878   2.661   0.517  14.942  0.3647 -0.5654  0.1511
  595TMC3    C7 8879   2.695   0.754  14.831 -0.3815 -0.1504  0.6515
  595TMC3    C8 8880   2.869   0.332  15.002  0.0300  0.1725 -0.0075
  595TMC3    O1 8881   2.591   0.752  14.895 -0.4235  0.1078 -0.3438
  595TMC3    O2 8882   2.981   0.283  15.017 -0.2593  0.5488 -0.6158
  596MPD2     C 8883   1.372   3.134  17.039 -0.5662 -0.2343  0.4739
  596MPD2    C1 8884   1.380   3.250  16.961 -0.0152 -0.3893 -0.0670
  596MPD2    C2 8885   1.391   3.238  16.820  0.0154  0.4083  0.1494
  596MPD2    C3 8886   1.387   3.116  16.753  0.8618 -0.4409 -0.3702
  596MPD2    C4 8887   1.375   3.000  16.835  0.0308  0.2826 -0.2853
  596MPD2    C5 8888   1.369   3.006  16.972  0.0143  0.2221  0.7527
  596MPD2     H 8889   1.397   3.335  16.772 -0.3014  0.0175 -0.6762
  596MPD2    H1 8890   1.372   2.903  16.788  0.1355  0.1661 -0.0534
  596MPD2    H2 8891   1.354   3.136  17.146 -2.1698  2.0392  0.1605
  596MPD2    H3 8892   1.360   2.918  17.035  0.0796 -0.9977 -0.9293
  596MPD2     N 8893   1.386   3.097  16.614 -0.3769 -0.1600  0.1033
  596MPD2    H5 8894   1.396   3.002  16.579  1.7052 -0.0018  0.2918
  596MPD2    N1 8895   1.366   3.379  17.013 -0.1651 -0.2570 -0.2798
  596MPD2    H7 8896   1.373   3.455  16.945  0.5174  0.5693  0.7015
  597TMC3    C1 8897   1.355   3.548  17.181  0.8451  0.1086 -0.1400
  597TMC3    C2 8898   1.389   3.639  17.095 -0.5738  0.1239 -0.1218
  597TMC3    C3 8899   1.367   3.768  17.136  0.1166  0.7729  1.1817
  597TMC3    C4 8900   1.314   3.573  17.307 -0.3802 -0.8241 -0.2338
  597TMC3    C5 8901   1.304   3.703  17.348 -0.8109  0.6170  0.1936
  597TMC3    C6 8902   1.324   3.809  17.262 -0.0519  0.3568 -0.7301
  597TMC3     C 8903   1.365   3.407  17.151  0.1245 -0.1414  0.3365
  597TMC3     O 8904   1.350   3.329  17.246 -0.3014  0.1937 -0.0229
  597TMC3     H 8905   1.423   3.606  16.998 -0.4396 -1.4998  0.4857
  597TMC3    H1 8906   1.319   3.495  17.382  4.2759  1.0720  1.4384
  597TMC3    H2 8907   1.286   3.909  17.277  2.0985  0.5830  2.9357
  597TMC3    C7 8908   1.219   3.736  17.467 -0.3514  0.3321  0.5108
  597TMC3    C8 8909   1.366   3.872  17.029 -0.4014 -0.6258  0.4894
  597TMC3    O1 8910   1.138   3.654  17.500 -0.3539 -0.1447 -0.1217
  597TMC3    O2 8911   1.322   3.841  16.918 -0.0623  0.2255 -1.0244
  598TMC3    C1 8912   4.303   4.575  15.536 -0.0215 -0.5740  0.3330
  598TMC3    C2 8913   4.214   4.484  15.483  0.3950 -0.1374 -0.2180
  598TMC3    C3 8914   4.163   4.498  15.354  0.5472  1.0409  0.7445
  598TMC3    C4 8915   4.347   4.677  15.451 -0.0144  0.1226  0.5451
  598TMC3    C5 8916   4.293   4.681  15.326  0.7145 -0.2944 -0.1816
  598TMC3    C6 8917   4.207   4.596  15.273 -0.2771  0.2881  0.4237
  598TMC3     C 8918   4.378   4.556  15.656  0.4711 -0.7467 -0.0860
  598TMC3     O 8919   4.439   4.655  15.696  0.2396  0.0370  0.0065
  598TMC3     H 8920   4.172   4.413  15.553 -1.8993  0.2395 -1.2074
  598TMC3    H1 8921   4.436   4.735  15.475 -0.5624  0.7183  1.1762
  598TMC3    H2 8922   4.154   4.626  15.184 -0.0738  1.3474  0.6625
  598TMC3    C7 8923   4.376   0.018  15.231 -0.4491  0.2271 -1.4166
  598TMC3    C8 8924   4.072   4.396  15.302 -0.3564  0.9371  0.0194
  598TMC3    O1 8925   4.369   4.703  15.119 -0.0398 -0.0751 -0.0448
  598TMC3    O2 8926   4.005   4.339  15.389 -0.3055 -0.1279 -0.4139
  599MPD2     C 8927   4.380   1.937  15.825 -0.0210 -0.1293 -0.1567
  599MPD2    C1 8928   4.367   1.822  15.894 -0.1823  0.3161  0.1008
  599MPD2    C2 8929   4.269   1.809  15.990  0.4583 -0.0052 -0.1764
  599MPD2    C3 8930   4.164   1.899  16.004  0.6645  0.4805  0.0585
  599MPD2    C4 8931   4.165   2.012  15.921 -0.5096 -0.5515  0.2001
  599MPD2    C5 8932   4.283   2.030  15.843 -0.5402 -0.1078  0.0599
  599MPD2     H 8933   4.266   1.721  16.054  2.9233  0.9019  1.2322
  599MPD2    H1 8934   4.082   2.081  15.919  0.5700  0.6987 -1.5355
  599MPD2    H2 8935   4.454   1.970  15.753 -0.6155  1.8073  0.1184
  599MPD2    H3 8936   4.298   2.116  15.778  1.4382 -0.5735 -0.0943
  599MPD2     N 8937   4.062   1.889  16.098  0.1371  0.5037  0.3270
  599MPD2    H5 8938   3.996   1.966  16.095  2.3455  2.4763  2.6273
  599MPD2    N1 8939   4.471   1.727  15.885 -0.2091  0.2119 -0.1911
  599MPD2    H7 8940   4.552   1.758  15.833  1.1484 -3.1876 -0.1015
  600TMC3    C1 8941   3.955   1.824  16.290 -0.4330 -0.0705  0.0399
  600TMC3    C2 8942   3.880   1.721  16.354 -0.4983 -0.2512  0.6797
  600TMC3    C3 8943   3.769   1.760  16.424  0.4042 -0.0203  0.0346
  600TMC3    C4 8944   3.948   1.959  16.325 -0.4494  0.2186  0.1219
  600TMC3    C5 8945   3.838   1.991  16.406 -0.7310 -0.1536  0.6675
  600TMC3    C6 8946   3.744   1.893  16.442  0.0496  0.1664 -0.2588
  600TMC3     C 8947   4.056   1.789  16.193  0.0870 -0.2659  0.1926
  600TMC3     O 8948   4.119   1.685  16.214 -0.0228 -0.2936 -0.0102
  600TMC3     H 8949   3.895   1.617  16.327  0.0186 -1.5178  5.7581
  600TMC3    H1 8950   4.014   2.035  16.284  1.3431 -0.6889  1.3453
  600TMC3    H2 8951   3.646   1.919  16.481  0.3230  0.6275  0.1308
  600TMC3    C7 8952   3.814   2.121  16.455 -0.2413  0.3692  0.0860
  600TMC3    C8 8953   3.641   1.701  16.397  0.3988  1.0094  0.4382
  600TMC3    O1 8954   3.777   2.132  16.571  0.2472  0.0816  0.3913
  600TMC3    O2 8955   3.589   1.715  16.287  1.0525 -0.3251 -0.6181
  601MPD2     C 8956   1.770   0.499   0.700 -0.0642  0.2796 -0.3987
  601MPD2    C1 8957   1.655   0.449   0.634 -0.9070 -0.3051 -0.4117
  601MPD2    C2 8958   1.593   0.337   0.679  0.2276  0.1352 -0.1318
  601MPD2    C3 8959   1.638   0.270   0.791 -0.0376 -0.2042  0.5752
  601MPD2    C4 8960   1.747   0.326   0.864  0.7222  0.3654  0.0312
  601MPD2    C5 8961   1.812   0.437   0.812 -0.7470 -0.6541  0.0400
  601MPD2     H 8962   1.500   0.308   0.633  0.1086 -0.4741  0.4926
  601MPD2    H1 8963   1.771   0.279   0.959 -0.0060  0.2543  0.1654
  601MPD2    H2 8964   1.815   0.592   0.667 -0.8577 -0.0841 -2.4917
  601MPD2    H3 8965   1.890   0.477   0.876  0.5249 -0.4014 -1.6738
  601MPD2     N 8966   1.584   0.148   0.841 -0.2792 -0.0536  0.4920
  601MPD2    H5 8967   1.608   0.114   0.934 -0.3843 -0.4390  0.3807
  601MPD2    N1 8968   1.607   0.512   0.519  0.3189  0.2984  0.3712
  601MPD2    H7 8969   1.533   0.466   0.468  2.0335 -1.2773 -0.7017
  602TMC3    C1 8970   1.590   0.667   0.339 -1.1375 -0.7782  0.2054
  602TMC3    C2 8971   1.586   0.801   0.306  0.3421 -0.3743  0.1528
  602TMC3    C3 8972   1.491   0.842   0.217  0.2518 -0.3555 -0.1373
  602TMC3    C4 8973   1.503   0.580   0.281  0.1856 -0.5143  0.2532
  602TMC3    C5 8974   1.401   0.628   0.199  0.5415 -0.1690 -0.2566
  602TMC3    C6 8975   1.384   0.765   0.184 -0.3645  0.3509  0.8250
  602TMC3     C 8976   1.662   0.626   0.463  0.1509  0.6980 -0.4317
  602TMC3     O 8977   1.747   0.707   0.498 -0.0452 -0.0288 -0.3423
  602TMC3     H 8978   1.654   0.876   0.345  0.1044  0.5729 -1.2747
  602TMC3    H1 8979   1.506   0.475   0.308 -0.2643  0.3082  3.5547
  602TMC3    H2 8980   1.306   0.810   0.122  0.2729  1.4069  0.7855
  602TMC3    C7 8981   1.294   0.533   0.193  0.2362  0.0078  0.0607
  602TMC3    C8 8982   1.472   0.990   0.214 -0.7236  0.6229 -0.4065
  602TMC3    O1 8983   1.303   0.415   0.174 -0.0212 -0.2114 -0.6119
  602TMC3    O2 8984   1.563   1.058   0.180  0.5523 -0.3586 -0.2591
  603TMC3    C1 8985   4.555   1.291  11.663 -0.0146 -0.2171 -0.5705
  603TMC3    C2 8986   4.639   1.242  11.759 -0.4939  0.0413 -1.0182
  603TMC3    C3 8987   0.034   1.249  11.749  0.4682  0.5822  0.3400
  603TMC3    C4 8988   4.608   1.331  11.542 -0.3504 -0.0171  0.0507
  603TMC3    C5 8989   0.006   1.332  11.528  1.3458 -0.1619 -0.5827
  603TMC3    C6 8990   0.088   1.309  11.634 -0.0688 -0.3133 -0.0164
  603TMC3     C 8991   4.434   1.356  11.708 -0.6144  0.0840 -0.2015
  603TMC3     O 8992   4.374   1.433  11.630  0.2429  0.0662 -0.1518
  603TMC3     H 8993   4.616   1.191  11.851 -0.9171  2.0720 -0.0095
  603TMC3    H1 8994   4.542   1.375  11.467 -1.1215 -2.1456 -0.5160
  603TMC3    H2 8995   0.194   1.319  11.614 -0.1484 -0.7481 -0.6744
  603TMC3    C7 8996   0.075   1.377  11.412  0.1132  0.2226 -0.5829
  603TMC3    C8 8997   0.119   1.208  11.862  0.6162  0.7531 -0.4065
  603TMC3    O1 8998   0.178   1.435  11.423 -0.3738 -0.0190  0.7558
  603TMC3    O2 8999   0.092   1.100  11.912 -0.3147  0.0800  0.0317
  604MPD2     C 9000   0.902   4.603  16.167 -0.2772  0.2298  0.1613
  604MPD2    C1 9001   0.809   4.504  16.171 -0.1651 -0.8906  0.0761
  604MPD2    C2 9002   0.777   4.424  16.061 -0.2682 -0.4883  0.0594
  604MPD2    C3 9003   0.853   4.451  15.943  0.7281  0.1551 -0.1866
  604MPD2    C4 9004   0.949   4.548  15.942  0.2354 -1.2996  0.0851
  604MPD2    C5 9005   0.978   4.621  16.054  0.3386  0.3258 -0.4372
  604MPD2     H 9006   0.702   4.345  16.064 -0.9144  0.1078 -0.5586
  604MPD2    H1 9007   1.004   4.582  15.855  0.9447  1.8940  1.7485
  604MPD2    H2 9008   0.939   4.659  16.253 -2.9790  0.0830  1.4076
  604MPD2    H3 9009   1.051   4.701  16.048 -1.0848  1.4034 -3.0330
  604MPD2     N 9010   0.833   4.388  15.820  0.2695 -0.5066 -0.4622
  604MPD2    H5 9011   0.893   4.406  15.740  1.7509 -2.1006  0.2705
  604MPD2    N1 9012   0.750   4.483  16.301  0.1874  0.4278  0.6363
  604MPD2    H7 9013   0.776   4.551  16.372 -1.6609 -0.4023  2.1065
  605TMC3    C1 9014   0.580   4.447  16.449 -0.4089  0.3754  0.0717
  605TMC3    C2 9015   0.642   4.542  16.530 -0.7036 -0.4530  0.6947
  605TMC3    C3 9016   0.559   4.579  16.629 -0.1638 -0.2390 -0.3123
  605TMC3    C4 9017   0.453   4.394  16.471  0.2946  0.4694  0.6498
  605TMC3    C5 9018   0.383   4.435  16.583  0.0457  0.1960 -0.2410
  605TMC3    C6 9019   0.435   4.534  16.660 -0.1743 -0.3084  0.3652
  605TMC3     C 9020   0.645   4.401  16.328  0.1553 -0.1554  0.3655
  605TMC3     O 9021   0.593   4.313  16.258  0.2450 -0.6710 -0.1331
  605TMC3     H 9022   0.747   4.568  16.525 -0.3333 -2.1525 -0.5960
  605TMC3    H1 9023   0.406   4.329  16.398 -0.1186  1.2744  0.1882
  605TMC3    H2 9024   0.378   4.582  16.739 -2.3393 -0.9589 -0.7716
  605TMC3    C7 9025   0.239   4.435  16.586  0.4658  0.4039  0.4012
  605TMC3    C8 9026   0.619   4.700  16.689 -0.3533  0.1916  0.2394
  605TMC3    O1 9027   0.190   4.534  16.644  0.0107  0.4565 -0.1059
  605TMC3    O2 9028   0.681   0.034  16.608  0.1419 -0.3205 -0.6645
  606TMC3    C1 9029   1.505   3.474  17.601 -0.0823  0.2078  0.5532
  606TMC3    C2 9030   1.419   3.486  17.713  0.2965  0.3727  0.5140
  606TMC3    C3 9031   1.340   3.378   0.013 -0.1867 -0.4014 -0.8254
  606TMC3    C4 9032   1.494   3.360  17.529  0.7331  0.5138 -0.0200
  606TMC3    C5 9033   1.418   3.260  17.575 -1.0873  0.3170 -0.0307
  606TMC3    C6 9034   1.338   3.261  17.686 -0.1886  0.1429  0.3037
  606TMC3     C 9035   1.609   3.570  17.567  0.0305  0.3099 -0.0554
  606TMC3     O 9036   1.653   3.574  17.450 -0.5137  0.4304 -0.1193
  606TMC3     H 9037   1.420   3.580   0.024  1.9913  0.4771  0.2872
  606TMC3    H1 9038   1.567   3.345  17.450 -1.6401 -0.7381 -1.9678
  606TMC3    H2 9039   1.273   3.176  17.702 -1.0051  0.8310  0.6624
  606TMC3    C7 9040   1.421   3.139  17.487  0.2605 -0.3793  0.6632
  606TMC3    C8 9041   1.345   3.367   0.156 -0.2489  0.1423  0.5602
  606TMC3    O1 9042   1.530   3.093  17.451 -0.0754  0.2718 -0.0859
  606TMC3    O2 9043   1.384   3.458   0.223 -0.5201 -0.1998 -0.5530
  607MPD2     C 9044   4.453   0.860  12.247 -0.2136  0.2206 -0.4043
  607MPD2    C1 9045   4.527   0.941  12.328 -0.5178 -0.3493 -0.0604
  607MPD2    C2 9046   4.531   0.912  12.466  0.5447 -0.7596  0.0946
  607MPD2    C3 9047   4.477   0.800  12.517  0.3145  0.0008  0.5824
  607MPD2    C4 9048   4.414   0.712  12.436  0.0575 -0.1978 -0.7982
  607MPD2    C5 9049   4.389   0.750  12.304  0.1932 -0.1256  0.0763
  607MPD2     H 9050   4.590   0.971  12.535 -0.0754 -1.9876  1.6769
  607MPD2    H1 9051   4.362   0.625  12.476  2.1600 -0.0348  2.2321
  607MPD2    H2 9052   4.433   0.871  12.141 -0.2471 -2.3282 -0.6676
  607MPD2    H3 9053   4.322   0.690  12.244 -0.8537  0.0534  1.0583
  607MPD2     N 9054   4.498   0.775  12.658  0.0151  0.6521 -0.1974
  607MPD2    H5 9055   4.553   0.850  12.700 -1.4475  1.2788  0.5963
  607MPD2    N1 9056   4.580   1.064  12.286 -0.7666  0.2074 -0.4220
  607MPD2    H7 9057   4.623   1.125  12.355  0.6384 -0.6341 -0.5417
  608TMC3    C1 9058   4.702   1.228  12.171 -0.5686 -0.2119  0.3405
  608TMC3    C2 9059   0.060   1.221  12.262 -0.3700 -0.0689 -0.3255
  608TMC3    C3 9060   0.154   1.319  12.280 -0.3271  0.5723  0.6183
  608TMC3    C4 9061   4.691   1.337  12.092  0.4175 -0.0511 -0.0311
  608TMC3    C5 9062   0.054   1.440  12.114 -0.3773  0.0896  0.5864
  608TMC3    C6 9063   0.156   1.433  12.206 -0.1995 -0.3658 -0.3397
  608TMC3     C 9064   4.603   1.120  12.158 -0.6010  0.1596  0.2187
  608TMC3     O 9065   4.542   1.093  12.059  0.1063  0.1199 -0.1630
  608TMC3     H 9066   0.075   1.124  12.309 -1.1545 -0.0912 -0.1142
  608TMC3    H1 9067   4.610   1.344  12.021  0.7863 -0.1643 -0.4643
  608TMC3    H2 9068   0.229   1.512  12.220 -1.0453 -0.0115  2.0429
  608TMC3    C7 9069   0.078   1.533  12.007 -0.0413  0.1537  0.1057
  608TMC3    C8 9070   0.239   1.321  12.394 -0.5613 -0.1697  0.2801
  608TMC3    O1 9071   0.002   1.513  11.914 -0.1292 -0.3766 -0.0759
  608TMC3    O2 9072   0.320   1.406  12.426  0.0058 -0.0551 -0.6445
  609TMC3    C1 9073   2.573   0.556   9.790 -0.2452  0.2709 -0.9450
  609TMC3    C2 9074   2.529   0.452   9.707 -0.2847 -0.2766 -0.6829
  609TMC3    C3 9075   2.623   0.358   9.665  0.0932  0.1866 -0.2867
  609TMC3    C4 9076   2.707   0.556   9.820  0.1207  0.0593 -0.2240
  609TMC3    C5 9077   2.798   0.460   9.772  0.6615 -0.4637 -0.2381
  609TMC3    C6 9078   2.760   0.359   9.688 -0.2711 -0.5034  0.6081
  609TMC3     C 9079   2.477   0.637   9.857 -0.4079 -0.2564  0.1079
  609TMC3     O 9080   2.359   0.604   9.840 -0.0823  0.2373 -0.1607
  609TMC3     H 9081   2.423   0.432   9.694 -0.1865 -0.4917 -1.1544
  609TMC3    H1 9082   2.744   0.636   9.882 -0.5010  0.2386 -0.0785
  609TMC3    H2 9083   2.826   0.299   9.626 -1.2126  1.0666 -1.9027
  609TMC3    C7 9084   2.929   0.466   9.834 -0.4373  0.2276 -0.1254
  609TMC3    C8 9085   2.559   0.260   9.572 -0.0130  0.0904 -0.0566
  609TMC3    O1 9086   2.971   0.577   9.859  0.5001 -0.5741  0.4627
  609TMC3    O2 9087   2.453   0.295   9.528  0.0552 -0.2003  0.6916
  610TMC3    C1 9088   0.124   1.503  12.850  0.4663  0.5186  0.8566
  610TMC3    C2 9089   0.168   1.629  12.813 -0.1381 -0.5323  0.5424
  610TMC3    C3 9090   0.236   1.696  12.915 -0.4430  0.2376 -0.4229
  610TMC3    C4 9091   0.159   1.449  12.973  0.4232  0.5262 -0.0620
  610TMC3    C5 9092   0.248   1.510  13.049  0.2056 -0.1624  0.2484
  610TMC3    C6 9093   0.283   1.644  13.030 -0.4378 -0.0183  0.1426
  610TMC3     C 9094   0.008   1.436  12.795  0.5305 -0.2570  0.1478
  610TMC3     O 9095   4.688   1.360  12.866 -0.4844  0.7907 -0.5431
  610TMC3     H 9096   0.140   1.685  12.724 -0.3188  0.8712  1.4810
  610TMC3    H1 9097   0.117   1.354  13.003  0.2124 -0.2722 -2.8589
  610TMC3    H2 9098   0.357   1.695  13.090 -1.1764  4.0040 -2.3729
  610TMC3    C7 9099   0.315   1.431  13.144  0.0646  0.6667 -0.8868
  610TMC3    C8 9100   0.258   1.840  12.899  0.6597  0.0930  0.4397
  610TMC3    O1 9101   0.350   1.313  13.127  0.5777  0.0440 -0.4156
  610TMC3    O2 9102   0.232   1.896  12.793 -0.2001  0.8183 -0.0335
  611MPD2     C 9103   3.747   1.057  11.035 -0.1844 -0.5418  0.2915
  611MPD2    C1 9104   3.742   1.060  10.898 -0.0378 -0.4988  0.4155
  611MPD2    C2 9105   3.867   1.073  10.834  0.6873  0.0217 -0.0746
  611MPD2    C3 9106   3.989   1.082  10.899  0.3072  0.3786 -0.2393
  611MPD2    C4 9107   3.985   1.103  11.035  0.0260 -0.3610 -0.4998
  611MPD2    C5 9108   3.867   1.076  11.097 -0.0025 -0.9518 -0.2246
  611MPD2     H 9109   3.859   1.061  10.727  0.2997 -0.1137 -0.0323
  611MPD2    H1 9110   4.070   1.115  11.101  0.7545 -0.2325 -1.4639
  611MPD2    H2 9111   3.657   1.037  11.093 -1.3455 -0.2244 -1.4237
  611MPD2    H3 9112   3.861   1.066  11.205  0.7596  1.5061  0.0470
  611MPD2     N 9113   4.117   1.087  10.835 -0.0550  0.1847  0.6282
  611MPD2    H5 9114   4.201   1.098  10.891  1.0990  0.2439 -1.1138
  611MPD2    N1 9115   3.629   1.034  10.824  0.3578  0.8514  0.6347
  611MPD2    H7 9116   3.638   1.034  10.723  1.6052 -1.4198  0.7416
  612TMC3    C1 9117   4.277   1.089  10.657  0.1535 -0.4645 -0.4118
  612TMC3    C2 9118   4.351   1.182  10.724 -0.7593  0.9706 -0.3957
  612TMC3    C3 9119   4.460   1.240  10.663  0.2604  0.7230 -0.1138
  612TMC3    C4 9120   4.304   1.060  10.529 -0.2181 -0.5492  0.1545
  612TMC3    C5 9121   4.402   1.125  10.464  0.5453 -0.6012  0.4507
  612TMC3    C6 9122   4.490   1.210  10.530  0.0908  0.3843 -0.0298
  612TMC3     C 9123   4.137   1.079  10.702 -0.7143 -0.1297 -0.5739
  612TMC3     O 9124   4.047   1.065  10.618  0.2724  0.0125  0.0555
  612TMC3     H 9125   4.323   1.214  10.824  2.7549  0.8194  0.6177
  612TMC3    H1 9126   4.249   0.993  10.464  0.1605 -0.2090 -0.5230
  612TMC3    H2 9127   4.564   1.259  10.469  0.5072 -0.4330 -0.1892
  612TMC3    C7 9128   4.366   1.159  10.331 -0.3228  0.2922 -0.9259
  612TMC3    C8 9129   4.563   1.309  10.734  0.5999 -0.9184  0.5168
  612TMC3    O1 9130   4.300   1.081  10.261 -0.0990 -0.1420  0.1341
  612TMC3    O2 9131   4.626   1.386  10.664 -0.0529  0.3839 -0.4884
  613MPD2     C 9132   2.645   2.526  17.082 -0.4364  0.1640  0.4594
  613MPD2    C1 9133   2.590   2.627  17.002  0.3409 -0.1159  0.5584
  613MPD2    C2 9134   2.555   2.596  16.872  0.2582 -0.7417  0.3693
  613MPD2    C3 9135   2.578   2.473  16.818 -0.3140 -0.2502 -0.2575
  613MPD2    C4 9136   2.637   2.368  16.896 -0.3092 -0.6821  0.0015
  613MPD2    C5 9137   2.661   2.402  17.026 -1.3407  0.3356  0.4388
  613MPD2     H 9138   2.514   2.673  16.807  0.3624 -0.5069  0.5832
  613MPD2    H1 9139   2.640   2.268  16.854  0.7970 -1.0623  0.9960
  613MPD2    H2 9140   2.664   2.536  17.189 -1.2886  0.9349  0.5452
  613MPD2    H3 9141   2.702   2.325  17.091 -1.5423 -0.1551 -0.0182
  613MPD2     N 9142   2.554   2.438  16.689 -0.2828 -0.1219 -0.1088
  613MPD2    H5 9143   2.611   2.365  16.648 -2.4877 -1.7374 -0.3172
  613MPD2    N1 9144   2.584   2.754  17.051  0.1462 -0.0790  0.6733
  613MPD2    H7 9145   2.649   2.789  17.121  1.6908 -1.2642 -0.1751
  614TMC3    C1 9146   2.588   2.986  17.006  0.5743 -0.4596 -0.4939
  614TMC3    C2 9147   2.726   2.969  16.972  0.2074  0.0077 -0.0745
  614TMC3    C3 9148   2.777   3.044  16.868  0.7147  0.3439  0.5411
  614TMC3    C4 9149   2.520   3.092  16.954  0.0217  0.1144 -0.0631
  614TMC3    C5 9150   2.581   3.177  16.863 -0.0191  0.5551 -0.2958
  614TMC3    C6 9151   2.705   3.146  16.816  0.0245  0.2625 -0.1516
  614TMC3     C 9152   2.514   2.858  16.992 -0.6223  0.1969 -0.4462
  614TMC3     O 9153   2.420   2.864  16.912  0.4633 -0.0017  0.1249
  614TMC3     H 9154   2.788   2.891  17.016 -2.3630 -1.2918  1.2723
  614TMC3    H1 9155   2.419   3.105  16.992 -0.3488  2.2341 -1.7887
  614TMC3    H2 9156   2.746   3.194  16.728  2.4592  0.6191  1.1700
  614TMC3    C7 9157   2.503   3.291  16.818 -0.1271  0.2766  0.1199
  614TMC3    C8 9158   2.862   2.969  16.782 -0.4330 -0.6907 -0.3806
  614TMC3    O1 9159   2.412   3.330  16.891  0.1053 -0.2878  0.5619
  614TMC3    O2 9160   2.873   2.852  16.810 -0.0672 -0.3039 -0.0583
  615MPD2     C 9161   1.958   0.045  16.110 -0.5676  0.2430 -0.1900
  615MPD2    C1 9162   2.053   0.105  16.191  1.5541 -0.1123  0.4258
  615MPD2    C2 9163   2.038   0.234  16.225 -0.6116  0.6205  0.0707
  615MPD2    C3 9164   1.936   0.313  16.178  0.6174  0.0066 -0.2480
  615MPD2    C4 9165   1.839   0.251  16.100  0.1120  0.6130 -0.0077
  615MPD2    C5 9166   1.847   0.114  16.065 -0.2616  0.6063  0.5507
  615MPD2     H 9167   2.109   0.280  16.292  0.3605  0.2968 -0.7286
  615MPD2    H1 9168   1.766   0.313  16.050 -0.6592  0.5108  0.9799
  615MPD2    H2 9169   1.965   4.675  16.088  1.9672 -0.1071  2.2538
  615MPD2    H3 9170   1.764   0.067  16.014 -0.5196  1.0813  0.5255
  615MPD2     N 9171   1.922   0.453  16.209  0.2785  0.6587  0.2650
  615MPD2    H5 9172   1.832   0.492  16.182  1.9007  3.5051 -1.0492
  615MPD2    N1 9173   2.168   0.049  16.244 -0.6649 -0.3707 -0.7037
  615MPD2    H7 9174   2.228   0.102  16.307 -0.3460 -1.2678 -0.2523
  616TMC3    C1 9175   2.357   4.654  16.217  0.6149 -0.0125  0.6027
  616TMC3    C2 9176   2.427   0.029  16.221 -0.1433 -0.1418 -0.0588
  616TMC3    C3 9177   2.562   0.014  16.244  0.1353 -0.1652  0.2527
  616TMC3    C4 9178   2.404   4.528  16.220 -0.1578 -0.5486  0.2557
  616TMC3    C5 9179   2.542   4.516  16.254  0.3668  0.3592 -0.2828
  616TMC3    C6 9180   2.621   4.627  16.268 -0.7117 -0.7055 -0.9258
  616TMC3     C 9181   2.212   4.662  16.215  0.6344  0.0910  0.4880
  616TMC3     O 9182   2.158   4.567  16.158 -0.2267  0.7375 -0.3037
  616TMC3     H 9183   2.379   0.125  16.201  1.6146 -0.5008 -5.8593
  616TMC3    H1 9184   2.340   4.441  16.217 -0.7622 -0.0815 -0.2909
  616TMC3    H2 9185   2.726   4.617  16.294 -0.3416  2.4790 -1.1505
  616TMC3    C7 9186   2.603   4.388  16.263 -0.1389 -0.0952  0.1843
  616TMC3    C8 9187   2.634   0.141  16.229 -0.3113  0.0527  0.8621
  616TMC3    O1 9188   2.709   4.378  16.208 -0.2628  0.5552 -0.3709
  616TMC3    O2 9189   2.582   0.238  16.179 -0.5794  0.1713  0.1236
  617MPD2     C 9190   0.740   2.826  13.654 -0.1633 -0.0512  0.6516
  617MPD2    C1 9191   0.749   2.855  13.786  0.4044  0.3054 -0.2731
  617MPD2    C2 9192   0.636   2.874  13.860  0.0246 -0.7605 -0.3807
  617MPD2    C3 9193   0.510   2.870  13.801  0.6705 -0.1119  0.6405
  617MPD2    C4 9194   0.504   2.842  13.667 -0.8728  0.5055  0.4935
  617MPD2    C5 9195   0.619   2.812  13.592  0.1370  0.1027  0.0758
  617MPD2     H 9196   0.639   2.915  13.961 -1.4337 -0.9671 -0.2484
  617MPD2    H1 9197   0.411   2.836  13.612  0.2370  1.1495 -1.4454
  617MPD2    H2 9198   0.830   2.821  13.594 -0.9218  1.7206 -0.6097
  617MPD2    H3 9199   0.616   2.805  13.484 -1.3695  1.8292 -0.0040
  617MPD2     N 9200   0.386   2.886  13.866  0.1262 -0.1335 -0.2730
  617MPD2    H5 9201   0.314   2.932  13.812 -0.2168 -1.1751 -0.6963
  617MPD2    N1 9202   0.878   2.887  13.836 -0.4046 -0.3537 -0.2646
  617MPD2    H7 9203   0.963   2.873  13.782 -0.2149  1.6448 -0.4620
  618TMC3    C1 9204   1.043   2.966  14.000 -0.2740  0.5045 -0.3470
  618TMC3    C2 9205   1.115   2.850  13.990 -0.8567  0.2975 -0.6080
  618TMC3    C3 9206   1.242   2.860  14.031 -0.5053 -0.2740 -0.1833
  618TMC3    C4 9207   1.090   3.087  14.047 -0.7014  0.4610  0.3799
  618TMC3    C5 9208   1.222   3.088  14.075 -0.2168  0.0200 -0.1499
  618TMC3    C6 9209   1.296   2.972  14.078  0.0903  0.4479 -0.5667
  618TMC3     C 9210   0.902   2.961  13.957  0.2716 -0.3468 -0.3068
  618TMC3     O 9211   0.832   3.047  14.005  0.2291  0.1250 -0.3161
  618TMC3     H 9212   1.073   2.759  13.951 -0.3341  0.3570 -1.3115
  618TMC3    H1 9213   1.033   3.179  14.035 -1.7432 -0.0799  1.1679
  618TMC3    H2 9214   1.401   2.994  14.091 -0.0433  0.4163  0.6182
  618TMC3    C7 9215   1.293   3.217  14.059  0.3260 -1.2521 -0.5705
  618TMC3    C8 9216   1.340   2.769  13.976 -0.2539 -0.0096  0.1936
  618TMC3    O1 9217   1.242   3.304  14.128 -0.4541 -0.2916  0.1124
  618TMC3    O2 9218   1.302   2.681  13.899  0.0321 -0.1041  0.4589
  619MPD2     C 9219   1.841   3.836  14.183 -0.3656  0.3250  0.0430
  619MPD2    C1 9220   1.773   3.944  14.133 -1.0557 -0.0524 -0.0779
  619MPD2    C2 9221   1.637   3.948  14.120 -0.2055  0.3236  0.1129
  619MPD2    C3 9222   1.564   3.838  14.157 -0.0474 -0.7402 -0.9081
  619MPD2    C4 9223   1.635   3.720  14.200  0.4321  0.2576  0.7440
  619MPD2    C5 9224   1.771   3.724  14.214  0.2964 -0.0102 -0.8836
  619MPD2     H 9225   1.593   4.039  14.083  0.4271  0.4885 -0.2455
  619MPD2    H1 9226   1.590   3.622  14.212  3.2304 -0.9938  1.0677
  619MPD2    H2 9227   1.948   3.825  14.168 -0.8235 -2.1040 -1.3569
  619MPD2    H3 9228   1.817   3.628  14.233  0.9305  1.0617  3.0093
  619MPD2     N 9229   1.421   3.830  14.153  0.1116  0.9392 -0.3301
  619MPD2    H5 9230   1.377   3.741  14.173 -0.1036  1.1520  0.1381
  619MPD2    N1 9231   1.839   4.059  14.077 -0.1967 -0.0660  0.3568
  619MPD2    H7 9232   1.778   4.129  14.035  2.9012  2.1890 -0.3906
  620TMC3    C1 9233   2.018   4.199  14.012 -0.0644  0.6838  0.2644
  620TMC3    C2 9234   1.974   4.197  13.884  0.2709 -0.2253  1.0790
  620TMC3    C3 9235   2.018   4.296  13.805 -0.0109 -0.3224  0.0580
  620TMC3    C4 9236   2.081   4.302  14.072 -0.1392 -0.2043 -0.5221
  620TMC3    C5 9237   2.113   4.410  13.993  0.0810  0.3549  0.1602
  620TMC3    C6 9238   2.084   4.403  13.857 -0.6068 -0.3367 -0.4275
  620TMC3     C 9239   1.971   4.096  14.096 -0.2582  0.2159  0.1697
  620TMC3     O 9240   2.055   4.043  14.165 -0.0724  0.2458 -0.3252
  620TMC3     H 9241   1.909   4.120  13.846 -3.1325  2.2343  1.8660
  620TMC3    H1 9242   2.109   4.294  14.176  0.7911 -0.5280 -0.7961
  620TMC3    H2 9243   2.091   4.488  13.790  2.3204  2.0167  2.9062
  620TMC3    C7 9244   2.075   4.537  14.050 -0.2936  0.5682 -0.8181
  620TMC3    C8 9245   1.962   4.321  13.677 -0.0369  0.0186 -0.6678
  620TMC3    O1 9246   1.996   4.598  13.977 -1.0192 -0.5126 -0.4782
  620TMC3    O2 9247   2.030   4.373  13.587  0.7127 -0.1920  0.1810
  621MPD2     C 9248   1.873   0.017  10.788  0.2378 -0.0648  0.2388
  621MPD2    C1 9249   1.982   4.697  10.852 -0.2052 -0.3942 -0.7876
  621MPD2    C2 9250   2.104   4.714  10.788  0.1028  0.2364  0.1538
  621MPD2    C3 9251   2.121   0.052  10.671  0.0041 -0.0321 -0.4984
  621MPD2    C4 9252   2.011   0.104  10.610  0.2107  0.4199  0.4277
  621MPD2    C5 9253   1.893   0.088  10.673  0.9255 -0.0218  0.0292
  621MPD2     H 9254   2.186   4.664  10.838  0.2249 -0.0891 -0.3711
  621MPD2    H1 9255   2.022   0.164  10.520  3.0467 -2.1322 -0.9573
  621MPD2    H2 9256   1.775   4.728  10.827 -0.3996 -0.5675 -1.6935
  621MPD2    H3 9257   1.810   0.125  10.614  1.5211  2.9012  1.0293
  621MPD2     N 9258   2.253   0.084  10.636  0.0922  0.7021  0.3514
  621MPD2    H5 9259   2.326   0.066  10.705  0.5967  1.7934  0.0981
  621MPD2    N1 9260   1.975   4.621  10.977  0.1674  0.4075 -0.1806
  621MPD2    H7 9261   2.058   4.573  11.011  0.3309 -0.3903 -1.7412
  622TMC3    C1 9262   1.911   4.578  11.198  0.1240  0.5248 -0.5995
  622TMC3    C2 9263   1.838   4.641  11.295  0.7363 -0.0296  0.4174
  622TMC3    C3 9264   1.808   4.575  11.409 -0.5464  0.1245  0.2325
  622TMC3    C4 9265   1.960   4.449  11.217 -0.2494 -0.3789  0.1017
  622TMC3    C5 9266   1.946   4.389  11.340  0.2967 -0.1847  0.7300
  622TMC3    C6 9267   1.863   4.456  11.433 -0.3034  0.5326  0.1856
  622TMC3     C 9268   1.871   4.623  11.063  0.1328 -0.0099  0.5394
  622TMC3     O 9269   1.766   4.686  11.060 -0.0613 -0.2677 -0.5040
  622TMC3     H 9270   1.817   0.011  11.284  0.7942 -0.2054 -1.3053
  622TMC3    H1 9271   2.022   4.409  11.137 -3.1545  0.8252 -2.7373
  622TMC3    H2 9272   1.854   4.419  11.534  0.3025  1.0188  0.4145
  622TMC3    C7 9273   1.991   4.254  11.374 -0.2628  0.1984 -0.6720
  622TMC3    C8 9274   1.703   4.628  11.496 -0.6395  0.3189  0.2761
  622TMC3    O1 9275   1.983   4.215  11.488  0.1173  0.3592 -0.2669
  622TMC3    O2 9276   1.682   4.578  11.603  0.3509  0.2341  0.6544
  623MPD2     C 9277   1.016   0.645  16.053 -0.3057  0.6567  0.1646
  623MPD2    C1 9278   0.930   0.561  16.127 -0.2453  0.1233  0.4628
  623MPD2    C2 9279   0.928   0.571  16.268 -0.5442  0.2600 -0.7779
  623MPD2    C3 9280   1.007   0.667  16.337 -0.0117 -0.0495 -0.3536
  623MPD2    C4 9281   1.091   0.750  16.259  0.4949  0.7498  0.9406
  623MPD2    C5 9282   1.092   0.737  16.120  0.2229 -0.1476  0.6186
  623MPD2     H 9283   0.872   0.499  16.326  0.0428  1.1344  0.8788
  623MPD2    H1 9284   1.167   0.812  16.305 -1.5873  2.9556  1.4285
  623MPD2    H2 9285   1.024   0.638  15.945 -0.1223 -2.1126  0.3517
  623MPD2    H3 9286   1.155   0.799  16.057  2.0272 -1.8178  0.7910
  623MPD2     N 9287   1.007   0.643  16.476  0.2836 -0.4793 -0.1322
  623MPD2    H5 9288   0.967   0.555  16.506  1.8831 -1.3407 -0.5019
  623MPD2    N1 9289   0.853   0.467  16.054  0.5960  0.3105 -0.1260
  623MPD2    H7 9290   0.865   0.468  15.953  1.1660  0.2850 -0.0617
  624TMC3    C1 9291   1.214   0.631  16.890  1.1159  0.7600 -0.3111
  624TMC3    C2 9292   1.101   0.582  16.954 -0.5668  0.4031  0.3085
  624TMC3    C3 9293   0.990   0.564  16.889  0.2609  0.7215  0.2630
  624TMC3    C4 9294   1.200   0.664  16.760  0.0432 -0.7748 -0.9573
  624TMC3    C5 9295   1.081   0.648  16.694 -0.0004  0.0400  0.0894
  624TMC3    C6 9296   0.973   0.593  16.755 -0.1530 -0.0775  0.4849
  624TMC3     C 9297   1.347   0.629  16.952  0.4436 -0.5331  0.6851
  624TMC3     O 9298   1.356   0.577  17.060 -0.4859  0.5046  0.1302
  624TMC3     H 9299   1.113   0.533  17.051  0.3954 -0.2822 -0.1523
  624TMC3    H1 9300   1.281   0.710  16.704  1.4989 -1.2095  0.8053
  624TMC3    H2 9301   0.879   0.577  16.704 -0.1275 -0.4782  0.5623
  624TMC3    C7 9302   1.077   0.714  16.566  0.6060 -0.1757  0.3502
  624TMC3    C8 9303   0.876   0.505  16.958  0.1833 -0.5328  0.2377
  624TMC3    O1 9304   1.132   0.822  16.555 -0.1856 -0.7434  0.1638
  624TMC3    O2 9305   0.886   0.513  17.081  0.5920 -0.2300  0.0433
  625MPD2     C 9306   0.914   1.306   0.807 -0.4462 -0.2063 -0.5972
  625MPD2    C1 9307   0.985   1.421   0.794 -1.1441 -0.5931 -0.0872
  625MPD2    C2 9308   1.116   1.429   0.835  0.0685 -1.0253  0.3306
  625MPD2    C3 9309   1.184   1.322   0.873  0.1842 -0.5909 -0.0123
  625MPD2    C4 9310   1.120   1.201   0.881 -0.1095  0.3584 -0.2207
  625MPD2    C5 9311   0.982   1.196   0.853 -0.6334 -0.0758  0.1847
  625MPD2     H 9312   1.164   1.523   0.811 -0.6870 -1.7356 -4.1003
  625MPD2    H1 9313   1.168   1.108   0.909  0.5569  0.6463 -0.4203
  625MPD2    H2 9314   0.808   1.300   0.781 -0.8203 -1.2375  1.1838
  625MPD2    H3 9315   0.933   1.100   0.861  0.9736 -0.7848  1.3589
  625MPD2     N 9316   1.324   1.341   0.894 -0.6814 -0.6687 -0.0568
  625MPD2    H5 9317   1.355   1.435   0.874  0.2461 -0.9708 -0.0165
  625MPD2    N1 9318   0.933   1.530   0.728 -0.3155 -0.5968 -0.4399
  625MPD2    H7 9319   0.991   1.614   0.727 -2.5503  0.9439 -1.6164
  626TMC3    C1 9320   0.772   1.671   0.647  0.3065 -0.3017  0.5969
  626TMC3    C2 9321   0.667   1.691   0.560  0.4286  0.6648 -0.2085
  626TMC3    C3 9322   0.612   1.812   0.562 -1.1841 -1.0542  0.6432
  626TMC3    C4 9323   0.826   1.774   0.724 -0.7169 -0.1693 -0.3938
  626TMC3    C5 9324   0.761   1.891   0.719 -0.5555  0.0976 -0.2766
  626TMC3    C6 9325   0.660   1.919   0.635 -0.5659  0.7334 -0.2413
  626TMC3     C 9326   0.810   1.538   0.666 -0.1290  0.3917 -0.2322
  626TMC3     O 9327   0.738   1.452   0.623 -0.0166 -0.2269  0.0905
  626TMC3     H 9328   0.631   1.610   0.498  2.7156  0.2005 -0.9386
  626TMC3    H1 9329   0.887   1.753   0.811 -0.0318 -0.1247 -0.8581
  626TMC3    H2 9330   0.601   2.010   0.632 -0.4721  0.8512  1.3347
  626TMC3    C7 9331   0.758   1.952   0.848 -0.1695  0.4836 -0.0512
  626TMC3    C8 9332   0.554   1.846   0.436 -0.0730 -0.2785  0.3934
  626TMC3    O1 9333   0.855   1.939   0.922 -0.3776 -0.2383 -0.6278
  626TMC3    O2 9334   0.586   1.958   0.397  0.1373 -0.6364 -0.2050
  627MPD2     C 9335   4.686   1.845  14.423  0.2535 -0.1414 -0.2226
  627MPD2    C1 9336   0.057   1.786  14.493  0.1315  0.2800 -0.5077
  627MPD2    C2 9337   0.054   1.646  14.513 -0.1621  0.0243 -0.1789
  627MPD2    C3 9338   4.692   1.569  14.465 -0.5916 -0.3641  0.0208
  627MPD2    C4 9339   4.589   1.628  14.395  0.6334 -0.2524 -0.2997
  627MPD2    C5 9340   4.585   1.759  14.373 -0.0275 -0.7496 -0.1848
  627MPD2     H 9341   0.133   1.602  14.571 -1.1019 -1.8011 -0.2961
  627MPD2    H1 9342   4.509   1.571  14.349  0.7959 -0.2079 -0.6407
  627MPD2    H2 9343   4.679   1.952  14.407  1.8166 -0.0260 -0.1266
  627MPD2    H3 9344   4.496   1.795  14.324  1.2920  0.5881 -1.6007
  627MPD2     N 9345   4.683   1.431  14.489 -0.1851  0.2153 -0.4261
  627MPD2    H5 9346   0.017   1.392  14.551  0.1397 -1.1465 -1.6643
  627MPD2    N1 9347   0.143   1.860  14.575  0.2328 -0.2000  0.0850
  627MPD2    H7 9348   0.214   1.809  14.626  0.7079 -0.5183 -0.9002
  628TMC3    C1 9349   0.209   2.043  14.716  0.1509 -1.0691 -0.3718
  628TMC3    C2 9350   0.190   1.961  14.829 -0.2070 -0.6626 -0.3241
  628TMC3    C3 9351   0.163   2.028  14.944  0.5376 -0.0532 -0.8130
  628TMC3    C4 9352   0.220   2.178  14.722 -0.6178 -0.4014 -0.3075
  628TMC3    C5 9353   0.203   2.240  14.842 -0.1924  0.0216 -0.1363
  628TMC3    C6 9354   0.181   2.164  14.954 -0.0504  0.7471 -0.0501
  628TMC3     C 9355   0.140   1.999  14.588 -0.1993 -0.3246 -0.5057
  628TMC3     O 9356   0.073   2.088  14.536 -0.0885  0.3734 -0.3224
  628TMC3     H 9357   0.161   1.857  14.832 -0.1962 -0.5764  3.1039
  628TMC3    H1 9358   0.242   2.235  14.633  1.6557  0.9768  1.1535
  628TMC3    H2 9359   0.157   2.211  15.049 -0.0816  0.8221 -0.0957
  628TMC3    C7 9360   0.219   2.382  14.850 -0.0294 -0.1287  0.0417
  628TMC3    C8 9361   0.051   1.978  15.023 -0.1041  0.1739 -0.0338
  628TMC3    O1 9362   0.214   2.436  14.956 -0.1976  0.0408 -0.3585
  628TMC3    O2 9363   4.703   2.059  15.054  0.2803 -0.6518 -0.2866
  629MPD2     C 9364   2.996   0.473  16.350  0.1891 -0.3010 -0.3841
  629MPD2    C1 9365   3.022   0.356  16.406  0.5138  0.1231  0.2341
  629MPD2    C2 9366   2.944   0.243  16.384  1.1148  1.1459  0.5645
  629MPD2    C3 9367   2.841   0.256  16.296 -0.1005 -0.6833  0.0176
  629MPD2    C4 9368   2.809   0.377  16.238 -0.2602 -0.2841  0.2855
  629MPD2    C5 9369   2.883   0.486  16.270  0.0343 -0.5958  0.0735
  629MPD2     H 9370   2.957   0.153  16.444 -0.2085  0.2831 -0.4302
  629MPD2    H1 9371   2.729   0.402  16.170 -1.6434  4.3361  3.5540
  629MPD2    H2 9372   3.060   0.557  16.373 -0.2517 -0.0355 -0.1403
  629MPD2    H3 9373   2.865   0.589  16.240 -0.9698 -1.3154 -1.8174
  629MPD2     N 9374   2.756   0.139  16.291 -0.3641  0.2034  0.0645
  629MPD2    H5 9375   2.791   0.052  16.329 -1.6657 -0.4762 -0.3054
  629MPD2    N1 9376   3.141   0.344  16.479  0.5112 -0.4436  0.0346
  629MPD2    H7 9377   3.197   0.429  16.471 -1.4579  0.8966  0.5293
  630TMC3    C1 9378   3.299   0.267  16.633  0.7571 -0.5435 -0.1774
  630TMC3    C2 9379   3.386   0.365  16.584  0.4072  0.2474  0.2066
  630TMC3    C3 9380   3.491   0.408  16.660  0.3580 -0.3305 -0.0245
  630TMC3    C4 9381   3.316   0.212  16.752 -0.0368  0.4692 -1.4010
  630TMC3    C5 9382   3.422   0.258  16.826  1.3605 -0.1979 -0.3839
  630TMC3    C6 9383   3.512   0.353  16.784  0.1377  0.0834  0.4668
  630TMC3     C 9384   3.169   0.245  16.572  0.2113 -0.1236 -0.8670
  630TMC3     O 9385   3.088   0.161  16.617  0.5165 -0.0027  0.1915
  630TMC3     H 9386   3.388   0.378  16.477  1.4794 -4.7447 -0.3896
  630TMC3    H1 9387   3.228   0.169  16.798  1.4508  0.0200  0.9826
  630TMC3    H2 9388   3.598   0.376  16.847 -0.0561  2.5144 -0.1622
  630TMC3    C7 9389   3.444   0.197  16.953  0.3555 -0.1072  0.3807
  630TMC3    C8 9390   3.595   0.496  16.616 -0.1438 -0.1990  0.3463
  630TMC3    O1 9391   3.501   0.263  17.039  0.7575  0.4471 -0.6721
  630TMC3    O2 9392   3.704   0.482  16.670  0.7721 -0.6273 -0.5116
  631MPD2     C 9393   1.334   1.077  16.102  0.6421  0.6212 -0.2531
  631MPD2    C1 9394   1.432   1.019  16.019 -0.0238  0.2478  0.2495
  631MPD2    C2 9395   1.540   0.945  16.074  0.1005 -0.4286  0.5168
  631MPD2    C3 9396   1.554   0.942  16.212 -0.7175 -0.6907  0.5660
  631MPD2    C4 9397   1.467   1.015  16.292 -0.4030  0.1490 -0.2205
  631MPD2    C5 9398   1.361   1.074  16.234 -0.0748 -0.4324 -0.2914
  631MPD2     H 9399   1.610   0.905  16.003 -0.4647 -0.5672  0.0359
  631MPD2    H1 9400   1.483   1.024  16.399 -1.8992  1.3524 -0.0947
  631MPD2    H2 9401   1.250   1.133  16.061 -0.5856  0.6028  2.2462
  631MPD2    H3 9402   1.294   1.134  16.296  1.0399 -0.1395  0.6148
  631MPD2     N 9403   1.668   0.870  16.254  0.1052  0.1291 -0.0282
  631MPD2    H5 9404   1.711   0.809  16.186  0.4671  2.2694 -1.7257
  631MPD2    N1 9405   1.401   1.028  15.881 -0.4522  0.5994  0.2656
  631MPD2    H7 9406   1.315   1.079  15.862 -0.7035 -0.0728 -0.4193
  632TMC3    C1 9407   1.413   1.042  15.652 -0.5436  0.0946 -0.3736
  632TMC3    C2 9408   1.316   1.131  15.675  0.2792  0.8568 -0.6729
  632TMC3    C3 9409   1.211   1.140  15.592  0.4754  0.3975  0.2635
  632TMC3    C4 9410   1.404   0.963  15.537 -0.5434 -0.0829 -0.7294
  632TMC3    C5 9411   1.299   0.982  15.454 -0.3449 -0.7200  0.0158
  632TMC3    C6 9412   1.194   1.066  15.480  0.7782 -0.6396  0.2992
  632TMC3     C 9413   1.475   0.989  15.773  0.8006 -0.1033 -0.3187
  632TMC3     O 9414   1.559   0.898  15.754 -0.7557  1.1864 -0.0290
  632TMC3     H 9415   1.326   1.206  15.752  0.4589  2.0500 -1.8648
  632TMC3    H1 9416   1.470   0.878  15.529 -2.3292 -1.5384  0.2325
  632TMC3    H2 9417   1.100   1.071  15.427 -0.0533 -2.1737  1.6169
  632TMC3    C7 9418   1.343   0.971  15.319  0.4779 -0.7471 -0.1849
  632TMC3    C8 9419   1.096   1.160  15.686  0.0312  0.3607 -0.3666
  632TMC3    O1 9420   1.250   0.964  15.237 -0.1550 -0.1597  0.4011
  632TMC3    O2 9421   1.002   1.089  15.654  0.3689 -0.0131 -0.5128
  633MPD2     C 9422   0.731   3.418  17.521  0.7753  0.5581 -0.1023
  633MPD2    C1 9423   0.729   3.369  17.388  0.1608  0.1354  0.4602
  633MPD2    C2 9424   0.685   3.244  17.363  0.2452  0.4794  0.7023
  633MPD2    C3 9425   0.652   3.164  17.472 -0.1004  0.2561 -0.7196
  633MPD2    C4 9426   0.669   3.207  17.601 -0.3832 -0.0319 -0.1906
  633MPD2    C5 9427   0.704   3.340  17.627  0.1674  0.1351 -0.7294
  633MPD2     H 9428   0.660   3.223  17.259  1.1180  1.4836  0.2839
  633MPD2    H1 9429   0.649   3.144  17.687  0.5009  1.0144  0.7793
  633MPD2    H2 9430   0.765   3.516  17.551 -0.6725  0.6365  1.2766
  633MPD2    H3 9431   0.718   3.380  17.727  0.5803 -3.1170  0.4975
  633MPD2     N 9432   0.608   3.028  17.456 -0.8404  0.6495  0.5438
  633MPD2    H5 9433   0.615   2.959  17.530  0.0593  0.6977  0.5013
  633MPD2    N1 9434   0.784   3.442  17.273  0.0407  0.6152  0.5601
  633MPD2    H7 9435   0.782   3.402  17.180 -2.1706 -3.4809  2.3848
  634TMC3    C1 9436   0.939   3.590  17.174  0.4816  0.4510 -0.5590
  634TMC3    C2 9437   0.989   3.477  17.107  0.6534 -0.0294 -0.9427
  634TMC3    C3 9438   1.048   3.499  16.989 -0.0543 -0.1643  0.0635
  634TMC3    C4 9439   0.929   3.713  17.115 -0.7023 -0.2597 -0.2486
  634TMC3    C5 9440   0.995   3.730  16.999 -0.4761 -0.0486  0.0389
  634TMC3    C6 9441   1.060   3.622  16.938 -0.1779 -0.2326  0.2473
  634TMC3     C 9442   0.848   3.564  17.286 -0.2281  0.2660 -0.0653
  634TMC3     O 9443   0.836   3.657  17.365  0.5732 -0.0966  0.0029
  634TMC3     H 9444   0.979   3.377  17.147  2.2158  1.0851  2.1813
  634TMC3    H1 9445   0.868   3.788  17.163  0.4905  0.2613  0.4567
  634TMC3    H2 9446   1.108   3.638  16.842 -1.8760 -2.7453 -1.0113
  634TMC3    C7 9447   0.939   3.830  16.911 -0.3759 -0.8087  0.2627
  634TMC3    C8 9448   1.045   3.385  16.898 -0.0100  0.4035 -0.4723
  634TMC3    O1 9449   0.930   3.789  16.791  0.4186 -0.1999  0.3133
  634TMC3    O2 9450   1.004   3.277  16.930 -0.0770 -0.2127 -0.3557
  635TMC3    C1 9451   1.033   3.754   0.627 -0.6161  0.9523  0.3438
  635TMC3    C2 9452   1.013   3.680   0.515 -0.8109  0.7812  0.2426
  635TMC3    C3 9453   0.976   3.543   0.521  0.3326  0.1789  0.3754
  635TMC3    C4 9454   1.009   3.695   0.748 -0.0989  0.2351 -0.6596
  635TMC3    C5 9455   0.992   3.563   0.751 -0.3035 -1.0751  0.2561
  635TMC3    C6 9456   0.986   3.479   0.642 -0.8731  0.1113 -0.8793
  635TMC3     C 9457   1.111   3.869   0.625  0.0875 -0.1428  0.5788
  635TMC3     O 9458   1.102   3.936   0.731  0.8631  0.2418  0.1498
  635TMC3     H 9459   1.014   3.729   0.418 -2.1422  1.4623  0.5701
  635TMC3    H1 9460   0.996   3.747   0.842  0.4847 -1.4887  0.3729
  635TMC3    H2 9461   0.956   3.375   0.651 -1.8588  0.3649 -1.2534
  635TMC3    C7 9462   0.971   3.519   0.888  0.4374  0.0827 -0.1467
  635TMC3    C8 9463   0.965   3.469   0.399  0.4142 -0.2226 -0.3410
  635TMC3    O1 9464   1.044   3.563   0.974  0.3925 -0.4713  0.1124
  635TMC3    O2 9465   0.995   3.532   0.300  0.3673 -0.2120 -0.2479
  636MPD2     C 9466   2.106   3.157  16.318  0.4188  0.2640 -0.7052
  636MPD2    C1 9467   2.135   3.101  16.441 -0.1580 -0.3039  0.0341
  636MPD2    C2 9468   2.208   2.986  16.445  0.0637  0.1589  0.2497
  636MPD2    C3 9469   2.220   2.912  16.328 -0.2283  0.2029 -0.0510
  636MPD2    C4 9470   2.180   2.959  16.206  0.6535  0.6858 -1.3540
  636MPD2    C5 9471   2.132   3.088  16.200  0.0856  0.6791 -0.5079
  636MPD2     H 9472   2.234   2.940  16.540 -2.1022 -0.0613  0.7366
  636MPD2    H1 9473   2.195   2.911  16.110  0.4206 -1.2446 -0.4180
  636MPD2    H2 9474   2.051   3.250  16.309  1.3133  0.8401 -0.2034
  636MPD2    H3 9475   2.098   3.131  16.106 -4.9314  1.3159  1.5968
  636MPD2     N 9476   2.288   2.787  16.337  0.4183 -0.2885  0.5584
  636MPD2    H5 9477   2.330   2.752  16.422  1.2568 -0.1558  0.1971
  636MPD2    N1 9478   2.110   3.162  16.560  0.4721  0.9899  0.2935
  636MPD2    H7 9479   2.155   3.127  16.644  4.9949  2.3456 -1.5808
  637TMC3    C1 9480   2.388   2.587  16.283  0.0085  0.4828 -0.3205
  637TMC3    C2 9481   2.366   2.555  16.409 -0.4363 -0.3313  0.3724
  637TMC3    C3 9482   2.467   2.501  16.478 -1.0115  0.3384 -0.1491
  637TMC3    C4 9483   2.514   2.574  16.229 -0.0488 -0.6462  0.8729
  637TMC3    C5 9484   2.611   2.508  16.296 -0.2911  0.0559  0.9661
  637TMC3    C6 9485   2.593   2.472  16.423  0.4490 -0.2512 -0.2598
  637TMC3     C 9486   2.305   2.698  16.237 -0.8286 -0.0871 -0.6099
  637TMC3     O 9487   2.291   2.718  16.116 -0.4512 -0.8154 -0.3599
  637TMC3     H 9488   2.266   2.540  16.448  0.2956 -1.8994  1.5976
  637TMC3    H1 9489   2.537   2.621  16.134 -0.9890  1.9104  1.9125
  637TMC3    H2 9490   2.673   2.437  16.488  0.5783  1.6251  0.5936
  637TMC3    C7 9491   2.731   2.578  16.275 -0.3760  0.3430 -0.0766
  637TMC3    C8 9492   2.443   2.494  16.618  0.1420  0.3282 -1.4163
  637TMC3    O1 9493   2.781   2.596  16.165 -0.0096 -0.0194  0.0067
  637TMC3    O2 9494   2.347   2.553  16.671  0.5454  0.0012 -0.0159
  638MPD2     C 9495   1.789   2.281  15.483  0.1895 -0.3980  0.0586
  638MPD2    C1 9496   1.889   2.250  15.388 -0.1563  0.8633 -0.1623
  638MPD2    C2 9497   1.941   2.120  15.397  0.4876  0.1316  0.4561
  638MPD2    C3 9498   1.898   2.027  15.491 -0.0862 -0.3485 -0.0561
  638MPD2    C4 9499   1.801   2.066  15.584  0.2387 -0.4266 -0.5431
  638MPD2    C5 9500   1.748   2.190  15.583  0.1654  0.0739 -0.0838
  638MPD2     H 9501   2.016   2.079  15.330 -1.2559 -0.3758 -1.1706
  638MPD2    H1 9502   1.757   1.999  15.657 -1.0697  1.4886  0.4071
  638MPD2    H2 9503   1.743   2.379  15.488  1.3657  0.1515  0.2421
  638MPD2    H3 9504   1.671   2.216  15.655 -0.2296 -2.2361  0.3374
  638MPD2     N 9505   1.943   1.894  15.493  0.1271  0.5412 -0.1674
  638MPD2    H5 9506   1.926   1.833  15.573  0.4297  1.8174  0.8693
  638MPD2    N1 9507   1.918   2.342  15.286  0.8870  0.5050  0.1252
  638MPD2    H7 9508   1.867   2.428  15.271  0.6234  0.0318 -1.7100
  639TMC3    C1 9509   2.012   1.689  15.421  0.6842 -0.0026 -0.1399
  639TMC3    C2 9510   1.887   1.642  15.454 -0.1537  0.5845  0.9897
  639TMC3    C3 9511   1.893   1.511  15.481 -0.1906 -0.2311 -0.5939
  639TMC3    C4 9512   2.134   1.627  15.433 -0.3569 -0.1333  0.7730
  639TMC3    C5 9513   2.131   1.501  15.477  0.5239  0.2914 -0.1470
  639TMC3    C6 9514   2.008   1.443  15.501 -0.3999 -0.5369  0.1480
  639TMC3     C 9515   2.016   1.829  15.395  0.3662 -0.1318 -0.1303
  639TMC3     O 9516   2.063   1.860  15.289 -0.0384 -0.1080 -0.1124
  639TMC3     H 9517   1.794   1.691  15.427  0.8670  0.3666 -2.9500
  639TMC3    H1 9518   2.220   1.678  15.391 -0.9138  0.3130  0.1771
  639TMC3    H2 9519   2.004   1.335  15.509  3.0168 -0.5320  1.7804
  639TMC3    C7 9520   2.243   1.412  15.468  0.6319 -0.8865  0.6027
  639TMC3    C8 9521   1.801   1.419  15.406  0.0792  1.4603  0.2900
  639TMC3    O1 9522   2.237   1.309  15.543  0.0055 -0.1870  0.4625
  639TMC3    O2 9523   1.851   1.330  15.337 -0.0933 -0.1937 -0.2825
  640MPD2     C 9524   2.577   1.494   9.281  0.0457 -0.5873 -0.6770
  640MPD2    C1 9525   2.650   1.460   9.388 -0.1949  0.5699  0.7526
  640MPD2    C2 9526   2.579   1.432   9.499 -0.4735 -0.4838  0.7992
  640MPD2    C3 9527   2.437   1.418   9.505  0.6558 -0.7862  1.0837
  640MPD2    C4 9528   2.368   1.442   9.385 -0.5369  0.2786 -0.4511
  640MPD2    C5 9529   2.442   1.482   9.279  0.3268  0.3843  0.3666
  640MPD2     H 9530   2.623   1.391   9.589  0.3850  1.0473  1.0809
  640MPD2    H1 9531   2.261   1.449   9.372 -0.4232  3.0017  0.1461
  640MPD2    H2 9532   2.620   1.518   9.184  0.4671  0.1361 -0.3059
  640MPD2    H3 9533   2.383   1.512   9.193 -0.6394 -2.5901 -0.0148
  640MPD2     N 9534   2.359   1.378   9.621 -0.1103 -0.0047 -0.6060
  640MPD2    H5 9535   2.262   1.356   9.600  0.0476 -0.0808 -1.2343
  640MPD2    N1 9536   2.792   1.465   9.380  0.3199  0.2814  0.1875
  640MPD2    H7 9537   2.836   1.496   9.295  0.9244  1.6969  1.0125
  641TMC3    C1 9538   3.017   1.448   9.459 -1.1140  0.5021  0.3833
  641TMC3    C2 9539   3.088   1.373   9.546  0.2516 -0.5017  0.3424
  641TMC3    C3 9540   3.172   1.440   9.634 -0.1172 -0.4110  0.7003
  641TMC3    C4 9541   3.018   1.585   9.450 -0.0557  0.1963 -0.1195
  641TMC3    C5 9542   3.111   1.643   9.526 -0.2131  0.1722  0.0438
  641TMC3    C6 9543   3.192   1.575   9.617  0.1371  0.4031 -0.9907
  641TMC3     C 9544   2.877   1.414   9.474  0.2942 -0.1208 -0.4671
  641TMC3     O 9545   2.855   1.362   9.581  0.1003 -0.4185  0.3157
  641TMC3     H 9546   3.065   1.269   9.568 -2.6239  0.0702  0.0687
  641TMC3    H1 9547   2.960   1.641   9.378  0.6307 -0.4008 -1.1233
  641TMC3    H2 9548   3.273   1.618   9.676  0.1959 -0.8013 -0.1929
  641TMC3    C7 9549   3.141   1.779   9.508 -0.0670 -0.0356 -0.6515
  641TMC3    C8 9550   3.250   1.360   9.729  0.5587  0.5964 -0.2430
  641TMC3    O1 9551   3.253   1.815   9.529  0.6361 -0.6714 -0.1004
  641TMC3    O2 9552   3.241   1.237   9.728  0.2539 -0.4049  0.5293
  642TMC3    C1 9553   3.866   2.517  12.382 -0.1742  0.5140  0.9011
  642TMC3    C2 9554   3.972   2.560  12.452  0.3230  0.1335  0.7974
  642TMC3    C3 9555   4.045   2.467  12.523 -0.1819  0.7464  0.3306
  642TMC3    C4 9556   3.824   2.386  12.398  0.0035 -0.0007  0.6875
  642TMC3    C5 9557   3.894   2.296  12.475  0.0438  0.1630  0.0291
  642TMC3    C6 9558   4.000   2.340  12.543  0.0795 -0.7601  0.0226
  642TMC3     C 9559   3.794   2.613  12.296  0.6166 -0.3060  0.1409
  642TMC3     O 9560   3.858   2.708  12.258 -0.1441 -0.0189  0.2570
  642TMC3     H 9561   4.010   2.659  12.432 -0.6836  0.6656  1.5426
  642TMC3    H1 9562   3.740   2.341  12.346  1.3121 -2.3575  0.6034
  642TMC3    H2 9563   4.060   2.261  12.587 -1.0344 -0.9994  1.0982
  642TMC3    C7 9564   3.820   2.184  12.523 -0.3310 -0.0209  0.1693
  642TMC3    C8 9565   4.169   2.498  12.602  0.9295 -0.4676 -0.1832
  642TMC3    O1 9566   3.743   2.140  12.444  0.1763 -0.1094  0.1813
  642TMC3    O2 9567   4.210   2.410  12.677  0.4142  0.1354 -0.0035
  643TMC3    C1 9568   2.677   0.953   0.207  0.2168  0.4607  0.1768
  643TMC3    C2 9569   2.567   0.905   0.141  0.0413 -0.0300  0.4866
  643TMC3    C3 9570   2.585   0.856   0.012  0.6030 -0.4185  0.3564
  643TMC3    C4 9571   2.803   0.954   0.155 -0.4889  0.3066 -0.6930
  643TMC3    C5 9572   2.816   0.901   0.031  1.1566  0.2460 -0.0725
  643TMC3    C6 9573   2.713   0.847  17.703  0.3799  0.1580 -0.3264
  643TMC3     C 9574   2.660   1.014   0.338  0.4068 -0.2083  0.8249
  643TMC3     O 9575   2.543   1.040   0.370  0.3057  0.1403 -0.1572
  643TMC3     H 9576   2.472   0.916   0.192 -0.6849  0.1216 -0.9203
  643TMC3    H1 9577   2.876   1.030   0.182 -1.2674  0.4453  1.0607
  643TMC3    H2 9578   2.737   0.806  17.606  2.3727 -1.8493  1.0285
  643TMC3    C7 9579   2.915   0.953  17.682 -0.2283  0.3875 -0.0061
  643TMC3    C8 9580   2.504   0.923  17.653  0.0782  0.3964  0.2486
  643TMC3    O1 9581   2.868   0.985  17.572  0.9130 -0.5600 -1.0520
  643TMC3    O2 9582   2.380   0.918  17.670 -0.1419  0.5319 -0.0476
  644MPD2     C 9583   3.620   2.086  10.110 -0.4342 -0.7917 -0.0681
  644MPD2    C1 9584   3.554   2.025  10.004 -0.5956 -0.6408 -0.3920
  644MPD2    C2 9585   3.441   2.082   9.950 -0.0544 -0.0743 -0.1674
  644MPD2    C3 9586   3.399   2.201   9.998  0.3989 -0.0404  0.4619
  644MPD2    C4 9587   3.463   2.260  10.109 -1.1154  0.2466 -0.8609
  644MPD2    C5 9588   3.573   2.199  10.168  0.2011  0.5549 -0.7346
  644MPD2     H 9589   3.377   2.043   9.872  1.3955  0.7622 -1.7748
  644MPD2    H1 9590   3.424   2.347  10.160 -1.2044  0.3749 -1.1449
  644MPD2    H2 9591   3.711   2.039  10.148 -0.7167 -0.0992  1.4429
  644MPD2    H3 9592   3.630   2.249  10.246 -0.7969  0.5806 -0.0274
  644MPD2     N 9593   3.276   2.252   9.947 -0.1139 -0.4932 -0.1271
  644MPD2    H5 9594   3.239   2.202   9.867 -0.5015 -1.0411  0.4008
  644MPD2    N1 9595   3.613   1.905   9.963  0.1905 -0.3722 -0.2574
  644MPD2    H7 9596   3.689   1.862  10.014 -0.7978 -0.6337  1.0140
  645TMC3    C1 9597   3.082   2.393   9.913  0.3003 -0.3734 -0.2818
  645TMC3    C2 9598   3.015   2.278   9.887  0.5294  0.2105  0.0127
  645TMC3    C3 9599   2.904   2.291   9.813 -0.6441 -0.1685 -0.4869
  645TMC3    C4 9600   3.042   2.516   9.868  0.4215 -0.3602 -0.5913
  645TMC3    C5 9601   2.920   2.522   9.794  0.0260 -0.0656 -0.2889
  645TMC3    C6 9602   2.853   2.411   9.760 -0.4375  0.6272 -1.0556
  645TMC3     C 9603   3.216   2.376   9.973 -0.4113  0.1199 -0.1719
  645TMC3     O 9604   3.269   2.468  10.031 -0.2048 -0.4770 -0.1915
  645TMC3     H 9605   3.038   2.190   9.945  1.8896 -0.7417 -1.9501
  645TMC3    H1 9606   3.093   2.605   9.904 -0.4310 -0.4869  0.9408
  645TMC3    H2 9607   2.768   2.418   9.692 -2.8758 -0.6774  1.8361
  645TMC3    C7 9608   2.902   2.641   9.710 -0.1818  0.3234  0.3865
  645TMC3    C8 9609   2.824   2.180   9.773  0.7988  0.2541  0.5055
  645TMC3    O1 9610   2.811   2.634   9.627  0.1539  0.3068  0.6054
  645TMC3    O2 9611   2.714   2.203   9.720 -0.1994 -0.1134  0.6887
  646MPD2     C 9612   2.325   0.988  14.754 -0.1191 -0.2682  0.6269
  646MPD2    C1 9613   2.227   0.942  14.839 -0.0505  0.4811 -0.1969
  646MPD2    C2 9614   2.100   1.014  14.827  0.1515  0.2399 -0.3495
  646MPD2    C3 9615   2.080   1.129  14.755 -0.3846 -0.0814  0.4272
  646MPD2    C4 9616   2.185   1.170  14.675  0.5068 -0.4835  0.5086
  646MPD2    C5 9617   2.307   1.096  14.674  0.2657  0.4804  0.0404
  646MPD2     H 9618   2.014   0.983  14.886  1.1725 -2.2241 -0.1527
  646MPD2    H1 9619   2.168   1.243  14.597 -1.6271 -2.3872 -0.7935
  646MPD2    H2 9620   2.420   0.937  14.739  0.2218  0.6493 -0.3244
  646MPD2    H3 9621   2.382   1.118  14.598 -0.2105  0.8791 -0.3127
  646MPD2     N 9622   1.950   1.190  14.755 -0.1600 -0.5089 -0.3791
  646MPD2    H5 9623   1.881   1.127  14.794  0.0453  0.5896  1.7718
  646MPD2    N1 9624   2.251   0.826  14.916  0.1232  0.0461  0.2029
  646MPD2    H7 9625   2.336   0.777  14.892 -0.4151 -0.5966 -0.3907
  647TMC3    C1 9626   2.246   0.667  15.086 -0.2162  0.3356  0.6349
  647TMC3    C2 9627   2.184   0.549  15.120  0.4951 -0.1019  0.3405
  647TMC3    C3 9628   2.249   0.453  15.185 -0.7031 -0.6638 -0.0907
  647TMC3    C4 9629   2.382   0.686  15.112  0.4636 -0.3447  0.4032
  647TMC3    C5 9630   2.442   0.597  15.202 -0.4776 -0.2705  0.4524
  647TMC3    C6 9631   2.380   0.476  15.225  0.0333  0.0375  0.2045
  647TMC3     C 9632   2.169   0.763  15.014  0.9630  0.3042 -0.3324
  647TMC3     O 9633   2.048   0.783  15.043 -0.5256  0.3248  0.1332
  647TMC3     H 9634   2.076   0.559  15.109  0.4574 -0.7555  0.1242
  647TMC3    H1 9635   2.428   0.776  15.072  0.6160  0.1106  1.5977
  647TMC3    H2 9636   2.429   0.390  15.269 -1.1143 -0.4466  0.5193
  647TMC3    C7 9637   2.588   0.594  15.227 -0.0090 -0.4439 -0.4575
  647TMC3    C8 9638   2.188   0.350  15.263 -0.2761 -0.5299  0.6205
  647TMC3    O1 9639   2.646   0.494  15.268 -0.0574 -0.4653  0.4321
  647TMC3    O2 9640   2.246   0.320  15.369  0.3789  0.6264 -0.2756
  648TMC3    C1 9641   1.392   3.143  16.386 -0.7836  0.5001 -0.3475
  648TMC3    C2 9642   1.437   3.021  16.351  0.1077  0.4495 -0.3451
  648TMC3    C3 9643   1.457   2.992  16.214  0.4714 -0.0656  0.3986
  648TMC3    C4 9644   1.369   3.236  16.292  0.5127 -0.2686 -0.4894
  648TMC3    C5 9645   1.376   3.206  16.158  0.5907  0.4807 -0.2180
  648TMC3    C6 9646   1.424   3.083  16.124  0.2637 -0.2268  0.2290
  648TMC3     C 9647   1.393   3.193  16.518  0.4519  0.4616 -0.9076
  648TMC3     O 9648   1.400   3.313  16.538 -0.4707 -0.5913  0.2486
  648TMC3     H 9649   1.446   2.943  16.426  4.6163 -0.0399 -1.4282
  648TMC3    H1 9650   1.352   3.340  16.320 -0.2718 -0.3054 -0.8366
  648TMC3    H2 9651   1.440   3.062  16.019 -2.0527 -3.7653  0.5892
  648TMC3    C7 9652   1.349   3.296  16.047  0.4976  0.1603 -0.4869
  648TMC3    C8 9653   1.465   2.854  16.180 -0.0097 -0.5464 -0.0472
  648TMC3    O1 9654   1.376   3.260  15.928  0.0080  0.0355  0.5632
  648TMC3    O2 9655   1.422   2.786  16.273 -0.5605  0.0380  0.1931
  649TMC3    C1 9656   0.845   4.536  13.115  0.4193 -0.1723  0.2443
  649TMC3    C2 9657   0.964   4.527  13.176  0.1496  0.2509  1.1029
  649TMC3    C3 9658   0.982   4.434  13.276  0.8010 -0.2616  0.1734
  649TMC3    C4 9659   0.739   4.458  13.148  0.1995  0.3023 -0.3813
  649TMC3    C5 9660   0.757   4.370  13.255  0.2388  0.4359  0.0218
  649TMC3    C6 9661   0.874   4.360  13.329  0.5905 -0.4808 -0.3566
  649TMC3     C 9662   0.818   4.639  13.015 -0.2574  0.3407 -0.0735
  649TMC3     O 9663   0.702   4.660  12.983  0.4905  0.2061 -0.3640
  649TMC3     H 9664   1.041   4.602  13.161  0.5988 -0.2625  0.8571
  649TMC3    H1 9665   0.641   4.460  13.102 -0.1422  0.8267  0.3455
  649TMC3    H2 9666   0.889   4.296  13.414 -3.9559 -2.5568 -1.1072
  649TMC3    C7 9667   0.650   4.270  13.279 -0.9505 -0.0384  0.3205
  649TMC3    C8 9668   1.119   4.395  13.312 -0.1394  0.5347 -0.1591
  649TMC3    O1 9669   0.533   4.296  13.259 -0.0817  0.0918  0.7329
  649TMC3    O2 9670   1.142   4.315  13.397 -0.4004  0.1981 -0.1852
  650TMC3    C1 9671   3.022   1.584  13.043 -0.0578 -0.2469  0.5499
  650TMC3    C2 9672   3.007   1.719  13.040 -0.1274 -0.6227 -0.1249
  650TMC3    C3 9673   2.950   1.777  12.924  0.0360  0.6012 -0.3847
  650TMC3    C4 9674   2.988   1.506  12.935  0.1572 -0.5950 -0.1421
  650TMC3    C5 9675   2.941   1.568  12.819  1.3156 -0.0334  0.1642
  650TMC3    C6 9676   2.906   1.700  12.821  0.5731  1.0676 -0.2317
  650TMC3     C 9677   3.028   1.531  13.179  0.4925  0.6845  0.2008
  650TMC3     O 9678   2.980   1.608  13.267 -0.3383  0.0661 -0.4352
  650TMC3     H 9679   3.025   1.789  13.121 -0.5855  1.3441 -1.7147
  650TMC3    H1 9680   2.986   1.398  12.936  1.3938 -0.6273 -1.1735
  650TMC3    H2 9681   2.853   1.740  12.735  1.2458  2.4622 -0.0043
  650TMC3    C7 9682   2.876   1.482  12.723 -0.5175 -0.1876  0.0725
  650TMC3    C8 9683   2.897   1.915  12.926  0.0206  0.4965 -0.1315
  650TMC3    O1 9684   2.830   1.378  12.761  0.2423 -0.2014 -0.0868
  650TMC3    O2 9685   2.851   1.955  13.031 -0.5409  0.9446 -0.3516
  651MPD2     C 9686   2.528   2.940  11.116  0.6271 -0.8240 -0.3690
  651MPD2    C1 9687   2.448   3.051  11.102 -0.0671  0.5562 -0.3483
  651MPD2    C2 9688   2.490   3.170  11.156  0.1803 -0.2390 -0.3054
  651MPD2    C3 9689   2.616   3.176  11.215  0.0942  0.2806  0.2481
  651MPD2    C4 9690   2.694   3.068  11.223  0.4277 -0.1011  0.1620
  651MPD2    C5 9691   2.653   2.953  11.167  0.1789 -1.1871  0.6328
  651MPD2     H 9692   2.427   3.258  11.153  0.3050 -0.2266 -2.3211
  651MPD2    H1 9693   2.797   3.069  11.254 -0.1643 -0.2562  2.1210
  651MPD2    H2 9694   2.491   2.849  11.070 -2.7221  0.0390  0.6524
  651MPD2    H3 9695   2.716   2.865  11.160  1.8919  0.2561 -1.9819
  651MPD2     N 9696   2.656   3.301  11.258 -0.1054 -0.4445 -0.0238
  651MPD2    H5 9697   2.605   3.384  11.231 -0.0359 -0.7315 -1.0255
  651MPD2    N1 9698   2.319   3.044  11.047 -0.1703  0.7145  0.0422
  651MPD2    H7 9699   2.279   3.138  11.051 -2.0863 -0.1076 -0.1175
  652TMC3    C1 9700   2.926   3.643  11.424  0.1425  0.1598  0.0253
  652TMC3    C2 9701   2.911   3.512  11.380 -0.1857  0.1764  0.9163
  652TMC3    C3 9702   2.784   3.475  11.342 -1.0729  0.0168  0.8370
  652TMC3    C4 9703   2.820   3.733  11.409  0.4596  0.1843 -0.2356
  652TMC3    C5 9704   2.697   3.686  11.371 -0.3299 -0.4567 -0.2608
  652TMC3    C6 9705   2.673   3.554  11.339 -0.3508 -1.1762 -0.0685
  652TMC3     C 9706   3.058   3.700  11.432  0.6002 -0.1390  0.2920
  652TMC3     O 9707   3.143   3.613  11.423 -0.3196  0.5369 -0.2528
  652TMC3     H 9708   2.992   3.440  11.380  0.1183  0.5250  1.9583
  652TMC3    H1 9709   2.828   3.834  11.447  0.9289 -0.5146  1.4857
  652TMC3    H2 9710   2.573   3.513  11.338 -1.3880  1.3405  0.4802
  652TMC3    C7 9711   2.585   3.760  11.419 -0.0670 -0.6698 -0.1990
  652TMC3    C8 9712   2.770   3.332  11.328 -0.3238  0.2468 -1.1026
  652TMC3    O1 9713   2.496   3.692  11.468  0.1715  0.2215 -0.0286
  652TMC3    O2 9714   2.842   3.255  11.391 -0.0021  0.8179  0.0593
  653MPD2     C 9715   0.576   3.326   0.265  0.1251  0.5466 -0.4576
  653MPD2    C1 9716   0.546   3.448   0.206 -0.2510 -0.0019 -0.6843
  653MPD2    C2 9717   0.471   3.446   0.091 -0.7920 -0.0085 -0.6310
  653MPD2    C3 9718   0.432   3.325   0.029  0.0309 -0.2460  0.5865
  653MPD2    C4 9719   0.464   3.208   0.099  0.4170 -0.8230  0.3790
  653MPD2    C5 9720   0.531   3.210   0.212 -0.4453 -0.2398  0.2486
  653MPD2     H 9721   0.443   3.535   0.035  1.4426  1.1238  0.0479
  653MPD2    H1 9722   0.429   3.118   0.051  0.6854 -0.4216 -0.5726
  653MPD2    H2 9723   0.635   3.320   0.356 -0.2555 -2.1291 -0.4158
  653MPD2    H3 9724   0.570   3.124   0.264  0.9379 -1.3276 -2.6191
  653MPD2     N 9725   0.365   3.330  17.649  0.7950  0.0497  0.4420
  653MPD2    H5 9726   0.369   3.420  17.602 -0.1868  0.1147  0.4900
  653MPD2    N1 9727   0.590   3.575   0.253  0.2252 -0.4390 -0.3000
  653MPD2    H7 9728   0.577   3.655   0.192  2.3394  0.9759  1.1083
  654TMC3    C1 9729   0.260   3.263  17.457  0.2661 -1.2011 -0.2931
  654TMC3    C2 9730   0.184   3.376  17.443 -0.2087  0.9164  0.0768
  654TMC3    C3 9731   0.118   3.397  17.328 -0.4974  0.4407  0.7307
  654TMC3    C4 9732   0.250   3.160  17.370 -0.1431 -0.2149 -0.1180
  654TMC3    C5 9733   0.186   3.186  17.253 -0.0594 -0.1382  0.4262
  654TMC3    C6 9734   0.123   3.301  17.226  0.1049  0.3266 -0.7451
  654TMC3     C 9735   0.304   3.226  17.587 -0.2240 -0.3716  0.1813
  654TMC3     O 9736   0.305   3.105  17.618  0.3269  0.3475 -0.0016
  654TMC3     H 9737   0.179   3.446  17.526 -1.0564 -1.5041  2.0726
  654TMC3    H1 9738   0.319   3.078  17.386 -0.5740 -0.5116  0.1865
  654TMC3    H2 9739   0.061   3.303  17.137  0.2187  0.1271 -0.8299
  654TMC3    C7 9740   0.153   3.070  17.163  0.6169  0.1949 -0.0436
  654TMC3    C8 9741   4.729   3.475  17.333 -0.2518 -0.5714  0.5592
  654TMC3    O1 9742   0.102   3.094  17.055  0.6669  0.2297 -0.0829
  654TMC3    O2 9743   4.659   3.475  17.234 -0.3139  0.2279 -0.3598
  655MPD2     C 9744   1.820   3.086  16.017  0.1530  0.0540  0.3204
  655MPD2    C1 9745   1.850   3.187  15.933 -0.2565  0.2271 -0.0820
  655MPD2    C2 9746   1.939   3.171  15.828  0.2391 -0.2157 -0.3636
  655MPD2    C3 9747   2.009   3.049  15.820  0.9079 -0.5553  0.4220
  655MPD2    C4 9748   1.980   2.945  15.913 -0.0175 -0.3431  0.3844
  655MPD2    C5 9749   1.883   2.963  16.005 -0.2028 -0.3410  0.6440
  655MPD2     H 9750   1.951   3.254  15.760  0.8827  0.6883  0.8679
  655MPD2    H1 9751   2.028   2.849  15.900 -2.2284 -1.2908 -0.7383
  655MPD2    H2 9752   1.757   3.103  16.104  0.0474 -0.7171  0.3912
  655MPD2    H3 9753   1.872   2.890  16.084  0.0660 -1.7617 -0.6454
  655MPD2     N 9754   2.106   3.021  15.719  0.0690 -0.2360  0.2435
  655MPD2    H5 9755   2.149   2.929  15.715 -0.4062 -0.3766 -1.4930
  655MPD2    N1 9756   1.791   3.318  15.951 -0.0334 -0.4461  0.1467
  655MPD2    H7 9757   1.817   3.389  15.882  0.7436 -1.0076 -0.1338
  656TMC3    C1 9758   1.662   3.491  16.052 -0.4969  0.2547  0.5223
  656TMC3    C2 9759   1.592   3.527  16.166 -0.5015  0.2913  0.9763
  656TMC3    C3 9760   1.538   3.650  16.162  0.5202 -1.0824 -0.0500
  656TMC3    C4 9761   1.657   3.560  15.928  0.9307 -0.0046 -0.1902
  656TMC3    C5 9762   1.574   3.671  15.933 -0.9867  0.3264  0.0557
  656TMC3    C6 9763   1.514   3.715  16.046  0.4424  0.0362  1.0243
  656TMC3     C 9764   1.720   3.361  16.062 -0.4158  0.0139 -0.8055
  656TMC3     O 9765   1.697   3.306  16.167 -0.4571 -0.0024  0.2818
  656TMC3     H 9766   1.583   3.475  16.261 -1.3248 -0.1955  0.6315
  656TMC3    H1 9767   1.710   3.532  15.838  0.9603 -0.2092 -0.1099
  656TMC3    H2 9768   1.471   3.814  16.051 -4.3386 -2.0961  1.5155
  656TMC3    C7 9769   1.562   3.747  15.808  0.0106 -0.0010 -0.0550
  656TMC3    C8 9770   1.442   3.670  16.267 -0.2512 -0.6633 -0.4533
  656TMC3    O1 9771   1.646   3.722  15.724  0.0532 -0.6041 -0.1236
  656TMC3    O2 9772   1.377   3.571  16.296 -0.7315 -0.4508 -0.8088
  657TMC3    C1 9773   1.088   2.587  15.149 -0.9193 -0.0659  0.3472
  657TMC3    C2 9774   1.073   2.572  15.287  0.5123 -0.0057  0.0646
  657TMC3    C3 9775   1.084   2.683  15.364 -0.6589 -0.9341 -0.2046
  657TMC3    C4 9776   1.127   2.700  15.095 -0.0553  1.0441 -0.9915
  657TMC3    C5 9777   1.138   2.807  15.174 -0.0039  0.7479 -1.1946
  657TMC3    C6 9778   1.104   2.803  15.306  0.5510 -0.3707 -0.7092
  657TMC3     C 9779   1.097   2.463  15.065  0.3345  0.1543  0.4312
  657TMC3     O 9780   1.051   2.476  14.949  0.1055  0.6279 -0.2372
  657TMC3     H 9781   1.059   2.475  15.335 -2.0396  0.3824  0.1256
  657TMC3    H1 9782   1.139   2.704  14.988 -0.4447  0.6313 -1.0516
  657TMC3    H2 9783   1.121   2.894  15.364 -0.9740 -1.6503  1.7415
  657TMC3    C7 9784   1.104   2.933  15.104  0.3282  0.3362  0.0418
  657TMC3    C8 9785   1.026   2.678  15.502  0.4569 -0.5331 -0.4410
  657TMC3    O1 9786   1.026   3.004  15.166 -0.2126  0.5471  0.3853
  657TMC3    O2 9787   1.018   2.569  15.556  0.1346 -0.4469  0.2319
  658MPD2     C 9788   2.499   3.524  15.222  0.4295 -0.1633 -0.1020
  658MPD2    C1 9789   2.408   3.440  15.163 -0.7590  0.1015 -0.4611
  658MPD2    C2 9790   2.372   3.469  15.031  0.4864  0.0769  0.3304
  658MPD2    C3 9791   2.412   3.575  14.960  0.1363  0.7556  0.2341
  658MPD2    C4 9792   2.496   3.659  15.020 -0.0271 -0.2771 -0.0422
  658MPD2    C5 9793   2.549   3.629  15.146  0.9602  0.0355  0.5328
  658MPD2     H 9794   2.297   3.409  14.981  0.1237  1.3626 -0.6702
  658MPD2    H1 9795   2.524   3.756  14.981  0.1284 -0.5978 -0.7185
  658MPD2    H2 9796   2.533   3.514  15.324  0.6788 -0.5786 -0.2258
  658MPD2    H3 9797   2.607   3.710  15.187  1.3615  0.1603 -0.2858
  658MPD2     N 9798   2.342   3.588  14.841 -0.7379  0.8503 -0.0401
  658MPD2    H5 9799   2.275   3.519  14.810  0.9771  0.1173 -2.1271
  658MPD2    N1 9800   2.370   3.328  15.237 -0.4120 -0.0856 -0.2641
  658MPD2    H7 9801   2.419   3.315  15.326 -1.7952 -2.3633  0.1463
  659TMC3    C1 9802   2.239   3.132  15.286  0.8832  0.1435  0.5114
  659TMC3    C2 9803   2.257   3.145  15.420 -0.7263 -0.2471  0.2259
  659TMC3    C3 9804   2.196   3.050  15.502 -0.8485 -0.4861 -0.5278
  659TMC3    C4 9805   2.146   3.043  15.237 -0.0866  0.1718  0.2032
  659TMC3    C5 9806   2.086   2.960  15.322 -0.9525  0.0420  0.0117
  659TMC3    C6 9807   2.124   2.946  15.453 -0.2840  0.4215 -0.1000
  659TMC3     C 9808   2.261   3.252  15.205  0.4374  0.0430 -1.2688
  659TMC3     O 9809   2.185   3.266  15.113 -0.1083  0.1759  0.2842
  659TMC3     H 9810   2.330   3.217  15.457 -1.7749  0.3293  1.1746
  659TMC3    H1 9811   2.120   3.047  15.132 -0.1915 -2.4164  0.1116
  659TMC3    H2 9812   2.068   2.889  15.527 -0.3627 -0.8678 -1.1626
  659TMC3    C7 9813   1.964   2.887  15.288 -0.6965 -0.0691  0.0754
  659TMC3    C8 9814   2.159   3.109  15.627 -0.0745  0.3786 -0.0981
  659TMC3    O1 9815   1.952   2.790  15.355 -0.5722  0.3378  0.4717
  659TMC3    O2 9816   2.149   3.230  15.621  0.6057  0.4155 -0.3343
  660MPD2     C 9817   4.720   2.314  13.107  0.7262  0.5569 -0.5786
  660MPD2    C1 9818   4.644   2.227  13.039 -0.1581 -0.2792 -0.1650
  660MPD2    C2 9819   4.574   2.132  13.102  0.1541  0.2126 -0.1853
  660MPD2    C3 9820   4.569   2.132  13.242  0.5692 -0.2472  0.1559
  660MPD2    C4 9821   4.616   2.242  13.310 -0.0383 -0.3004  1.0963
  660MPD2    C5 9822   4.693   2.335  13.240 -0.1374  0.3785 -0.5168
  660MPD2     H 9823   4.532   2.054  13.039 -1.2895  1.0984 -0.3204
  660MPD2    H1 9824   4.619   2.245  13.418 -0.6168  0.6173  1.0799
  660MPD2    H2 9825   0.043   2.391  13.059  3.3913 -2.2211 -1.7753
  660MPD2    H3 9826   0.007   2.416  13.292 -1.0424 -0.8699  2.2670
  660MPD2     N 9827   4.510   2.033  13.313 -0.4136 -0.0717 -0.5414
  660MPD2    H5 9828   4.496   2.049  13.412 -1.1951  1.0645 -0.8367
  660MPD2    N1 9829   4.658   2.225  12.897  0.5546 -0.3052  0.4981
  660MPD2    H7 9830   4.730   2.279  12.851 -0.3371 -2.2888 -3.1572
  661TMC3    C1 9831   4.589   2.200  12.675  0.0136  0.7227  0.4487
  661TMC3    C2 9832   4.719   2.183  12.623  0.4402 -0.2520  0.1052
  661TMC3    C3 9833   4.730   2.191  12.489  0.7666  0.8718 -0.2261
  661TMC3    C4 9834   4.477   2.214  12.592 -0.2546 -0.0887  1.2081
  661TMC3    C5 9835   4.505   2.224  12.454 -0.2532  0.2847  0.0209
  661TMC3    C6 9836   4.628   2.220  12.406  0.0077  0.0928  1.0217
  661TMC3     C 9837   4.561   2.180  12.815 -0.2062  0.5093 -0.5630
  661TMC3     O 9838   4.444   2.153  12.839 -0.0667 -0.3649 -0.4096
  661TMC3     H 9839   0.065   2.150  12.687  1.7919  2.1187 -0.4134
  661TMC3    H1 9840   4.377   2.220  12.632 -0.9778 -1.7575 -0.3229
  661TMC3    H2 9841   4.646   2.224  12.299 -1.1380  1.9865  0.9021
  661TMC3    C7 9842   4.444   2.344  12.399  0.2448  0.1559  0.1198
  661TMC3    C8 9843   0.126   2.216  12.436  0.3607  0.6690  0.2461
  661TMC3    O1 9844   4.521   2.421  12.346  0.4945  0.0897 -0.1715
  661TMC3    O2 9845   0.135   2.181  12.318  0.0702  0.6580 -0.5565
  662MPD2     C 9846   0.427   1.726  17.182  0.3378  0.2916 -0.2030
  662MPD2    C1 9847   0.318   1.700  17.257  0.4730 -0.4934 -0.1740
  662MPD2    C2 9848   0.238   1.807  17.295 -0.0081  0.4797 -0.0664
  662MPD2    C3 9849   0.250   1.932  17.229 -0.2621  0.3610 -0.5407
  662MPD2    C4 9850   0.362   1.952  17.148  0.9852  0.4910 -0.0758
  662MPD2    C5 9851   0.447   1.846  17.126 -0.3190 -0.6918 -0.0657
  662MPD2     H 9852   0.149   1.785  17.354 -0.4290  1.5804 -0.2887
  662MPD2    H1 9853   0.386   2.043  17.093 -0.0762 -1.3435 -3.5937
  662MPD2    H2 9854   0.513   1.663  17.162  0.4248  0.4203 -0.2306
  662MPD2    H3 9855   0.533   1.864  17.061  1.1874  1.2414  2.4613
  662MPD2     N 9856   0.162   2.040  17.242 -0.2836  0.3176 -0.1738
  662MPD2    H5 9857   0.184   2.122  17.186  1.6738  1.4698  2.2744
  662MPD2    N1 9858   0.290   1.574  17.315 -0.2336  0.7328  0.0472
  662MPD2    H7 9859   0.210   1.569  17.376 -0.3860  2.5734  0.0051
  663TMC3    C1 9860   0.291   1.332  17.345  0.2182  0.4868  0.0378
  663TMC3    C2 9861   0.180   1.349  17.413  0.0692  0.1521  0.2384
  663TMC3    C3 9862   0.084   1.254  17.428 -0.1984 -0.2705  0.5038
  663TMC3    C4 9863   0.300   1.214  17.273  0.2045  0.3787 -0.4475
  663TMC3    C5 9864   0.199   1.124  17.280 -0.6197 -0.3571  0.3085
  663TMC3    C6 9865   0.103   1.131  17.367 -0.7376 -0.5250 -0.5477
  663TMC3     C 9866   0.348   1.455  17.281  0.7375 -0.4000  0.4184
  663TMC3     O 9867   0.445   1.441  17.212 -0.6032 -0.1062  0.3440
  663TMC3     H 9868   0.157   1.442  17.463 -0.1964 -0.1094  0.6127
  663TMC3    H1 9869   0.375   1.204  17.195 -1.3927  1.6578 -2.1764
  663TMC3    H2 9870   0.016   1.066  17.364 -0.6530 -0.6232 -0.8821
  663TMC3    C7 9871   0.195   1.019  17.185  0.2765  0.1614  0.6428
  663TMC3    C8 9872   4.687   1.316  17.404  0.0643  0.2177  0.3400
  663TMC3    O1 9873   0.259   1.033  17.083 -0.4820  0.1159 -0.3864
  663TMC3    O2 9874   4.695   1.415  17.328  0.1217 -0.0464  0.0320
  664MPD2     C 9875   2.897   4.566   0.081  0.2533 -0.2053  0.2881
  664MPD2    C1 9876   3.027   4.591   0.128  0.3930 -0.3225 -0.6440
  664MPD2    C2 9877   3.064   4.522   0.238 -0.0617 -0.3404  0.1476
  664MPD2    C3 9878   2.977   4.455   0.324 -0.1267 -0.2991  0.1794
  664MPD2    C4 9879   2.846   4.440   0.282 -0.6605 -0.0097  1.5004
  664MPD2    C5 9880   2.811   4.488   0.155  0.3494 -0.1794 -0.4632
  664MPD2     H 9881   3.164   4.525   0.281 -0.9849  0.3295  2.2489
  664MPD2    H1 9882   2.777   4.373   0.331  0.1427 -1.6488  0.3702
  664MPD2    H2 9883   2.865   4.627  17.740 -2.5770 -1.8081  0.2053
  664MPD2    H3 9884   2.710   4.475   0.119  0.1531 -0.1822  0.0808
  664MPD2     N 9885   3.024   4.403   0.449  0.5175 -0.7488 -0.1358
  664MPD2    H5 9886   3.112   4.441   0.481  0.4460  0.7308 -1.6815
  664MPD2    N1 9887   3.111   4.683   0.063 -0.0083 -0.4285  0.3317
  664MPD2    H7 9888   3.211   4.673   0.079  0.4872  2.7070 -0.8936
  665TMC3    C1 9889   3.014   4.308   0.663  0.2260 -0.1434 -0.1029
  665TMC3    C2 9890   2.929   4.272   0.766  0.4629 -0.9508 -0.0453
  665TMC3    C3 9891   2.970   4.301   0.891 -0.2614  0.1134  0.0764
  665TMC3    C4 9892   3.141   4.364   0.684 -0.7566  0.0212  1.0305
  665TMC3    C5 9893   3.177   4.377   0.816  0.5263 -0.2965  0.1487
  665TMC3    C6 9894   3.084   4.359   0.913 -0.3579  0.8268 -0.0449
  665TMC3     C 9895   2.957   4.316   0.534  1.0497  1.0074 -0.8413
  665TMC3     O 9896   2.856   4.253   0.507 -0.0583 -0.6977  0.0088
  665TMC3     H 9897   2.829   4.241   0.740 -0.1292  2.5110 -1.9570
  665TMC3    H1 9898   3.213   4.376   0.604 -1.7294 -2.2683 -0.1705
  665TMC3    H2 9899   3.119   4.378   1.013  1.9272 -0.0877 -0.6718
  665TMC3    C7 9900   3.288   4.459   0.838 -0.3112  0.1168 -0.6281
  665TMC3    C8 9901   2.879   4.308   1.004  0.1834  0.2143  0.4114
  665TMC3    O1 9902   3.374   4.451   0.748  0.4766  0.4543 -0.1165
  665TMC3    O2 9903   2.921   4.362   1.107  0.1420  0.6721 -0.3163
  666TMC3    C1 9904   2.412   0.223  10.533  0.9783 -0.2708  0.6706
  666TMC3    C2 9905   2.507   0.148  10.594  0.3267  0.2091  0.3761
  666TMC3    C3 9906   2.613   0.225  10.632 -0.8835 -0.8031  0.0488
  666TMC3    C4 9907   2.412   0.361  10.512  0.7551  0.8254  0.0750
  666TMC3    C5 9908   2.519   0.427  10.563  0.9937 -0.7930  0.6123
  666TMC3    C6 9909   2.624   0.362  10.615 -0.4833 -0.2470  0.0001
  666TMC3     C 9910   2.287   0.157  10.526  0.9928 -0.0081  0.0648
  666TMC3     O 9911   2.209   0.191  10.436 -0.3973 -0.6204  0.7757
  666TMC3     H 9912   2.504   0.041  10.607 -1.6813  0.1334 -0.7633
  666TMC3    H1 9913   2.334   0.413  10.458 -0.5799 -0.5178  0.7179
  666TMC3    H2 9914   2.713   0.409  10.656 -0.2220  1.2886 -2.3147
  666TMC3    C7 9915   2.509   0.578  10.545 -0.4340  0.0486 -0.2711
  666TMC3    C8 9916   2.668   0.184  10.754 -0.2041 -0.5319 -0.8883
  666TMC3    O1 9917   2.396   0.621  10.533  0.0552  0.1951 -0.6122
  666TMC3    O2 9918   2.588   0.137  10.837  0.1861  0.5546 -0.1805
  667MPD2     C 9919   4.020   4.698  14.897 -0.4259  0.0698 -0.0302
  667MPD2    C1 9920   3.938   4.732  15.001 -0.8722  0.0301  0.3379
  667MPD2    C2 9921   3.825   4.648  15.019 -0.1387 -0.3895 -0.2717
  667MPD2    C3 9922   3.793   4.544  14.925  0.5550  0.2242  0.4916
  667MPD2    C4 9923   3.878   4.518  14.825 -0.1912 -0.4190 -0.2210
  667MPD2    C5 9924   4.000   4.585  14.817 -0.8091  0.3703  0.5653
  667MPD2     H 9925   3.764   4.665  15.107  0.0232 -2.0573  0.1589
  667MPD2    H1 9926   3.858   4.450  14.743  1.2577 -1.1067 -0.0004
  667MPD2    H2 9927   4.108   0.022  14.873  0.0343 -0.4130  0.4366
  667MPD2    H3 9928   4.082   4.563  14.750  0.5944  0.1045  2.3500
  667MPD2     N 9929   3.666   4.482  14.913  0.3497  0.1587 -0.8462
  667MPD2    H5 9930   3.662   4.436  14.823 -0.2202 -2.5198  0.5660
  667MPD2    N1 9931   3.960   0.098  15.097 -0.2727 -0.0178  0.3643
  667MPD2    H7 9932   3.895   0.108  15.175 -2.0329  0.5916 -1.1843
  668TMC3    C1 9933   4.048   0.267  15.224 -0.0811 -0.0775  0.7053
  668TMC3    C2 9934   4.153   0.350  15.245 -0.4232  0.5872  0.3594
  668TMC3    C3 9935   4.194   0.361  15.373 -0.2877 -0.1978  0.2794
  668TMC3    C4 9936   3.965   0.222  15.328  0.7114  0.4896  0.1291
  668TMC3    C5 9937   3.999   0.260  15.453 -0.9584 -0.3027  0.3312
  668TMC3    C6 9938   4.121   0.313  15.478  0.1457  0.3487  0.1593
  668TMC3     C 9939   4.054   0.194  15.096  0.0002 -0.3861  0.5563
  668TMC3     O 9940   4.149   0.216  15.025 -0.3426 -0.1815 -0.1262
  668TMC3     H 9941   4.214   0.378  15.160 -0.2818 -2.2910 -0.4920
  668TMC3    H1 9942   3.876   0.165  15.305  1.2265 -1.1129  2.1905
  668TMC3    H2 9943   4.153   0.327  15.581  0.6504  1.6269 -0.1854
  668TMC3    C7 9944   3.947   0.184  15.568  0.6357  0.2715  0.5045
  668TMC3    C8 9945   4.296   0.449  15.413 -0.0457 -0.4411  0.4593
  668TMC3    O1 9946   4.031   0.127  15.634  0.1276  0.9865  0.2505
  668TMC3    O2 9947   4.322   0.456  15.532 -0.2604 -0.2115 -0.2749
  669TMC3    C1 9948   2.108   4.437  15.262 -0.1485 -0.0946  0.1916
  669TMC3    C2 9949   2.009   4.466  15.172 -0.0161  0.7789 -0.0444
  669TMC3    C3 9950   2.036   4.545  15.068 -0.1778 -0.0623  0.3971
  669TMC3    C4 9951   2.230   4.497  15.249 -0.3701  0.4164  0.1058
  669TMC3    C5 9952   2.250   4.581  15.140  0.3964 -0.0740 -0.1808
  669TMC3    C6 9953   2.158   4.602  15.043 -0.6924  0.2876 -0.5328
  669TMC3     C 9954   2.071   4.371  15.386 -0.9089  0.6374 -0.1685
  669TMC3     O 9955   1.951   4.371  15.418 -0.1223 -0.3941 -0.2112
  669TMC3     H 9956   1.911   4.428  15.197  0.2006  0.7384  0.7559
  669TMC3    H1 9957   2.282   4.509  15.344  0.5594 -1.0780 -0.2206
  669TMC3    H2 9958   2.179   4.652  14.949 -1.5145  0.5912 -0.5541
  669TMC3    C7 9959   2.350   4.690  15.145 -0.5298 -0.3057  0.5073
  669TMC3    C8 9960   1.927   4.577  14.983 -0.3198 -0.4350  0.1562
  669TMC3    O1 9961   2.327   0.059  15.094 -0.5714 -0.0608 -0.2814
  669TMC3    O2 9962   1.825   4.514  14.997 -0.0292 -0.2465 -0.9055
  670MPD2     C 9963   0.606   2.542  13.394 -0.0739  0.2291 -0.7660
  670MPD2    C1 9964   0.671   2.504  13.508  0.6385  0.0995 -0.3582
  670MPD2    C2 9965   0.600   2.468  13.619  0.0103  0.5365 -1.0008
  670MPD2    C3 9966   0.462   2.481  13.619  0.0109  0.1036 -0.0625
  670MPD2    C4 9967   0.387   2.510  13.505 -0.6755 -0.5017 -0.1433
  670MPD2    C5 9968   0.465   2.536  13.393  0.3825  0.5139 -0.2192
  670MPD2     H 9969   0.650   2.453  13.714  0.1074  0.3186 -1.0853
  670MPD2    H1 9970   0.279   2.521  13.501 -0.6617 -1.5222 -3.1549
  670MPD2    H2 9971   0.654   2.574  13.302  2.3341 -0.0126  0.4223
  670MPD2    H3 9972   0.409   2.571  13.306  1.0324  1.4355 -0.2714
  670MPD2     N 9973   0.401   2.472  13.743 -0.0518 -0.4936  0.8379
  670MPD2    H5 9974   0.464   2.448  13.819  1.2108 -1.6915 -0.5910
  670MPD2    N1 9975   0.809   2.510  13.512 -0.1657  0.3082 -0.2074
  670MPD2    H7 9976   0.844   2.448  13.585  2.8879  1.3553 -0.8058
  671TMC3    C1 9977   0.246   2.488  13.912  0.2920  0.3175 -0.0005
  671TMC3    C2 9978   0.343   2.509  14.005 -0.0696  0.0605 -0.3113
  671TMC3    C3 9979   0.295   2.515  14.138  0.7112 -0.6148 -0.0411
  671TMC3    C4 9980   0.120   2.451  13.931  0.1648  0.0442 -0.0167
  671TMC3    C5 9981   0.077   2.448  14.063  0.3472 -0.2761  0.5393
  671TMC3    C6 9982   0.163   2.481  14.167  0.5714 -0.0561  0.0941
  671TMC3     C 9983   0.269   2.492  13.769  0.4962 -0.1333 -0.1314
  671TMC3     O 9984   0.171   2.488  13.695  0.7477  0.2980 -0.0915
  671TMC3     H 9985   0.440   2.555  13.987  0.4730 -0.5501  1.0479
  671TMC3    H1 9986   0.049   2.417  13.857 -1.7552 -2.2472  2.8666
  671TMC3    H2 9987   0.137   2.439  14.264 -0.1566 -1.4203 -0.6877
  671TMC3    C7 9988   4.687   2.375  14.085 -0.0334 -0.7062  0.6749
  671TMC3    C8 9989   0.369   2.427  14.220  0.4452 -1.0488 -0.2377
  671TMC3    O1 9990   4.639   2.315  13.996  0.1154  0.0773  0.1076
  671TMC3    O2 9991   0.399   2.328  14.158  0.5703 -0.3312  0.4523
  672MPD2     C 9992   0.433   2.959   1.289  0.2894 -0.2590 -0.8132
  672MPD2    C1 9993   0.530   2.891   1.215  0.3290  0.1061 -0.1083
  672MPD2    C2 9994   0.664   2.921   1.241  0.6067 -0.0955  0.0703
  672MPD2    C3 9995   0.693   3.012   1.342 -0.3152 -0.3537  0.5090
  672MPD2    C4 9996   0.595   3.069   1.423  0.2742 -1.0896  0.3213
  672MPD2    C5 9997   0.463   3.050   1.389  0.0782 -0.3864 -0.0187
  672MPD2     H 9998   0.741   2.869   1.185  1.9102 -0.3554  2.0957
  672MPD2    H1 9999   0.620   3.141   1.500 -0.9810 -1.0356  0.6812
  672MPD2    H210000   0.328   2.949   1.266  0.4561  0.1211 -1.7251
  672MPD2    H310001   0.391   3.107   1.447  1.2820  1.3073 -0.1807
  672MPD2     N10002   0.823   3.057   1.378  0.1684  0.1909  0.1891
  672MPD2    H510003   0.830   3.130   1.448 -1.3941  2.5734 -2.1531
  672MPD2    N110004   0.483   2.809   1.107  0.0080  0.2423 -0.3827
  672MPD2    H710005   0.383   2.800   1.093 -0.1093 -1.1704  1.3555
  673TMC3    C110006   0.494   2.653   0.929 -0.9708  0.5422 -0.3829
  673TMC3    C210007   0.558   2.543   0.873 -0.2822 -0.0205  0.2621
  673TMC3    C310008   0.509   2.484   0.762 -0.6829 -0.0464  0.3578
  673TMC3    C410009   0.383   2.700   0.871 -0.1120 -0.1391  0.1033
  673TMC3    C510010   0.337   2.639   0.755 -0.2011  1.0339 -0.7332
  673TMC3    C610011   0.395   2.533   0.703 -0.2092 -0.0410  0.2521
  673TMC3     C10012   0.567   2.731   1.028  0.5714  0.4274 -0.3409
  673TMC3     O10013   0.688   2.728   1.020 -0.2866 -0.6926  0.1388
  673TMC3     H10014   0.640   2.504   0.931  0.6483 -0.1590 -1.1655
  673TMC3    H110015   0.330   2.786   0.910  1.2269  0.3420  0.8403
  673TMC3    H210016   0.350   2.475   0.623  1.5517 -0.8289 -0.1671
  673TMC3    C710017   0.262   2.713   0.663  0.3100  0.2006  0.3735
  673TMC3    C810018   0.586   2.389   0.692  0.5143  0.2775 -0.3505
  673TMC3    O110019   0.205   2.649   0.571 -0.0933 -0.0258 -0.2013
  673TMC3    O210020   0.557   2.385   0.573  0.4152  0.6924 -0.3534
  674MPD2     C10021   0.066   3.229   0.105  0.4611  0.1290  0.2534
  674MPD2    C110022   0.050   3.091   0.113 -0.0943 -0.2207 -0.0232
  674MPD2    C210023   4.657   3.047   0.115  0.1421  0.5197  1.3324
  674MPD2    C310024   4.540   3.123   0.114 -0.0163 -0.1247 -0.0283
  674MPD2    C410025   4.559   3.258   0.113  0.3771 -0.1704  0.6194
  674MPD2    C510026   4.690   3.310   0.115 -0.4192 -0.9780 -0.3277
  674MPD2     H10027   4.637   2.941   0.113 -1.1934  0.8113 -2.1657
  674MPD2    H110028   4.475   3.327   0.118  1.2397  0.8945  0.3247
  674MPD2    H210029   0.167   3.266   0.107  0.2103  0.8102  0.3824
  674MPD2    H310030   4.707   3.417   0.116 -1.7836 -0.7631  1.2521
  674MPD2     N10031   4.418   3.051   0.118 -0.7680 -0.2330  0.0235
  674MPD2    H510032   4.422   2.950   0.118  3.6928 -0.0330 -0.6313
  674MPD2    N110033   0.171   3.008   0.102 -1.0963  0.0640 -0.2237
  674MPD2    H710034   0.259   3.058   0.111 -0.4132 -1.2750  0.5965
  675TMC3    C110035   0.302   2.810   0.119 -0.4251 -0.1629  0.1032
  675TMC3    C210036   0.299   2.669   0.106 -0.2531  0.2165 -0.0280
  675TMC3    C310037   0.349   2.590   0.202 -0.0112 -0.1758  0.2350
  675TMC3    C410038   0.356   2.857   0.238 -0.9580  0.0504  0.0074
  675TMC3    C510039   0.424   2.772   0.317 -0.2526  0.0205  0.0074
  675TMC3    C610040   0.417   2.633   0.312 -0.1194  0.0137  0.5092
  675TMC3     C10041   0.171   2.869   0.101 -0.4357  0.6008  0.3676
  675TMC3     O10042   0.078   2.792   0.082 -0.2317  0.0989  0.2152
  675TMC3     H10043   0.231   2.622   0.037  1.0666 -0.9873 -0.5086
  675TMC3    H110044   0.354   2.961   0.267  1.2391 -0.0090  0.3632
  675TMC3    H210045   0.468   2.561   0.375  0.3341  1.9787  2.4216
  675TMC3    C710046   0.531   2.822   0.411 -0.0588  0.5738  0.1834
  675TMC3    C810047   0.288   2.456   0.218  0.3891 -0.1043 -0.2974
  675TMC3    O110048   0.516   2.934   0.455  0.6172  0.0144 -0.3812
  675TMC3    O210049   0.263   2.394   0.115  0.5666 -0.0333 -0.1112
  676MPD2     C10050   3.577   1.650  11.586  0.1505 -0.1154 -0.0650
  676MPD2    C110051   3.482   1.580  11.647 -0.0339  0.2985 -0.0173
  676MPD2    C210052   3.444   1.454  11.605  0.2598  0.6076  0.1074
  676MPD2    C310053   3.514   1.393  11.502 -0.0492  0.4887 -0.1197
  676MPD2    C410054   3.616   1.463  11.431 -0.2777  0.1342  0.4818
  676MPD2    C510055   3.642   1.594  11.476 -0.4141  0.5311  0.6358
  676MPD2     H10056   3.365   1.409  11.663 -0.3929 -0.0791 -1.3149
  676MPD2    H110057   3.682   1.423  11.354 -1.2581  0.1235 -0.3516
  676MPD2    H210058   3.602   1.751  11.617 -0.9739 -0.8528  3.2599
  676MPD2    H310059   3.712   1.657  11.421  0.4091 -0.1689  0.8736
  676MPD2     N10060   3.468   1.271  11.450  0.2311 -0.0519  0.2976
  676MPD2    H510061   3.519   1.219  11.380 -1.5107 -1.4431  0.0630
  676MPD2    N110062   3.396   1.642  11.742  0.2161  0.1394 -1.0605
  676MPD2    H710063   3.323   1.577  11.771  1.3369 -0.6448  0.0262
  677TMC3    C110064   3.292   1.803  11.881  0.5897 -0.5180  0.7649
  677TMC3    C210065   3.317   1.718  11.988 -0.4692 -0.0796  0.6443
  677TMC3    C310066   3.307   1.773  12.113  0.0479 -0.6100  0.6601
  677TMC3    C410067   3.274   1.930  11.892  0.4266 -0.1601 -0.8892
  677TMC3    C510068   3.259   1.983  12.015 -0.9295 -0.8229  0.4936
  677TMC3    C610069   3.264   1.902  12.129  1.0549  0.4051  0.6131
  677TMC3     C10070   3.383   1.778  11.771 -0.0193  0.4117 -0.0670
  677TMC3     O10071   3.440   1.876  11.721  0.6587 -0.3394 -0.0819
  677TMC3     H10072   3.353   1.617  11.973  3.4488  1.5010 -0.6562
  677TMC3    H110073   3.240   1.989  11.808  2.4619  0.6444 -1.1449
  677TMC3    H210074   3.259   1.935  12.232 -1.9629  1.9016 -0.0219
  677TMC3    C710075   3.311   2.112  12.028  0.2231  0.1935  0.4098
  677TMC3    C810076   3.280   1.677  12.211 -0.4357 -1.0280  0.1013
  677TMC3    O110077   3.294   2.191  12.118  0.6900 -0.0922  0.2681
  677TMC3    O210078   3.326   1.687  12.325  0.0640 -0.3911 -0.0090
  678MPD2     C10079   4.101   1.085   1.743 -0.2908 -0.6810  0.2966
  678MPD2    C110080   4.104   1.095   1.605  0.3769  0.2770  0.5566
  678MPD2    C210081   3.996   1.134   1.540  0.0051 -0.3103  0.1520
  678MPD2    C310082   3.874   1.154   1.598 -0.1182  0.0306 -0.0351
  678MPD2    C410083   3.867   1.138   1.735  0.2239 -0.1948 -0.5975
  678MPD2    C510084   3.980   1.107   1.802  0.2817  0.6988 -0.5245
  678MPD2     H10085   3.997   1.150   1.433 -0.1025 -0.6754  0.0953
  678MPD2    H110086   3.771   1.146   1.784 -0.2355  1.3699 -1.7218
  678MPD2    H210087   4.181   1.054   1.810  0.0408  0.2780  0.3407
  678MPD2    H310088   3.984   1.084   1.908 -2.3338 -1.3016 -0.8567
  678MPD2     N10089   3.750   1.165   1.520  0.8110 -0.0442  0.4920
  678MPD2    H510090   3.767   1.174   1.420  1.3826 -0.8785  0.5145
  678MPD2    N110091   4.220   1.064   1.531  0.7824 -0.2361  0.3534
  678MPD2    H710092   4.215   1.093   1.434  0.5103 -1.6207 -0.0444
  679TMC3    C110093   4.613   0.875   1.379 -0.9706  0.1958 -1.0659
  679TMC3    C210094   4.514   0.881   1.470  0.5916 -0.4113 -0.3081
  679TMC3    C310095   4.428   0.981   1.471 -0.1001  0.2269 -0.7359
  679TMC3    C410096   4.628   0.971   1.280 -0.0042 -0.4211 -0.0024
  679TMC3    C510097   4.540   1.077   1.286 -0.5613  0.3861  0.5368
  679TMC3    C610098   4.439   1.083   1.376 -0.2797 -0.8079 -0.7279
  679TMC3     C10099   4.679   0.748   1.360  0.2111  0.4358  0.4156
  679TMC3     O10100   0.007   0.746   1.260 -0.1204  0.0825  0.0885
  679TMC3     H10101   4.504   0.815   1.556 -0.5675 -0.8796 -0.8106
  679TMC3    H110102   4.709   0.962   1.208 -0.7760  0.8990 -1.0450
  679TMC3    H210103   4.366   1.162   1.363 -0.7122 -1.0628  0.1614
  679TMC3    C710104   4.524   1.152   1.163  0.1559 -0.8222 -0.4494
  679TMC3    C810105   4.331   0.998   1.572  0.3197  0.3766  0.7848
  679TMC3    O110106   4.410   1.188   1.141  0.0264  0.2777 -0.4787
  679TMC3    O210107   4.340   0.933   1.674  0.0294 -0.4907 -0.3353
  680MPD2     C10108   4.528   4.467  13.664  0.4173 -0.0252 -0.4206
  680MPD2    C110109   4.645   4.411  13.706 -0.1641 -0.0250 -0.6991
  680MPD2    C210110   4.728   4.473  13.801 -0.4737 -0.6275  0.5832
  680MPD2    C310111   4.685   4.596  13.840  0.2482 -0.2485 -0.0756
  680MPD2    C410112   4.574   4.657  13.797  0.7654 -0.0763 -0.1491
  680MPD2    C510113   4.500   4.594  13.699 -0.0033  0.2379  0.0199
  680MPD2     H10114   0.081   4.424  13.840  0.8697  0.0260 -1.6340
  680MPD2    H110115   4.543   0.020  13.827 -0.9952  0.0999 -2.5500
  680MPD2    H210116   4.465   4.421  13.590 -3.4046  0.7979  2.3392
  680MPD2    H310117   4.419   4.648  13.652  1.7012  1.6233 -1.3268
  680MPD2     N10118   0.023   4.676  13.928 -0.6072 -0.1949 -0.1015
  680MPD2    H510119   4.730   0.037  13.933 -1.4259 -0.5654  2.6670
  680MPD2    N110120   4.672   4.270  13.675 -0.4363  0.3661  0.1293
  680MPD2    H710121   0.031   4.241  13.698 -0.6560  0.5875  1.3027
  681TMC3    C110122   4.640   4.048  13.657  0.7851  0.3224  0.0005
  681TMC3    C210123   4.552   3.951  13.692  0.5192 -0.4575  0.7028
  681TMC3    C310124   4.604   3.825  13.714 -0.3228  0.1006 -0.4484
  681TMC3    C410125   0.033   4.023  13.613  0.5166 -0.3159 -1.0861
  681TMC3    C510126   0.072   3.893  13.630 -0.3478  0.1285  0.9360
  681TMC3    C610127   4.732   3.794  13.683 -0.1160 -0.4362 -0.6740
  681TMC3     C10128   4.587   4.172  13.627  0.0840  0.3593 -0.1558
  681TMC3     O10129   4.470   4.183  13.594  0.3935 -0.3322  0.1121
  681TMC3     H10130   4.456   3.977  13.734  0.6723  0.2393  0.6141
  681TMC3    H110131   0.083   4.108  13.570 -0.7441  1.8936  1.8324
  681TMC3    H210132   0.039   3.698  13.713 -0.7854 -0.0301  1.6160
  681TMC3    C710133   0.195   3.853  13.565 -0.2036 -0.6181  0.1371
  681TMC3    C810134   4.549   3.764  13.832  0.1438 -0.2014  0.2990
  681TMC3    O110135   0.227   3.735  13.566 -0.3716 -0.2105  0.2014
  681TMC3    O210136   4.450   3.692  13.812 -0.5794 -0.4148 -0.2932
  682MPD2     C10137   2.304   1.580  11.112  0.7023  0.9225 -0.2183
  682MPD2    C110138   2.248   1.455  11.086  0.2591 -0.4043  0.9573
  682MPD2    C210139   2.201   1.381  11.192 -0.6414 -0.0887 -0.0420
  682MPD2    C310140   2.195   1.427  11.320 -0.5626  0.4599 -0.4151
  682MPD2    C410141   2.240   1.554  11.339 -0.3253  0.0768  0.7567
  682MPD2    C510142   2.296   1.629  11.241 -0.9077  0.4051  1.0676
  682MPD2     H10143   2.147   1.287  11.182  0.5494 -0.9349  1.4230
  682MPD2    H110144   2.237   1.587  11.443 -2.4630  0.6373  0.5136
  682MPD2    H210145   2.356   1.641  11.039 -0.6638  0.9094 -1.1885
  682MPD2    H310146   2.329   1.731  11.261 -0.9815  0.4745  0.8375
  682MPD2     N10147   2.135   1.356  11.425 -0.3284  0.6130 -0.2747
  682MPD2    H510148   2.129   1.394  11.518  0.0070  0.5570 -0.2314
  682MPD2    N110149   2.230   1.408  10.952  0.8644 -0.3535 -0.5140
  682MPD2    H710150   2.194   1.313  10.948  0.7852 -0.3189 -0.6176
  683TMC3    C110151   2.034   1.194  11.781  0.1291 -0.2007 -0.3873
  683TMC3    C210152   2.089   1.075  11.827 -0.5430  0.2143 -0.0011
  683TMC3    C310153   2.141   0.994  11.723  0.4075 -0.8450  0.0071
  683TMC3    C410154   2.047   1.248  11.654  1.0130 -0.4780  0.2651
  683TMC3    C510155   2.094   1.166  11.560 -0.1721 -0.5927  0.2229
  683TMC3    C610156   2.144   1.043  11.590  0.1562  0.0777  0.4610
  683TMC3     C10157   2.016   1.292  11.884  0.0798 -0.2674 -0.2020
  683TMC3     O10158   2.051   1.407  11.852  0.0494  0.8921  0.0472
  683TMC3     H10159   2.078   1.032  11.926  1.1893 -0.2042  0.0063
  683TMC3    H110160   2.003   1.344  11.632  1.4210 -0.2270  0.5335
  683TMC3    H210161   2.187   0.990  11.506  1.5726  0.6095  0.8555
  683TMC3    C710162   2.139   1.218  11.428 -0.2102  0.2732  0.3957
  683TMC3    C810163   2.206   0.862  11.739  0.2309 -0.0538  0.7469
  683TMC3    O110164   2.185   1.136  11.345 -0.0989 -0.1927  0.8321
  683TMC3    O210165   2.209   0.788  11.640  0.0881  0.4957 -0.2055
  684MPD2     C10166   0.293   0.044  16.323  0.1699  0.3260 -0.0276
  684MPD2    C110167   0.405   0.120  16.336  0.7762  0.1680  0.0621
  684MPD2    C210168   0.411   0.218  16.434 -0.0071 -0.3395 -0.7318
  684MPD2    C310169   0.298   0.251  16.514  0.7192  0.3411  0.4053
  684MPD2    C410170   0.180   0.183  16.485  0.1857 -0.5114 -0.1745
  684MPD2    C510171   0.182   0.082  16.391  0.0872 -0.1652  0.3237
  684MPD2     H10172   0.502   0.276  16.432  0.2462 -0.6889  0.6252
  684MPD2    H110173   0.099   0.202  16.554 -1.8006 -0.1198 -2.6515
  684MPD2    H210174   0.282   4.693  16.260  0.5307  0.9096 -0.9024
  684MPD2    H310175   0.097   0.017  16.378  1.0812 -0.9884 -1.9981
  684MPD2     N10176   0.298   0.353  16.609  0.7668  0.4578  0.3482
  684MPD2    H510177   0.211   0.388  16.646 -0.6234 -0.9069 -1.6327
  684MPD2    N110178   0.516   0.106  16.254 -0.3049 -0.2409 -0.0037
  684MPD2    H710179   0.602   0.154  16.280 -0.7646  0.6365 -0.1067
  685TMC3    C110180   0.636   0.040  16.068  0.4040 -0.6565  0.7652
  685TMC3    C210181   0.614   0.037  15.929 -0.9024 -1.0503  0.6897
  685TMC3    C310182   0.636   0.150  15.859  0.3673  0.6549 -0.3664
  685TMC3    C410183   0.705   0.150  16.115  0.6152 -0.1273 -0.1046
  685TMC3    C510184   0.739   0.260  16.040  0.2443  0.6427 -0.2458
  685TMC3    C610185   0.705   0.259  15.906 -0.3692 -0.0104  0.7685
  685TMC3     C10186   0.515   0.023  16.144  0.0677 -0.1145 -0.1011
  685TMC3     O10187   0.419   0.009  16.075 -0.2131  0.0986  0.0419
  685TMC3     H10188   0.555   4.695  15.882 -0.1755 -0.5006 -1.1271
  685TMC3    H110189   0.748   0.143  16.214 -1.6304  0.3137  0.9038
  685TMC3    H210190   0.715   0.346  15.842 -1.3227 -0.7275 -0.3592
  685TMC3    C710191   0.770   0.379  16.116  0.6218 -0.0209 -0.0070
  685TMC3    C810192   0.530   0.188  15.769  0.6039 -0.0626  0.1010
  685TMC3    O110193   0.734   0.374  16.233  0.1104  0.0436 -0.5942
  685TMC3    O210194   0.555   0.247  15.663 -0.2427  0.2124  0.6662
  686MPD2     C10195   2.270   0.396  16.727  0.2556 -0.1514  0.8515
  686MPD2    C110196   2.148   0.434  16.680  0.2297  0.0066 -0.0138
  686MPD2    C210197   2.135   0.571  16.653 -0.4299  0.1861  0.8410
  686MPD2    C310198   2.241   0.665  16.663  0.9867 -0.1187  0.2579
  686MPD2    C410199   2.352   0.620  16.725  0.2217  0.7776 -1.3138
  686MPD2    C510200   2.373   0.486  16.752 -0.0816 -0.3080  0.3314
  686MPD2     H10201   2.037   0.608  16.625 -0.7484  1.1693  3.1940
  686MPD2    H110202   2.441   0.682  16.731 -0.3919  1.4979  0.4043
  686MPD2    H210203   2.293   0.291  16.746  0.6539 -0.4780 -1.4764
  686MPD2    H310204   2.472   0.459  16.786  0.2229  1.3544  0.7577
  686MPD2     N10205   2.243   0.798  16.625 -0.6508  0.1389 -0.3380
  686MPD2    H510206   2.324   0.850  16.659 -0.8258 -1.4855  2.5992
  686MPD2    N110207   2.041   0.338  16.665 -0.3499  0.0181 -0.3463
  686MPD2    H710208   2.060   0.243  16.696  2.9508  0.7130 -0.2628
  687TMC3    C110209   2.041   0.808  16.488  0.1140  0.7684 -0.1241
  687TMC3    C210210   1.921   0.854  16.489  0.5893 -0.6412 -0.0199
  687TMC3    C310211   1.826   0.798  16.404  0.3307 -0.9041  0.3535
  687TMC3    C410212   2.084   0.719  16.387  0.1414  0.4245  0.0682
  687TMC3    C510213   1.985   0.662  16.302 -0.2687  0.2320 -0.8329
  687TMC3    C610214   1.849   0.696  16.321 -0.4306 -0.0976  0.5304
  687TMC3     C10215   2.145   0.875  16.554 -0.5314  0.5678 -0.2446
  687TMC3     O10216   2.146   0.997  16.541 -0.0877  0.3096  0.7840
  687TMC3     H10217   1.900   0.947  16.541  1.3307 -1.5940  1.9869
  687TMC3    H110218   2.186   0.682  16.385 -0.3809 -1.0278  0.8033
  687TMC3    H210219   1.765   0.659  16.264  0.2549  0.3530 -0.7542
  687TMC3    C710220   2.026   0.527  16.266  0.3547  0.2183 -0.1245
  687TMC3    C810221   1.716   0.885  16.382  0.1108  0.1162  0.2032
  687TMC3    O110222   2.142   0.487  16.283  0.2049 -0.0043 -0.2512
  687TMC3    O210223   1.705   0.977  16.457 -0.0153  0.0036  0.1199
  688MPD2     C10224   1.097   4.097   0.069 -0.1012  0.8181 -0.3095
  688MPD2    C110225   1.052   3.964   0.067 -0.4410  0.2821  0.5733
  688MPD2    C210226   1.122   3.881  17.718 -0.7105  0.1478  0.2040
  688MPD2    C310227   1.205   3.924  17.624 -0.2030 -0.4489  1.0526
  688MPD2    C410228   1.248   4.056  17.632  0.1011  0.6343 -0.1582
  688MPD2    C510229   1.193   4.143  17.727 -0.6063  0.2632  0.2600
  688MPD2     H10230   1.102   3.774  17.724  2.5560 -0.3473  2.1377
  688MPD2    H110231   1.315   4.097  17.559 -0.1527  2.0358  0.4030
  688MPD2    H210232   1.051   4.168   0.137  0.0073 -1.4313  2.1199
  688MPD2    H310233   1.226   4.246  17.727 -1.1249  0.4272 -1.0842
  688MPD2     N10234   1.263   3.858  17.515 -0.0510 -0.1630 -0.0598
  688MPD2    H510235   1.342   3.906  17.474  0.1241  1.2328  1.9174
  688MPD2    N110236   0.948   3.914   0.150 -0.7728 -0.6584 -0.5212
  688MPD2    H710237   0.937   3.814   0.138  0.2333 -0.9369  0.8869
  689TMC3    C110238   0.784   3.915   0.328  0.1171 -0.6387  0.2666
  689TMC3    C210239   0.787   3.964   0.455 -0.4239  0.2684  1.2004
  689TMC3    C310240   0.743   3.884   0.559  0.4358 -0.0380  0.1761
  689TMC3    C410241   0.735   3.790   0.295 -0.0812 -0.4540  0.3785
  689TMC3    C510242   0.684   3.723   0.400 -0.1145 -0.2671  0.1850
  689TMC3    C610243   0.682   3.767   0.526 -0.3886 -0.1397 -0.1517
  689TMC3     C10244   0.865   3.991   0.225 -0.5083  0.1509  0.2712
  689TMC3     O10245   0.866   4.111   0.234 -0.5961  0.1588  0.0508
  689TMC3     H10246   0.836   4.060   0.467  0.4409 -0.2022  1.4305
  689TMC3    H110247   0.744   3.747   0.196 -1.1435 -1.8033  0.8642
  689TMC3    H210248   0.634   3.710   0.603 -1.1645 -0.1640 -0.6531
  689TMC3    C710249   0.629   3.593   0.384  0.6499 -0.0899  0.0134
  689TMC3    C810250   0.715   3.945   0.689 -0.0705 -0.0820 -0.1525
  689TMC3    O110251   0.615   3.514   0.478 -0.7404 -0.3578 -0.2157
  689TMC3    O210252   0.659   3.880   0.775  0.1621  0.8465 -0.1143
  690MPD2     C10253   3.233   0.808  16.053 -0.8856 -0.2803 -0.0180
  690MPD2    C110254   3.195   0.793  15.915 -0.2903  0.6795 -0.0706
  690MPD2    C210255   3.255   0.883  15.825 -0.0268 -1.1630 -0.5282
  690MPD2    C310256   3.347   0.981  15.870  0.0915 -0.6050  0.2067
  690MPD2    C410257   3.392   0.985  16.003 -1.0171  0.2589  0.3160
  690MPD2    C510258   3.327   0.901  16.093 -0.3012 -0.0596  0.2877
  690MPD2     H10259   3.238   0.885  15.718  1.9772  0.1145 -0.8253
  690MPD2    H110260   3.463   1.051  16.051  0.4441 -0.2744 -1.0899
  690MPD2    H210261   3.206   0.740  16.134  0.4724 -1.2727 -0.4133
  690MPD2    H310262   3.357   0.914  16.196 -2.3787  0.7435  0.7944
  690MPD2     N10263   3.396   1.080  15.778  0.2880  0.2754 -0.0725
  690MPD2    H510264   3.352   1.078  15.686 -1.6658  1.6489  0.8362
  690MPD2    N110265   3.103   0.697  15.871  0.0960  0.4480 -0.0903
  690MPD2    H710266   3.067   0.712  15.777  1.0241  2.2078 -0.1735
  691TMC3    C110267   2.945   0.526  15.885  0.7063 -0.0348  0.0199
  691TMC3    C210268   2.854   0.592  15.803  0.7901 -0.5903 -0.6855
  691TMC3    C310269   2.757   0.515  15.743 -0.2210 -0.7226  0.5138
  691TMC3    C410270   2.953   0.395  15.897  0.1087 -0.6376  0.3672
  691TMC3    C510271   2.841   0.320  15.841 -0.2923 -0.2967 -0.6539
  691TMC3    C610272   2.746   0.377  15.760  0.5203  0.1869  0.1718
  691TMC3     C10273   3.057   0.590  15.943 -0.2835 -0.4262 -0.4328
  691TMC3     O10274   3.106   0.541  16.045 -0.2181  0.1536  0.0618
  691TMC3     H10275   2.855   0.700  15.788 -3.2368 -0.6140 -1.2284
  691TMC3    H110276   3.023   0.341  15.959 -0.2061  0.4679  1.6793
  691TMC3    H210277   2.673   0.322  15.704  0.7130  0.1275 -0.0217
  691TMC3    C710278   2.828   0.189  15.882  0.0148 -0.3035 -0.0312
  691TMC3    C810279   2.638   0.574  15.683  0.3889  0.3305 -0.0151
  691TMC3    O110280   2.933   0.127  15.893 -0.2132  0.0093 -0.3275
  691TMC3    O210281   2.551   0.498  15.635 -0.0348 -0.1521  0.5787
  692TMC3    C110282   4.580   1.524  15.907  0.3166  0.3254 -0.5682
  692TMC3    C210283   4.689   1.596  15.932  0.4487  0.2780  0.8934
  692TMC3    C310284   0.068   1.550  16.002 -0.6023 -0.1194 -0.0308
  692TMC3    C410285   4.573   1.395  15.960 -0.0392 -0.1214  0.9386
  692TMC3    C510286   4.680   1.352  16.035  0.7277  0.1252 -0.4090
  692TMC3    C610287   0.055   1.427  16.059  0.3017  0.7192  0.9418
  692TMC3     C10288   4.456   1.595  15.921 -0.5690  0.0825  0.4319
  692TMC3     O10289   4.353   1.530  15.929 -0.2880  0.1149 -0.4052
  692TMC3     H10290   4.706   1.679  15.864 -0.8787  1.4869  2.0648
  692TMC3    H110291   4.494   1.328  15.928  0.7523 -0.5064 -0.2086
  692TMC3    H210292   0.139   1.370  16.097 -0.0092 -1.2153 -1.3387
  692TMC3    C710293   4.691   1.208  16.058  0.1736  1.0301  0.0060
  692TMC3    C810294   0.108   1.652  16.104  0.0589 -0.0035 -0.5447
  692TMC3    O110295   4.628   1.145  15.975  0.4517  0.6268 -0.0660
  692TMC3    O210296   0.192   1.613  16.180 -0.5456  0.1762 -0.4278
  693MPD2     C10297   4.484   0.361  10.859  0.2717 -0.0070  0.7880
  693MPD2    C110298   4.453   0.228  10.867  0.1534 -0.3789  0.4923
  693MPD2    C210299   4.564   0.144  10.892 -0.0600 -0.2342  0.8810
  693MPD2    C310300   4.689   0.195  10.918  0.2725  0.9376 -0.3635
  693MPD2    C410301   4.710   0.337  10.926  0.4136 -0.0902  0.5939
  693MPD2    C510302   4.602   0.415  10.899 -0.0327 -0.0163  0.9431
  693MPD2     H10303   4.552   0.037  10.903 -2.7663  0.1303  1.5691
  693MPD2    H110304   0.069   0.376  10.959  0.9394  0.2474 -1.2764
  693MPD2    H210305   4.398   0.427  10.850  1.4541  1.1485 -2.0035
  693MPD2    H310306   4.612   0.522  10.908 -1.5789  0.0785  1.6810
  693MPD2     N10307   0.060   0.105  10.950 -0.3507  0.3088  0.5145
  693MPD2    H510308   0.132   0.145  11.011  0.2169 -0.9026  0.6393
  693MPD2    N110309   4.321   0.187  10.870 -0.6200 -0.5559 -0.7616
  693MPD2    H710310   4.241   0.249  10.867 -0.9094 -1.0107 -2.4210
  694TMC3    C110311   4.150   0.032  10.900 -0.0678  0.5042  0.8090
  694TMC3    C210312   4.110   4.640  10.867 -0.3735 -0.2408 -0.3384
  694TMC3    C310313   4.019   4.574  10.943  0.2311  0.4076 -0.0434
  694TMC3    C410314   4.097   0.101  11.007  0.1805 -0.6996  0.0574
  694TMC3    C510315   4.007   0.035  11.082  0.5258 -0.0781 -0.1095
  694TMC3    C610316   3.966   4.641  11.056 -0.8263 -0.6259  0.5833
  694TMC3     C10317   4.285   0.053  10.853  0.0082  0.2781 -0.6132
  694TMC3     O10318   4.357   4.689  10.829  0.4644  0.1414 -0.1082
  694TMC3     H10319   4.150   4.605  10.772  1.2242  4.1042 -1.2721
  694TMC3    H110320   4.132   0.201  11.031  3.1936 -1.7529  0.1025
  694TMC3    H210321   3.905   4.589  11.128 -0.1740 -1.9321  0.1978
  694TMC3    C710322   4.027   0.059  11.222  0.0193  0.2035 -0.1627
  694TMC3    C810323   3.943   4.467  10.873  0.5316 -0.7246 -0.0649
  694TMC3    O110324   4.088   0.164  11.239 -0.1608  1.0613 -0.0610
  694TMC3    O210325   3.992   4.421  10.770  0.0537 -0.7639 -0.0655
  695MPD2     C10326   0.270   1.477  14.080  0.3225  0.3162 -0.6947
  695MPD2    C110327   0.245   1.576  14.165  0.1258 -0.2658  0.1826
  695MPD2    C210328   0.139   1.658  14.134  0.2459  0.1507  0.0468
  695MPD2    C310329   0.060   1.641  14.028  0.1054 -0.2906 -0.0355
  695MPD2    C410330   0.078   1.528  13.947 -0.1742 -0.4631 -0.3914
  695MPD2    C510331   0.185   1.449  13.976 -0.7801  0.1444 -0.3837
  695MPD2     H10332   0.118   1.746  14.195  0.6783 -1.2036  2.1744
  695MPD2    H110333   0.019   1.501  13.860 -2.4542  2.0211  0.3670
  695MPD2    H210334   0.361   1.420  14.099 -0.3890  0.7491  3.8217
  695MPD2    H310335   0.188   1.360  13.914 -0.1720  2.2379 -3.3878
  695MPD2     N10336   4.696   1.736  14.001  0.5821 -0.5510 -0.5141
  695MPD2    H510337   4.697   1.811  14.069  3.4209 -0.7722 -0.3148
  695MPD2    N110338   0.325   1.610  14.277  0.0339  0.0531  0.4142
  695MPD2    H710339   0.301   1.692  14.332 -2.3864 -0.0965 -0.4113
  696TMC3    C110340   4.522   1.851  13.900  0.0924  0.2128 -0.7219
  696TMC3    C210341   4.467   1.872  14.017 -0.3173  0.2080 -0.4634
  696TMC3    C310342   4.386   1.984  14.033  0.1667 -0.7011 -0.2877
  696TMC3    C410343   4.489   1.925  13.785  0.2125 -0.2944 -0.2615
  696TMC3    C510344   4.403   2.031  13.798 -0.1594  0.2806  0.1583
  696TMC3    C610345   4.354   2.066  13.924  0.2080  0.1008 -0.7546
  696TMC3     C10346   4.607   1.741  13.886  0.4436  0.1000  0.0890
  696TMC3     O10347   4.624   1.690  13.782  0.4809 -0.2088 -0.1497
  696TMC3     H10348   4.477   1.807  14.103  2.7744 -0.9755 -1.6913
  696TMC3    H110349   4.548   1.906  13.696  1.0011  0.7132  0.0342
  696TMC3    H210350   4.276   2.140  13.933 -1.6499 -1.8153 -1.1091
  696TMC3    C710351   4.438   2.139  13.706  0.3513  0.4120  0.0244
  696TMC3    C810352   4.298   1.989  14.152 -0.1701 -0.2595  0.0681
  696TMC3    O110353   4.491   2.110  13.598 -0.7991  0.0644  0.3968
  696TMC3    O210354   4.281   1.883  14.207 -0.4999  0.3325 -0.7482
  697MPD2     C10355   4.592   3.324  15.753 -0.3344  0.3902 -0.0030
  697MPD2    C110356   4.487   3.364  15.666 -0.7761 -0.4044 -0.3506
  697MPD2    C210357   4.481   3.500  15.640  0.0334 -0.5527 -0.4390
  697MPD2    C310358   4.576   3.589  15.692  0.4673 -0.8314  0.2523
  697MPD2    C410359   4.672   3.545  15.773  0.7248 -0.8622  0.1964
  697MPD2    C510360   4.683   3.414  15.797  0.9638  0.1058  0.3707
  697MPD2     H10361   4.400   3.531  15.574  0.8602  1.4528 -0.5141
  697MPD2    H110362   0.008   3.613  15.819 -2.0642  1.5433  0.9808
  697MPD2    H210363   4.603   3.223  15.792 -1.1695  0.4172  0.3063
  697MPD2    H310364   0.025   3.380  15.863 -0.2220  2.5733  3.0495
  697MPD2     N10365   4.554   3.729  15.665 -0.2549 -0.1277 -0.7839
  697MPD2    H510366   4.484   3.740  15.592 -0.9204 -0.7303 -0.2357
  697MPD2    N110367   4.375   3.269  15.644  0.3172 -0.3564 -0.1274
  697MPD2    H710368   4.291   3.298  15.595  0.4323  0.2957  0.0546
  698TMC3    C110369   4.602   3.961  15.646  0.2131 -0.8751 -0.3691
  698TMC3    C210370   4.714   4.035  15.685 -0.2191 -0.5740  0.5470
  698TMC3    C310371   0.028   4.127  15.592 -0.3762  0.3153  0.1601
  698TMC3    C410372   4.556   3.964  15.516  0.3454  0.7357 -0.4036
  698TMC3    C510373   4.629   4.034  15.425  0.0322 -0.1683  0.3292
  698TMC3    C610374   4.721   4.141  15.463 -0.1922 -0.8140 -0.3629
  698TMC3     C10375   4.623   3.833  15.713  0.0287 -0.1544  0.1528
  698TMC3     O10376   4.693   3.836  15.810  0.1856 -0.3463 -0.7069
  698TMC3     H10377   0.037   4.030  15.776  0.6823  1.8121  0.0887
  698TMC3    H110378   4.473   3.899  15.488  1.2908 -0.3735 -0.6076
  698TMC3    H210379   0.042   4.189  15.384 -1.2576  2.3790  0.8005
  698TMC3    C710380   4.610   4.004  15.287 -0.3470  0.6547 -0.2464
  698TMC3    C810381   0.127   4.221  15.652  0.9564  0.5976 -0.2354
  698TMC3    O110382   4.534   3.913  15.273  0.2077 -0.1569 -0.0102
  698TMC3    O210383   0.154   4.208  15.768 -0.1470  0.3707 -0.2416
  699TMC3    C110384   4.363   1.855  13.349 -0.2967  0.5983 -0.1417
  699TMC3    C210385   4.381   1.724  13.387 -0.7464  0.5495 -0.0223
  699TMC3    C310386   4.316   1.681  13.500 -0.4531  0.3576 -0.4716
  699TMC3    C410387   4.281   1.940  13.418  0.0836  0.1846  0.5215
  699TMC3    C510388   4.208   1.889  13.524 -0.1083 -0.2952 -0.6312
  699TMC3    C610389   4.221   1.757  13.563  0.4400 -0.7077 -0.3322
  699TMC3     C10390   4.463   1.914  13.264 -0.2469 -0.1494  0.9436
  699TMC3     O10391   4.461   1.865  13.150 -0.2033  0.3463  0.3276
  699TMC3     H10392   4.453   1.662  13.336 -1.3001 -0.9382  1.0147
  699TMC3    H110393   4.281   2.046  13.394 -0.2026  0.0199 -0.1943
  699TMC3    H210394   4.184   1.722  13.658  1.0037 -0.2034  0.0740
  699TMC3    C710395   4.122   1.966  13.610  0.3986  0.3301 -0.4235
  699TMC3    C810396   4.355   1.558  13.564  0.1748  0.0744 -0.2689
  699TMC3    O110397   4.103   1.919  13.721 -0.3772 -0.1570  0.0819
  699TMC3    O210398   4.275   1.497  13.625 -0.2264 -0.6861 -0.0579
  700TMC3    C110399   3.162   4.087  17.216  0.2557  0.4189 -0.0029
  700TMC3    C210400   3.132   3.957  17.229  0.4415 -0.8332  0.3661
  700TMC3    C310401   3.144   3.898  17.349  0.2489 -0.0781  0.5825
  700TMC3    C410402   3.213   4.165  17.313  0.2111 -0.0392  0.7527
  700TMC3    C510403   3.226   4.101  17.436 -0.2155 -0.1978 -0.1754
  700TMC3    C610404   3.180   3.974  17.460 -0.2310 -0.3752 -0.3119
  700TMC3     C10405   3.158   4.129  17.073 -0.1215  0.5689 -0.3764
  700TMC3     O10406   3.052   4.147  17.015 -0.2553 -0.1137 -0.8229
  700TMC3     H10407   3.090   3.898  17.148  0.8009 -1.7314  0.8399
  700TMC3    H110408   3.270   4.256  17.299 -0.3547  0.2201  0.1692
  700TMC3    H210409   3.204   3.925  17.553  0.6727  0.3317 -0.1742
  700TMC3    C710410   3.276   4.188  17.541 -0.3902  0.8202 -0.0759
  700TMC3    C810411   3.234   3.786  17.352  0.0730  0.7075  0.2654
  700TMC3    O110412   3.364   4.269  17.517  0.2222 -0.5453 -0.3128
  700TMC3    O210413   3.284   3.767  17.240  0.2224  0.1524 -0.2261
  701TMC3    C110414   3.665   2.927  15.834  0.5456 -0.3607  0.1570
  701TMC3    C210415   3.657   2.873  15.708  0.1789 -0.5555  0.5647
  701TMC3    C310416   3.732   2.921  15.608  0.4210  0.6859  0.4859
  701TMC3    C410417   3.742   3.040  15.861 -0.7818 -0.5205  0.3181
  701TMC3    C510418   3.825   3.084  15.753  0.0306  0.2945  0.3593
  701TMC3    C610419   3.812   3.026  15.630  1.0642 -0.4022  0.1982
  701TMC3     C10420   3.573   2.877  15.928  0.3525 -0.2353 -0.1689
  701TMC3     O10421   3.589   2.896  16.047  0.3585 -0.0744  0.6136
  701TMC3     H10422   3.610   2.780  15.679  0.6906 -0.3463 -0.9087
  701TMC3    H110423   3.761   3.067  15.964 -1.4152  1.3074 -0.0543
  701TMC3    H210424   3.850   3.078  15.543 -1.6145  2.8893  1.0110
  701TMC3    C710425   3.917   3.197  15.758  0.2044  0.2607 -0.1577
  701TMC3    C810426   3.730   2.874  15.465  0.3487  0.1608  0.5590
  701TMC3    O110427   3.949   3.245  15.647  0.4858  0.3100 -0.1618
  701TMC3    O210428   3.822   2.911  15.395 -0.0797 -0.0878  0.3505
  702MPD2     C10429   3.721   0.708  11.072 -0.0186 -0.4051  0.7880
  702MPD2    C110430   3.582   0.720  11.048  0.2118  0.3721 -0.0322
  702MPD2    C210431   3.543   0.685  10.920  0.2966  0.5668  0.3804
  702MPD2    C310432   3.630   0.644  10.819  0.6712 -0.3028 -0.1952
  702MPD2    C410433   3.762   0.623  10.854 -0.5423 -0.6539 -0.0417
  702MPD2    C510434   3.807   0.658  10.980 -0.1241 -0.2784 -0.3505
  702MPD2     H10435   3.442   0.705  10.886 -1.1505 -2.0510  3.1621
  702MPD2    H110436   3.829   0.574  10.784 -2.4861 -2.5961 -0.5447
  702MPD2    H210437   3.775   0.730  11.163  0.3226  0.9889  0.2467
  702MPD2    H310438   3.908   0.636  11.010 -0.6708 -0.8827  1.0394
  702MPD2     N10439   3.597   0.602  10.688  0.0016  0.2193 -0.3970
  702MPD2    H510440   3.661   0.530  10.656 -0.0877 -0.3108  0.5890
  702MPD2    N110441   3.492   0.759  11.148 -0.1560 -0.1060  0.3262
  702MPD2    H710442   3.399   0.788  11.122  0.2644 -0.7142 -1.8476
  703TMC3    C110443   3.411   0.746  10.650  0.1994 -0.7541  0.6877
  703TMC3    C210444   3.278   0.726  10.669  0.6815  0.0015  0.0635
  703TMC3    C310445   3.212   0.817  10.748 -0.1597 -0.5111 -0.3958
  703TMC3    C410446   3.472   0.862  10.682  0.2104 -0.1321  0.0402
  703TMC3    C510447   3.407   0.948  10.770 -0.1386 -0.1395 -0.5121
  703TMC3    C610448   3.276   0.925  10.807  0.4838  0.4959  0.3103
  703TMC3     C10449   3.479   0.620  10.620 -0.5435 -0.2368  0.2686
  703TMC3     O10450   3.420   0.540  10.545  0.2907 -0.1552 -0.0573
  703TMC3     H10451   3.234   0.631  10.642 -0.4134  0.7714 -0.8488
  703TMC3    H110452   3.573   0.879  10.647  0.5768 -0.2767  1.0358
  703TMC3    H210453   3.231   1.008  10.860  0.0930  0.8649 -0.5980
  703TMC3    C710454   3.506   1.010  10.873 -0.3280  0.1673 -0.2151
  703TMC3    C810455   3.069   0.805  10.760 -0.0371 -0.3575  0.2097
  703TMC3    O110456   3.460   1.032  10.987  0.1351  0.1671 -0.6349
  703TMC3    O210457   3.026   0.726  10.679 -0.3258 -0.3135 -0.2294
  704TMC3    C110458   1.248   4.036  12.484  0.1660 -0.3772  0.3970
  704TMC3    C210459   1.342   3.969  12.408 -0.2561  0.1528  0.8912
  704TMC3    C310460   1.446   3.915  12.470 -0.5559 -0.3987 -0.7574
  704TMC3    C410461   1.258   4.019  12.622  0.1459 -0.7575 -0.1707
  704TMC3    C510462   1.370   3.965  12.677 -0.8021  0.1356 -0.4446
  704TMC3    C610463   1.473   3.920  12.602 -0.1758  0.3739  0.1372
  704TMC3     C10464   1.118   4.073  12.435  0.3809 -0.1622  0.4238
  704TMC3     O10465   1.034   4.138  12.494 -0.6896 -0.4846  0.3184
  704TMC3     H10466   1.352   3.975  12.300  0.8108 -1.5488  0.9002
  704TMC3    H110467   1.171   4.046  12.682 -0.2209  1.3382 -1.6358
  704TMC3    H210468   1.553   3.858  12.641  1.0603  1.6771 -0.3421
  704TMC3    C710469   1.343   3.909  12.813 -0.0393 -0.3224  0.7264
  704TMC3    C810470   1.523   3.816  12.394 -0.4024 -0.2439 -0.3665
  704TMC3    O110471   1.226   3.882  12.834  0.2179 -0.1929 -0.4562
  704TMC3    O210472   1.477   3.767  12.293 -0.6448 -0.2694 -0.4458
  705MPD2     C10473   0.257   1.682  16.849  0.1461  0.1493  0.3882
  705MPD2    C110474   0.227   1.754  16.732 -0.5202 -0.2652 -0.0055
  705MPD2    C210475   0.096   1.806  16.719 -0.3201  0.3062  0.5899
  705MPD2    C310476   0.002   1.768  16.812  0.2827  0.0547  0.4033
  705MPD2    C410477   0.034   1.686  16.919  0.1831 -0.0996 -0.2657
  705MPD2    C510478   0.163   1.644  16.934  0.3602 -0.1607 -0.4397
  705MPD2     H10479   0.073   1.871  16.635 -0.4386  0.4461  0.7320
  705MPD2    H110480   4.697   1.650  16.991  3.0459 -0.5093  2.4219
  705MPD2    H210481   0.352   1.634  16.871  0.0009 -0.6022 -0.6131
  705MPD2    H310482   0.179   1.574  17.015  0.0892  0.9892  0.6134
  705MPD2     N10483   4.601   1.805  16.808 -0.0564  0.1846 -1.0322
  705MPD2    H510484   4.533   1.753  16.862  2.0710 -0.4640  1.0868
  705MPD2    N110485   0.316   1.748  16.619  0.0648 -0.0270  0.2023
  705MPD2    H710486   0.280   1.802  16.541 -0.5340 -0.0393  0.4766
  706TMC3    C110487   0.508   1.557  16.286 -0.2032  0.5067  0.2769
  706TMC3    C210488   0.524   1.675  16.214 -0.1957  0.5181  0.5134
  706TMC3    C310489   0.518   1.791  16.281 -0.1190 -0.4429 -0.3740
  706TMC3    C410490   0.501   1.561  16.422  0.2884  0.3274  0.2252
  706TMC3    C510491   0.495   1.683  16.482  0.7019 -0.0861 -0.9534
  706TMC3    C610492   0.504   1.798  16.416 -0.7875 -0.0230 -0.3128
  706TMC3     C10493   0.500   1.424  16.225  0.5768  0.0765 -0.1832
  706TMC3     O10494   0.546   1.342  16.301 -0.0268  0.3646 -0.2961
  706TMC3     H10495   0.526   1.683  16.106 -1.2606 -1.6147  0.3307
  706TMC3    H110496   0.472   1.475  16.482  1.4251  0.0241  0.3393
  706TMC3    H210497   0.481   1.892  16.465  0.7164  0.8127 -1.2198
  706TMC3    C710498   0.437   1.672  16.612  0.4804 -0.0601 -0.3918
  706TMC3    C810499   0.510   1.916  16.204 -0.4892 -0.2304  0.7342
  706TMC3    O110500   0.483   1.586  16.685 -0.6955  0.0389  0.2254
  706TMC3    O210501   0.479   1.917  16.083  0.1818  0.1849 -0.2188
  707TMC3    C110502   1.868   0.795   0.862 -0.7475  0.2019  0.0587
  707TMC3    C210503   1.873   0.725   0.979 -0.4551  0.3910 -0.0185
  707TMC3    C310504   1.760   0.695   1.046 -0.8173 -0.4484 -0.4946
  707TMC3    C410505   1.750   0.823   0.808  0.6574 -0.0014  0.7578
  707TMC3    C510506   1.637   0.777   0.874  0.4397 -0.5807  0.4017
  707TMC3    C610507   1.637   0.723   0.998 -0.4828  0.3100  0.0445
  707TMC3     C10508   1.993   0.795   0.790 -0.5181  0.4100 -0.1538
  707TMC3     O10509   2.087   0.721   0.817  0.4265  0.1116 -0.2403
  707TMC3     H10510   1.972   0.711   1.022 -0.3305 -0.5562 -0.6243
  707TMC3    H110511   1.733   0.861   0.708  0.3705 -0.1510  0.7485
  707TMC3    H210512   1.548   0.718   1.060 -1.2457 -1.2410 -1.1653
  707TMC3    C710513   1.533   0.733   0.785 -0.8063 -0.1323 -0.4885
  707TMC3    C810514   1.760   0.582   1.143 -0.0564  0.4377 -0.3926
  707TMC3    O110515   1.517   0.789   0.677 -0.5950  0.0516 -0.6592
  707TMC3    O210516   1.652   0.534   1.172  0.1034  0.5321 -0.7131
  708MPD2     C10517   3.482   4.625  14.037 -0.2899 -0.3980 -0.0835
  708MPD2    C110518   3.450   4.708  14.137  0.0668 -0.7372 -0.9305
  708MPD2    C210519   3.544   0.039  14.217  0.6649 -0.1160  0.4591
  708MPD2    C310520   3.676   0.001  14.207 -0.3400  0.3348 -0.2838
  708MPD2    C410521   3.710   4.631  14.123 -0.1508 -0.3218 -0.2399
  708MPD2    C510522   3.617   4.581  14.038  0.2635  0.3862  0.1672
  708MPD2     H10523   3.514   0.112  14.291  0.1454  0.8758 -0.7358
  708MPD2    H110524   3.811   4.594  14.115  0.3582  0.6822  1.5076
  708MPD2    H210525   3.409   4.563  13.986  0.0581 -1.4570  0.7011
  708MPD2    H310526   3.650   4.506  13.966  2.6804  2.1482 -0.5794
  708MPD2     N10527   3.778   0.061  14.292  0.0326 -0.1999  0.1583
  708MPD2    H510528   3.861   0.004  14.307  0.0165 -0.7673 -1.9100
  708MPD2    N110529   3.319   4.724  14.181 -0.7344 -0.2524 -0.6335
  708MPD2    H710530   3.307   0.057  14.255 -1.0835 -0.2945 -0.6542
  709TMC3    C110531   3.091   4.692  14.217  0.2488  0.2223  0.4069
  709TMC3    C210532   3.016   0.062  14.163  0.1052  0.6256 -0.0737
  709TMC3    C310533   2.950   0.144  14.245 -0.2675  0.4718 -0.1023
  709TMC3    C410534   3.096   4.673  14.352  0.5754 -0.3173 -0.0241
  709TMC3    C510535   3.017   0.014  14.430 -0.2323 -0.2788  0.1560
  709TMC3    C610536   2.939   0.113  14.377 -0.8129 -0.7341 -0.2908
  709TMC3     C10537   3.208   4.660  14.141  0.0330 -0.2823  0.1204
  709TMC3     O10538   3.190   4.608  14.033 -0.3070 -0.0972 -0.1937
  709TMC3     H10539   3.030   0.067  14.055  0.5147 -0.5638 -0.0825
  709TMC3    H110540   3.149   4.585  14.385 -1.6754 -1.6619 -0.0099
  709TMC3    H210541   2.884   0.172  14.449  1.6836 -0.5603  1.4566
  709TMC3    C710542   3.042   0.014  14.573  0.2841 -0.5417  0.8747
  709TMC3    C810543   2.906   0.284  14.198 -0.1438  0.9349 -0.2965
  709TMC3    O110544   2.962   0.085  14.634 -0.1144 -0.0120 -0.5288
  709TMC3    O210545   2.839   0.345  14.275  0.2869 -0.1733  0.1475
  710TMC3    C110546   4.071   1.316   0.438 -0.3902  0.0290  0.2001
  710TMC3    C210547   4.124   1.275   0.319 -0.3788 -0.1623 -0.5080
  710TMC3    C310548   4.259   1.255   0.317  0.3247  0.0351 -0.2496
  710TMC3    C410549   4.148   1.332   0.551 -0.4421 -0.2228  0.4188
  710TMC3    C510550   4.279   1.295   0.545  0.3568  0.2049 -0.2615
  710TMC3    C610551   4.342   1.259   0.428 -0.5179  0.3632  0.0475
  710TMC3     C10552   3.929   1.345   0.437  0.1517  0.0559 -0.0037
  710TMC3     O10553   3.876   1.318   0.330 -0.0414 -0.4116  0.7119
  710TMC3     H10554   4.065   1.259   0.229  0.1360  3.3178 -1.4902
  710TMC3    H110555   4.109   1.375   0.643  0.0784  0.2893  0.4003
  710TMC3    H210556   4.450   1.253   0.417 -0.2604  2.0500  1.5702
  710TMC3    C710557   4.355   1.312   0.666  0.3391 -0.2998 -0.1910
  710TMC3    C810558   4.324   1.255   0.189  0.0466 -0.2076 -0.3176
  710TMC3    O110559   4.295   1.313   0.774 -0.0773  0.0620 -0.3292
  710TMC3    O210560   4.441   1.222   0.186 -0.6940  0.6108 -0.3619
  711TMC3    C110561   4.087   2.528  14.891 -0.1243 -0.1503  0.6920
  711TMC3    C210562   4.064   2.539  15.025 -0.5028 -0.4315 -0.6608
  711TMC3    C310563   4.142   2.618  15.095 -0.4095  0.8148 -0.4317
  711TMC3    C410564   4.189   2.600  14.829  1.2370  0.5010  0.2182
  711TMC3    C510565   4.260   2.675  14.912  0.1568  0.3286 -0.1890
  711TMC3    C610566   4.244   2.697  15.046 -0.0941 -0.1787  0.3201
  711TMC3     C10567   4.069   2.398  14.840 -0.2298 -0.3788  0.6169
  711TMC3     O10568   3.972   2.336  14.886 -0.1894  0.0572  0.9159
  711TMC3     H10569   3.989   2.475  15.070  0.6350 -1.7189 -0.5855
  711TMC3    H110570   4.208   2.594  14.723 -2.1684  1.3123 -0.4489
  711TMC3    H210571   4.302   2.775  15.094  0.8737 -0.3634 -0.5463
  711TMC3    C710572   4.365   2.767  14.854 -0.1609 -0.3958  0.0584
  711TMC3    C810573   4.153   2.575  15.233 -0.7090 -0.2142  0.5615
  711TMC3    O110574   4.354   2.884  14.887  0.1243 -0.0801 -0.5198
  711TMC3    O210575   4.050   2.534  15.281  0.0256 -0.8785  0.2336
  712MPD2     C10576   1.031   3.258  13.715  0.1974 -0.5313  0.5090
  712MPD2    C110577   0.925   3.303  13.791  0.7058  0.5042  0.2999
  712MPD2    C210578   0.936   3.406  13.878 -1.1358  0.6152  0.3080
  712MPD2    C310579   1.059   3.478  13.879  0.0500 -0.1576 -0.4249
  712MPD2    C410580   1.165   3.443  13.790  0.3544  0.3423 -0.8898
  712MPD2    C510581   1.146   3.330  13.712  0.0718  0.8015  0.3608
  712MPD2     H10582   0.852   3.440  13.938 -1.6868  0.2908 -0.2785
  712MPD2    H110583   1.256   3.502  13.785 -0.2294  1.0600 -3.2390
  712MPD2    H210584   1.029   3.180  13.640  2.2229  0.9991 -1.1543
  712MPD2    H310585   1.231   3.299  13.652  0.1963  0.4582  0.7129
  712MPD2     N10586   1.072   3.587  13.965 -0.1022 -0.2166  0.6842
  712MPD2    H510587   1.167   3.622  13.978 -0.2572 -0.6521  2.9438
  712MPD2    N110588   0.789   3.254  13.766  0.0598  0.0803  0.5262
  712MPD2    H710589   0.725   3.300  13.829 -1.0406  0.0765 -0.5913
  713TMC3    C110590   1.024   3.787  14.066  0.2333  0.0711  0.1102
  713TMC3    C210591   1.154   3.795  14.118 -0.8097 -0.6183 -1.1456
  713TMC3    C310592   1.199   3.913  14.164  0.2000 -0.0498 -0.6282
  713TMC3    C410593   0.933   3.890  14.093  0.1091 -0.2319  0.5671
  713TMC3    C510594   0.984   4.005  14.152 -0.3742  0.1278  0.0000
  713TMC3    C610595   1.115   4.023  14.186  0.3321 -0.1842 -0.2513
  713TMC3     C10596   0.972   3.660  14.015 -0.2276  0.0174  0.0556
  713TMC3     O10597   0.849   3.651  13.993  0.1437  0.4439  0.4430
  713TMC3     H10598   1.232   3.727  14.088  1.5298  0.1922  2.9833
  713TMC3    H110599   0.831   3.895  14.058  0.6664  2.1496 -0.6852
  713TMC3    H210600   1.163   4.120  14.189  0.6512 -0.4188  2.4087
  713TMC3    C710601   0.897   4.127  14.145 -1.3164 -0.3170 -0.3409
  713TMC3    C810602   1.342   3.941  14.158 -0.2681 -0.0380 -0.8355
  713TMC3    O110603   0.794   4.116  14.083  0.1107  0.5129 -0.2743
  713TMC3    O210604   1.381   4.056  14.168 -0.5634 -0.0563 -0.9293
  714MPD2     C10605   2.409   2.173   1.492  0.9377  0.0115 -0.4466
  714MPD2    C110606   2.465   2.081   1.400  0.2165  0.2723  0.0202
  714MPD2    C210607   2.436   2.089   1.262 -0.9738 -0.3734 -0.3520
  714MPD2    C310608   2.329   2.166   1.224 -0.8857  0.3603  0.5211
  714MPD2    C410609   2.260   2.243   1.312  0.0180  1.0675 -0.2294
  714MPD2    C510610   2.295   2.246   1.450 -0.3746  1.1740  0.4304
  714MPD2     H10611   2.484   2.037   1.180 -0.0166 -1.1264  0.6738
  714MPD2    H110612   2.182   2.315   1.290 -1.8263 -0.6061  0.8506
  714MPD2    H210613   2.440   2.169   1.596  0.6292  1.3232 -0.2990
  714MPD2    H310614   2.242   2.300   1.527 -2.9711  0.7546 -1.0382
  714MPD2     N10615   2.306   2.176   1.084 -0.0998  0.8965 -0.4711
  714MPD2    H510616   2.369   2.126   1.022 -0.2473 -1.1495  1.0086
  714MPD2    N110617   2.578   2.007   1.449  0.3575 -0.1466  0.3316
  714MPD2    H710618   2.573   2.005   1.550 -0.1442  0.0450  0.3125
  715TMC3    C110619   2.763   1.851   1.448 -0.2318 -0.1003 -0.0284
  715TMC3    C210620   2.845   1.778   1.374 -0.9466  0.4494  0.4290
  715TMC3    C310621   2.972   1.753   1.411  0.3367 -0.0778  0.2510
  715TMC3    C410622   2.806   1.909   1.562 -0.3410 -0.1084  0.0015
  715TMC3    C510623   2.939   1.888   1.589  0.4025 -0.4672 -0.0184
  715TMC3    C610624   3.027   1.803   1.525 -0.0430 -0.7598 -0.5496
  715TMC3     C10625   2.656   1.923   1.369  0.0916 -0.2788 -0.4626
  715TMC3     O10626   2.661   1.906   1.246 -0.4316  0.1191 -0.9063
  715TMC3     H10627   2.813   1.736   1.280  0.3391 -1.2471  0.7280
  715TMC3    H110628   2.742   1.977   1.616  1.3206  1.3812  0.1137
  715TMC3    H210629   3.128   1.790   1.563 -0.7851 -1.2907  1.2116
  715TMC3    C710630   3.012   1.990   1.670  0.4055  0.0943  0.5449
  715TMC3    C810631   3.061   1.675   1.325  0.5408 -0.8523  0.2389
  715TMC3    O110632   3.130   2.007   1.643 -0.4315  0.0600 -0.4494
  715TMC3    O210633   3.011   1.608   1.237 -0.1058 -0.5176  0.1008
  716MPD2     C10634   3.433   1.481  10.028  0.0749 -0.5242 -0.6704
  716MPD2    C110635   3.381   1.387   9.938 -0.0814 -0.1629  0.1275
  716MPD2    C210636   3.406   1.255   9.966  0.4985 -0.0859 -0.5654
  716MPD2    C310637   3.493   1.216  10.067 -0.0387 -0.4318  0.1576
  716MPD2    C410638   3.548   1.312  10.149 -0.5244  0.0472 -0.0855
  716MPD2    C510639   3.507   1.441  10.137  0.0201  0.1449 -0.0961
  716MPD2     H10640   3.371   1.181   9.895  2.3668 -0.3855 -1.1548
  716MPD2    H110641   3.622   1.287  10.224 -0.4184  1.7154  0.3827
  716MPD2    H210642   3.410   1.586  10.017  0.6814 -0.2873  0.3798
  716MPD2    H310643   3.544   1.520  10.202  2.8645 -0.4463 -1.0155
  716MPD2     N10644   3.538   1.083  10.080 -0.0977 -0.2851 -0.1234
  716MPD2    H510645   3.515   1.025  10.000  1.3918 -0.0192 -0.7349
  716MPD2    N110646   3.303   1.437   9.829 -0.2052  0.1297  0.0289
  716MPD2    H710647   3.278   1.535   9.818 -1.1417  0.0932  1.8362
  717TMC3    C110648   3.609   0.886  10.172  0.2604  0.2548 -0.4126
  717TMC3    C210649   3.514   0.808  10.104  0.0068 -0.1413 -0.0652
  717TMC3    C310650   3.500   0.674  10.133  0.1754  0.7656 -0.4852
  717TMC3    C410651   3.683   0.822  10.269 -0.7843 -0.3184 -0.3468
  717TMC3    C510652   3.670   0.687  10.295 -0.8445 -0.8587  0.5524
  717TMC3    C610653   3.572   0.607  10.232 -0.1595 -0.0706  0.0279
  717TMC3     C10654   3.576   1.018  10.194 -0.7018 -0.6962  0.4676
  717TMC3     O10655   3.597   1.060  10.307 -0.2635  0.5113 -0.2606
  717TMC3     H10656   3.442   0.848  10.033  0.6484  1.8884  0.4353
  717TMC3    H110657   3.753   0.881  10.328 -0.6433  0.4503 -1.2887
  717TMC3    H210658   3.530   0.513  10.266  0.3555 -0.7845 -1.3351
  717TMC3    C710659   3.763   0.631  10.395  0.1502  0.6724 -0.2325
  717TMC3    C810660   3.393   0.599  10.068 -0.0740 -0.9748  0.0365
  717TMC3    O110661   3.810   0.715  10.478  0.9739  0.5475  0.1341
  717TMC3    O210662   3.309   0.666  10.007 -0.1587 -0.6261  0.1155
  718MPD2     C10663   2.588   4.238  13.264  0.1812 -0.1602  0.0347
  718MPD2    C110664   2.580   4.157  13.147  0.4960  0.0679  0.1367
  718MPD2    C210665   2.553   4.021  13.170  0.1041  0.2396 -0.1150
  718MPD2    C310666   2.531   3.969  13.298  0.3522 -0.3216 -0.1872
  718MPD2    C410667   2.554   4.044  13.404  0.4486 -0.3148 -0.3623
  718MPD2    C510668   2.575   4.180  13.392 -0.5118 -0.2754 -0.4434
  718MPD2     H10669   2.545   3.945  13.094  0.4479 -0.0074  0.0955
  718MPD2    H110670   2.556   4.013  13.508  0.9779 -1.1452 -0.6182
  718MPD2    H210671   2.615   4.343  13.261  1.2086 -0.3916  1.0933
  718MPD2    H310672   2.592   4.244  13.478  0.3543 -0.4419 -0.5000
  718MPD2     N10673   2.496   3.824  13.301  0.0567 -0.3948  0.3353
  718MPD2    H510674   2.493   3.770  13.215 -2.5651  0.1403  0.0964
  718MPD2    N110675   2.607   4.209  13.017  0.0389 -0.0004  0.5479
  718MPD2    H710676   2.636   4.306  13.007 -1.5877  0.3969 -0.4819
  719TMC3    C110677   2.636   4.183  12.778 -0.4114 -0.3052  0.0874
  719TMC3    C210678   2.596   4.092  12.685 -0.5463 -0.4969 -0.0995
  719TMC3    C310679   2.695   4.055  12.595 -0.6205  0.4372  0.0700
  719TMC3    C410680   2.757   4.247  12.786  0.0106 -0.4796 -0.4967
  719TMC3    C510681   2.850   4.207  12.688  0.2478 -0.1738 -0.2652
  719TMC3    C610682   2.820   4.116  12.589 -0.5692 -1.1066 -0.5926
  719TMC3     C10683   2.583   4.130  12.903 -0.2887 -0.7045 -0.5731
  719TMC3     O10684   2.535   4.022  12.886 -0.1228 -0.3309 -0.0403
  719TMC3     H10685   2.497   4.049  12.674  0.0939 -2.0736  0.3219
  719TMC3    H110686   2.789   4.298  12.877 -0.8549 -0.4012 -0.2339
  719TMC3    H210687   2.896   4.059  12.536  1.2668 -0.4553  1.3495
  719TMC3    C710688   2.987   4.236  12.702  0.5126  0.0140 -0.6440
  719TMC3    C810689   2.701   3.911  12.579 -0.2591  0.3280 -0.3776
  719TMC3    O110690   3.018   4.352  12.700  0.1879 -0.2017  0.0786
  719TMC3    O210691   2.772   3.866  12.489  0.3036 -0.0928 -1.1132
  720MPD2     C10692   0.936   0.903  14.062 -0.1664 -1.3812 -0.0559
  720MPD2    C110693   1.042   0.992  14.027  0.5659  0.1006 -0.4512
  720MPD2    C210694   1.154   0.997  14.104 -0.1532 -0.0414 -0.2409
  720MPD2    C310695   1.162   0.910  14.208  0.1694  0.1550  1.1261
  720MPD2    C410696   1.067   0.814  14.242  0.1391 -0.0312  0.0701
  720MPD2    C510697   0.950   0.822  14.172  0.5728  0.4135  0.4558
  720MPD2     H10698   1.240   1.057  14.080 -0.3884  0.1028 -0.7325
  720MPD2    H110699   1.076   0.754  14.332 -0.4989 -2.4444 -1.4877
  720MPD2    H210700   0.844   0.892  14.006 -2.1595  1.1091  2.7552
  720MPD2    H310701   0.862   0.759  14.181  0.8653 -0.0446  0.1438
  720MPD2     N10702   1.284   0.921  14.278 -0.8132  0.1184 -0.5490
  720MPD2    H510703   1.343   1.000  14.253 -0.4897 -0.7664 -2.5842
  720MPD2    N110704   1.033   1.076  13.912 -0.6263  0.1070  0.3898
  720MPD2    H710705   1.116   1.126  13.883  0.8671 -0.2251  4.1776
  721TMC3    C110706   1.460   0.904  14.424 -1.6186  0.0181  0.7321
  721TMC3    C210707   1.505   0.875  14.553  0.0684  0.0245 -0.1869
  721TMC3    C310708   1.620   0.936  14.598  0.1228  0.1522  0.1855
  721TMC3    C410709   1.539   0.981  14.339  0.3436  0.4525  0.6302
  721TMC3    C510710   1.654   1.038  14.387  0.5071 -0.5702 -0.3750
  721TMC3    C610711   1.691   1.020  14.515  0.1994 -0.5110 -0.0703
  721TMC3     C10712   1.330   0.856  14.389  0.6895 -0.0861 -0.4880
  721TMC3     O10713   1.272   0.774  14.458  0.2517 -0.2808 -0.1841
  721TMC3     H10714   1.449   0.815  14.624  0.2473 -0.5859 -0.5658
  721TMC3    H110715   1.520   1.003  14.234 -0.2009 -0.0326  0.6282
  721TMC3    H210716   1.783   1.065  14.551 -0.6818  0.5235  0.8943
  721TMC3    C710717   1.713   1.144  14.314 -0.4228 -0.2459 -0.5217
  721TMC3    C810718   1.677   0.913  14.731  0.2105  0.1296 -0.2703
  721TMC3    O110719   1.637   1.212  14.247  0.5378 -0.7388  0.3816
  721TMC3    O210720   1.790   0.964  14.747  0.7980 -0.7690  0.5721
  722MPD2     C10721   0.236   4.372  13.434  0.1265  0.0614 -0.8561
  722MPD2    C110722   0.178   4.494  13.473 -1.0198  0.2966 -0.5653
  722MPD2    C210723   0.052   4.522  13.430  0.4112 -0.0975  0.3599
  722MPD2    C310724   4.717   4.438  13.347 -0.1836 -0.5761  0.2475
  722MPD2    C410725   0.046   4.331  13.300 -0.0856 -0.3632  0.1019
  722MPD2    C510726   0.170   4.299  13.339 -0.5831  0.6212 -0.8583
  722MPD2     H10727   0.001   4.611  13.465  0.9819  1.7191 -3.4355
  722MPD2    H110728   0.000   4.258  13.234  0.7395 -0.9208  0.1413
  722MPD2    H210729   0.338   4.340  13.450  0.6479  1.6717 -0.9941
  722MPD2    H310730   0.215   4.212  13.292  1.4684  1.0065  0.3632
  722MPD2     N10731   4.580   4.463  13.317 -0.1899  0.1387  0.3810
  722MPD2    H510732   4.536   4.544  13.361 -0.1432 -0.0310  0.7417
  722MPD2    N110733   0.237   4.579  13.569  0.0604 -0.0737  0.1234
  722MPD2    H710734   0.189   4.669  13.572  2.5353  1.3571 -3.2511
  723TMC3    C110735   4.346   4.405  13.260  0.5155 -0.1080 -0.0919
  723TMC3    C210736   4.259   4.301  13.259 -0.3238  0.1414  0.0296
  723TMC3    C310737   4.123   4.325  13.275  0.8253  0.1619  0.2192
  723TMC3    C410738   4.301   4.532  13.266  0.3829  0.2807  0.1104
  723TMC3    C510739   4.164   4.555  13.266  0.1204 -0.1121 -0.3894
  723TMC3    C610740   4.073   4.454  13.269  0.0467  0.4736 -0.6183
  723TMC3     C10741   4.491   4.373  13.259 -0.0386  0.0932 -0.3340
  723TMC3     O10742   4.520   4.266  13.211  0.2964 -0.1841 -0.2454
  723TMC3     H10743   4.302   4.202  13.253 -0.0661  0.2050  0.8919
  723TMC3    H110744   4.364   4.620  13.271  0.5724  0.2145 -1.1444
  723TMC3    H210745   3.967   4.478  13.281  0.0302  0.6775 -1.1806
  723TMC3    C710746   4.120   4.694  13.270 -0.3622  0.6772 -0.0063
  723TMC3    C810747   4.028   4.219  13.284 -0.2419  0.0503 -0.8009
  723TMC3    O110748   4.172   0.036  13.352 -0.1670  0.6389  0.2575
  723TMC3    O210749   3.915   4.261  13.303  0.0581 -0.0025 -0.3958
  724TMC3    C110750   0.727   2.311  11.121 -0.3790  0.1252 -0.2345
  724TMC3    C210751   0.654   2.316  11.007 -0.1801 -0.2393  0.5050
  724TMC3    C310752   0.652   2.432  10.932 -0.0282  0.0743 -0.5345
  724TMC3    C410753   0.811   2.413  11.152 -0.7134 -0.3705  0.4753
  724TMC3    C510754   0.821   2.519  11.068  0.3189  0.0398  0.4360
  724TMC3    C610755   0.743   2.532  10.957 -0.4170 -0.2118 -0.3871
  724TMC3     C10756   0.702   2.211  11.220  0.5384 -0.1496  0.0823
  724TMC3     O10757   0.754   2.237  11.330 -0.4576  0.7146  0.2272
  724TMC3     H10758   0.568   2.252  10.993  0.1280 -0.5272 -0.0582
  724TMC3    H110759   0.871   2.417  11.242  2.2272 -0.0612 -1.4864
  724TMC3    H210760   0.752   2.615  10.889  2.4622 -1.1116 -1.0947
  724TMC3    C710761   0.955   2.563  11.048 -0.0769  0.0880  0.2522
  724TMC3    C810762   0.556   2.450  10.823  0.0179  0.3069  0.8417
  724TMC3    O110763   1.038   2.484  11.013 -0.2596 -0.0203  0.6345
  724TMC3    O210764   0.519   2.354  10.761  0.3255  0.3603  0.2104
  725TMC3    C110765   1.380   1.767  13.415 -0.2309 -0.0763 -0.6144
  725TMC3    C210766   1.317   1.728  13.295 -0.1676  0.4217 -0.5883
  725TMC3    C310767   1.276   1.602  13.289 -0.2896 -0.0081  0.1003
  725TMC3    C410768   1.393   1.680  13.521  0.1975 -0.1323 -0.2294
  725TMC3    C510769   1.357   1.550  13.507 -0.0140  1.0456  0.0215
  725TMC3    C610770   1.295   1.509  13.394  0.3358 -0.7093 -0.4584
  725TMC3     C10771   1.454   1.884  13.407 -0.6705 -0.1427 -0.6307
  725TMC3     O10772   1.499   1.926  13.302 -0.5981  0.5020 -0.9346
  725TMC3     H10773   1.290   1.799  13.217  0.8365  1.4708  0.0276
  725TMC3    H110774   1.440   1.715  13.612 -1.0162  0.1018  0.3093
  725TMC3    H210775   1.276   1.404  13.377  1.1571 -0.4123 -3.2131
  725TMC3    C710776   1.439   1.452  13.566  0.1312 -0.0750 -0.2760
  725TMC3    C810777   1.217   1.552  13.171 -0.1241  0.2106 -0.1154
  725TMC3    O110778   1.391   1.350  13.613 -0.2058  0.2465 -0.2751
  725TMC3    O210779   1.153   1.448  13.181 -0.4016  0.6381  0.1793
  726MPD2     C10780   3.968   3.184   9.856  0.5835 -0.5588 -0.3820
  726MPD2    C110781   3.974   3.183   9.990  0.2569  0.6866 -0.5990
  726MPD2    C210782   3.960   3.065  10.058 -0.4030 -0.1687  0.3089
  726MPD2    C310783   3.939   2.947   9.996 -0.2690 -0.8210 -0.0931
  726MPD2    C410784   3.944   2.944   9.857 -0.0708 -0.0324 -0.3355
  726MPD2    C510785   3.959   3.064   9.789  0.6038  0.5912  0.9777
  726MPD2     H10786   3.965   3.063  10.167 -0.2539  1.6617  0.3220
  726MPD2    H110787   3.920   2.849   9.810  1.6804 -0.2262 -0.8444
  726MPD2    H210788   3.966   3.267   9.786 -2.4161 -0.4231 -0.1375
  726MPD2    H310789   3.949   3.060   9.681 -0.6735  0.8654  1.0782
  726MPD2     N10790   3.903   2.823  10.061 -0.8394 -0.0922 -0.2513
  726MPD2    H510791   3.890   2.741  10.003  0.8865 -0.6412  0.1510
  726MPD2    N110792   4.008   3.291  10.075 -0.0237  0.5648  0.1967
  726MPD2    H710793   3.997   3.274  10.175 -0.3907 -1.3753 -0.1691
  727TMC3    C110794   3.999   3.519  10.127 -0.5640 -0.9813 -0.0426
  727TMC3    C210795   4.069   3.535  10.241  0.6849 -0.3565 -0.3947
  727TMC3    C310796   4.023   3.635  10.326 -0.2276 -0.0321  1.4303
  727TMC3    C410797   3.897   3.596  10.081  0.2547 -0.1628  0.3995
  727TMC3    C510798   3.835   3.672  10.175  0.4529 -0.0120  0.9345
  727TMC3    C610799   3.900   3.697  10.291 -0.6962 -0.3786  0.2385
  727TMC3     C10800   4.042   3.419  10.026 -0.2309 -1.2961 -0.3404
  727TMC3     O10801   4.051   3.459   9.910 -0.1135  0.6001 -0.0974
  727TMC3     H10802   4.148   3.468  10.270  0.0085 -1.7381 -1.7492
  727TMC3    H110803   3.858   3.576   9.982  0.7895  0.3745  0.0796
  727TMC3    H210804   3.851   3.758  10.367 -1.2607  0.0534 -0.4680
  727TMC3    C710805   3.711   3.746  10.146  0.3105  0.0611 -0.1433
  727TMC3    C810806   4.103   3.679  10.437 -0.2678 -0.2066 -0.0050
  727TMC3    O110807   3.669   3.812  10.241  0.1127 -0.3167 -0.5952
  727TMC3    O210808   4.206   3.620  10.457  0.7427  0.2944  0.3850
  728TMC3    C110809   3.552   1.200  15.665  0.2777 -0.1097 -0.0787
  728TMC3    C210810   3.686   1.233  15.657  0.4187  0.0279 -0.5597
  728TMC3    C310811   3.724   1.281  15.535  0.0134 -0.6877 -0.0245
  728TMC3    C410812   3.465   1.209  15.559 -0.5154  0.2960  0.9291
  728TMC3    C510813   3.512   1.250  15.437  0.3027 -0.5394 -0.5612
  728TMC3    C610814   3.644   1.273  15.426  0.5470 -0.4300  0.0459
  728TMC3     C10815   3.505   1.155  15.795  0.2588  0.4890 -0.1899
  728TMC3     O10816   3.580   1.165  15.890  0.2458  0.6701 -0.2174
  728TMC3     H10817   3.758   1.235  15.738 -0.6406 -1.9599  0.4407
  728TMC3    H110818   3.357   1.196  15.563 -0.6834  1.2455 -0.4274
  728TMC3    H210819   3.684   1.271  15.326 -0.8432  0.9959 -0.5362
  728TMC3    C710820   3.414   1.270  15.331  0.0267  0.4370 -0.5725
  728TMC3    C810821   3.870   1.289  15.514 -0.0969  0.5127 -0.6929
  728TMC3    O110822   3.295   1.231  15.341 -0.1276  0.3692 -0.3317
  728TMC3    O210823   3.940   1.227  15.595 -0.2470  0.1970 -0.8277
  729MPD2     C10824   0.481   2.776  16.541  0.4283 -0.0501  0.2266
  729MPD2    C110825   0.580   2.691  16.588 -0.0036  0.2340 -0.0047
  729MPD2    C210826   0.575   2.659  16.721 -0.1484  0.3270  0.1722
  729MPD2    C310827   0.475   2.703  16.802 -0.1707 -0.3438  0.1181
  729MPD2    C410828   0.369   2.770  16.749 -0.2936 -0.2099  0.7963
  729MPD2    C510829   0.369   2.810  16.616  0.5978  0.5321 -0.7457
  729MPD2     H10830   0.659   2.610  16.770  0.1884 -1.1849 -1.9087
  729MPD2    H110831   0.278   2.801  16.798 -2.9808 -1.5033 -3.3984
  729MPD2    H210832   0.476   2.812  16.439  2.4928 -2.5017 -0.7369
  729MPD2    H310833   0.291   2.877  16.580 -2.0107 -1.0709  1.8579
  729MPD2     N10834   0.488   2.700  16.943 -0.1633  0.0331 -0.1078
  729MPD2    H510835   0.424   2.758  16.996 -0.6153 -0.6256  0.0803
  729MPD2    N110836   0.681   2.659  16.502  0.5033 -1.0539 -0.3284
  729MPD2    H710837   0.690   2.697  16.409 -0.2197 -0.5139 -0.1729
  730TMC3    C110838   0.591   2.657  17.151 -0.7221  0.2696  0.3383
  730TMC3    C210839   0.696   2.604  17.211 -0.0264  0.2446  0.4109
  730TMC3    C310840   0.763   2.673  17.316  0.2805 -0.6468 -0.0441
  730TMC3    C410841   0.544   2.779  17.200  0.3808 -0.0624 -0.2417
  730TMC3    C510842   0.596   2.838  17.317  0.2620 -0.4285  0.8626
  730TMC3    C610843   0.707   2.787  17.375 -0.2183  0.3062  0.2910
  730TMC3     C10844   0.573   2.624  17.013 -0.1140 -0.4252 -0.4941
  730TMC3     O10845   0.632   2.523  16.978  0.0833  0.6074 -0.6097
  730TMC3     H10846   0.734   2.508  17.178  0.8631  1.6437 -2.6418
  730TMC3    H110847   0.454   2.823  17.160 -1.1836 -1.4206  1.7485
  730TMC3    H210848   0.759   2.835  17.457 -0.1656  2.4474 -0.9862
  730TMC3    C710849   0.566   2.978  17.337  0.1642 -0.0795  1.7729
  730TMC3    C810850   0.906   2.650  17.309  0.0862  0.9632 -0.0186
  730TMC3    O110851   0.526   3.029  17.236 -0.3056 -0.5068 -0.5152
  730TMC3    O210852   0.942   2.574  17.216 -0.2232 -0.2610  0.0721
  731MPD2     C10853   2.164   0.212  12.671 -0.2521  0.7162 -0.8972
  731MPD2    C110854   2.139   0.343  12.698  0.1915 -0.3062 -0.1283
  731MPD2    C210855   2.103   0.382  12.829 -0.2011  0.4565 -0.2181
  731MPD2    C310856   2.093   0.289  12.929 -0.0689 -0.4490 -0.1959
  731MPD2    C410857   2.149   0.166  12.904  0.4690  0.3759 -0.7351
  731MPD2    C510858   2.179   0.123  12.776  0.2607  0.0776 -0.0395
  731MPD2     H10859   2.053   0.477  12.844  1.4170  1.0174  1.5742
  731MPD2    H110860   2.151   0.094  12.985  1.8010 -0.1658 -1.2561
  731MPD2    H210861   2.172   0.162  12.575  2.5543  0.8684 -0.7533
  731MPD2    H310862   2.222   0.025  12.758  0.9473  0.2735  0.5228
  731MPD2     N10863   2.037   0.337  13.046 -0.7225 -0.0199  0.5935
  731MPD2    H510864   2.003   0.432  13.047 -0.5642  0.0394 -0.4282
  731MPD2    N110865   2.147   0.430  12.584 -0.0066 -0.1497  0.1070
  731MPD2    H710866   2.167   0.389  12.493 -0.5761  0.7274 -0.4162
  732TMC3    C110867   2.152   0.614  12.445 -0.3691  0.1844 -0.1344
  732TMC3    C210868   2.082   0.552  12.346 -0.4242 -0.6008  1.1074
  732TMC3    C310869   2.059   0.634  12.243  0.0039 -0.5752  0.8097
  732TMC3    C410870   2.203   0.735  12.438  0.2669 -0.1514 -0.0529
  732TMC3    C510871   2.183   0.806  12.321  0.0565 -0.1653  0.6533
  732TMC3    C610872   2.107   0.757  12.223  0.2156 -0.4361 -0.0389
  732TMC3     C10873   2.145   0.567  12.585 -0.1139  0.4787 -0.1813
  732TMC3     O10874   2.163   0.646  12.678 -0.7732  0.0754  0.0509
  732TMC3     H10875   2.040   0.452  12.348  0.6058 -1.0016  4.1519
  732TMC3    H110876   2.260   0.773  12.522  2.0382 -2.3818 -0.2462
  732TMC3    H210877   2.052   0.824  12.158 -0.1853  0.1838  0.9371
  732TMC3    C710878   2.193   0.951  12.326 -0.8679 -0.6884  0.5830
  732TMC3    C810879   1.934   0.614  12.171  0.1298 -0.3503  0.3622
  732TMC3    O110880   2.179   1.007  12.218  0.6298  0.1974  0.5942
  732TMC3    O210881   1.921   0.670  12.060 -1.0673 -0.2475  0.0500
  733TMC3    C110882   2.305   3.442  13.342  0.5215  0.2053 -0.1990
  733TMC3    C210883   2.332   3.556  13.419  0.3930  0.0163  0.7649
  733TMC3    C310884   2.450   3.620  13.380  0.1872 -0.1520 -0.3031
  733TMC3    C410885   2.391   3.381  13.258  1.0303  0.9283  0.1738
  733TMC3    C510886   2.514   3.446  13.241 -0.6338 -0.1657  0.0373
  733TMC3    C610887   2.541   3.571  13.289  0.2619 -0.0880  0.1661
  733TMC3     C10888   2.167   3.392  13.357  0.4808 -0.7012  0.2859
  733TMC3     O10889   2.111   3.411  13.464  0.3124  0.0263 -0.4976
  733TMC3     H10890   2.258   3.598  13.486 -0.6094  2.0549 -1.6490
  733TMC3    H110891   2.381   3.291  13.198 -0.6974  0.2419  1.5103
  733TMC3    H210892   2.636   3.621  13.274  0.1015 -0.5681 -2.4781
  733TMC3    C710893   2.571   3.430  13.113  0.4581 -0.0324 -0.0712
  733TMC3    C810894   2.461   3.762  13.413 -0.2694 -0.0306  0.5844
  733TMC3    O110895   2.614   3.322  13.074 -0.6408 -0.1663  0.5789
  733TMC3    O210896   2.415   3.804  13.517 -0.4522 -0.4132  0.5301
  734MPD2     C10897   0.284   1.148  12.884  0.6155 -0.3888  0.6980
  734MPD2    C110898   0.168   1.093  12.830 -0.4802 -0.6662  0.1991
  734MPD2    C210899   0.144   1.131  12.698 -0.4715 -0.6107  0.6286
  734MPD2    C310900   0.215   1.224  12.630  0.1361 -0.3204 -0.5996
  734MPD2    C410901   0.328   1.274  12.686  0.4595 -0.3643 -0.1017
  734MPD2    C510902   0.359   1.237  12.817 -0.1083 -0.2011  0.6985
  734MPD2     H10903   0.046   1.119  12.655  0.5893 -2.2082 -1.3388
  734MPD2    H110904   0.391   1.348  12.639  1.5256 -1.6119 -0.6120
  734MPD2    H210905   0.309   1.137  12.989  0.2015  2.5068  1.1155
  734MPD2    H310906   0.448   1.280  12.861  0.4789  0.3692 -1.0536
  734MPD2     N10907   0.174   1.244  12.492  0.1072 -0.3350  0.3134
  734MPD2    H510908   0.086   1.204  12.461  2.2121 -3.0582 -2.0629
  734MPD2    N110909   0.087   1.003  12.902 -0.3581  0.1083 -0.5532
  734MPD2    H710910   0.114   0.963  12.991 -2.4725 -1.5293 -0.6427
  735TMC3    C110911   4.648   0.850  12.928 -0.0091  0.0323  0.5325
  735TMC3    C210912   4.521   0.822  12.890  0.4231 -0.5958 -0.3826
  735TMC3    C310913   4.484   0.687  12.872 -0.4517 -0.1973  0.4097
  735TMC3    C410914   4.734   0.751  12.948 -0.5703  0.4029  0.0254
  735TMC3    C510915   4.698   0.618  12.942 -0.0104  0.0538  0.0094
  735TMC3    C610916   4.570   0.591  12.908  0.2111  0.5515 -0.3693
  735TMC3     C10917   4.702   0.954  12.853 -0.7931  0.5885  0.2701
  735TMC3     O10918   4.635   0.996  12.756  0.3230  0.4394  0.1612
  735TMC3     H10919   4.456   0.907  12.874 -0.7896 -1.2184  1.2512
  735TMC3    H110920   0.106   0.761  12.950 -0.5326  0.5721 -2.1737
  735TMC3    H210921   4.555   0.493  12.863 -0.4789  1.0193 -1.1654
  735TMC3    C710922   0.040   0.566  12.836 -0.0687  0.1185  0.4555
  735TMC3    C810923   4.449   0.670  12.737 -0.0012 -0.1823  0.2183
  735TMC3    O110924   0.065   0.649  12.748 -0.2174  0.0645  0.2571
  735TMC3    O210925   4.391   0.569  12.691  0.0753 -0.0135  0.4891
  736MPD2     C10926   0.263   0.268  12.820 -0.8569  0.8681  0.1132
  736MPD2    C110927   0.195   0.378  12.775 -0.1930  0.2855  0.3703
  736MPD2    C210928   0.229   0.425  12.647 -0.4173  0.2068  0.2029
  736MPD2    C310929   0.341   0.377  12.582  0.4717 -0.1192  0.7000
  736MPD2    C410930   0.408   0.270  12.637 -0.5221  0.7876  0.7198
  736MPD2    C510931   0.370   0.216  12.754  0.1056 -0.1362  0.3753
  736MPD2     H10932   0.164   0.498  12.599  0.3371 -0.4939 -1.8697
  736MPD2    H110933   0.490   0.221  12.587 -1.1501  0.4579  0.0103
  736MPD2    H210934   0.234   0.218  12.912  1.3128 -1.9875 -0.7241
  736MPD2    H310935   0.419   0.127  12.791  0.0025  0.0701  1.0101
  736MPD2     N10936   0.382   0.419  12.453 -0.2377 -0.3165  0.1782
  736MPD2    H510937   0.466   0.372  12.420 -1.7009 -1.1171 -2.4147
  736MPD2    N110938   0.088   0.440  12.852  0.0321  0.6670 -0.0482
  736MPD2    H710939   0.068   0.392  12.939 -0.7042  0.8002 -0.1487
  737TMC3    C110940   0.438   0.573  12.277 -0.5601  0.1899 -0.5576
  737TMC3    C210941   0.459   0.706  12.259 -0.0425 -0.3709  0.4990
  737TMC3    C310942   0.558   0.746  12.175  0.4723 -0.7785  0.2430
  737TMC3    C410943   0.497   0.484  12.198  0.1055  0.0415  0.5862
  737TMC3    C510944   0.597   0.531  12.109 -0.1552 -0.0652  0.0338
  737TMC3    C610945   0.640   0.659  12.108 -0.2328  0.6393  0.6080
  737TMC3     C10946   0.341   0.526  12.375  0.1429  0.3571  0.2468
  737TMC3     O10947   0.239   0.591  12.391  0.3653  0.5637 -0.1854
  737TMC3     H10948   0.385   0.776  12.295  0.9640  0.2916  1.2840
  737TMC3    H110949   0.461   0.382  12.193  0.2443 -0.0010  0.4634
  737TMC3    H210950   0.731   0.696  12.063 -0.9501  1.7496  0.0880
  737TMC3    C710951   0.613   0.448  11.989  1.2647  1.1084  0.0972
  737TMC3    C810952   0.595   0.884  12.180  0.6396 -0.2574 -0.8902
  737TMC3    O110953   0.574   0.334  12.008  0.5009  0.1419 -0.3638
  737TMC3    O210954   0.708   0.910  12.144 -0.5639 -0.2227  0.0644
  738MPD2     C10955   0.301   4.440  15.712 -0.3093  0.5793 -0.1139
  738MPD2    C110956   0.271   4.408  15.582  0.3761  0.4373 -0.4068
  738MPD2    C210957   0.340   4.463  15.479  0.1065  0.4267  0.6666
  738MPD2    C310958   0.438   4.554  15.504  0.1403  0.2687  0.9283
  738MPD2    C410959   0.487   4.572  15.631  0.4909  0.7023 -0.1766
  738MPD2    C510960   0.404   4.527  15.729 -0.3952 -1.0614 -0.1837
  738MPD2     H10961   0.322   4.442  15.374 -0.7441 -1.3104  1.1696
  738MPD2    H110962   0.578   4.625  15.657  1.5308 -1.0891 -0.2224
  738MPD2    H210963   0.233   4.413  15.791 -0.1603  0.3302 -0.0682
  738MPD2    H310964   0.428   4.534  15.834 -0.6156  2.1868 -0.3613
  738MPD2     N10965   0.514   4.611  15.409 -0.0565 -0.1489  0.1046
  738MPD2    H510966   0.595   4.660  15.446 -0.9014  1.4571 -0.1894
  738MPD2    N110967   0.183   4.301  15.555  0.7272 -0.0897 -0.4494
  738MPD2    H710968   0.157   4.292  15.457 -1.5953  0.4303  0.1198
  739TMC3    C110969   0.605   4.666  15.200 -0.5643  0.7937 -0.2918
  739TMC3    C210970   0.583   4.676  15.064 -1.6444  0.1628 -0.1249
  739TMC3    C310971   0.679   4.651  14.973  0.4773 -0.4185 -0.8511
  739TMC3    C410972   0.730   4.629  15.242  0.0435  0.0040 -0.5074
  739TMC3    C510973   0.832   4.621  15.156 -0.5485 -0.5337 -0.4794
  739TMC3    C610974   0.814   4.632  15.017 -1.0395  0.7867  0.1840
  739TMC3     C10975   0.496   4.614  15.272  1.0357  0.3069 -0.0380
  739TMC3     O10976   0.399   4.572  15.207 -0.4051 -0.2798  0.2127
  739TMC3     H10977   0.487   4.719  15.037 -1.3994  1.3658  0.9031
  739TMC3    H110978   0.748   4.596  15.344 -3.5906 -0.4458 -0.0303
  739TMC3    H210979   0.892   4.620  14.943  0.5863  1.3884  1.8208
  739TMC3    C710980   0.965   4.583  15.208  0.0980 -0.1519  0.0752
  739TMC3    C810981   0.653   4.686  14.838 -0.5069 -0.6488 -0.1431
  739TMC3    O110982   0.965   4.547  15.327 -0.1139  0.1573 -0.2833
  739TMC3    O210983   0.542   4.730  14.812 -0.0638 -1.0624  0.6362
  740TMC3    C110984   0.945   1.110  14.779  0.0340  0.1549  0.2187
  740TMC3    C210985   0.993   0.999  14.842  0.1795 -0.7598  0.9133
  740TMC3    C310986   1.120   0.955  14.811  0.0380 -0.4526 -0.2594
  740TMC3    C410987   1.013   1.170  14.678  0.1164 -0.2980  0.2659
  740TMC3    C510988   1.129   1.112  14.633 -0.5601 -0.5879  0.2555
  740TMC3    C610989   1.192   1.018  14.710 -0.0404  0.6910  0.0386
  740TMC3     C10990   0.831   1.178  14.830  0.6720 -0.1798  0.1089
  740TMC3     O10991   0.798   1.285  14.788 -0.4132  0.2004  0.4251
  740TMC3     H10992   0.932   0.933  14.902 -2.2061 -0.8061 -1.6051
  740TMC3    H110993   0.974   1.260  14.633  0.3710 -0.4049 -0.1740
  740TMC3    H210994   1.294   0.985  14.692 -0.9904 -1.4922 -1.4932
  740TMC3    C710995   1.209   1.176  14.532  0.0175  0.0353 -0.3529
  740TMC3    C810996   1.179   0.839  14.878 -0.6577  0.3670 -0.4381
  740TMC3    O110997   1.326   1.140  14.530  0.3013 -0.1665  0.3107
  740TMC3    O210998   1.268   0.798  14.802 -0.0258  0.5381 -0.2098
  741TMC3    C110999   0.416   0.621  14.472  0.2219 -0.5251  0.4758
  741TMC3    C211000   0.310   0.539  14.477  0.0949 -0.2001 -0.1896
  741TMC3    C311001   0.330   0.413  14.530  0.0629  0.0322  0.0460
  741TMC3    C411002   0.527   0.601  14.536 -0.3782 -0.2710  0.6157
  741TMC3    C511003   0.551   0.480  14.592  0.2339  0.0950  0.0158
  741TMC3    C611004   0.452   0.380  14.590  0.5335  0.6470  0.4733
  741TMC3     C11005   0.391   0.739  14.383  0.1130  0.2729  0.4758
  741TMC3     O11006   0.276   0.772  14.369  0.2390 -0.1519 -0.1756
  741TMC3     H11007   0.215   0.563  14.432  0.8518  2.1983 -0.5320
  741TMC3    H111008   0.604   0.676  14.552  0.0518 -0.7636  0.8520
  741TMC3    H211009   0.475   0.280  14.626  2.0683  1.4448  1.6787
  741TMC3    C711010   0.672   0.457  14.662  0.3877  0.5345 -0.0458
  741TMC3    C811011   0.211   0.327  14.553 -0.0744  0.3583 -0.1188
  741TMC3    O111012   0.774   0.521  14.633 -0.2724  0.1029 -0.3246
  741TMC3    O211013   0.110   0.346  14.486  0.3587 -0.1933  0.6109
  742TMC3    C111014   0.762   3.689  15.616  0.5703 -0.0167  0.2311
  742TMC3    C211015   0.693   3.673  15.500 -0.1309 -0.1470  0.0605
  742TMC3    C311016   0.734   3.577  15.406 -0.2186  0.5950  0.6335
  742TMC3    C411017   0.859   3.604  15.658 -0.1235  0.6825 -0.3270
  742TMC3    C511018   0.888   3.501  15.566  1.1633 -0.5969  0.4336
  742TMC3    C611019   0.823   3.484  15.447 -0.6917 -0.5643  0.5542
  742TMC3     C11020   0.722   3.798  15.706  0.7264  0.0679 -0.5517
  742TMC3     O11021   0.689   3.906  15.656  0.1560  0.6218  0.3618
  742TMC3     H11022   0.617   3.745  15.474  1.2764  1.1440 -0.4374
  742TMC3    H111023   0.922   3.611  15.746 -0.3618  2.9428 -0.3350
  742TMC3    H211024   0.849   3.405  15.378 -0.4905 -0.1085  0.1126
  742TMC3    C711025   0.954   3.383  15.619  1.0396 -0.5882  1.0932
  742TMC3    C811026   0.655   3.547  15.286 -0.2662 -0.0895 -0.8160
  742TMC3    O111027   1.008   3.305  15.543  0.1735 -0.4606 -0.1848
  742TMC3    O211028   0.677   3.438  15.231  0.0972 -0.0372  0.0182
  743MPD2     C11029   2.819   0.617   1.557 -1.0470 -0.5953  0.6700
  743MPD2    C111030   2.868   0.512   1.491 -0.8857 -0.4616  0.4256
  743MPD2    C211031   2.997   0.477   1.508 -0.4652  0.1901  0.6866
  743MPD2    C311032   3.078   0.559   1.598  0.1595 -0.2210  0.6864
  743MPD2    C411033   3.021   0.670   1.658 -0.2559 -0.2890  0.7914
  743MPD2    C511034   2.888   0.706   1.637 -0.0406  0.4852 -0.2414
  743MPD2     H11035   3.043   0.388   1.467  1.9931  0.0904  3.6088
  743MPD2    H111036   3.077   0.736   1.724 -1.0822  2.1516 -0.9495
  743MPD2    H211037   2.714   0.641   1.542 -1.4252 -3.2052 -0.8504
  743MPD2    H311038   2.838   0.794   1.678 -0.2052 -0.0941  0.7925
  743MPD2     N11039   3.212   0.525   1.621 -0.8764  0.2751  0.6767
  743MPD2    H511040   3.240   0.435   1.584  2.0283  1.9000 -1.1312
  743MPD2    N111041   2.772   0.426   1.430 -0.0776 -0.6117 -0.0707
  743MPD2    H711042   2.680   0.469   1.423 -1.2303 -3.3614 -1.8410
  744TMC3    C111043   2.675   0.233   1.343  0.2664  0.5750 -0.4289
  744TMC3    C211044   2.557   0.299   1.334 -0.5505  0.2551 -0.0509
  744TMC3    C311045   2.449   0.214   1.298  0.4036  0.5207  0.3530
  744TMC3    C411046   2.682   0.097   1.344  0.1520  0.4936 -0.1008
  744TMC3    C511047   2.572   0.021   1.316 -0.6600 -0.2604  0.5383
  744TMC3    C611048   2.450   0.080   1.286  0.1064 -0.0788  0.3524
  744TMC3     C11049   2.798   0.305   1.380 -0.1241  0.3718  0.9411
  744TMC3     O11050   2.900   0.246   1.352 -0.4913  0.2347 -0.0400
  744TMC3     H11051   2.546   0.406   1.325  0.5793  0.2933 -1.0429
  744TMC3    H111052   2.780   0.058   1.369 -0.0798  1.0617  1.6909
  744TMC3    H211053   2.364   0.027   1.246  0.0300  0.8591 -0.7303
  744TMC3    C711054   2.597   4.619   1.322 -0.0567 -0.1039 -0.2694
  744TMC3    C811055   2.320   0.283   1.286 -0.5629  0.8920  0.1738
  744TMC3    O111056   2.712   4.585   1.355 -0.3897 -0.0201  0.4311
  744TMC3    O211057   2.322   0.405   1.268 -0.0206  0.4112 -0.1690
  745TMC3    C111058   0.602   3.187  13.632 -0.5417 -0.4353  0.2374
  745TMC3    C211059   0.523   3.236  13.736 -1.2198  0.1813  0.3706
  745TMC3    C311060   0.452   3.349  13.714  0.1270  0.3105 -0.6537
  745TMC3    C411061   0.581   3.226  13.500 -0.1174  0.3965 -0.3960
  745TMC3    C511062   0.521   3.344  13.485 -0.0177 -0.5692  0.1178
  745TMC3    C611063   0.456   3.405  13.589  0.7273 -0.1353 -0.4963
  745TMC3     C11064   0.746   3.187  13.651  0.1500 -0.4143  0.0204
  745TMC3     O11065   0.808   3.173  13.544 -0.1164  0.6252  0.0581
  745TMC3     H11066   0.538   3.196  13.836  0.0157  2.2805  1.0357
  745TMC3    H111067   0.631   3.179  13.416  0.2660 -0.2681  0.2109
  745TMC3    H211068   0.415   3.504  13.573  1.0436 -0.0184 -0.6031
  745TMC3    C711069   0.588   3.440  13.393  0.2066 -0.0009  1.0758
  745TMC3    C811070   0.392   3.427  13.816 -0.6263  0.4803 -0.2480
  745TMC3    O111071   0.523   3.534  13.355 -0.3300 -0.7706  0.1774
  745TMC3    O211072   0.289   3.490  13.785 -0.0696 -0.0077  0.2610
  746TMC3    C111073   3.347   1.071  11.444 -0.1465  0.1633 -0.5983
  746TMC3    C211074   3.457   1.003  11.388 -0.6221 -0.0642 -0.7570
  746TMC3    C311075   3.429   0.870  11.347 -0.2280 -0.5633  0.6347
  746TMC3    C411076   3.223   1.019  11.457  0.0818  0.3786  0.3530
  746TMC3    C511077   3.201   0.889  11.414  0.6845  0.2029  0.7135
  746TMC3    C611078   3.301   0.820  11.354  1.0092  0.3269 -0.7831
  746TMC3     C11079   3.363   1.199  11.504 -0.5856  0.2703  0.6839
  746TMC3     O11080   3.274   1.232  11.575 -0.1241 -0.2413 -0.0819
  746TMC3     H11081   3.554   1.050  11.391 -0.1375 -1.1548  1.0247
  746TMC3    H111082   3.134   1.078  11.471 -0.8804 -0.6752 -1.3309
  746TMC3    H211083   3.283   0.716  11.327  0.4412  0.5435 -1.2517
  746TMC3    C711084   3.060   0.844  11.392 -0.3582 -0.6964  0.1997
  746TMC3    C811085   3.537   0.820  11.265 -0.6378  0.1476  0.6679
  746TMC3    O111086   3.050   0.778  11.291  0.0265  0.4426  0.6889
  746TMC3    O211087   3.653   0.850  11.300  0.4098  0.4050 -0.0820
  747TMC3    C111088   0.584   1.009  11.059 -0.6020  0.6497 -0.3135
  747TMC3    C211089   0.564   0.888  11.118 -0.2044 -0.2640 -0.0288
  747TMC3    C311090   0.594   0.874  11.249  0.1170  0.3323  0.1768
  747TMC3    C411091   0.644   1.111  11.127  0.1865  0.3492  0.6071
  747TMC3    C511092   0.681   1.088  11.256 -0.1571 -0.1771 -0.0617
  747TMC3    C611093   0.650   0.976  11.320 -0.2944  0.4920 -0.4022
  747TMC3     C11094   0.576   1.020  10.910  0.0126  0.7269  0.5424
  747TMC3     O11095   0.598   1.125  10.852 -0.1849 -0.1804 -0.1849
  747TMC3     H11096   0.515   0.802  11.075  0.7142 -1.3390  1.0749
  747TMC3    H111097   0.666   1.209  11.085  0.0405  0.4839  0.8449
  747TMC3    H211098   0.665   0.966  11.427 -1.5679  1.2020 -0.1650
  747TMC3    C711099   0.752   1.186  11.331 -0.1587 -1.3713  0.5419
  747TMC3    C811100   0.542   0.751  11.317 -0.4307 -0.0296  0.4279
  747TMC3    O111101   0.834   1.134  11.408  0.0181 -0.0512 -0.2227
  747TMC3    O211102   0.460   0.685  11.259  0.0896  0.0514  0.4054
  748MPD2     C11103   1.744   0.915   1.285 -0.2162  0.0414 -0.0690
  748MPD2    C111104   1.876   0.878   1.314 -0.3363 -0.3580 -0.0002
  748MPD2    C211105   1.975   0.934   1.230 -0.2036  0.6505 -0.8624
  748MPD2    C311106   1.951   1.025   1.131 -0.4939 -0.1795 -0.1670
  748MPD2    C411107   1.822   1.073   1.122  0.2463 -0.1003  0.5546
  748MPD2    C511108   1.717   1.017   1.195 -0.5039  0.4821  0.3922
  748MPD2     H11109   2.077   0.899   1.226 -0.9623 -1.5641 -1.0075
  748MPD2    H111110   1.794   1.142   1.043 -0.5298 -0.7179  0.2831
  748MPD2    H211111   1.658   0.877   1.338  0.2763  1.4076  1.7228
  748MPD2    H311112   1.615   1.046   1.176 -0.4038 -0.6518 -1.9197
  748MPD2     N11113   2.060   1.062   1.051  0.9493 -0.1975 -0.1859
  748MPD2    H511114   2.137   0.997   1.065  1.9383  0.6452 -1.7068
  748MPD2    N111115   1.905   0.789   1.419 -1.0267 -0.1663  0.2903
  748MPD2    H711116   1.826   0.761   1.475 -0.8286 -0.1584  0.5745
  749TMC3    C111117   2.168   1.138   0.850  1.1536 -0.2902 -0.8564
  749TMC3    C211118   2.257   1.031   0.864  0.5894 -0.6425  0.1985
  749TMC3    C311119   2.342   1.006   0.755  0.5982  0.0098 -0.1626
  749TMC3    C411120   2.160   1.215   0.738  0.0872  0.7796 -0.8469
  749TMC3    C511121   2.253   1.193   0.636  0.4327 -1.0263 -0.1144
  749TMC3    C611122   2.344   1.091   0.648  0.2353 -0.3073  0.6737
  749TMC3     C11123   2.056   1.148   0.943  0.0998  0.2856 -0.1434
  749TMC3     O11124   1.973   1.234   0.914  0.3581  0.2985  0.6916
  749TMC3     H11125   2.267   0.965   0.949 -0.2313 -2.6115 -1.2247
  749TMC3    H111126   2.085   1.293   0.731 -2.2186 -1.4219 -0.8244
  749TMC3    H211127   2.415   1.085   0.567 -0.0730 -0.4846  0.4146
  749TMC3    C711128   2.276   1.295   0.537  0.5729 -0.1344  0.4763
  749TMC3    C811129   2.451   0.919   0.771 -0.0699 -0.0704  0.6082
  749TMC3    O111130   2.222   1.403   0.565  0.1628  0.1365  0.5639
  749TMC3    O211131   2.561   0.945   0.728  0.4506  0.7098  0.1988
  750MPD2     C11132   3.511   2.749  11.116 -0.3175  0.2435  0.6139
  750MPD2    C111133   3.433   2.679  11.213  0.7088 -0.0065 -0.5292
  750MPD2    C211134   3.380   2.556  11.168 -0.5226  0.6902  0.7525
  750MPD2    C311135   3.416   2.499  11.048 -0.1526 -0.6658  0.0867
  750MPD2    C411136   3.506   2.571  10.967  1.0734  0.5819  1.0733
  750MPD2    C511137   3.543   2.693  11.003  0.2983 -0.3832  0.2775
  750MPD2     H11138   3.315   2.505  11.239 -0.6851 -0.0201  0.0822
  750MPD2    H111139   3.542   2.536  10.870 -0.3663  3.4313 -0.4869
  750MPD2    H211140   3.565   2.842  11.132  0.9166 -0.3100 -0.2785
  750MPD2    H311141   3.625   2.740  10.950 -0.7879  0.6409 -0.4935
  750MPD2     N11142   3.374   2.370  10.999  0.1134  0.2260 -0.1516
  750MPD2    H511143   3.399   2.350  10.902 -0.2083  0.1844 -0.2294
  750MPD2    N111144   3.415   2.731  11.343 -0.2848  0.4066  0.4040
  750MPD2    H711145   3.474   2.812  11.363 -1.6295  1.8124 -1.3432
  751TMC3    C111146   3.261   2.159  10.992  0.6135 -0.2807 -0.5182
  751TMC3    C211147   3.149   2.100  11.042 -1.0300  0.2772 -0.1116
  751TMC3    C311148   3.132   1.964  11.028 -0.3072 -0.2005 -0.3322
  751TMC3    C411149   3.356   2.088  10.926 -0.7501  0.1838  0.7582
  751TMC3    C511150   3.330   1.956  10.911  0.3439  0.2966  0.5503
  751TMC3    C611151   3.220   1.890  10.958  0.2080  0.2528  0.4374
  751TMC3     C11152   3.299   2.281  11.072 -0.4293  0.2871 -0.2828
  751TMC3     O11153   3.255   2.285  11.184  0.2168 -0.3768  0.7326
  751TMC3     H11154   3.087   2.175  11.091 -2.0169 -0.3242 -0.4408
  751TMC3    H111155   3.442   2.132  10.877 -0.4476  0.3548  1.4378
  751TMC3    H211156   3.204   1.783  10.960 -1.6785  0.5124 -1.3629
  751TMC3    C711157   3.424   1.880  10.832  0.2613 -0.6406 -0.2403
  751TMC3    C811158   3.030   1.906  11.114 -1.0190  0.1761 -0.4566
  751TMC3    O111159   3.531   1.924  10.792 -0.2970  0.1008  0.5822
  751TMC3    O211160   3.010   1.786  11.090 -0.1656  0.0287 -0.7396
  752TMC3    C111161   1.348   2.255  17.338 -0.3962 -0.3770  0.1929
  752TMC3    C211162   1.381   2.126  17.378  0.3190  0.5933  0.6718
  752TMC3    C311163   1.293   2.068  17.468 -0.5596  0.0383 -0.1462
  752TMC3    C411164   1.251   2.333  17.378  0.3094  0.1479  0.1034
  752TMC3    C511165   1.164   2.271  17.462  0.1620  1.2995 -0.0438
  752TMC3    C611166   1.183   2.138  17.519  0.6297  0.3106 -0.0921
  752TMC3     C11167   1.426   2.303  17.227 -0.3893  0.4107  0.3022
  752TMC3     O11168   1.540   2.266  17.212  0.6637 -0.4245  0.0390
  752TMC3     H11169   1.468   2.083  17.328 -1.9727 -1.3877 -1.6164
  752TMC3    H111170   1.237   2.437  17.351 -3.0267 -0.2127  0.4499
  752TMC3    H211171   1.112   2.085  17.582 -0.9005  1.8526 -0.5340
  752TMC3    C711172   1.055   2.351  17.511  0.1629  0.2943  0.7176
  752TMC3    C811173   1.306   1.928  17.506  0.1517  0.1386 -0.2065
  752TMC3    O111174   1.077   2.470  17.522  0.8172 -0.4656 -0.2095
  752TMC3    O211175   1.257   1.890  17.611  0.0039 -0.5737 -0.2962
  753TMC3    C111176   3.849   3.181  13.748 -0.4844 -0.2894 -0.4880
  753TMC3    C211177   3.933   3.159  13.854 -0.3182  0.4842 -1.1384
  753TMC3    C311178   4.021   3.055  13.842  0.5526 -0.0296  0.2371
  753TMC3    C411179   3.851   3.101  13.641 -0.8773 -0.1986  0.0641
  753TMC3    C511180   3.957   3.016  13.623 -0.4767 -0.5771 -0.3997
  753TMC3    C611181   4.021   2.978  13.729 -0.3437  0.0471 -0.0033
  753TMC3     C11182   3.751   3.287  13.741 -0.2488  0.2746 -0.7340
  753TMC3     O11183   3.686   3.292  13.636  0.6655 -0.3934  0.6842
  753TMC3     H11184   3.934   3.225  13.940 -1.3140  0.7351 -1.3145
  753TMC3    H111185   3.792   3.125  13.553  0.8223  1.9770 -0.4746
  753TMC3    H211186   4.077   2.885  13.732 -1.6995 -0.6956  1.8114
  753TMC3    C711187   3.933   2.914  13.528 -0.5632  0.2570 -0.2471
  753TMC3    C811188   4.143   3.048  13.924 -0.1547 -0.3979  0.7496
  753TMC3    O111189   3.823   2.919  13.474  0.1465 -0.1543 -0.3937
  753TMC3    O211190   4.229   2.961  13.894 -0.4676  0.2706 -0.0062
  754MPD2     C11191   2.647   1.754  13.343 -0.5068  0.1230  0.3068
  754MPD2    C111192   2.689   1.880  13.307  0.2920 -0.6871  0.3917
  754MPD2    C211193   2.592   1.973  13.275  0.2651  0.9181 -0.2467
  754MPD2    C311194   2.455   1.946  13.277  0.0723 -0.6677  0.4114
  754MPD2    C411195   2.418   1.819  13.326  0.8106 -0.7037 -0.3279
  754MPD2    C511196   2.514   1.728  13.355  0.0722 -0.6159 -0.5136
  754MPD2     H11197   2.616   2.072  13.239 -1.2941  1.1937 -0.5318
  754MPD2    H111198   2.316   1.785  13.337  0.3415  0.3294 -1.4444
  754MPD2    H211199   2.720   1.680  13.372  2.1627  2.1580 -1.2665
  754MPD2    H311200   2.483   1.628  13.384  0.2051 -0.0690  1.5078
  754MPD2     N11201   2.355   2.040  13.251 -0.2690  0.1027  0.5147
  754MPD2    H511202   2.260   2.015  13.277  0.4037  1.5488  4.3899
  754MPD2    N111203   2.824   1.920  13.325  0.1748  0.0459  0.2099
  754MPD2    H711204   2.890   1.849  13.357  0.8181  0.8373  0.6236
  755MPD2     C11205   2.517   2.803  13.695 -0.3057  0.0187  0.3687
  755MPD2    C111206   2.401   2.742  13.739  0.1664 -0.1141 -0.4968
  755MPD2    C211207   2.319   2.678  13.644 -0.3573 -0.1847 -0.3691
  755MPD2    C311208   2.355   2.667  13.511 -0.0591  0.3361 -0.7657
  755MPD2    C411209   2.478   2.716  13.477 -0.2783  0.1575  0.3520
  755MPD2    C511210   2.562   2.772  13.568 -0.1150  0.3887 -0.3285
  755MPD2     H11211   2.222   2.635  13.666 -0.6289  0.0846 -1.0471
  755MPD2    H111212   2.514   2.706  13.375 -0.3702  1.1822  0.2090
  755MPD2    H211213   2.579   2.857  13.765 -0.9266  0.9602  0.1977
  755MPD2    H311214   2.656   2.817  13.539  0.1385  0.9893  1.3949
  755MPD2     N11215   2.270   2.598  13.420  0.0330  0.7252 -0.7001
  755MPD2    H511216   2.186   2.560  13.461 -0.0880  0.0482 -1.5673
  755MPD2    N111217   2.358   2.753  13.873 -0.0521  0.5676 -0.7417
  755MPD2    H711218   2.268   2.708  13.888  1.0078 -1.7071 -1.2374
  756MPD2     C11219   2.884   3.839   9.826 -0.2744 -0.0527  0.7049
  756MPD2    C111220   2.925   3.738   9.911 -0.0265  0.7916  0.0377
  756MPD2    C211221   2.905   3.608   9.875 -0.4766 -0.0654  0.4356
  756MPD2    C311222   2.850   3.578   9.747 -0.8338  0.8587  0.1229
  756MPD2    C411223   2.797   3.678   9.674 -0.1405  0.2540 -1.2156
  756MPD2    C511224   2.810   3.813   9.717  0.0951 -0.2875  0.8997
  756MPD2     H11225   2.939   3.543   9.954  1.4265  0.6180  0.1815
  756MPD2    H111226   2.727   3.656   9.593 -1.6684  3.0264 -0.6605
  756MPD2    H211227   2.890   3.944   9.853 -1.8125 -0.0040  0.8721
  756MPD2    H311228   2.770   3.890   9.653 -1.0304 -1.2592  0.4235
  756MPD2     N11229   2.822   3.441   9.727 -0.1675 -0.1983 -0.7628
  756MPD2    H511230   2.859   3.384   9.802 -2.2446 -1.2540 -0.5601
  756MPD2    N111231   2.979   3.766  10.045  0.0192 -0.1381 -0.3633
  756MPD2    H711232   3.003   3.681  10.095 -2.8449  0.5237  2.0971
  757MPD2     C11233   2.736   2.610  10.178 -0.8667 -0.4619  0.0512
  757MPD2    C111234   2.666   2.564  10.073 -0.1223  0.3148  0.2997
  757MPD2    C211235   2.642   2.647   9.970 -0.0646 -0.2316 -0.3858
  757MPD2    C311236   2.665   2.783   9.981 -0.2736 -0.2996  0.4470
  757MPD2    C411237   2.729   2.831  10.096 -0.0894 -0.4889  0.1080
  757MPD2    C511238   2.755   2.739  10.199 -0.0034  0.3326 -0.2421
  757MPD2     H11239   2.596   2.604   9.881 -0.1619  0.3091 -0.5928
  757MPD2    H111240   2.749   2.934  10.125 -2.7217  0.1425 -0.3116
  757MPD2    H211241   2.754   2.541  10.259  0.8537 -1.7136 -1.4110
  757MPD2    H311242   2.800   2.775  10.290 -2.2450 -0.4251  1.1513
  757MPD2     N11243   2.636   2.866   9.873 -0.3065  0.3790  0.4641
  757MPD2    H511244   2.596   2.819   9.792 -0.3063  1.3161 -0.0808
  757MPD2    N111245   2.640   2.422  10.064  0.3087 -0.3518 -0.1785
  757MPD2    H711246   2.692   2.367  10.131  0.2637 -0.6175 -0.3644
  758MPD2     C11247   2.590   1.727  15.913  0.2905  0.3520 -0.4444
  758MPD2    C111248   2.616   1.629  16.010 -0.3348  0.1066  0.0640
  758MPD2    C211249   2.538   1.628  16.130 -0.1936 -0.6147  0.0324
  758MPD2    C311250   2.443   1.728  16.149  0.0411 -0.0588  0.1344
  758MPD2    C411251   2.417   1.824  16.052  0.0306 -0.4549 -0.0875
  758MPD2    C511252   2.497   1.826  15.937 -0.0795 -0.5342 -0.3864
  758MPD2     H11253   2.547   1.548  16.203  1.7490 -1.6274 -1.3044
  758MPD2    H111254   2.346   1.904  16.064  1.5492  0.8736 -0.0310
  758MPD2    H211255   2.650   1.725  15.822 -0.1794  1.5569 -0.7680
  758MPD2    H311256   2.472   1.894  15.857 -1.9054  0.6398  1.1848
  758MPD2     N11257   2.354   1.732  16.257  0.3608 -0.2562  0.0685
  758MPD2    H511258   2.276   1.796  16.247  1.2959  0.8457 -0.1463
  758MPD2    N111259   2.717   1.533  15.986 -0.1096 -0.3720  0.1673
  758MPD2    H711260   2.765   1.536  15.897 -0.7720 -0.4756 -0.1941
  759MPD2     C11261   1.196   0.705  10.625 -0.3090  0.1683 -0.3266
  759MPD2    C111262   1.278   0.646  10.720 -0.0883 -0.1673  0.2025
  759MPD2    C211263   1.412   0.671  10.718 -0.3181  0.9210  0.5262
  759MPD2    C311264   1.471   0.760  10.627  0.5716 -0.9111 -0.9175
  759MPD2    C411265   1.388   0.817  10.534  0.2004 -0.0672  0.6041
  759MPD2    C511266   1.254   0.794  10.538 -0.6408 -0.1922  0.4263
  759MPD2     H11267   1.481   0.617  10.782  0.2396 -0.9105 -1.6231
  759MPD2    H111268   1.425   0.874  10.449  1.1150 -0.4010  0.7838
  759MPD2    H211269   1.090   0.683  10.626 -0.1432 -0.5896  0.8023
  759MPD2    H311270   1.182   0.836  10.469 -1.1907  1.3596  1.9371
  759MPD2     N11271   1.612   0.766  10.626  0.0547 -0.2448  0.3900
  759MPD2    H511272   1.668   0.712  10.691  0.7300  2.3242  1.9890
  759MPD2    N111273   1.237   0.544  10.814  0.3964  0.2398  0.3613
  759MPD2    H711274   1.305   0.510  10.882  0.3277 -0.4785  0.0750
  760MPD2     C11275   1.317   2.598  12.664  0.4242  0.1775  0.0173
  760MPD2    C111276   1.425   2.574  12.577  0.4409 -0.0696  0.1334
  760MPD2    C211277   1.436   2.447  12.525 -0.0860 -0.2580 -0.8710
  760MPD2    C311278   1.348   2.341  12.555  0.2834  0.4163 -0.3243
  760MPD2    C411279   1.247   2.367  12.651  0.1109  0.8140 -0.4000
  760MPD2    C511280   1.235   2.497  12.697 -0.1693 -0.5167  0.4431
  760MPD2     H11281   1.526   2.430  12.467  1.4786  0.2113  1.4159
  760MPD2    H111282   1.176   2.293  12.684 -0.6637  0.5695 -2.6023
  760MPD2    H211283   1.282   2.696  12.694 -0.4285  1.1329 -4.1144
  760MPD2    H311284   1.157   2.521  12.768 -0.4898  0.3294 -0.2025
  760MPD2     N11285   1.365   2.216  12.493  0.0391 -0.3674 -0.2717
  760MPD2    H511286   1.306   2.143  12.530 -1.2988  0.3631 -0.9956
  760MPD2    N111287   1.503   2.678  12.519  0.2142  0.4353  0.0815
  760MPD2    H711288   1.557   2.652  12.437 -3.3097  0.2025 -2.1610
  761MPD2     C11289   2.655   1.870  11.445  0.0564  0.3623  0.1522
  761MPD2    C111290   2.739   1.775  11.396  0.2247  0.5601 -0.6787
  761MPD2    C211291   2.846   1.814  11.316  0.5321  0.6479 -0.3163
  761MPD2    C311292   2.880   1.947  11.298  0.4648  0.6772 -0.1883
  761MPD2    C411293   2.807   2.040  11.370  0.5075 -0.0885  0.9684
  761MPD2    C511294   2.693   2.000  11.436 -0.3360  0.9904 -0.0264
  761MPD2     H11295   2.908   1.732  11.279 -2.5264 -2.4498  1.4025
  761MPD2    H111296   2.835   2.144  11.358 -1.2839  0.2754 -0.0990
  761MPD2    H211297   2.568   1.850  11.507  0.7853 -2.1189  0.3775
  761MPD2    H311298   2.622   2.072  11.476 -1.7652  0.3615 -1.4370
  761MPD2     N11299   2.982   1.988  11.216  0.1561 -0.0824  0.3321
  761MPD2    H511300   3.005   2.087  11.214  1.0946 -0.2704  1.6723
  761MPD2    N111301   2.730   1.644  11.448  0.3056 -0.1164 -0.4905
  761MPD2    H711302   2.667   1.637  11.528  1.0190  2.5395  0.2831
  762MPD2     C11303   2.631   0.904  11.015 -0.8408  0.2110 -0.0336
  762MPD2    C111304   2.735   0.951  11.095 -0.3783 -0.6230  0.3016
  762MPD2    C211305   2.860   0.938  11.044  0.5735 -0.7429  0.3756
  762MPD2    C311306   2.886   0.870  10.916 -0.5348  0.0152 -0.9107
  762MPD2    C411307   2.781   0.804  10.849  0.0613 -0.1641  0.4216
  762MPD2    C511308   2.652   0.825  10.903  0.2272  0.3057 -0.3967
  762MPD2     H11309   2.947   0.985  11.090  1.7538 -0.5677 -2.0439
  762MPD2    H111310   2.801   0.750  10.758 -1.3486  0.8425 -0.4790
  762MPD2    H211311   2.533   0.930  11.051 -1.4519  0.2219 -1.7239
  762MPD2    H311312   2.563   0.805  10.845 -0.3678 -0.5459  0.8047
  762MPD2     N11313   3.020   0.865  10.876 -0.5430 -0.1799  0.1727
  762MPD2    H511314   3.090   0.914  10.931 -0.9060  0.4225  0.0979
  762MPD2    N111315   2.703   1.026  11.211  0.5081  0.5978 -0.6447
  762MPD2    H711316   2.608   1.034  11.245  0.2939 -0.2376 -1.0346
  763MPD2     C11317   4.590   1.604  16.387 -0.6714 -0.2727 -0.3078
  763MPD2    C111318   4.458   1.631  16.352  0.1108 -0.4208 -0.5634
  763MPD2    C211319   4.419   1.759  16.346 -0.0962  0.3374  0.5112
  763MPD2    C311320   4.500   1.866  16.383  0.5385  0.0464 -0.0632
  763MPD2    C411321   4.631   1.837  16.422  0.1410  0.1004  0.9494
  763MPD2    C511322   4.669   1.708  16.427  0.5439  0.2101 -0.4015
  763MPD2     H11323   4.313   1.776  16.331 -0.2618  0.1411  1.4811
  763MPD2    H111324   4.694   1.918  16.458  0.0325  0.2572  0.7876
  763MPD2    H211325   4.629   1.503  16.392  0.2454  0.1435  0.7688
  763MPD2    H311326   0.031   1.687  16.469 -0.7152 -0.3493  2.2553
  763MPD2     N11327   4.453   2.000  16.372  0.5865  0.2752  0.0120
  763MPD2    H511328   4.527   2.068  16.384  0.2563  0.5293  0.5667
  763MPD2    N111329   4.376   1.527  16.300  0.0208 -0.0418 -0.2262
  763MPD2    H711330   4.285   1.551  16.261  0.3689  2.2657  0.3920
  764MPD2     C11331   2.052   3.540  17.670 -0.5175 -0.3197 -0.4164
  764MPD2    C111332   1.992   3.418  17.650  0.0343 -0.2194 -1.0826
  764MPD2    C211333   1.974   3.336   0.017  0.8386 -0.6802  0.0636
  764MPD2    C311334   2.000   3.379   0.144  0.1916  0.4866  0.3203
  764MPD2    C411335   2.048   3.510   0.156 -0.2587  0.0255  0.0579
  764MPD2    C511336   2.083   3.585   0.049  0.6996  0.0366  0.1145
  764MPD2     H11337   1.919   3.243   0.009  2.1180 -1.5474  1.2918
  764MPD2    H111338   2.060   3.562   0.251  0.4789 -2.1059  1.1241
  764MPD2    H211339   2.074   3.616  17.596  0.7156 -1.7724 -1.5374
  764MPD2    H311340   2.113   3.689   0.053 -0.0300  0.2705 -0.5876
  764MPD2     N11341   1.953   3.301   0.256  0.0449 -0.2704  0.0198
  764MPD2    H511342   1.931   3.204   0.238  0.4938 -0.0117 -1.9313
  764MPD2    N111343   1.949   3.372  17.525 -0.1865 -0.3620  0.1250
  764MPD2    H711344   1.888   3.291  17.528 -1.6220  0.7683  1.3660
  765MPD2     C11345   2.326   0.940  15.536  0.7957 -0.1583  0.8027
  765MPD2    C111346   2.396   0.985  15.648  0.8515  0.2770 -0.0965
  765MPD2    C211347   2.500   0.908  15.697 -0.3683 -0.2332  0.0696
  765MPD2    C311348   2.535   0.788  15.641  1.0551 -0.4121 -0.4732
  765MPD2    C411349   2.468   0.744  15.523 -0.1595  0.4175  0.1719
  765MPD2    C511350   2.360   0.817  15.484 -0.5071  0.0809  0.6796
  765MPD2     H11351   2.557   0.933  15.786 -0.2105  2.3358 -0.7481
  765MPD2    H111352   2.488   0.650  15.473 -0.3175 -0.1391  1.1564
  765MPD2    H211353   2.239   0.992  15.500  0.4479 -0.2524  1.5078
  765MPD2    H311354   2.304   0.776  15.401  1.4340  0.9921 -1.0860
  765MPD2     N11355   2.628   0.708  15.707 -1.1676 -0.6466 -0.1310
  765MPD2    H511356   2.686   0.755  15.776  1.9080  0.5184 -3.5387
  765MPD2    N111357   2.348   1.108  15.716 -0.1403  0.0196 -0.0688
  765MPD2    H711358   2.279   1.165  15.667  0.7607  2.4677  1.4918
  766MPD2     C11359   1.949   0.865  15.653 -0.4456  0.5614 -0.1995
  766MPD2    C111360   1.924   0.999  15.668  0.6103  0.3526 -0.1703
  766MPD2    C211361   1.914   1.066  15.545  0.3519  0.0919 -0.5801
  766MPD2    C311362   1.965   1.009  15.430  0.7327 -0.4476 -0.2079
  766MPD2    C411363   1.979   0.874  15.413  0.6200 -0.8538 -0.6360
  766MPD2    C511364   1.958   0.804  15.531 -0.5544  0.1502  0.1653
  766MPD2     H11365   1.888   1.170  15.536 -0.5006  0.1672  2.7467
  766MPD2    H111366   2.008   0.822  15.322  0.0148 -3.5349  0.6999
  766MPD2    H211367   1.952   0.798  15.738 -1.7267  0.2135 -0.4234
  766MPD2    H311368   1.965   0.696  15.532 -1.6378  0.0796  1.4409
  766MPD2     N11369   2.004   1.091  15.323  0.3582 -0.0879 -0.6897
  766MPD2    H511370   1.974   1.188  15.321 -3.2511 -1.1611  1.1421
  766MPD2    N111371   1.913   1.065  15.788 -0.2323 -0.3180  0.6845
  766MPD2    H711372   1.929   1.013  15.874  0.4511 -3.2072 -1.1778
  767MPD2     C11373   1.437   1.366  15.403  1.9604  0.2232  0.5215
  767MPD2    C111374   1.567   1.387  15.353 -0.0713  0.0093  0.4776
  767MPD2    C211375   1.596   1.345  15.223  0.1775 -0.1348 -0.4576
  767MPD2    C311376   1.499   1.308  15.138 -0.2488 -0.6013 -0.6986
  767MPD2    C411377   1.367   1.291  15.181  0.4377  0.1435 -0.3452
  767MPD2    C511378   1.342   1.321  15.314 -0.9376  0.0066 -0.5279
  767MPD2     H11379   1.693   1.367  15.181  0.8987 -2.2342  0.1353
  767MPD2    H111380   1.282   1.267  15.118 -0.9729 -0.1665  1.7008
  767MPD2    H211381   1.414   1.386  15.507  2.1479 -0.9366  0.7755
  767MPD2    H311382   1.241   1.309  15.352 -0.2467  0.2020  1.3952
  767MPD2     N11383   1.541   1.298  15.003  0.6921 -0.1733 -0.1169
  767MPD2    H511384   1.640   1.318  14.990  0.4988 -0.1469 -1.5457
  767MPD2    N111385   1.667   1.439  15.436 -0.3793  0.2036  0.2411
  767MPD2    H711386   1.636   1.471  15.528  2.1352  1.5612  0.5999
  768MPD2     C11387   2.969   0.485  10.949  0.1932 -0.2751  0.4686
  768MPD2    C111388   2.906   0.429  11.066 -0.2600  0.0257  0.3274
  768MPD2    C211389   2.984   0.380  11.168 -0.0686 -0.5392 -0.1130
  768MPD2    C311390   3.125   0.385  11.157 -0.1122 -0.1943 -0.0970
  768MPD2    C411391   3.185   0.436  11.046  0.4114  0.0067  0.0469
  768MPD2    C511392   3.106   0.480  10.941  0.2120 -0.0877  0.0569
  768MPD2     H11393   2.935   0.343  11.258  2.3221  0.6893  1.7028
  768MPD2    H111394   3.293   0.438  11.034  0.1407  1.6900 -2.0706
  768MPD2    H211395   2.914   0.532  10.868 -1.7941 -1.9485  0.8499
  768MPD2    H311396   3.159   0.507  10.850 -2.2233 -2.1219 -1.9575
  768MPD2     N11397   3.219   0.345  11.255  0.2070  0.2953 -0.1342
  768MPD2    H511398   3.318   0.359  11.237  0.2362 -0.5785 -0.6886
  768MPD2    N111399   2.761   0.417  11.073 -0.3365 -0.1736 -0.1237
  768MPD2    H711400   2.735   0.360  11.153 -1.5771 -1.2320 -1.2887
  769MPD2     C11401   3.531   2.733  15.019  0.0816 -0.1383 -0.2857
  769MPD2    C111402   3.427   2.744  15.112 -0.2497  0.1297 -1.2419
  769MPD2    C211403   3.459   2.782  15.245  0.0821 -0.4069  0.4967
  769MPD2    C311404   3.591   2.800  15.290  0.7249  0.3302 -0.3379
  769MPD2    C411405   3.687   2.771  15.194 -0.0209 -0.3216  0.4209
  769MPD2    C511406   3.662   2.750  15.060 -0.3523  0.2461  0.2187
  769MPD2     H11407   3.384   2.780  15.323 -1.7041  2.7679 -1.1169
  769MPD2    H111408   3.789   2.771  15.233 -0.5833  0.8167  1.9179
  769MPD2    H211409   3.514   2.716  14.914 -3.7659 -0.1770  0.3672
  769MPD2    H311410   3.743   2.732  14.990 -0.4095 -1.8052  0.6855
  769MPD2     N11411   3.607   2.835  15.420 -0.2290 -0.0983  0.7765
  769MPD2    H511412   3.531   2.830  15.487  1.5335  1.5474  2.9324
  769MPD2    N111413   3.289   2.727  15.079  0.8652 -0.0636  0.0192
  769MPD2    H711414   3.269   2.711  14.981  0.4350  0.7437 -0.0300
  770MPD2     C11415   2.717   2.119  15.388  0.4036  0.4988  0.0363
  770MPD2    C111416   2.786   2.115  15.271 -0.1112 -0.0618  0.8406
  770MPD2    C211417   2.797   2.233  15.202  1.0445  0.1304 -0.0376
  770MPD2    C311418   2.759   2.352  15.257  0.2142 -0.4728 -0.3275
  770MPD2    C411419   2.719   2.355  15.395  0.3782  0.0755  0.1324
  770MPD2    C511420   2.687   2.235  15.448  0.2706  0.0323 -0.6143
  770MPD2     H11421   2.837   2.226  15.102 -1.0815 -0.3362 -0.8369
  770MPD2    H111422   2.705   2.451  15.445 -1.3088 -0.2815  0.3546
  770MPD2    H211423   2.703   2.022  15.434  1.9740 -0.0540 -0.6517
  770MPD2    H311424   2.635   2.238  15.543  4.4277  1.3232  1.6380
  770MPD2     N11425   2.785   2.464  15.181 -0.0573  0.5678  0.3764
  770MPD2    H511426   2.819   2.444  15.087  0.7244  0.3687  0.6975
  770MPD2    N111427   2.845   1.989  15.233 -0.1462 -0.4568 -0.1958
  770MPD2    H711428   2.831   1.916  15.302  1.1568 -2.6332 -2.2114
  771MPD2     C11429   4.310   0.318  13.997  0.1181  0.3734 -0.7969
  771MPD2    C111430   4.227   0.431  14.003 -0.5201 -0.0545 -0.1132
  771MPD2    C211431   4.091   0.409  13.999  0.3683 -0.1790  0.2721
  771MPD2    C311432   4.031   0.281  13.986 -0.7860 -0.2488 -0.0438
  771MPD2    C411433   4.116   0.168  13.983 -0.5183  0.3493  0.1522
  771MPD2    C511434   4.257   0.195  13.976  0.4126 -0.1277  0.2749
  771MPD2     H11435   4.034   0.500  14.013  1.6423  0.9443 -1.7913
  771MPD2    H111436   4.080   0.066  13.983  0.4872 -0.0071 -0.8645
  771MPD2    H211437   4.418   0.324  13.997  0.2651 -2.1877 -0.2279
  771MPD2    H311438   4.322   0.109  13.960  0.6714  0.0660  0.2924
  771MPD2     N11439   3.889   0.284  13.974 -0.4912 -0.2802 -0.2408
  771MPD2    H511440   3.849   0.374  14.001 -1.0807 -0.2267 -1.2968
  771MPD2    N111441   4.271   0.561  14.022 -0.0593 -0.3087 -0.0291
  771MPD2    H711442   4.196   0.630  14.023  0.3691  0.1572  0.0835
  772MPD2     C11443   3.886   1.123  14.275  0.4293  0.9671  0.3853
  772MPD2    C111444   3.906   1.002  14.206  0.1697 -0.0429  0.1301
  772MPD2    C211445   3.807   0.908  14.214  0.1088 -0.7484  0.5665
  772MPD2    C311446   3.682   0.952  14.275 -0.0274  0.0059  0.2138
  772MPD2    C411447   3.658   1.079  14.326 -0.0759  0.0539  0.4098
  772MPD2    C511448   3.761   1.163  14.327 -0.7667  0.1837 -0.7866
  772MPD2     H11449   3.822   0.804  14.184 -1.6481 -0.6104 -0.8204
  772MPD2    H111450   3.562   1.110  14.365 -0.0563  1.1627 -0.4063
  772MPD2    H211451   3.968   1.194  14.280  1.5603 -0.2565 -0.9829
  772MPD2    H311452   3.763   1.259  14.379 -1.4094 -0.1029 -0.2456
  772MPD2     N11453   3.566   0.866  14.283 -0.6178 -0.8812 -1.0556
  772MPD2    H511454   3.481   0.912  14.315 -0.2671 -1.9254  1.3708
  772MPD2    N111455   4.023   0.959  14.143 -0.5819  0.4604 -0.4219
  772MPD2    H711456   4.006   0.872  14.093  0.6896  0.8029 -1.4516
  773MPD2     C11457   2.895   1.569   0.338 -0.6757 -0.9933 -0.0239
  773MPD2    C111458   2.957   1.555   0.209  0.5098 -0.0668  0.2538
  773MPD2    C211459   3.064   1.467   0.188 -0.3615  0.2776  0.3287
  773MPD2    C311460   3.114   1.397   0.300  0.5469 -0.2878  0.0618
  773MPD2    C411461   3.054   1.404   0.422 -0.2646 -0.6301  0.1963
  773MPD2    C511462   2.941   1.484   0.430 -0.0637  1.2494  0.0599
  773MPD2     H11463   3.103   1.462   0.087 -1.8712 -0.1474 -0.2349
  773MPD2    H111464   3.087   1.349   0.509  0.4340 -0.2563  0.1728
  773MPD2    H211465   2.801   1.619   0.358  0.1068  0.9941 -1.2692
  773MPD2    H311466   2.890   1.492   0.525 -1.5009  0.9301 -0.6702
  773MPD2     N11467   3.234   1.320   0.295 -0.0204 -0.1377  0.1378
  773MPD2    H511468   3.263   1.264   0.374 -0.6834  0.0702  0.5243
  773MPD2    N111469   2.899   1.620   0.099 -0.2900 -0.3593  0.5177
  773MPD2    H711470   2.921   1.583   0.007 -2.6038  0.7765 -0.4735
  774MPD2     C11471   3.124   1.384  13.920  0.4700  1.0166 -0.3880
  774MPD2    C111472   3.005   1.452  13.927 -0.4078 -0.8302  0.0593
  774MPD2    C211473   2.990   1.560  13.845 -0.4488  0.4424  0.1030
  774MPD2    C311474   3.088   1.603  13.755  0.1736  0.4762  0.0173
  774MPD2    C411475   3.212   1.542  13.757 -0.4059  0.1453  0.4263
  774MPD2    C511476   3.223   1.435  13.844  0.5398 -0.5795  0.8705
  774MPD2     H11477   2.892   1.605  13.846 -0.0019  1.3985  0.8051
  774MPD2    H111478   3.293   1.574  13.693 -2.4001  1.3880 -1.4905
  774MPD2    H211479   3.145   1.300  13.985  1.2581  0.7139 -1.0437
  774MPD2    H311480   3.320   1.389  13.858  0.4686 -1.7614 -2.4805
  774MPD2     N11481   3.058   1.715  13.669 -0.1566 -0.2623 -0.4766
  774MPD2    H511482   2.970   1.762  13.684  0.4347 -0.5658  3.9190
  774MPD2    N111483   2.914   1.420  14.031  0.3030  0.1608  0.1082
  774MPD2    H711484   2.946   1.342  14.088  3.3917 -0.1920 -2.1224
  775MPD2     C11485   3.675   2.477  15.681 -0.4201 -0.7576 -0.3736
  775MPD2    C111486   3.753   2.534  15.772 -0.3925  0.0782 -1.2712
  775MPD2    C211487   3.865   2.601  15.738 -0.1425 -0.4536 -0.2185
  775MPD2    C311488   3.905   2.608  15.610  0.3307 -0.4564 -0.3009
  775MPD2    C411489   3.839   2.537  15.512  0.3695 -0.3282  0.1430
  775MPD2    C511490   3.716   2.476  15.551  0.1335 -0.4881 -0.2903
  775MPD2     H11491   3.923   2.661  15.807 -0.4923  0.9951 -1.1714
  775MPD2    H111492   3.882   2.528  15.413 -4.2933 -2.7316 -1.6626
  775MPD2    H211493   3.577   2.439  15.708 -0.1518 -0.2044  1.3687
  775MPD2    H311494   3.657   2.436  15.469 -0.6853 -0.0496  0.0795
  775MPD2     N11495   4.014   2.684  15.568  0.0118 -0.0763 -0.2835
  775MPD2    H511496   4.033   2.702  15.470  1.8310  1.0881  0.2786
  775MPD2    N111497   3.706   2.520  15.900 -0.0187 -0.5387 -0.1532
  775MPD2    H711498   3.616   2.472  15.905 -0.1078 -0.0596  2.6897
  776MPD2     C11499   3.712   3.234  11.635  0.2589  0.6388  0.0381
  776MPD2    C111500   3.576   3.240  11.664  0.1254  0.0877  0.3205
  776MPD2    C211501   3.524   3.357  11.712 -0.0856  0.1447 -0.6471
  776MPD2    C311502   3.609   3.464  11.755 -0.0330 -0.3061  0.7533
  776MPD2    C411503   3.742   3.451  11.723 -0.1228 -0.3527  0.0639
  776MPD2    C511504   3.790   3.341  11.654 -0.2548  0.7486 -0.1386
  776MPD2     H11505   3.417   3.368  11.730  0.4063 -0.2710  2.4691
  776MPD2    H111506   3.812   3.530  11.748 -0.1989 -0.4139  0.4644
  776MPD2    H211507   3.755   3.156  11.574 -0.1880 -0.4638  1.1259
  776MPD2    H311508   3.894   3.344  11.623 -0.5144  0.8694 -0.9994
  776MPD2     N11509   3.565   3.597  11.792  0.2724  0.0308  0.2409
  776MPD2    H511510   3.639   3.660  11.824  0.4918  0.6937 -1.5708
  776MPD2    N111511   3.497   3.124  11.640 -0.1843  0.2527  0.1385
  776MPD2    H711512   3.550   3.049  11.599 -0.1415  1.6640 -2.3977
  777MPD2     C11513   3.529   0.145   0.973  0.3217 -0.6791 -0.5248
  777MPD2    C111514   3.396   0.159   1.013 -1.1707 -0.3767 -0.0644
  777MPD2    C211515   3.316   0.048   0.998 -0.5907  0.3471 -0.0508
  777MPD2    C311516   3.361   4.662   0.949 -0.0489 -0.0058 -0.1246
  777MPD2    C411517   3.493   4.646   0.918 -0.1328 -0.8694 -0.2531
  777MPD2    C511518   3.579   0.024   0.929  0.1255 -0.3599  0.1124
  777MPD2     H11519   3.214   0.049   1.032 -0.2057  0.7083  1.0996
  777MPD2    H111520   3.537   4.551   0.890  0.4046 -1.3641  2.2945
  777MPD2    H211521   3.602   0.225   0.980 -0.3063 -0.0845 -0.7593
  777MPD2    H311522   3.681   0.011   0.895  0.5303  0.4109  1.0504
  777MPD2     N11523   3.276   4.558   0.930 -0.2699 -0.4388 -0.5913
  777MPD2    H511524   3.186   4.579   0.970 -0.0141 -3.1028  1.3694
  777MPD2    N111525   3.355   0.289   1.052 -1.0831 -0.0542 -0.0299
  777MPD2    H711526   3.428   0.359   1.066 -1.8136  0.5067  0.8941
  778MPD2     C11527   4.416   0.711  15.457  0.4080 -0.5682 -0.1820
  778MPD2    C111528   4.431   0.640  15.338 -0.7320  0.0780  0.3679
  778MPD2    C211529   4.513   0.681  15.238  0.3764  0.3617  0.7801
  778MPD2    C311530   4.573   0.800  15.258  0.1446 -0.1860  0.3831
  778MPD2    C411531   4.566   0.863  15.383  0.8070 -0.2149  0.4667
  778MPD2    C511532   4.488   0.818  15.491 -0.5313  0.2595  0.0428
  778MPD2     H11533   4.536   0.624  15.149  0.6447  0.6598  0.6606
  778MPD2    H111534   4.625   0.950  15.408  0.9726 -0.4374  0.8421
  778MPD2    H211535   4.346   0.670  15.528  1.3398 -0.4330  0.8262
  778MPD2    H311536   4.488   0.860  15.591  1.8311  1.0639 -0.2913
  778MPD2     N11537   4.652   0.852  15.152  0.4925  0.1395 -0.5740
  778MPD2    H511538   4.679   0.793  15.074 -0.0812 -2.1184  0.9640
  778MPD2    N111539   4.361   0.518  15.313  1.1586 -0.4978  0.0444
  778MPD2    H711540   4.365   0.484  15.218 -0.1510  0.8075 -0.4621
  779MPD2     C11541   3.903   4.141  14.500 -0.1073  0.2323  0.3341
  779MPD2    C111542   4.045   4.130  14.504  0.3334 -0.5664 -0.0459
  779MPD2    C211543   4.117   4.245  14.468  0.2800  0.0174  0.3508
  779MPD2    C311544   4.058   4.361  14.424  0.3940  0.2299 -0.2538
  779MPD2    C411545   3.920   4.365  14.415  0.5700 -0.1481  0.5148
  779MPD2    C511546   3.848   4.254  14.452 -0.0129  0.1713  0.2835
  779MPD2     H11547   4.223   4.247  14.486  0.0680 -0.2359  1.6294
  779MPD2    H111548   3.860   4.451  14.389  0.3258 -0.1616  1.0273
  779MPD2    H211549   3.834   4.065  14.536  0.8639  0.0053  1.7270
  779MPD2    H311550   3.742   4.247  14.428 -0.6110  1.4794  2.6224
  779MPD2     N11551   4.139   4.469  14.397 -0.3246  0.3758  0.3209
  779MPD2    H511552   4.238   4.448  14.399 -0.5620 -0.6355  1.8356
  779MPD2    N111553   4.117   4.022  14.569  0.1562 -0.1799 -0.3211
  779MPD2    H711554   4.218   4.031  14.568 -0.0265  2.0245  0.8861
  780MPD2     C11555   2.863   3.932   1.152  0.1484  0.1599 -0.0793
  780MPD2    C111556   2.835   3.930   1.017 -0.5454  1.0272  0.9079
  780MPD2    C211557   2.930   3.968   0.929  0.1411 -0.1922  0.1844
  780MPD2    C311558   3.059   3.978   0.973 -0.5632 -0.3541  0.2644
  780MPD2    C411559   3.088   3.981   1.111 -0.1859 -0.2332 -0.5387
  780MPD2    C511560   2.986   3.967   1.199 -0.5355 -0.6337  0.4696
  780MPD2     H11561   2.910   3.979   0.823  0.1199  4.4117  0.6457
  780MPD2    H111562   3.189   4.002   1.145  0.4221 -1.2822 -1.7215
  780MPD2    H211563   2.793   3.899   1.228 -1.7715  2.9296 -0.6190
  780MPD2    H311564   3.005   3.966   1.306  0.7016  0.2571  0.2528
  780MPD2     N11565   3.162   4.002   0.876 -0.4689 -1.1028 -0.2555
  780MPD2    H511566   3.137   3.999   0.778 -2.2474  2.2117  0.0965
  780MPD2    N111567   2.705   3.891   0.977  0.5622 -0.0289 -0.3079
  780MPD2    H711568   2.660   3.840   1.051 -1.2257 -1.2585 -2.2329
  781MPD2     C11569   1.096   2.020  12.218 -0.3053 -0.2752 -0.3888
  781MPD2    C111570   1.080   1.890  12.266 -0.0848 -0.5844  0.4207
  781MPD2    C211571   1.113   1.785  12.176 -0.0632 -0.0258  0.0709
  781MPD2    C311572   1.172   1.806  12.054 -0.1005  0.0192  0.4702
  781MPD2    C411573   1.190   1.934  12.009  0.4606 -0.2069 -0.9049
  781MPD2    C511574   1.154   2.038  12.091  0.3859  0.6113 -0.0408
  781MPD2     H11575   1.093   1.686  12.215 -1.9212  0.3247  0.0362
  781MPD2    H111576   1.236   1.961  11.915 -0.2261 -1.6685 -1.6664
  781MPD2    H211577   1.065   2.106  12.275  2.1746 -0.8436  1.8409
  781MPD2    H311578   1.161   2.137  12.048 -0.6718  0.8994  0.4460
  781MPD2     N11579   1.215   1.702  11.971  0.3699 -1.0148 -0.2802
  781MPD2    H511580   1.250   1.734  11.881 -1.1731 -1.5832 -1.0825
  781MPD2    N111581   1.005   1.858  12.381  0.0875  0.2673  0.4694
  781MPD2    H711582   0.987   1.760  12.398 -1.7761  0.1841 -2.0722
  782MPD2     C11583   3.987   1.829  10.000  0.0946 -0.0984  0.2132
  782MPD2    C111584   4.000   1.846  10.129 -0.3762 -0.3896 -0.2770
  782MPD2    C211585   4.011   1.974  10.183 -0.1891  0.6503 -0.2623
  782MPD2    C311586   3.993   2.083  10.102  0.6229 -0.1697 -0.0785
  782MPD2    C411587   3.987   2.061   9.967  0.2643  0.0106  0.2332
  782MPD2    C511588   3.982   1.931   9.915 -0.2478 -0.0843 -0.7476
  782MPD2     H11589   4.026   1.984  10.289 -1.5901  1.5243 -0.1372
  782MPD2    H111590   3.980   2.148   9.902  1.1415  0.4718  0.7518
  782MPD2    H211591   4.001   1.731   9.956  1.4963  0.1475  0.1062
  782MPD2    H311592   3.972   1.913   9.808  0.9582 -1.9499 -0.5464
  782MPD2     N11593   3.974   2.213  10.164  0.0222  1.0498 -0.0179
  782MPD2    H511594   3.971   2.213  10.266 -0.2001 -0.7400 -0.0236
  782MPD2    N111595   4.007   1.733  10.206  1.0440  0.2159 -0.0334
  782MPD2    H711596   3.970   1.644  10.175 -1.8129  0.4217  2.8328
  783MPD2     C11597   3.380   1.511  10.789  0.1761 -0.1401  0.2859
  783MPD2    C111598   3.448   1.633  10.767 -0.6741  0.0736  0.3375
  783MPD2    C211599   3.563   1.636  10.694  0.1994 -0.3785  0.5019
  783MPD2    C311600   3.617   1.518  10.650 -0.2335  0.4933  0.0495
  783MPD2    C411601   3.548   1.398  10.666 -0.5858  0.8532 -0.3381
  783MPD2    C511602   3.434   1.401  10.740 -0.0860  0.5726 -0.0117
  783MPD2     H11603   3.612   1.732  10.683  0.4125 -0.4837  0.5177
  783MPD2    H111604   3.571   1.300  10.624 -0.0883  0.1127  1.6733
  783MPD2    H211605   3.291   1.506  10.851 -1.2463 -2.5215 -1.9739
  783MPD2    H311606   3.381   1.308  10.757 -0.1897  0.3551 -1.5076
  783MPD2     N11607   3.748   1.522  10.598 -0.1551  0.0781 -0.9879
  783MPD2    H511608   3.801   1.608  10.604  0.2875 -0.2251 -0.5036
  783MPD2    N111609   3.382   1.747  10.822  0.4719 -0.8679  0.4438
  783MPD2    H711610   3.297   1.717  10.867  0.6553 -0.9084  0.7617
  784MPD2     C11611   1.006   2.108   0.608  0.1223  0.4539  0.5035
  784MPD2    C111612   1.019   2.184   0.723 -0.3666  0.0262  0.1233
  784MPD2    C211613   0.920   2.254   0.771 -0.5495 -0.3454 -0.6559
  784MPD2    C311614   0.807   2.278   0.696 -0.1202  0.2048 -0.8765
  784MPD2    C411615   0.796   2.199   0.585 -0.6802  0.2942 -0.6496
  784MPD2    C511616   0.891   2.108   0.542 -0.8502  0.4919  0.3165
  784MPD2     H11617   0.935   2.302   0.867 -0.0522  0.7977 -1.3064
  784MPD2    H111618   0.703   2.202   0.529 -0.5171  1.9715 -0.8377
  784MPD2    H211619   1.086   2.050   0.564 -0.7056 -0.5865  0.3674
  784MPD2    H311620   0.876   2.057   0.447 -2.1877 -0.7359  1.1899
  784MPD2     N11621   0.706   2.358   0.749 -0.0377 -0.3517  0.5050
  784MPD2    H511622   0.732   2.399   0.838 -0.6471  0.4135  0.3313
  784MPD2    N111623   1.137   2.193   0.792  0.1892  0.5911 -0.2258
  784MPD2    H711624   1.143   2.259   0.869 -2.6554 -1.6263  1.9183
  785MPD2     C11625   1.586   0.747  11.247  0.1796  0.3220  0.1305
  785MPD2    C111626   1.543   0.878  11.258  0.4612  0.0125 -0.3845
  785MPD2    C211627   1.414   0.919  11.234 -0.2767 -0.1016  0.0840
  785MPD2    C311628   1.320   0.826  11.192 -0.2875 -0.6116  0.4094
  785MPD2    C411629   1.360   0.689  11.190 -0.5133  0.4403  0.0072
  785MPD2    C511630   1.488   0.655  11.208 -0.5294 -0.0251 -0.9932
  785MPD2     H11631   1.386   1.024  11.233  2.1752  0.5540  0.5674
  785MPD2    H111632   1.287   0.614  11.162  0.9112 -0.9284 -0.0325
  785MPD2    H211633   1.686   0.717  11.275  0.5738  0.5959 -0.9632
  785MPD2    H311634   1.511   0.549  11.200 -0.9456 -0.4241  3.1322
  785MPD2     N11635   1.189   0.869  11.161  0.5064  0.2323  0.3144
  785MPD2    H511636   1.181   0.971  11.158  1.7901  0.2755 -1.2313
  785MPD2    N111637   1.626   0.985  11.288 -0.0128  0.0549  0.1208
  785MPD2    H711638   1.578   1.073  11.301 -0.5196 -0.2645  0.4396
  786MPD2     C11639   0.425   3.720  14.869  0.0149 -0.4715  0.2299
  786MPD2    C111640   0.477   3.602  14.886 -0.2876  0.1098 -0.3805
  786MPD2    C211641   0.534   3.573  15.004  0.1238 -0.2457  1.4292
  786MPD2    C311642   0.536   3.668  15.112 -0.2236 -0.5197 -0.9199
  786MPD2    C411643   0.479   3.792  15.085 -0.0926 -0.2271  0.5978
  786MPD2    C511644   0.429   3.819  14.960  0.1744 -0.4387 -0.6361
  786MPD2     H11645   0.568   3.472  15.024  0.8136 -0.0011  1.5255
  786MPD2    H111646   0.480   3.872  15.157  1.5966 -0.8441  1.2612
  786MPD2    H211647   0.387   3.755  14.774  0.7182  0.0541  0.1421
  786MPD2    H311648   0.386   3.919  14.959  0.2152 -0.4338 -1.6229
  786MPD2     N11649   0.578   3.650  15.245 -0.8684  0.1140 -0.6038
  786MPD2    H511650   0.577   3.728  15.310 -0.5391  0.1372 -0.6282
  786MPD2    N111651   0.464   3.500  14.788  0.3854  0.3723 -0.0414
  786MPD2    H711652   0.471   3.405  14.824  1.5176  0.8105  0.9045
  787MPD2     C11653   0.752   2.928  14.844 -0.2699  0.4613  0.6981
  787MPD2    C111654   0.692   2.929  14.719  0.3096 -0.2764 -0.1527
  787MPD2    C211655   0.731   2.832  14.628  0.5739  0.1214 -0.2628
  787MPD2    C311656   0.801   2.728  14.669  0.1085 -0.0256  0.3544
  787MPD2    C411657   0.844   2.720  14.796 -0.1194  0.1704 -1.0309
  787MPD2    C511658   0.827   2.821  14.883  0.2239 -0.1344  0.7483
  787MPD2     H11659   0.686   2.831  14.530  2.2496 -0.6162 -1.0431
  787MPD2    H111660   0.885   2.629  14.838 -0.1324  0.9366  0.6379
  787MPD2    H211661   0.733   3.001  14.922 -3.4001 -0.4609  0.7990
  787MPD2    H311662   0.877   2.818  14.979 -0.2633 -0.4234  0.9954
  787MPD2     N11663   0.799   2.626  14.579 -0.2611 -0.0586  0.2775
  787MPD2    H511664   0.772   2.648  14.483  1.0696 -0.2757 -0.1444
  787MPD2    N111665   0.605   3.037  14.688 -0.6489 -0.3052 -0.3216
  787MPD2    H711666   0.601   3.107  14.761  0.4244 -0.4579 -0.1168
  788MPD2     C11667   1.815   1.878   0.946  0.7630  0.1484 -0.5635
  788MPD2    C111668   1.779   1.834   0.820  0.6253 -0.1760 -0.0003
  788MPD2    C211669   1.783   1.916   0.705 -0.2038 -0.5991  0.0152
  788MPD2    C311670   1.787   2.055   0.729  0.9078 -0.5241 -0.2073
  788MPD2    C411671   1.795   2.106   0.859  0.6192  0.0071  0.4271
  788MPD2    C511672   1.813   2.018   0.965 -0.3346 -0.0245 -0.0438
  788MPD2     H11673   1.756   1.877   0.608  1.0002 -0.9236 -0.1789
  788MPD2    H111674   1.800   2.213   0.870  0.8552  0.0310  0.0666
  788MPD2    H211675   1.818   1.812   1.032 -1.6040 -1.3334 -1.6249
  788MPD2    H311676   1.825   2.048   1.068  2.1821 -1.3946  0.0603
  788MPD2     N11677   1.778   2.145   0.624 -0.3158  0.4113 -0.0498
  788MPD2    H511678   1.783   2.243   0.651 -0.7778  0.5892 -0.6148
  788MPD2    N111679   1.735   1.699   0.801  0.1581 -0.3303  0.6546
  788MPD2    H711680   1.700   1.681   0.708  0.3890 -0.1308  0.5278
  789MPD2     C11681   1.867   1.523  16.748  0.0658  0.4358 -0.3294
  789MPD2    C111682   1.784   1.559  16.643 -0.9185  0.1519 -0.7895
  789MPD2    C211683   1.688   1.658  16.659  0.0535  0.6135 -0.3268
  789MPD2    C311684   1.687   1.734  16.775 -0.0501 -0.2896  0.2961
  789MPD2    C411685   1.772   1.701  16.879  0.4324  0.3141 -0.1201
  789MPD2    C511686   1.860   1.595  16.873  0.5462  0.1222 -0.2730
  789MPD2     H11687   1.622   1.677  16.575  0.9674  2.2038 -0.6920
  789MPD2    H111688   1.758   1.754  16.972 -0.5042 -0.6994  0.3212
  789MPD2    H211689   1.933   1.437  16.742 -0.3872  0.0799 -0.2182
  789MPD2    H311690   1.928   1.564  16.951 -1.0266  1.1629  1.5215
  789MPD2     N11691   1.596   1.840  16.801  0.3591 -0.1586  0.1483
  789MPD2    H511692   1.592   1.873  16.897 -0.7297  2.3945 -0.7626
  789MPD2    N111693   1.789   1.500  16.522  0.6293 -0.6306 -0.4366
  789MPD2    H711694   1.717   1.530  16.457  1.1473 -0.8325 -1.1158
  790MPD2     C11695   3.344   3.343  13.550  0.1063 -0.8108 -0.2577
  790MPD2    C111696   3.367   3.221  13.497 -0.3199  0.0273 -0.2171
  790MPD2    C211697   3.342   3.207  13.361 -0.1245 -0.0981 -0.2279
  790MPD2    C311698   3.280   3.303  13.286 -0.0503 -0.5335  0.3032
  790MPD2    C411699   3.252   3.423  13.349  1.3183 -0.0611 -0.5361
  790MPD2    C511700   3.292   3.444  13.477  1.0595 -0.0341 -0.0403
  790MPD2     H11701   3.362   3.111  13.314  1.0764  0.7944 -1.5108
  790MPD2    H111702   3.206   3.504  13.295 -0.3571 -0.8608 -0.2963
  790MPD2    H211703   3.372   3.361  13.653  0.7754  1.9455 -0.9276
  790MPD2    H311704   3.274   3.536  13.532 -0.7256 -0.3245 -0.1603
  790MPD2     N11705   3.248   3.270  13.152  0.5541  0.7015 -0.3930
  790MPD2    H511706   3.288   3.188  13.109  0.0786  0.3185 -0.1066
  790MPD2    N111707   3.416   3.117  13.579 -0.0165  0.6226  0.0720
  790MPD2    H711708   3.466   3.137  13.666 -0.2841  1.0429  0.1327
  791MPD2     C11709   2.937   2.764  12.768  0.1959  0.2415  0.0040
  791MPD2    C111710   2.881   2.882  12.732 -0.1141 -0.3075 -0.1835
  791MPD2    C211711   2.748   2.899  12.697 -0.8301 -0.2763 -0.0044
  791MPD2    C311712   2.663   2.791  12.708 -0.9981 -0.5857  0.0504
  791MPD2    C411713   2.713   2.668  12.759 -0.1261  0.1199  0.3262
  791MPD2    C511714   2.851   2.660  12.784  0.6326 -0.9120 -0.3836
  791MPD2     H11715   2.698   2.992  12.674 -2.6453 -1.6383 -1.5786
  791MPD2    H111716   2.651   2.579  12.764  1.2885 -0.7953  1.4387
  791MPD2    H211717   3.042   2.754  12.793 -0.0944 -0.5646  0.8944
  791MPD2    H311718   2.893   2.561  12.802  3.6234  0.5724  0.7159
  791MPD2     N11719   2.531   2.813  12.658  0.4785 -0.0350  0.0448
  791MPD2    H511720   2.500   2.909  12.650  0.7445  0.1536  1.2234
  791MPD2    N111721   2.970   2.994  12.750 -0.5328 -0.0642 -0.3434
  791MPD2    H711722   3.063   2.977  12.788  0.0299  3.1312 -0.2913
  792MPD2     C11723   3.901   3.223  11.066  0.6126 -0.1207  0.4980
  792MPD2    C111724   3.808   3.314  11.114 -0.1620  0.0473 -0.3209
  792MPD2    C211725   3.673   3.284  11.083  0.0450  0.1560  0.3137
  792MPD2    C311726   3.636   3.175  11.006  0.7131 -0.5333  0.0231
  792MPD2    C411727   3.730   3.085  10.955  0.7761  0.3969  0.1746
  792MPD2    C511728   3.856   3.107  10.991  0.7354 -0.0332 -0.0687
  792MPD2     H11729   3.586   3.334  11.125 -1.2272 -0.8547 -1.0959
  792MPD2    H111730   3.718   3.005  10.883 -3.2500  1.7616 -0.6702
  792MPD2    H211731   4.006   3.232  11.092  0.8192  0.7240 -0.5991
  792MPD2    H311732   3.931   3.042  10.947  0.1715 -0.1585 -0.8450
  792MPD2     N11733   3.495   3.162  10.978  0.1501  0.0742 -0.1731
  792MPD2    H511734   3.435   3.229  11.025  3.6155  0.1480  4.1561
  792MPD2    N111735   3.849   3.422  11.190  0.5650  0.4511  0.6527
  792MPD2    H711736   3.949   3.432  11.204  0.3253  0.1988  2.6599
  793MPD2     C11737   2.871   3.728  10.814  0.4161  0.0353  1.2786
  793MPD2    C111738   2.985   3.689  10.752  0.0881  0.0529 -0.5803
  793MPD2    C211739   3.053   3.582  10.805 -0.1714  0.6065  0.4019
  793MPD2    C311740   2.996   3.498  10.897  0.9982 -0.3846 -0.0575
  793MPD2    C411741   2.871   3.535  10.952 -0.1310 -0.0697  0.3726
  793MPD2    C511742   2.820   3.654  10.915  0.5843  0.4420  0.5116
  793MPD2     H11743   3.158   3.571  10.780 -0.3393  0.5494 -0.2687
  793MPD2    H111744   2.828   3.473  11.030  0.4568 -1.1443 -0.1553
  793MPD2    H211745   2.817   3.819  10.789 -0.4519 -0.9210 -0.3619
  793MPD2    H311746   2.725   3.683  10.958 -0.5823 -1.0416 -1.0502
  793MPD2     N11747   3.069   3.389  10.946 -0.2210 -1.2575  0.6393
  793MPD2    H511748   3.165   3.376  10.915 -1.0765 -2.7627 -1.4081
  793MPD2    N111749   3.045   3.755  10.645 -0.4052  0.2721 -0.1845
  793MPD2    H711750   3.132   3.712  10.616 -1.1183 -0.1541 -1.7213
  794MPD2     C11751   2.536   2.327  17.445 -0.3600 -0.4884  0.6100
  794MPD2    C111752   2.503   2.200  17.394  0.2698 -0.0355  0.2982
  794MPD2    C211753   2.417   2.205  17.285 -0.0686  0.5916 -0.5011
  794MPD2    C311754   2.362   2.321  17.243  0.6105  0.5849 -0.5303
  794MPD2    C411755   2.399   2.444  17.298  0.6423  0.5476 -0.1864
  794MPD2    C511756   2.491   2.449  17.398  0.6269  0.3175  0.1814
  794MPD2     H11757   2.387   2.108  17.246  1.1739  1.3568 -3.3532
  794MPD2    H111758   2.364   2.532  17.246 -0.5428 -0.0660 -0.4342
  794MPD2    H211759   2.600   2.328  17.533 -1.0155 -0.6688  1.0900
  794MPD2    H311760   2.514   2.547  17.438 -1.8532  0.6262  0.8716
  794MPD2     N11761   2.285   2.328  17.129 -0.5584  0.4590 -0.1082
  794MPD2    H511762   2.249   2.414  17.091  1.4010  0.6372 -1.5837
  794MPD2    N111763   2.557   2.078  17.446 -0.4539  0.0358  0.5333
  794MPD2    H711764   2.521   1.988  17.416 -0.0349  1.0367 -3.0626
  795MPD2     C11765   0.790   4.632  14.231  0.1290  0.3734  0.1744
  795MPD2    C111766   0.746   4.551  14.127  0.3199  0.5235  0.3358
  795MPD2    C211767   0.806   4.427  14.123 -0.3968  0.0686  0.1676
  795MPD2    C311768   0.889   4.370  14.219  0.1539 -0.7186 -0.0891
  795MPD2    C411769   0.926   4.455  14.322 -0.3443 -0.2121 -0.5531
  795MPD2    C511770   0.885   4.590  14.325  0.6616  0.1365  0.1268
  795MPD2     H11771   0.767   4.366  14.043 -1.8025  0.9820  0.1479
  795MPD2    H111772   0.979   4.421  14.411 -3.0730 -0.2712  1.0547
  795MPD2    H211773   0.752   4.733  14.237  2.8893  1.4086  0.3696
  795MPD2    H311774   0.913   4.656  14.407 -2.1563  1.9277 -0.3755
  795MPD2     N11775   0.942   4.237  14.217  0.3976 -0.2492 -0.2675
  795MPD2    H511776   1.024   4.224  14.277 -0.5733 -0.4691  1.0057
  795MPD2    N111777   0.656   4.590  14.018 -0.0404 -0.1450 -0.0240
  795MPD2    H711778   0.632   4.516  13.954 -3.0396  0.4143  0.4503
  796MPD2     C11779   0.111   0.769  16.229 -0.0819 -0.1391 -0.9304
  796MPD2    C111780   0.149   0.856  16.333 -0.2017 -0.0059 -0.3776
  796MPD2    C211781   0.111   0.991  16.316  0.0764 -0.3738 -0.5689
  796MPD2    C311782   0.066   1.033  16.188 -0.2285  0.0771 -0.6069
  796MPD2    C411783   0.051   0.943  16.079 -0.4263 -0.0746  0.1849
  796MPD2    C511784   0.072   0.807  16.105  0.0380 -0.0117  0.3839
  796MPD2     H11785   0.100   1.055  16.402  0.0145  0.6278 -1.3202
  796MPD2    H111786   0.029   0.964  15.975 -0.0381 -2.9583 -0.4929
  796MPD2    H211787   0.136   0.666  16.253  3.1852  0.9896  0.5375
  796MPD2    H311788   0.052   0.733  16.027 -0.0527  0.4302 -0.0094
  796MPD2     N11789   0.029   1.170  16.166  0.4837 -0.2483 -0.4345
  796MPD2    H511790   0.050   1.235  16.241  1.8566 -1.5578  0.3086
  796MPD2    N111791   0.202   0.791  16.451  0.5804  0.4072  0.3634
  796MPD2    H711792   0.244   0.698  16.445  1.4985  0.6210  3.1640
  797MPD2     C11793   1.019   0.443   0.123 -0.0056  0.3198 -0.7099
  797MPD2    C111794   1.057   0.569   0.164  0.4708  0.0920 -0.2351
  797MPD2    C211795   0.962   0.666   0.167 -0.3145 -0.5986  0.0329
  797MPD2    C311796   0.832   0.644   0.120 -0.6797  0.3898  1.4901
  797MPD2    C411797   0.795   0.516   0.083  0.6181 -0.3999 -0.3160
  797MPD2    C511798   0.892   0.415   0.088 -0.1202  0.1972  0.2718
  797MPD2     H11799   0.995   0.758   0.214 -1.4029 -1.6637  2.9407
  797MPD2    H111800   0.697   0.485   0.048  0.7119 -1.9717  0.8316
  797MPD2    H211801   1.087   0.360   0.117  0.8276  0.9602 -0.0784
  797MPD2    H311802   0.874   0.313   0.057 -0.0829  1.0649 -2.6398
  797MPD2     N11803   0.740   0.750   0.124  0.2131  0.4952  0.1186
  797MPD2    H511804   0.777   0.832   0.170 -0.1471  1.2438 -0.9346
  797MPD2    N111805   1.184   0.601   0.211  0.7856  1.0781 -0.7294
  797MPD2    H711806   1.197   0.689   0.260 -0.7405  0.0490  1.5118
  798MPD2     C11807   1.101   1.322   0.047  0.5805  0.1479 -0.0593
  798MPD2    C111808   1.042   1.205   0.097  0.0012 -1.0931  0.7792
  798MPD2    C211809   1.128   1.113   0.155  0.2979  1.4495  0.2932
  798MPD2    C311810   1.262   1.116   0.146  0.5694  0.8582 -0.0558
  798MPD2    C411811   1.323   1.221   0.086 -0.9283  0.5629 -0.1341
  798MPD2    C511812   1.241   1.319   0.048  0.2717 -0.4904 -0.0862
  798MPD2     H11813   1.092   1.025   0.207  0.9252  1.5936  0.9712
  798MPD2    H111814   1.429   1.230   0.069 -1.1436 -1.8971 -2.7918
  798MPD2    H211815   1.041   1.404   0.008  0.0681  0.3379  1.1184
  798MPD2    H311816   1.289   1.402  17.738 -2.1079  0.0387 -1.4056
  798MPD2     N11817   1.334   1.009   0.215  0.2771  0.0857 -0.1203
  798MPD2    H511818   1.282   0.937   0.265  0.5698 -0.0480 -0.0094
  798MPD2    N111819   0.900   1.188   0.092  0.1269 -0.4494 -0.0604
  798MPD2    H711820   0.839   1.263   0.059 -0.7716 -1.4312 -0.6450
  799MPD2     C11821   0.244   2.666  14.790  0.1293  0.4099  0.8050
  799MPD2    C111822   0.184   2.580  14.704 -0.5600 -1.1282  0.7759
  799MPD2    C211823   0.131   2.629  14.583 -0.3237  0.8453 -0.2580
  799MPD2    C311824   0.140   2.764  14.547 -0.3424  0.5042  0.0914
  799MPD2    C411825   0.182   2.852  14.642 -0.2111 -0.4397  0.0577
  799MPD2    C511826   0.218   2.799  14.767 -0.2660  0.4138 -0.2837
  799MPD2     H11827   0.084   2.556  14.518  2.3734 -0.4407 -0.7661
  799MPD2    H111828   0.177   2.955  14.612  0.7631 -0.2830  0.4243
  799MPD2    H211829   0.292   2.644  14.885  0.9147  1.5094  0.6685
  799MPD2    H311830   0.234   2.866  14.851  1.4096  2.0213 -1.8743
  799MPD2     N11831   0.116   2.817  14.420  0.5908  0.2333 -0.6789
  799MPD2    H511832   0.141   2.913  14.398  0.0262  0.6502  0.4880
  799MPD2    N111833   0.190   2.441  14.731 -0.4710  0.1092  0.5743
  799MPD2    H711834   0.162   2.376  14.658 -1.6391  1.6993 -0.3918
  800MPD2     C11835   0.410   3.687  14.262 -0.0748 -0.4542 -0.9656
  800MPD2    C111836   0.532   3.631  14.233  0.5935 -0.7002  0.2668
  800MPD2    C211837   0.554   3.544  14.125 -0.7939  0.1259  0.0584
  800MPD2    C311838   0.451   3.526  14.039  0.5467 -0.0733  0.0342
  800MPD2    C411839   0.329   3.578  14.066 -0.6455  0.7373 -0.0660
  800MPD2    C511840   0.304   3.653  14.180 -0.0704 -0.1927  0.0265
  800MPD2     H11841   0.650   3.496  14.110 -1.1037 -0.8179  1.0882
  800MPD2    H111842   0.249   3.553  13.998 -0.7801 -0.7007  0.6188
  800MPD2    H211843   0.396   3.760  14.341  2.6663 -0.8722 -0.1091
  800MPD2    H311844   0.211   3.700  14.209  0.9579  1.1389  1.1823
  800MPD2     N11845   0.471   3.444  13.929 -0.2535  0.6981 -0.0996
  800MPD2    H511846   0.561   3.398  13.933 -0.3343  0.5381 -0.1413
  800MPD2    N111847   0.636   3.679  14.318  0.2013  0.1942 -0.2149
  800MPD2    H711848   0.611   3.744  14.392 -1.7687  1.4212 -1.9385
  801MPD2     C11849   0.739   4.305  14.596 -0.1542 -0.6294  0.1457
  801MPD2    C111850   0.677   4.186  14.585 -0.2037  0.4344  0.0640
  801MPD2    C211851   0.537   4.179  14.589 -0.2550  0.2841 -0.3216
  801MPD2    C311852   0.458   4.300  14.603 -0.3952 -0.3041  0.4304
  801MPD2    C411853   0.529   4.417  14.613 -0.2243  0.0872 -0.4417
  801MPD2    C511854   0.668   4.420  14.613  0.0199 -1.1399 -0.0841
  801MPD2     H11855   0.488   4.084  14.569 -0.3702  0.9438 -3.2014
  801MPD2    H111856   0.469   4.506  14.624 -1.8292 -1.0215 -0.3344
  801MPD2    H211857   0.847   4.315  14.590 -0.1416  0.1863  1.8735
  801MPD2    H311858   0.716   4.517  14.619  0.4364 -1.3632  0.2103
  801MPD2     N11859   0.321   4.301  14.605 -0.0324  0.0642 -0.4671
  801MPD2    H511860   0.278   4.393  14.618 -1.3537 -0.4629 -1.1061
  801MPD2    N111861   0.746   4.067  14.559 -0.0698  0.1348 -0.1208
  801MPD2    H711862   0.689   3.983  14.564  0.5355 -0.3230 -0.8097
  802MPD2     C11863   0.004   0.259   0.781 -0.5394  0.9692 -0.0563
  802MPD2    C111864   4.725   0.121   0.757 -0.4196 -0.0581 -0.0483
  802MPD2    C211865   0.051   0.063   0.647 -0.0570 -0.7023 -0.6051
  802MPD2    C311866   0.115   0.144   0.553 -0.4414  0.1587 -0.0688
  802MPD2    C411867   0.116   0.278   0.568  0.4564 -0.7280 -0.1349
  802MPD2    C511868   0.051   0.333   0.678  0.3978  0.2418 -0.2725
  802MPD2     H11869   0.050   4.691   0.640 -1.9785 -0.5659 -2.2338
  802MPD2    H111870   0.162   0.351   0.501  0.2094 -1.8244 -1.5062
  802MPD2    H211871   4.680   0.321   0.846 -2.9223 -0.7764 -0.6054
  802MPD2    H311872   0.057   0.441   0.685  0.8074  0.2509 -0.8081
  802MPD2     N11873   0.155   0.081   0.433 -0.3726 -0.0432 -0.2190
  802MPD2    H511874   0.157   4.716   0.426  1.6784  0.0414 -0.6566
  802MPD2    N111875   4.632   0.051   0.836 -0.7245  0.0023  0.6355
  802MPD2    H711876   4.595   0.101   0.917  2.3471  1.1252  1.3137
  803MPD2     C11877   1.260   2.848  12.224  0.2289  0.0680 -0.2493
  803MPD2    C111878   1.278   2.977  12.240 -0.1846 -0.3299 -0.0294
  803MPD2    C211879   1.251   3.031  12.371 -0.2186 -0.3705 -0.5609
  803MPD2    C311880   1.205   2.947  12.470 -0.0538 -0.3487 -0.0101
  803MPD2    C411881   1.186   2.816  12.438 -0.2049  0.0601  0.5140
  803MPD2    C511882   1.211   2.765  12.317  0.0393  0.0174 -0.6053
  803MPD2     H11883   1.277   3.133  12.396  2.4025 -1.0373 -0.5954
  803MPD2    H111884   1.146   2.741  12.505 -0.7528  0.6397  0.8400
  803MPD2    H211885   1.294   2.803  12.132 -1.6409 -2.4069  0.2641
  803MPD2    H311886   1.196   2.661  12.293 -2.5280  0.2160  0.2038
  803MPD2     N11887   1.200   2.964  12.610  0.4256 -0.6300  0.3485
  803MPD2    H511888   1.178   2.887  12.672  1.4164 -1.4572 -0.3341
  803MPD2    N111889   1.351   3.057  12.158  0.3514 -0.0379 -0.3124
  803MPD2    H711890   1.393   3.139  12.201  0.4544  0.4956 -1.4433
  804MPD2     C11891   0.693   4.334  17.229  0.2347  0.5976 -0.2055
  804MPD2    C111892   0.707   4.257  17.353 -0.5650  0.4203  0.8122
  804MPD2    C211893   0.802   4.309  17.442  0.1293 -0.8535  1.0488
  804MPD2    C311894   0.884   4.414  17.413  0.3013 -1.0442 -0.1753
  804MPD2    C411895   0.875   4.476  17.289  0.2363  0.8236  0.8841
  804MPD2    C511896   0.774   4.441  17.201 -0.1574  0.5240 -0.4122
  804MPD2     H11897   0.808   4.268  17.542  0.8673 -1.8634  0.5930
  804MPD2    H111898   0.940   4.560  17.265  0.5036  0.8397  1.6560
  804MPD2    H211899   0.619   4.306  17.156  0.6329  0.5095 -0.5747
  804MPD2    H311900   0.769   4.494  17.106 -2.1237  1.1010  0.0212
  804MPD2     N11901   0.972   4.454  17.516 -0.1142 -0.4405  0.0596
  804MPD2    H511902   0.948   4.410  17.605 -0.2494 -0.1407  0.1720
  804MPD2    N111903   0.620   4.155  17.403 -0.0404  0.2262 -0.3511
  804MPD2    H711904   0.648   4.114  17.492  0.9192  2.0474  0.1820
  805MPD2     C11905   4.248   2.428  15.479 -0.0018 -1.1509 -0.6219
  805MPD2    C111906   4.329   2.504  15.398 -0.1625 -0.0710 -0.2274
  805MPD2    C211907   4.465   2.509  15.425 -0.2338  0.5977 -0.5458
  805MPD2    C311908   4.516   2.460  15.543  0.4932 -0.1814  0.3000
  805MPD2    C411909   4.431   2.388  15.625  0.5741 -0.4479 -0.3156
  805MPD2    C511910   4.300   2.373  15.591 -0.3998  0.1900 -0.5343
  805MPD2     H11911   4.521   2.573  15.357 -1.4980 -0.7278 -2.8668
  805MPD2    H111912   4.459   2.355  15.725  0.0359 -0.5079 -0.1862
  805MPD2    H211913   4.142   2.433  15.457 -0.1708  1.4789  0.7543
  805MPD2    H311914   4.226   2.328  15.656 -1.8009  1.7022 -1.0732
  805MPD2     N11915   4.644   2.506  15.585  0.7041 -0.4840 -1.0284
  805MPD2    H511916   4.689   2.576  15.527 -2.1985  0.9062 -1.6244
  805MPD2    N111917   4.286   2.569  15.277 -0.0200 -0.1792  0.3030
  805MPD2    H711918   4.361   2.613  15.225  0.0641  0.6881  1.1502
  806MPD2     C11919   0.077   2.106   0.529 -0.2321  0.1663 -0.0240
  806MPD2    C111920   0.088   2.220   0.600 -0.1340 -0.3093 -1.1837
  806MPD2    C211921   0.139   2.331   0.531  0.4411 -0.6935 -0.5667
  806MPD2    C311922   0.180   2.331   0.400  0.3294 -0.5762 -0.4445
  806MPD2    C411923   0.170   2.212   0.329  0.2860  0.0610 -0.8190
  806MPD2    C511924   0.117   2.104   0.395  0.6825  0.0852 -0.3095
  806MPD2     H11925   0.127   2.427   0.579  2.0584 -0.0929 -1.3367
  806MPD2    H111926   0.204   2.189   0.229  1.1938 -0.3179 -0.4209
  806MPD2    H211927   0.033   2.018   0.573 -1.4145  1.5579  1.5690
  806MPD2    H311928   0.114   2.008   0.345  1.9173  0.1134 -0.4308
  806MPD2     N11929   0.240   2.443   0.345 -0.7922 -0.3040 -0.3852
  806MPD2    H511930   0.266   2.520   0.407 -1.0252 -1.8214  1.5962
  806MPD2    N111931   0.042   2.211   0.733  0.5846 -0.0846  0.4358
  806MPD2    H711932   0.005   2.120   0.759 -1.9607  0.2445 -2.0269
  807MPD2     C11933   4.383   1.825   1.286 -0.1806  0.0126  0.4954
  807MPD2    C111934   4.415   1.952   1.329 -0.2008  0.0578 -0.1497
  807MPD2    C211935   4.373   1.984   1.458 -0.7214  0.5870 -0.0519
  807MPD2    C311936   4.274   1.918   1.522  0.3517 -0.5068  0.0452
  807MPD2    C411937   4.240   1.794   1.472 -0.1675  0.2896 -0.0177
  807MPD2    C511938   4.303   1.748   1.360 -0.3315 -0.2992  0.7389
  807MPD2     H11939   4.407   2.076   1.504 -2.1374  0.9673  0.2399
  807MPD2    H111940   4.161   1.730   1.510  0.2310  0.2547  0.7676
  807MPD2    H211941   4.416   1.776   1.194 -2.3309  0.3411 -0.4414
  807MPD2    H311942   4.289   1.646   1.326 -2.5421  0.5649 -0.9161
  807MPD2     N11943   4.213   1.965   1.642  0.6518  0.3040  0.5524
  807MPD2    H511944   4.241   2.060   1.665  1.1571  0.5961 -1.2299
  807MPD2    N111945   4.495   2.048   1.254 -0.5753 -0.0516 -0.5306
  807MPD2    H711946   4.522   2.137   1.294  3.8148 -1.9692  0.7666
  808MPD2     C11947   0.443   3.753  10.992 -0.4023  0.0002 -0.2413
  808MPD2    C111948   0.488   3.666  10.897  0.1257  0.0427  0.1084
  808MPD2    C211949   0.614   3.693  10.851 -0.3645  0.1568  0.5181
  808MPD2    C311950   0.685   3.804  10.892 -0.3373  0.4058 -0.4303
  808MPD2    C411951   0.644   3.877  10.997 -0.1499 -0.1094 -0.6144
  808MPD2    C511952   0.523   3.837  11.050  0.3130 -0.0446 -0.1092
  808MPD2     H11953   0.650   3.633  10.768 -2.0458 -1.2724  0.8321
  808MPD2    H111954   0.694   3.965  11.035 -1.1584 -0.1885  0.8827
  808MPD2    H211955   0.347   3.742  11.041 -0.7007  0.4064 -0.7344
  808MPD2    H311956   0.494   3.888  11.141  1.8735 -0.9473  0.8979
  808MPD2     N11957   0.818   3.837  10.844  0.0253 -0.2768 -0.2249
  808MPD2    H511958   0.857   3.919  10.890 -3.2586  0.9628  0.3513
  808MPD2    N111959   0.418   3.549  10.857  0.1081 -0.5766 -0.2260
  808MPD2    H711960   0.465   3.477  10.803  1.7115  0.4060 -0.1384
  809MPD2     C11961   1.623   3.440  10.405  0.0918  0.6357 -0.0991
  809MPD2    C111962   1.645   3.550  10.482 -0.6166 -0.0891 -0.8154
  809MPD2    C211963   1.547   3.637  10.510  0.0148 -0.0815  0.3653
  809MPD2    C311964   1.420   3.605  10.468 -0.7149 -0.6344 -0.3963
  809MPD2    C411965   1.397   3.498  10.390  0.0145  0.0609  0.6927
  809MPD2    C511966   1.495   3.418  10.353 -0.1451 -0.2787 -0.2308
  809MPD2     H11967   1.567   3.718  10.579  0.9834  0.2328 -0.2895
  809MPD2    H111968   1.299   3.473  10.351 -0.1042  2.3863 -0.5185
  809MPD2    H211969   1.698   3.375  10.362  1.4818  1.8436  0.5033
  809MPD2    H311970   1.478   3.343  10.277 -0.0141  1.1079 -1.6101
  809MPD2     N11971   1.307   3.687  10.492  0.4335  0.1196  0.1731
  809MPD2    H511972   1.227   3.652  10.441 -0.9440  2.2857  0.8853
  809MPD2    N111973   1.767   3.589  10.538  0.1182  0.1197 -0.3125
  809MPD2    H711974   1.763   3.682  10.579  1.7270  0.8221 -1.7648
  810MPD2     C11975   4.714   3.057  11.339  0.5919 -0.1817 -0.1829
  810MPD2    C111976   4.696   3.087  11.212  0.1402  0.3894 -0.4868
  810MPD2    C211977   4.699   3.225  11.173  0.2557 -0.1786  0.4991
  810MPD2    C311978   4.705   3.326  11.267 -0.6526 -0.1040 -0.0825
  810MPD2    C411979   4.733   3.283  11.393 -0.2671 -0.4043  0.1208
  810MPD2    C511980   4.728   3.156  11.430 -0.0864  0.0532 -1.0889
  810MPD2     H11981   4.686   3.251  11.069 -2.9602  1.4813  1.3102
  810MPD2    H111982   0.016   3.358  11.469 -1.0939 -1.0866  1.0118
  810MPD2    H211983   4.705   2.955  11.375 -0.8767  0.5532  1.5177
  810MPD2    H311984   4.726   3.134  11.536  3.4398  0.7449 -0.8894
  810MPD2     N11985   4.693   3.463  11.228  0.2088 -0.7552  0.1372
  810MPD2    H511986   4.703   3.536  11.298 -2.2227 -0.0781 -0.2422
  810MPD2    N111987   4.686   2.981  11.129 -0.1776  0.5844 -0.3511
  810MPD2    H711988   4.677   2.895  11.181  0.1723  1.4891  1.2021
  811MPD2     C11989   4.306   2.937  10.390  0.3985 -0.0603  0.2891
  811MPD2    C111990   4.424   2.957  10.449 -0.4057  0.4953  0.1744
  811MPD2    C211991   4.482   3.079  10.433 -0.1907 -0.0418 -0.0794
  811MPD2    C311992   4.422   3.171  10.350 -0.2956 -0.3975 -0.4122
  811MPD2    C411993   4.304   3.145  10.284  0.1933 -0.5519 -0.2983
  811MPD2    C511994   4.251   3.022  10.302  0.2211 -0.4743 -0.2141
  811MPD2     H11995   4.571   3.098  10.491 -0.3934  0.3531  0.1061
  811MPD2    H111996   4.251   3.216  10.222 -0.8511 -0.1212  1.0950
  811MPD2    H211997   4.253   2.845  10.411 -2.0762  0.7896 -2.2369
  811MPD2    H311998   4.153   3.002  10.259 -0.7621  1.4198  1.1148
  811MPD2     N11999   4.479   3.302  10.344 -0.3803  0.0863  0.6775
  811MPD2    H512000   4.547   3.321  10.417  3.6036 -2.0182 -2.4978
  811MPD2    N112001   4.465   2.864  10.548  0.1785 -0.2248 -0.4993
  811MPD2    H712002   4.402   2.787  10.566 -0.5683  0.6311  0.5202
  812MPD2     C12003   4.316   3.208  12.215  0.1877 -0.1004 -0.6069
  812MPD2    C112004   4.285   3.290  12.316  0.2494  0.2891  0.2134
  812MPD2    C212005   4.236   3.236  12.436  0.3415  0.7838 -0.4235
  812MPD2    C312006   4.208   3.098  12.451 -0.3145 -0.4609  0.1963
  812MPD2    C412007   4.226   3.021  12.339 -0.8304 -0.4858 -0.1913
  812MPD2    C512008   4.284   3.078  12.227 -0.2366  0.1868 -0.8976
  812MPD2     H12009   4.209   3.306  12.514  1.0473  0.8734 -0.2627
  812MPD2    H112010   4.211   2.914  12.339  0.1073 -0.6222  1.1268
  812MPD2    H212011   4.366   3.243  12.125 -1.1715 -0.4281 -1.4768
  812MPD2    H312012   4.301   3.005  12.148  0.4021  0.1692 -0.7450
  812MPD2     N12013   4.155   3.055  12.577  0.3213 -0.3757  0.1451
  812MPD2    H512014   4.149   3.123  12.652 -0.0613  0.7149 -0.8873
  812MPD2    N112015   4.320   3.430  12.299 -0.0579  0.7950 -0.4501
  812MPD2    H712016   4.335   3.461  12.203  1.7949  3.1146  0.5789
  813MPD2     C12017   2.937   0.298  13.221 -0.0522 -0.0202  0.5655
  813MPD2    C112018   2.943   0.414  13.289 -0.3848 -0.3191  0.8065
  813MPD2    C212019   2.837   0.448  13.376  0.5382  0.8329  0.2308
  813MPD2    C312020   2.730   0.363  13.397  0.4432 -0.3364 -0.0502
  813MPD2    C412021   2.725   0.247  13.327 -0.5355  0.0278  0.9116
  813MPD2    C512022   2.828   0.217  13.244  0.2916 -0.2172  0.0963
  813MPD2     H12023   2.840   0.545  13.425 -0.8445  1.9335 -1.8781
  813MPD2    H112024   2.640   0.180  13.328  0.4012 -1.1522  2.0493
  813MPD2    H212025   3.016   0.255  13.161 -1.8950 -1.1497 -1.0654
  813MPD2    H312026   2.819   0.125  13.187  0.2602 -1.4364  2.0750
  813MPD2     N12027   2.643   0.388  13.503  0.1752  0.0807 -0.2394
  813MPD2    H512028   2.639   0.484  13.536  0.2807  0.1587 -0.4498
  813MPD2    N112029   3.058   0.491  13.290 -0.0013 -0.2150 -0.0031
  813MPD2    H712030   3.050   0.577  13.344 -0.4832 -0.2038 -0.0933
  814MPD2     C12031   3.697   1.821  12.882 -0.0872 -0.4257  0.2030
  814MPD2    C112032   3.664   1.821  12.749  0.1739  0.6472  0.0562
  814MPD2    C212033   3.713   1.931  12.672 -0.0978 -0.7275 -0.2240
  814MPD2    C312034   3.798   2.025  12.721 -0.2535 -0.1058  0.1471
  814MPD2    C412035   3.823   2.027  12.853  1.0289  0.2169 -0.3911
  814MPD2    C512036   3.782   1.920  12.928  0.2942  0.1119 -0.0340
  814MPD2     H12037   3.684   1.931  12.568 -2.2709 -0.5148  0.3855
  814MPD2    H112038   3.887   2.103  12.897  0.7114  0.1483  0.1914
  814MPD2    H212039   3.673   1.737  12.946  2.6484 -3.6774 -3.0235
  814MPD2    H312040   3.808   1.917  13.033  1.9194  1.6979 -0.3891
  814MPD2     N12041   3.853   2.138  12.648 -0.5660  0.3086 -0.3151
  814MPD2    H512042   3.922   2.195  12.697 -0.3278  0.3908 -0.7424
  814MPD2    N112043   3.595   1.720  12.680  0.9369  0.1499 -0.0236
  814MPD2    H712044   3.590   1.728  12.579  1.2425 -1.5669 -0.1666
  815MPD2     C12045   4.421   4.735  12.560 -0.3588 -0.5293 -0.5979
  815MPD2    C112046   4.365   0.001  12.436  0.4040 -0.1539  0.0109
  815MPD2    C212047   4.223   4.729  12.429  0.3045  0.4141 -0.1218
  815MPD2    C312048   4.136   4.724  12.539 -0.1945  0.7899 -0.0023
  815MPD2    C412049   4.200   4.713  12.664  1.0599  0.0729 -0.0896
  815MPD2    C512050   4.337   4.720  12.665 -0.1991 -0.1161  0.4720
  815MPD2     H12051   4.177   4.720  12.331  0.7817 -0.0639 -0.3059
  815MPD2    H112052   4.147   4.708  12.759  3.9932 -0.4700  1.5145
  815MPD2    H212053   4.527   4.733  12.579 -0.4931 -0.3232  0.1770
  815MPD2    H312054   4.380   4.726  12.765 -0.9268  0.2143  0.7732
  815MPD2     N12055   3.995   4.711  12.525 -0.1561  0.4901  0.0185
  815MPD2    H512056   3.959   4.699  12.431 -1.3582 -1.8877  0.7826
  815MPD2    N112057   4.451   0.009  12.324  0.4491  0.2634 -0.2777
  815MPD2    H712058   4.550   0.001  12.343  0.2475  1.4336  1.3417
  816MPD2     C12059   3.252   3.484  17.566 -0.7714  0.3334 -0.2628
  816MPD2    C112060   3.289   3.578  17.478 -0.1214 -0.7294 -0.5703
  816MPD2    C212061   3.409   3.562  17.405  0.1118 -0.4214  0.0730
  816MPD2    C312062   3.489   3.456  17.433 -0.4690  0.8879  0.4748
  816MPD2    C412063   3.442   3.358  17.512 -0.3279 -0.1855 -0.0007
  816MPD2    C512064   3.324   3.367  17.573  0.3900 -0.2106  0.6933
  816MPD2     H12065   3.448   3.640  17.340  0.6163 -1.9500 -1.4581
  816MPD2    H112066   3.505   3.272  17.531  2.3595  2.1399  1.5900
  816MPD2    H212067   3.160   3.491  17.623 -0.1534  0.3634  0.7183
  816MPD2    H312068   3.299   3.278  17.629  0.7001 -0.4358  0.4736
  816MPD2     N12069   3.611   3.461  17.364  0.2134  0.0958  0.1284
  816MPD2    H512070   3.624   3.529  17.290 -0.6253  0.0932 -0.0151
  816MPD2    N112071   3.216   3.693  17.452  0.1973  0.2552 -0.2174
  816MPD2    H712072   3.143   3.712  17.520 -1.0365  0.7835 -1.6920
  817MPD2     C12073   3.982   1.043  10.283 -1.0754 -0.0351 -0.2356
  817MPD2    C112074   3.949   0.991  10.158  0.7073  0.2520  0.1510
  817MPD2    C212075   3.912   1.079  10.058 -0.4872 -0.0643 -1.3183
  817MPD2    C312076   3.893   1.217  10.090  0.1717  0.1587 -0.0659
  817MPD2    C412077   3.921   1.261  10.211  0.2763  0.3611 -0.4528
  817MPD2    C512078   3.965   1.172  10.307  0.1559  0.5719 -0.2511
  817MPD2     H12079   3.897   1.051   9.955 -0.1556  1.3028 -1.7231
  817MPD2    H112080   3.904   1.363  10.244 -0.1532  0.5256 -1.1609
  817MPD2    H212081   4.028   0.982  10.361  0.3374  0.7421 -0.4601
  817MPD2    H312082   3.991   1.200  10.408 -0.4037  3.1897 -0.8449
  817MPD2     N12083   3.853   1.308   9.989  0.4257  0.3615 -0.7975
  817MPD2    H512084   3.836   1.266   9.898  2.6704  1.7898 -1.8662
  817MPD2    N112085   3.966   0.854  10.118 -0.1284  0.2453 -0.5997
  817MPD2    H712086   3.927   0.829  10.028 -0.0793  0.5354 -0.7018
  818MPD2     C12087   2.675   1.041  10.383 -0.4172 -0.1479 -1.0668
  818MPD2    C112088   2.555   1.000  10.441  0.3019 -0.3730 -0.6138
  818MPD2    C212089   2.533   0.872  10.491 -0.3672  0.0732 -0.5275
  818MPD2    C312090   2.640   0.785  10.486  0.1003  0.1931 -0.0056
  818MPD2    C412091   2.765   0.825  10.433 -0.1926 -0.2129  0.7446
  818MPD2    C512092   2.778   0.949  10.377  0.6127 -0.9149  0.1607
  818MPD2     H12093   2.437   0.843  10.532 -1.0658  0.3196 -2.0087
  818MPD2    H112094   2.843   0.750  10.435 -0.8977 -1.0012 -1.0373
  818MPD2    H212095   2.690   1.138  10.337  0.0182  0.3929  0.2110
  818MPD2    H312096   2.876   0.978  10.342 -0.6243  0.7688 -1.8983
  818MPD2     N12097   2.629   0.647  10.531  0.3629  0.5421 -0.4573
  818MPD2    H512098   2.715   0.595  10.542  0.9230  2.1097  2.6180
  818MPD2    N112099   2.454   1.094  10.461  0.0553  0.1481 -0.2399
  818MPD2    H712100   2.375   1.050  10.507  0.8712 -0.6739  0.3847
  819MPD2     C12101   0.310   2.460  15.382 -0.6567 -0.1601 -0.6810
  819MPD2    C112102   0.255   2.344  15.437 -0.2331  0.0288  0.3707
  819MPD2    C212103   0.315   2.289  15.545 -0.3942 -0.3931  0.1819
  819MPD2    C312104   0.430   2.342  15.597  0.2153 -0.3383 -0.8589
  819MPD2    C412105   0.485   2.462  15.545 -0.1287 -0.1521 -0.2448
  819MPD2    C512106   0.425   2.512  15.431  0.1370  0.7930 -0.0440
  819MPD2     H12107   0.275   2.198  15.588  0.5876 -0.0651  1.8232
  819MPD2    H112108   0.566   2.512  15.597 -1.7823  0.3808  1.8559
  819MPD2    H212109   0.263   2.516  15.302 -1.0823 -1.2627 -1.1916
  819MPD2    H312110   0.454   2.611  15.396 -1.3980  2.3233  3.0452
  819MPD2     N12111   0.487   2.268  15.700 -1.0190 -0.9191 -0.8868
  819MPD2    H512112   0.444   2.186  15.740 -0.7258  0.1400  1.5959
  819MPD2    N112113   0.128   2.304  15.394  0.1719 -0.6390 -0.0359
  819MPD2    H712114   0.086   2.354  15.316  0.1326  1.0712  1.0795
  820MPD2     C12115   4.559   2.529  14.647  0.1491  0.2652 -0.2812
  820MPD2    C112116   4.494   2.575  14.762  0.1265  0.0372  0.1805
  820MPD2    C212117   4.490   2.498  14.878 -0.0792 -0.4778 -0.2846
  820MPD2    C312118   4.545   2.368  14.870 -0.2103 -0.7734  0.1243
  820MPD2    C412119   4.607   2.318  14.762  0.5703 -0.5846  0.1483
  820MPD2    C512120   4.610   2.398  14.650  1.4367 -0.2875 -0.5276
  820MPD2     H12121   4.451   2.540  14.970 -3.4446 -3.7458 -0.2457
  820MPD2    H112122   4.646   2.217  14.756  0.0722 -0.7145 -0.8906
  820MPD2    H212123   4.564   2.583  14.553  0.6185 -0.0417 -0.4369
  820MPD2    H312124   4.653   2.357  14.559  2.0511  1.8782 -1.2098
  820MPD2     N12125   4.549   2.288  14.989 -0.6472 -0.5076  0.2190
  820MPD2    H512126   4.623   2.221  15.004  0.4247  0.5575 -0.2502
  820MPD2    N112127   4.448   2.711  14.760 -0.3623 -0.2264 -0.1276
  820MPD2    H712128   4.488   2.766  14.685 -0.9959  0.6316  0.1621
  821MPD2     C12129   0.772   3.585  13.230  0.0664  0.0692  0.3561
  821MPD2    C112130   0.811   3.486  13.315 -0.8309 -0.6533  0.2818
  821MPD2    C212131   0.948   3.458  13.345  0.7334 -0.1804  0.1015
  821MPD2    C312132   1.041   3.538  13.292 -0.4860  0.0476  0.2805
  821MPD2    C412133   1.006   3.634  13.198 -0.5482  0.1093 -0.0323
  821MPD2    C512134   0.870   3.662  13.170 -0.8076  0.0420  0.1580
  821MPD2     H12135   0.971   3.379  13.415 -0.6735 -1.0986 -0.4527
  821MPD2    H112136   1.075   3.688  13.136 -1.8070 -0.3841 -1.8753
  821MPD2    H212137   0.671   3.598  13.195  0.7317 -0.4075 -1.7605
  821MPD2    H312138   0.832   3.743  13.109  1.3623  1.5658  0.8192
  821MPD2     N12139   1.180   3.525  13.314  0.1083 -0.1436  0.4354
  821MPD2    H512140   1.235   3.599  13.272  1.5908 -0.6200  1.5431
  821MPD2    N112141   0.714   3.409  13.381  0.3415  0.1676 -0.4954
  821MPD2    H712142   0.753   3.337  13.442  0.0567  0.4305  0.0012
  822MPD2     C12143   1.242   3.510  15.875  0.3262 -0.0249 -0.0505
  822MPD2    C112144   1.237   3.513  16.012  0.1576 -0.2690  0.5504
  822MPD2    C212145   1.185   3.624  16.076  0.3484  0.0470 -0.4476
  822MPD2    C312146   1.134   3.732  15.998  0.0085  0.6674 -0.2361
  822MPD2    C412147   1.136   3.724  15.863 -0.5624 -0.4669  0.5344
  822MPD2    C512148   1.180   3.611  15.804 -0.3920 -0.6547 -0.5874
  822MPD2     H12149   1.179   3.638  16.183  2.2831 -4.4812  0.2531
  822MPD2    H112150   1.093   3.794  15.793  0.7799 -0.6733 -0.4873
  822MPD2    H212151   1.284   3.428  15.817 -1.1376  0.0772 -1.2452
  822MPD2    H312152   1.176   3.597  15.697  0.6963  0.5541 -0.7868
  822MPD2     N12153   1.074   3.840  16.069  0.4363 -0.6619 -0.4385
  822MPD2    H512154   1.066   3.835  16.170 -1.9608 -0.8652 -0.6492
  822MPD2    N112155   1.293   3.412  16.090 -0.4489  0.1431 -0.6831
  822MPD2    H712156   1.289   3.432  16.190 -0.5395 -0.1628 -0.6261
  823MPD2     C12157   0.780   4.287  16.748  0.3115 -0.0619  0.3977
  823MPD2    C112158   0.818   4.177  16.679 -0.3751 -0.2742 -0.0308
  823MPD2    C212159   0.840   4.057  16.746 -0.6037 -0.3580 -0.4694
  823MPD2    C312160   0.869   4.063  16.881  1.0256 -0.4187 -0.0206
  823MPD2    C412161   0.848   4.181  16.955 -0.4121 -0.3330  0.4165
  823MPD2    C512162   0.804   4.286  16.884  0.6561 -0.6461 -0.2538
  823MPD2     H12163   0.877   3.973  16.689  1.6689  1.2340 -1.3321
  823MPD2    H112164   0.871   4.196  17.060  0.5636 -0.7310  0.2510
  823MPD2    H212165   0.755   4.381  16.700 -2.1466 -1.9759 -2.0675
  823MPD2    H312166   0.793   4.375  16.945 -0.7406  0.3609 -1.9890
  823MPD2     N12167   0.923   3.959  16.962 -0.0630  0.1300  0.2756
  823MPD2    H512168   0.933   3.975  17.061  1.2930  0.0317  0.1429
  823MPD2    N112169   0.839   4.187  16.542 -0.0994  0.4422  0.5473
  823MPD2    H712170   0.848   4.285  16.515 -0.7762  0.5429  0.6976
  824MPD2     C12171   1.503   2.583  16.087  0.3929  0.0647  0.2379
  824MPD2    C112172   1.575   2.689  16.035 -0.1151 -0.4570 -0.1846
  824MPD2    C212173   1.687   2.665  15.956  0.3047 -0.5882 -0.1930
  824MPD2    C312174   1.728   2.533  15.928  0.0045 -0.0868  0.3029
  824MPD2    C412175   1.661   2.431  15.990  0.0009 -0.7936 -0.1880
  824MPD2    C512176   1.554   2.459  16.066  0.2703  1.0803  0.1710
  824MPD2     H12177   1.734   2.749  15.906 -2.7391  2.2207  1.6368
  824MPD2    H112178   1.682   2.326  15.976  1.6470 -0.2325 -2.0722
  824MPD2    H212179   1.418   2.587  16.153 -0.4058 -1.1740 -0.7216
  824MPD2    H312180   1.496   2.376  16.105  1.9686 -0.0686  0.2524
  824MPD2     N12181   1.842   2.516  15.846 -0.0511  0.0275 -0.4395
  824MPD2    H512182   1.857   2.593  15.782  0.0129 -0.2800 -0.7960
  824MPD2    N112183   1.546   2.823  16.073 -0.5854  0.0330  0.2511
  824MPD2    H712184   1.594   2.899  16.028 -2.7247  0.9830 -0.4472
  825MPD2     C12185   2.587   2.782  15.563  0.2256  0.1918  0.3103
  825MPD2    C112186   2.479   2.788  15.641 -0.1117  0.1361 -0.1294
  825MPD2    C212187   2.451   2.913  15.704 -0.2403  0.5083  0.7627
  825MPD2    C312188   2.530   3.023  15.688 -0.6770  0.3931  0.5130
  825MPD2    C412189   2.641   3.013  15.612  0.1538 -0.0445  0.7901
  825MPD2    C512190   2.662   2.891  15.543  1.0017 -0.5706 -0.0544
  825MPD2     H12191   2.360   2.922  15.762 -0.6938 -2.6613  0.5784
  825MPD2    H112192   2.714   3.092  15.596 -0.6708  0.6084  0.2452
  825MPD2    H212193   2.615   2.688  15.515 -2.3302  0.2689 -1.3555
  825MPD2    H312194   2.749   2.887  15.479  0.8299 -0.8556 -0.2720
  825MPD2     N12195   2.502   3.152  15.746 -0.3851 -0.5184  0.6438
  825MPD2    H512196   2.554   3.232  15.712 -0.3280 -0.8056  0.0614
  825MPD2    N112197   2.398   2.675  15.650 -0.2683  0.5581  0.0847
  825MPD2    H712198   2.443   2.591  15.616 -0.4533 -0.1673  1.6584
  826MPD2     C12199   2.556   3.075  14.391 -0.0766 -0.1688 -0.1039
  826MPD2    C112200   2.526   3.114  14.263  0.8551  0.0945  0.0177
  826MPD2    C212201   2.398   3.146  14.213 -0.2972 -0.0637 -0.0606
  826MPD2    C312202   2.292   3.136  14.305 -0.2186 -0.9556  0.3092
  826MPD2    C412203   2.318   3.105  14.435 -0.8191  0.2185  1.1523
  826MPD2    C512204   2.445   3.072  14.476 -0.5753 -0.1866  0.1848
  826MPD2     H12205   2.385   3.168  14.108 -0.3137 -0.3091 -0.1113
  826MPD2    H112206   2.237   3.092  14.507 -1.7920 -0.9553 -0.1526
  826MPD2    H212207   2.654   3.047  14.430  0.8210  0.3679 -1.9720
  826MPD2    H312208   2.447   3.058  14.583  0.3274 -0.9123  0.0707
  826MPD2     N12209   2.156   3.146  14.265  0.7355 -0.2378 -0.2136
  826MPD2    H512210   2.076   3.116  14.321 -0.3514  1.7750 -0.6674
  826MPD2    N112211   2.635   3.111  14.171  0.2425 -0.0001  0.0762
  826MPD2    H712212   2.730   3.110  14.207  0.3449  0.6704 -0.1811
  827MPD2     C12213   2.876   4.656  10.566 -0.2766  0.1270  0.1832
  827MPD2    C112214   2.811   4.557  10.637  0.4872  0.5653 -0.4216
  827MPD2    C212215   2.692   4.492  10.590  0.5880  0.2502  0.0632
  827MPD2    C312216   2.645   4.539  10.464 -0.2707 -0.0097 -0.1408
  827MPD2    C412217   2.716   4.635  10.392 -0.2476  0.4645  0.3048
  827MPD2    C512218   2.832   4.688  10.439  0.7301  0.3243 -0.9058
  827MPD2     H12219   2.642   4.419  10.652  1.4920 -0.1387  0.3392
  827MPD2    H112220   2.675   4.670  10.298  1.2791  0.8833 -0.2007
  827MPD2    H212221   2.964   4.710  10.601  0.1026  0.0250 -0.6164
  827MPD2    H312222   2.887   0.017  10.373  0.6352  0.1742 -1.1331
  827MPD2     N12223   2.532   4.470  10.410 -0.0610 -0.0986  0.0991
  827MPD2    H512224   2.502   4.388  10.462 -0.4944  0.8864  1.4101
  827MPD2    N112225   2.884   4.524  10.757 -0.4099  0.4953 -0.4970
  827MPD2    H712226   2.973   4.567  10.778 -0.6586 -0.2160  1.9643
  828MPD2     C12227   1.762   4.243  12.485  0.2101  0.3041  0.1058
  828MPD2    C112228   1.662   4.207  12.402  0.2857 -0.3173  0.3367
  828MPD2    C212229   1.694   4.132  12.291  0.1463 -0.3470 -0.1809
  828MPD2    C312230   1.826   4.103  12.264  0.1303  0.3264  0.4578
  828MPD2    C412231   1.926   4.145  12.342  0.3482  0.5142  0.0180
  828MPD2    C512232   1.890   4.222  12.450 -0.0815 -0.2276 -0.0833
  828MPD2     H12233   1.611   4.088  12.238 -0.2879 -0.4491  0.5993
  828MPD2    H112234   2.024   4.117  12.305  0.2647  0.1468  0.0738
  828MPD2    H212235   1.751   4.299  12.577 -2.3553  3.1068 -1.9317
  828MPD2    H312236   1.973   4.249  12.515 -0.0260  3.5612 -1.7441
  828MPD2     N12237   1.873   4.006  12.162 -0.3692 -0.2751  0.1170
  828MPD2    H512238   1.970   3.977  12.161 -0.9376 -2.2113  0.3594
  828MPD2    N112239   1.532   4.251  12.425  0.3673 -0.8298 -0.3324
  828MPD2    H712240   1.465   4.245  12.349 -2.8382  2.6130  2.2290
  829MPD2     C12241   1.445   0.218  12.042  0.1978 -0.3866 -0.4109
  829MPD2    C112242   1.309   0.200  12.063 -0.2124  0.2098  0.6670
  829MPD2    C212243   1.270   0.131  12.176  0.4194  0.3248 -0.0793
  829MPD2    C312244   1.368   0.073  12.257  1.3767 -0.6549 -0.1172
  829MPD2    C412245   1.499   0.103  12.239  0.1758  0.0093 -0.2394
  829MPD2    C512246   1.539   0.178  12.134 -0.1611 -0.4886  0.6113
  829MPD2     H12247   1.163   0.128  12.191  0.2394  0.1682 -1.3914
  829MPD2    H112248   1.577   0.068  12.306  0.5210  1.7827  0.2719
  829MPD2    H212249   1.475   0.278  11.956 -2.0763 -0.7941 -1.4952
  829MPD2    H312250   1.642   0.208  12.119 -0.5521 -0.6036 -2.1299
  829MPD2     N12251   1.335   4.713  12.357  0.3158 -0.5919  0.5254
  829MPD2    H512252   1.411   4.673  12.411  0.3929  0.5918  1.2933
  829MPD2    N112253   1.218   0.256  11.971 -0.0638  0.1208  0.3115
  829MPD2    H712254   1.257   0.311  11.895 -0.3969  0.7475  0.5929
  830MPD2     C12255   0.686   1.515  15.898 -0.0899  0.6754 -0.2682
  830MPD2    C112256   0.714   1.611  15.806 -0.2803  1.0147 -0.2762
  830MPD2    C212257   0.753   1.583  15.677  0.0494 -0.1230  0.3485
  830MPD2    C312258   0.772   1.450  15.647 -0.1080  0.2604  0.2001
  830MPD2    C412259   0.736   1.354  15.728  0.0120 -0.0992 -1.0172
  830MPD2    C512260   0.699   1.387  15.853  0.0549  0.0448 -0.0024
  830MPD2     H12261   0.791   1.663  15.614  1.6564 -1.7984 -0.7949
  830MPD2    H112262   0.753   1.251  15.699 -0.0348 -0.7701  1.3000
  830MPD2    H212263   0.656   1.538  16.000  1.1030  2.3066 -0.2795
  830MPD2    H312264   0.690   1.308  15.926  1.5621  0.2002  0.3403
  830MPD2     N12265   0.842   1.406  15.533 -0.1103  0.3727 -0.3613
  830MPD2    H512266   0.815   1.313  15.502 -2.4819  0.7302  0.6395
  830MPD2    N112267   0.712   1.743  15.861 -0.0732  0.2428  0.2746
  830MPD2    H712268   0.695   1.763  15.959  0.7741  2.1584  0.0352
  831MPD2     C12269   1.375   3.934  16.510  0.6844 -0.1047  0.8388
  831MPD2    C112270   1.345   3.832  16.428 -0.2134 -0.4325 -0.1963
  831MPD2    C212271   1.217   3.772  16.438  0.1463 -0.6625 -0.3405
  831MPD2    C312272   1.125   3.808  16.528  0.3145 -0.0654  0.6274
  831MPD2    C412273   1.164   3.908  16.615  0.1666  0.2187  0.7422
  831MPD2    C512274   1.289   3.965  16.609  0.2825 -0.7696 -0.1445
  831MPD2     H12275   1.181   3.696  16.369 -1.3530 -0.7322  0.5122
  831MPD2    H112276   1.096   3.936  16.694 -0.9191  2.8307 -1.1349
  831MPD2    H212277   1.473   3.981  16.519 -0.5959  2.2915  2.2758
  831MPD2    H312278   1.322   4.036  16.684 -0.3135  0.2545 -0.8513
  831MPD2     N12279   0.995   3.753  16.528 -0.6763 -0.8504  0.1881
  831MPD2    H512280   0.936   3.775  16.607 -0.9028 -1.2845  0.1422
  831MPD2    N112281   1.447   3.791  16.335 -0.4162 -0.6223 -0.1990
  831MPD2    H712282   1.528   3.851  16.322 -0.8994  0.1644  0.4194
  832MPD2     C12283   4.514   4.330  17.238 -0.4509  0.8205  0.4553
  832MPD2    C112284   4.471   4.459  17.201 -1.5641  0.2887 -0.3903
  832MPD2    C212285   4.379   4.477  17.100 -0.3335  0.3371  0.0789
  832MPD2    C312286   4.341   4.360  17.029  0.3545 -0.1479 -0.0412
  832MPD2    C412287   4.389   4.235  17.057  0.6937 -0.7496 -0.1645
  832MPD2    C512288   4.483   4.221  17.156  0.2874  0.0526  0.1044
  832MPD2     H12289   4.343   4.579  17.091 -0.9970  0.0311 -0.7647
  832MPD2    H112290   4.362   4.145  17.004  1.8120 -0.7560 -0.7034
  832MPD2    H212291   4.583   4.316  17.321 -0.1186  1.1254  0.2327
  832MPD2    H312292   4.504   4.119  17.188  0.5448  0.3276  0.8076
  832MPD2     N12293   4.240   4.364  16.925 -0.0912 -0.2344  0.1020
  832MPD2    H512294   4.204   4.274  16.896  0.3281 -0.0876 -0.8602
  832MPD2    N112295   4.530   4.567  17.272 -0.1817 -0.0524  0.7701
  832MPD2    H712296   4.586   4.535  17.350  0.8927  1.2215  0.5331
  833MPD2     C12297   2.068   1.941  13.086  0.5057 -1.0507  0.4696
  833MPD2    C112298   2.042   2.038  12.987  0.7513 -0.0226 -0.5177
  833MPD2    C212299   2.102   2.033  12.865  0.8380  0.3108  0.0233
  833MPD2    C312300   2.186   1.925  12.844 -0.1234 -0.0314  0.5126
  833MPD2    C412301   2.197   1.819  12.929 -0.0862  0.6623  0.2568
  833MPD2    C512302   2.145   1.836  13.056  0.5922  0.1632  1.0524
  833MPD2     H12303   2.084   2.109  12.790  2.5872 -2.0689 -2.7850
  833MPD2    H112304   2.255   1.730  12.910  1.6621  1.7189  0.6505
  833MPD2    H212305   2.023   1.949  13.185 -1.9244  0.0629 -0.7255
  833MPD2    H312306   2.159   1.747  13.116 -0.4899 -0.1879  0.7749
  833MPD2     N12307   2.247   1.902  12.718 -0.5950  0.0047 -0.1933
  833MPD2    H512308   2.283   1.807  12.716 -2.2690 -0.6300 -0.6588
  833MPD2    N112309   1.947   2.148  12.999 -0.3851  0.2677 -0.4885
  833MPD2    H712310   1.935   2.214  12.923  1.6284  2.4777  1.1207
  834MPD2     C12311   1.866   1.237  12.214  0.1756  0.5982  0.4896
  834MPD2    C112312   1.938   1.300  12.118 -0.0594 -0.0545  0.5005
  834MPD2    C212313   1.991   1.424  12.142 -0.6249  0.3897  0.0071
  834MPD2    C312314   1.991   1.461  12.273  0.4134  0.5971  0.4403
  834MPD2    C412315   1.920   1.400  12.375 -0.5105 -0.6548 -0.0238
  834MPD2    C512316   1.851   1.284  12.340 -0.2124  0.2343 -0.4037
  834MPD2     H12317   2.047   1.474  12.064  0.5744  1.0029  1.2535
  834MPD2    H112318   1.918   1.433  12.479 -1.0936  1.5027 -0.7248
  834MPD2    H212319   1.821   1.139  12.201  0.0057  1.0156 -2.0352
  834MPD2    H312320   1.795   1.228  12.415  0.1047 -1.3740 -1.3725
  834MPD2     N12321   2.044   1.587  12.286  0.6450  0.1107 -0.5985
  834MPD2    H512322   2.111   1.618  12.216  1.9799  1.3747  1.2261
  834MPD2    N112323   1.957   1.235  11.995  0.0612 -0.6331  0.0902
  834MPD2    H712324   1.917   1.142  11.995 -2.6045  0.4905  1.6055
  835MPD2     C12325   2.238   3.732  11.767 -0.1694  0.1614  0.1255
  835MPD2    C112326   2.156   3.843  11.797  0.5749  0.3886  0.1746
  835MPD2    C212327   2.204   3.932  11.890 -0.1442 -0.3729  0.6431
  835MPD2    C312328   2.327   3.914  11.954 -0.1057  0.6532 -0.1419
  835MPD2    C412329   2.398   3.796  11.929 -0.2450 -0.3612 -0.2018
  835MPD2    C512330   2.347   3.707  11.838 -0.0005  0.3440  0.4657
  835MPD2     H12331   2.152   4.026  11.901 -1.4020 -1.1403  1.2612
  835MPD2    H112332   2.486   3.768  11.985  1.2129 -0.0195 -2.3522
  835MPD2    H212333   2.201   3.654  11.702 -1.9886 -0.1473  1.5310
  835MPD2    H312334   2.408   3.618  11.825 -0.3419  0.0153  1.1240
  835MPD2     N12335   2.381   4.008  12.044  0.3372 -0.5245 -0.0998
  835MPD2    H512336   2.470   3.979  12.084  0.8730 -1.5726 -2.0568
  835MPD2    N112337   2.039   3.876  11.732 -0.0110  0.7820  0.3602
  835MPD2    H712338   2.010   3.972  11.749 -2.6392 -0.3279  2.1337
  836MPD2     C12339   2.453   4.500  12.808 -0.2344 -0.0843 -0.7642
  836MPD2    C112340   2.361   4.438  12.725 -0.1529 -0.3848  0.5980
  836MPD2    C212341   2.236   4.418  12.772  0.0434 -0.5443 -0.7689
  836MPD2    C312342   2.204   4.453  12.904  0.4296 -0.0801  0.7714
  836MPD2    C412343   2.302   4.491  12.990 -0.1857  1.0730  0.0287
  836MPD2    C512344   2.418   4.527  12.933  0.1050  0.4459 -0.4527
  836MPD2     H12345   2.171   4.366  12.703 -0.1560  1.4602 -2.0944
  836MPD2    H112346   2.290   4.519  13.094  1.3432 -0.4144  0.5995
  836MPD2    H212347   2.551   4.531  12.776  0.5556 -0.1238  1.6526
  836MPD2    H312348   2.495   4.563  13.000  0.4124 -1.8181  0.4167
  836MPD2     N12349   2.073   4.455  12.965  0.1366  1.0421 -0.4658
  836MPD2    H512350   2.064   4.492  13.058 -1.2000  2.4490 -1.1606
  836MPD2    N112351   2.406   4.416  12.594 -0.4455  0.5427 -0.1047
  836MPD2    H712352   2.500   4.443  12.567  0.5724 -0.7965  2.1346
  837MPD2     C12353   0.329   3.788  10.525 -0.1901 -0.4698  1.3536
  837MPD2    C112354   0.204   3.849  10.524  0.8696  0.0671 -0.3658
  837MPD2    C212355   0.193   3.986  10.531 -0.0736 -0.1796 -0.0261
  837MPD2    C312356   0.304   4.066  10.554  0.5743  0.0686 -0.1067
  837MPD2    C412357   0.429   4.006  10.580 -0.8125  0.1584  0.0851
  837MPD2    C512358   0.433   3.865  10.568 -0.8560 -0.0501  0.3173
  837MPD2     H12359   0.093   4.028  10.523 -1.2862 -3.2463 -0.9270
  837MPD2    H112360   0.514   4.062  10.617  0.1258  0.4618 -2.5897
  837MPD2    H212361   0.339   3.683  10.497  0.2336  0.6990 -2.7896
  837MPD2    H312362   0.529   3.816  10.563 -0.3756  0.7580  1.4273
  837MPD2     N12363   0.282   4.202  10.557 -0.0205 -0.4819  0.6084
  837MPD2    H512364   0.186   4.232  10.545  0.7584  0.9770 -1.9243
  837MPD2    N112365   0.089   3.785  10.474 -0.4324 -0.1163 -0.9668
  837MPD2    H712366   0.004   3.841  10.478 -1.7829 -2.2392 -0.1610
  838MPD2     C12367   3.299   1.700  11.312 -0.6713 -0.4565  0.0592
  838MPD2    C112368   3.323   1.826  11.363 -1.0022  0.5285  0.2850
  838MPD2    C212369   3.235   1.856  11.465  0.6159 -0.0903 -0.5963
  838MPD2    C312370   3.145   1.762  11.513  0.4166 -0.6198  0.4679
  838MPD2    C412371   3.132   1.639  11.460 -0.0068 -0.3820  0.4239
  838MPD2    C512372   3.216   1.604  11.364  0.2733 -0.4057 -0.3658
  838MPD2     H12373   3.255   1.950  11.516  0.1159  0.5692 -1.5985
  838MPD2    H112374   3.065   1.562  11.497 -0.1065 -0.2017  0.6167
  838MPD2    H212375   3.364   1.660  11.235 -1.8572  0.4399 -1.4149
  838MPD2    H312376   3.225   1.504  11.323  1.6622  0.2587 -1.6781
  838MPD2     N12377   3.062   1.806  11.618  0.2134 -0.0111 -0.2601
  838MPD2    H512378   3.062   1.903  11.648  0.2185 -0.1435  0.1699
  838MPD2    N112379   3.424   1.919  11.330 -0.5505 -0.4094 -0.2692
  838MPD2    H712380   3.433   2.006  11.381  2.2220 -0.7129 -0.2496
  839MPD2     C12381   3.467   2.364  11.961 -0.0710 -0.0835 -0.0984
  839MPD2    C112382   3.451   2.249  11.884  0.7705  0.8721 -0.6042
  839MPD2    C212383   3.483   2.252  11.752 -0.5122  0.6207  0.1834
  839MPD2    C312384   3.528   2.359  11.687  0.8822 -0.0474  0.1665
  839MPD2    C412385   3.536   2.479  11.762 -0.3180 -0.3548  0.1275
  839MPD2    C512386   3.498   2.481  11.891  0.4444  0.1676 -0.4967
  839MPD2     H12387   3.481   2.153  11.706 -1.4108  1.1717 -0.9587
  839MPD2    H112388   3.562   2.570  11.708 -2.7061  0.3637  0.1827
  839MPD2    H212389   3.454   2.375  12.068 -3.3266 -0.6967 -0.4351
  839MPD2    H312390   3.496   2.576  11.942 -1.8186  0.9103 -1.9653
  839MPD2     N12391   3.559   2.347  11.552  0.0794 -0.2801 -0.2419
  839MPD2    H512392   3.634   2.408  11.522 -0.7751  0.8796 -0.0341
  839MPD2    N112393   3.403   2.127  11.928  0.0491  0.0790  0.4343
  839MPD2    H712394   3.419   2.050  11.863 -0.4935 -0.7838  1.3226
  840MPD2     C12395   3.475   4.272  10.759  0.2235 -0.2385 -0.9280
  840MPD2    C112396   3.465   4.343  10.878 -0.2496 -0.2229  0.0918
  840MPD2    C212397   3.578   4.401  10.932  0.7035 -0.0486 -0.2299
  840MPD2    C312398   3.703   4.391  10.871  0.2792 -0.1464  0.0678
  840MPD2    C412399   3.712   4.314  10.754  0.8606 -0.3082  0.4406
  840MPD2    C512400   3.600   4.257  10.705 -0.3840 -0.0700  0.6406
  840MPD2     H12401   3.584   4.460  11.023  1.8720  1.6746 -1.4253
  840MPD2    H112402   3.803   4.294  10.698  0.8098  1.8492 -0.3977
  840MPD2    H212403   3.395   4.216  10.712  0.1873 -0.6942 -0.3225
  840MPD2    H312404   3.605   4.192  10.618 -0.4780  1.7625 -0.7421
  840MPD2     N12405   3.812   4.457  10.932  0.2133  0.3548  0.2974
  840MPD2    H512406   3.788   4.532  10.997 -0.1283 -1.0574  1.7871
  840MPD2    N112407   3.334   4.359  10.929  0.3180 -0.5341  0.1271
  840MPD2    H712408   3.259   4.311  10.880  0.6883 -0.7320 -0.2467
  841MPD2     C12409   3.092   4.267  14.148  0.0463  0.1418 -0.3547
  841MPD2    C112410   3.027   4.190  14.243 -0.4547 -0.1410 -0.7073
  841MPD2    C212411   3.079   4.197  14.372 -0.2542 -0.2247  0.8059
  841MPD2    C312412   3.182   4.283  14.402 -0.3137  0.0133  0.4005
  841MPD2    C412413   3.247   4.349  14.298 -0.8172  0.3238  0.9097
  841MPD2    C512414   3.207   4.334  14.171  0.2760 -0.2939 -0.2834
  841MPD2     H12415   3.034   4.141  14.453  0.5956 -1.0635  0.6983
  841MPD2    H112416   3.331   4.417  14.311 -1.2448  0.8053  1.1715
  841MPD2    H212417   3.068   4.264  14.043 -1.6002  1.2143 -0.0080
  841MPD2    H312418   3.263   4.378  14.089  0.2957  0.6075  0.2173
  841MPD2     N12419   3.204   4.304  14.541  0.2313  0.4480  0.5202
  841MPD2    H512420   3.153   4.243  14.604  1.5664 -0.1219  1.0552
  841MPD2    N112421   2.918   4.098  14.220  0.6578  0.0241  0.6228
  841MPD2    H712422   2.905   4.027  14.291  0.6794  1.0262  1.6362
  842MPD2     C12423   3.331   4.593  17.040 -0.0473 -0.5601  0.7487
  842MPD2    C112424   3.370   4.723  17.063  0.1390  0.1912 -0.0022
  842MPD2    C212425   3.391   0.037  17.191  0.3208 -0.7475 -0.8145
  842MPD2    C312426   3.362   4.687  17.296  0.3185  0.6522 -0.4133
  842MPD2    C412427   3.314   4.557  17.275 -0.3212  0.1838  0.1332
  842MPD2    C512428   3.302   4.513  17.145 -0.2241 -0.3752  0.1760
  842MPD2     H12429   3.403   0.144  17.200 -2.8102 -0.4838 -0.0040
  842MPD2    H112430   3.293   4.489  17.357 -1.3487 -1.6697 -1.6896
  842MPD2    H212431   3.323   4.560  16.937 -1.5538  1.0299  0.3568
  842MPD2    H312432   3.281   4.411  17.116 -1.3144  0.3105 -1.4324
  842MPD2     N12433   3.370   4.732  17.431  0.2379  0.2734 -0.1723
  842MPD2    H512434   3.322   4.672  17.497 -1.8225  0.3692 -1.5697
  842MPD2    N112435   3.389   0.072  16.950 -0.0305  0.1861 -0.2293
  842MPD2    H712436   3.359   0.032  16.861  1.7873  2.1160 -1.7281
  843MPD2     C12437   0.231   1.406   0.000  0.1477 -0.0782 -0.0168
  843MPD2    C112438   0.310   1.318   0.072  0.7673  0.2360 -0.2377
  843MPD2    C212439   0.440   1.352   0.116  0.5063  0.2774  0.2935
  843MPD2    C312440   0.490   1.482   0.081  0.2015 -0.0538  1.1260
  843MPD2    C412441   0.416   1.567   0.004  0.3696  0.1292  0.3718
  843MPD2    C512442   0.292   1.521  17.700  0.2482 -0.0858  0.1209
  843MPD2     H12443   0.498   1.278   0.170  1.8160  1.4999  0.5698
  843MPD2    H112444   0.454   1.661  17.709 -0.6391  0.0527 -0.8207
  843MPD2    H212445   0.130   1.383  17.710  0.8118 -0.3772 -1.8347
  843MPD2    H312446   0.230   1.589  17.643 -0.2367  0.7507  1.6398
  843MPD2     N12447   0.616   1.533   0.120  0.0191 -0.1107  0.4533
  843MPD2    H512448   0.637   1.630   0.098 -0.2522  0.1566  1.3838
  843MPD2    N112449   0.248   1.195   0.106  0.0724  0.3147  0.1192
  843MPD2    H712450   0.156   1.175   0.069  0.5839 -0.9666 -0.4500
  844MPD2     C12451   4.406   3.753  16.645  0.0760 -0.8938  0.5027
  844MPD2    C112452   4.381   3.855  16.560 -0.3496  0.3418 -0.0215
  844MPD2    C212453   4.438   3.978  16.592 -0.7486 -0.0364  0.1462
  844MPD2    C312454   4.522   3.999  16.693  0.1591  0.2688  1.1233
  844MPD2    C412455   4.558   3.888  16.773 -0.2733  0.0816 -0.2512
  844MPD2    C512456   4.500   3.764  16.748  0.0730 -0.0976  0.2701
  844MPD2     H12457   4.422   4.061  16.524  1.1665  1.9784  2.1334
  844MPD2    H112458   4.618   3.903  16.862 -0.4028  1.1114 -0.3289
  844MPD2    H212459   4.353   3.659  16.636 -1.0883 -0.2775  0.8951
  844MPD2    H312460   4.510   3.686  16.822  0.9310  0.1323  0.3963
  844MPD2     N12461   4.560   4.123  16.728  0.0568 -0.4809  0.0032
  844MPD2    H512462   4.540   4.185  16.650  1.2517  0.8962  0.7857
  844MPD2    N112463   4.292   3.824  16.458  0.2578 -0.0446 -0.3588
  844MPD2    H712464   4.252   3.731  16.462  0.2168 -0.0009  0.3001
  845MPD2     C12465   4.152   0.276  16.823  0.8939  0.6961  0.3464
  845MPD2    C112466   4.213   0.236  16.944 -0.3308 -0.0031 -0.3744
  845MPD2    C212467   4.290   0.122  16.948  0.8271  0.2838  0.0614
  845MPD2    C312468   4.320   0.058  16.823  0.3352  0.0677  0.4950
  845MPD2    C412469   4.266   0.106  16.709  0.9103  1.1856  0.0921
  845MPD2    C512470   4.158   0.195  16.712 -0.4010 -0.2291 -0.4432
  845MPD2     H12471   4.334   0.099  17.044  1.3277 -0.8026 -0.4237
  845MPD2    H112472   4.287   0.054  16.616  0.7512 -0.0125  0.7310
  845MPD2    H212473   4.086   0.362  16.826  2.0366  1.5924 -0.2578
  845MPD2    H312474   4.103   0.220  16.622  0.5124  0.9315 -0.6834
  845MPD2     N12475   4.420   4.692  16.836 -0.1751 -0.5267 -0.0444
  845MPD2    H512476   4.482   4.687  16.915 -0.5550 -0.6918  0.2423
  845MPD2    N112477   4.216   0.326  17.048  0.5179 -0.1967  0.2811
  845MPD2    H712478   4.207   0.423  17.019 -1.3100 -0.5378 -0.2980
  846MPD2     C12479   1.265   1.359  14.057 -0.2248 -0.1265 -0.0989
  846MPD2    C112480   1.139   1.386  14.096  0.9279  0.1500  0.3370
  846MPD2    C212481   1.102   1.349  14.227  0.4444 -0.1562  0.3942
  846MPD2    C312482   1.188   1.288  14.318  0.0988  0.3706  0.6311
  846MPD2    C412483   1.320   1.278  14.278  0.0998 -0.6175  0.9585
  846MPD2    C512484   1.356   1.309  14.152  0.0189  0.0985 -0.8255
  846MPD2     H12485   1.000   1.367  14.258 -0.0755 -1.5960 -0.4512
  846MPD2    H112486   1.404   1.247  14.339  0.7167  0.4185  0.6367
  846MPD2    H212487   1.301   1.365  13.956 -0.3843 -1.5408 -0.2468
  846MPD2    H312488   1.457   1.299  14.116  0.2692 -0.0117 -0.0869
  846MPD2     N12489   1.138   1.255  14.447  1.0834  0.1627  0.3802
  846MPD2    H512490   1.041   1.276  14.466  0.6917 -2.1780  0.9189
  846MPD2    N112491   1.047   1.457  14.009 -0.8035  0.1824 -0.3782
  846MPD2    H712492   0.955   1.479  14.045 -0.2249  0.7801  0.7136
  847MPD2     C12493   1.249   1.965  14.636  0.2299 -0.4141 -0.5514
  847MPD2    C112494   1.333   2.058  14.697  0.6066 -0.4545 -1.1026
  847MPD2    C212495   1.410   2.013  14.802 -0.3536  0.7324 -0.6199
  847MPD2    C312496   1.390   1.886  14.851  0.8366  0.0352 -0.8990
  847MPD2    C412497   1.313   1.792  14.789  0.3223 -0.3333 -0.2873
  847MPD2    C512498   1.240   1.837  14.679 -0.1806  0.3546  0.0363
  847MPD2     H12499   1.474   2.081  14.856 -0.1248  2.3667 -2.9555
  847MPD2    H112500   1.302   1.686  14.808  0.1246 -0.5830 -1.7859
  847MPD2    H212501   1.183   1.987  14.553 -1.2941 -1.3158  0.4390
  847MPD2    H312502   1.167   1.769  14.637  2.5409 -3.3264  1.2012
  847MPD2     N12503   1.458   1.853  14.962  0.1234  1.1723  0.0464
  847MPD2    H512504   1.526   1.922  14.994  0.9856 -0.3448  1.4581
  847MPD2    N112505   1.339   2.196  14.671  0.0060 -0.0616 -0.0450
  847MPD2    H712506   1.406   2.248  14.727 -1.8719  1.2622  1.0029
  848MPD2     C12507   3.942   0.059  16.264 -0.5986 -0.8919 -0.5184
  848MPD2    C112508   4.028   0.069  16.370 -0.3881  0.2306 -0.6431
  848MPD2    C212509   4.123   0.168  16.361 -0.1756  0.9943  0.2404
  848MPD2    C312510   4.118   0.266  16.262  0.3109 -0.2114 -0.0151
  848MPD2    C412511   4.030   0.248  16.156  0.1118  0.1073  0.4392
  848MPD2    C512512   3.943   0.143  16.159 -0.2088 -0.3984  0.2899
  848MPD2     H12513   4.193   0.190  16.440  0.1477 -1.8026  0.7286
  848MPD2    H112514   4.031   0.311  16.068 -1.1238  2.1689  1.8905
  848MPD2    H212515   3.883   4.706  16.247 -1.6100 -0.0727 -1.3267
  848MPD2    H312516   3.878   0.116  16.077  1.3743  2.0952 -1.7854
  848MPD2     N12517   4.199   0.378  16.259 -0.5945  0.5198 -0.8501
  848MPD2    H512518   4.173   0.451  16.193  1.8058  3.1687  1.1544
  848MPD2    N112519   4.027   4.710  16.477 -0.4929 -0.3078  0.1406
  848MPD2    H712520   4.105   4.703  16.542 -0.9168  3.0327  1.0302
  849MPD2     C12521   3.179   0.033  14.837  0.0202 -0.1420 -0.9114
  849MPD2    C112522   3.235   0.002  14.718 -0.0792  0.1883  0.4257
  849MPD2    C212523   3.369   4.734  14.714 -0.0972  0.4753  0.2638
  849MPD2    C312524   3.454   0.028  14.821  0.1935  0.2663 -0.4846
  849MPD2    C412525   3.392   0.065  14.944 -0.6250  0.0094 -0.1124
  849MPD2    C512526   3.258   0.055  14.950 -0.5899  0.3911  0.6783
  849MPD2     H12527   3.407   4.723  14.613  1.5561 -1.8452  1.1293
  849MPD2    H112528   3.445   0.110  15.028  0.7810 -0.1523 -0.9024
  849MPD2    H212529   3.074   0.057  14.852 -0.0794 -2.3484  1.9345
  849MPD2    H312530   3.207   0.090  15.040 -1.9034 -0.9514  0.4662
  849MPD2     N12531   3.587   0.062  14.800  0.0650  0.2459  0.0184
  849MPD2    H512532   3.636   0.112  14.873 -1.7890  1.6004  0.3411
  849MPD2    N112533   3.172   4.718  14.598 -0.7271 -0.2858 -0.3617
  849MPD2    H712534   3.239   4.684  14.530 -0.2932 -1.0043  0.4196
  850MPD2     C12535   1.459   2.941  15.241 -0.2801 -0.1331  0.9992
  850MPD2    C112536   1.527   2.875  15.344 -1.0719  0.6367  0.4413
  850MPD2    C212537   1.669   2.870  15.336 -0.6304  0.7862  0.3001
  850MPD2    C312538   1.736   2.934  15.225 -0.2912  0.0307  0.1559
  850MPD2    C412539   1.658   2.996  15.129  0.2143 -0.5676  0.3355
  850MPD2    C512540   1.521   3.005  15.141 -0.4513  0.1547 -0.2789
  850MPD2     H12541   1.723   2.831  15.422  0.0101  1.9590  0.4252
  850MPD2    H112542   1.705   3.047  15.045  0.4251  0.1961  0.9175
  850MPD2    H212543   1.354   2.965  15.251 -0.6582 -0.6619 -1.6348
  850MPD2    H312544   1.458   3.063  15.074  1.0077  1.0113 -0.9217
  850MPD2     N12545   1.873   2.960  15.216  0.1343  0.0888 -0.2970
  850MPD2    H512546   1.908   3.032  15.154 -1.1663  1.1783  0.2364
  850MPD2    N112547   1.458   2.821  15.454 -0.0633  0.2336 -0.6932
  850MPD2    H712548   1.365   2.857  15.475 -0.2692 -0.1053 -1.0347
  851MPD2     C12549   1.263   2.168  16.093  0.0567 -0.2389  0.3610
  851MPD2    C112550   1.251   2.203  15.959  0.3671 -0.5674  0.0102
  851MPD2    C212551   1.197   2.120  15.868  0.4223 -0.2692  0.2252
  851MPD2    C312552   1.162   1.991  15.902 -0.3870  0.5163 -0.3230
  851MPD2    C412553   1.171   1.960  16.039 -0.1302  0.1251 -0.4485
  851MPD2    C512554   1.227   2.044  16.130 -0.2139  0.2703  0.4448
  851MPD2     H12555   1.180   2.143  15.763 -0.9875 -2.4066 -0.0121
  851MPD2    H112556   1.131   1.867  16.075 -1.4575 -0.0900 -2.5203
  851MPD2    H212557   1.306   2.235  16.166 -1.1948  0.1621  0.7143
  851MPD2    H312558   1.242   2.020  16.234  1.9644  1.1303  0.3264
  851MPD2     N12559   1.106   1.910  15.808  0.2740 -0.2029 -0.2386
  851MPD2    H512560   1.098   1.951  15.715 -2.1938  0.7315  0.3971
  851MPD2    N112561   1.292   2.334  15.922 -0.5543 -0.0677 -0.0825
  851MPD2    H712562   1.304   2.400  15.999  2.5403 -0.0923 -0.5197
  852MPD2     C12563   1.008   1.084  10.433  0.7383 -0.1941  0.7513
  852MPD2    C112564   1.105   1.098  10.530 -0.3489  0.0062  0.2968
  852MPD2    C212565   1.239   1.135  10.484  0.0284  0.1536  0.2434
  852MPD2    C312566   1.265   1.166  10.353  0.7080  0.2998  0.3657
  852MPD2    C412567   1.164   1.157  10.261  0.1596  0.1037 -0.2693
  852MPD2    C512568   1.044   1.115  10.305 -0.2854  0.4901 -0.4100
  852MPD2     H12569   1.317   1.144  10.559 -0.5340  2.1770  0.5845
  852MPD2    H112570   1.176   1.190  10.159 -0.5698 -2.2870 -1.1216
  852MPD2    H212571   0.905   1.057  10.450  0.4870  0.7847  0.7735
  852MPD2    H312572   0.957   1.113  10.239  1.5142  0.8458 -2.8022
  852MPD2     N12573   1.397   1.198  10.318  0.0973  0.3932 -0.5055
  852MPD2    H512574   1.453   1.209  10.403 -1.8798  0.0925  0.8448
  852MPD2    N112575   1.083   1.073  10.669 -0.1516  0.0615  0.3134
  852MPD2    H712576   1.148   1.113  10.736  0.0391 -1.1197  0.8329
  853MPD2     C12577   3.016   0.663  12.994 -0.2788  0.4976 -0.3888
  853MPD2    C112578   2.965   0.777  12.937 -0.0890 -0.0707  0.4166
  853MPD2    C212579   2.957   0.782  12.802 -0.3065  0.2818  0.1826
  853MPD2    C312580   3.000   0.680  12.721 -0.2722 -0.0659 -0.0268
  853MPD2    C412581   3.046   0.567  12.776  0.0362 -0.1912  0.4652
  853MPD2    C512582   3.047   0.558  12.915 -0.3230  0.1620 -0.2919
  853MPD2     H12583   2.920   0.873  12.756 -2.1539 -1.3390 -1.5213
  853MPD2    H112584   3.074   0.491  12.704 -0.8930 -1.3817  1.3653
  853MPD2    H212585   3.021   0.658  13.102 -0.4032  1.5946 -0.3235
  853MPD2    H312586   3.081   0.472  12.972 -2.0515 -1.4316 -1.6673
  853MPD2     N12587   3.003   0.684  12.575  0.6042  0.6265  0.3050
  853MPD2    H512588   3.069   0.632  12.518 -1.5665 -0.0926 -1.5671
  853MPD2    N112589   2.939   0.887  13.024 -0.1451  0.6848  0.1143
  853MPD2    H712590   2.984   0.885  13.115 -0.2121 -1.8853  0.0929
  854MPD2     C12591   0.297   1.514  13.502 -0.3306 -0.0951  0.0820
  854MPD2    C112592   0.343   1.450  13.392 -0.7419 -0.0380 -0.1187
  854MPD2    C212593   0.422   1.336  13.409 -0.0237  0.4140  0.6443
  854MPD2    C312594   0.444   1.286  13.536  0.1335 -0.7859 -0.0998
  854MPD2    C412595   0.395   1.355  13.643  0.3214  0.1408  0.0836
  854MPD2    C512596   0.338   1.477  13.622 -0.3884 -0.4139 -0.2125
  854MPD2     H12597   0.472   1.288  13.326  1.8799  1.7632  1.0277
  854MPD2    H112598   0.436   1.326  13.739 -1.1025 -2.3920 -0.0498
  854MPD2    H212599   0.229   1.596  13.487  0.0602  0.3680  0.8097
  854MPD2    H312600   0.315   1.542  13.705 -0.2602  1.2341 -1.4736
  854MPD2     N12601   0.520   1.172  13.562  0.1554  0.1011  0.4072
  854MPD2    H512602   0.536   1.144  13.658  0.2014  2.3167  1.0437
  854MPD2    N112603   0.301   1.492  13.268 -0.4323 -0.1231 -0.2817
  854MPD2    H712604   0.267   1.587  13.279 -0.8814 -0.0832 -1.9759
  855MPD2     C12605   0.196   0.667  14.094  0.1633  0.5761 -0.0888
  855MPD2    C112606   0.306   0.591  14.072 -0.0161 -0.5464  0.1037
  855MPD2    C212607   0.419   0.644  14.003  0.2660 -0.4874  0.3354
  855MPD2    C312608   0.397   0.765  13.941 -0.0234 -0.3740 -0.6216
  855MPD2    C412609   0.283   0.836  13.970  0.5152 -0.8795 -0.1868
  855MPD2    C512610   0.184   0.795  14.056 -0.6466  0.2489 -0.3297
  855MPD2     H12611   0.504   0.579  13.987  1.5298  1.4846 -0.9162
  855MPD2    H112612   0.266   0.935  13.930  2.8370 -0.6193 -0.5467
  855MPD2    H212613   0.112   0.627  14.150  0.2397  0.4906 -0.0359
  855MPD2    H312614   0.094   0.854  14.053 -0.5727  0.3497 -0.5689
  855MPD2     N12615   0.486   0.819  13.844  0.3028  0.2092  0.5765
  855MPD2    H512616   0.468   0.916  13.818 -0.6688 -0.9756 -3.0901
  855MPD2    N112617   0.317   0.456  14.101  0.1085 -0.6073 -0.2443
  855MPD2    H712618   0.412   0.422  14.109  0.6507  1.1263  0.7652
  856MPD2     C12619   1.973   1.905  13.842 -0.1233 -0.3579  0.4405
  856MPD2    C112620   2.040   2.015  13.883 -0.4570  0.3363  0.2922
  856MPD2    C212621   1.979   2.116  13.953  0.1817  0.4517  0.6742
  856MPD2    C312622   1.844   2.101  13.986  0.9187  0.3755  0.4164
  856MPD2    C412623   1.780   1.985  13.951 -0.2281  0.0391  0.4749
  856MPD2    C512624   1.844   1.885  13.875  0.1142 -0.2726  0.4495
  856MPD2     H12625   2.031   2.205  13.986  0.8414  0.0563  0.6967
  856MPD2    H112626   1.674   1.964  13.964 -0.5915  0.3168 -1.9203
  856MPD2    H212627   2.020   1.826  13.785  0.3701 -1.6410  2.5987
  856MPD2    H312628   1.795   1.797  13.837  0.3303  0.4057 -1.4060
  856MPD2     N12629   1.773   2.207  14.050  0.0950  0.2530 -0.4396
  856MPD2    H512630   1.673   2.199  14.063  0.0247  1.5119 -0.1904
  856MPD2    N112631   2.178   2.030  13.856 -0.2893 -0.2551  0.7238
  856MPD2    H712632   2.221   2.119  13.877  0.2305 -1.5561  5.1473
  857MPD2     C12633   3.899   3.719  13.291  0.7067  0.7046  0.4271
  857MPD2    C112634   4.035   3.726  13.267  0.2827  0.6630  0.9462
  857MPD2    C212635   4.093   3.853  13.259  0.1401 -0.3080 -0.4802
  857MPD2    C312636   4.016   3.971  13.274 -0.3683  0.7130  0.2313
  857MPD2    C412637   3.879   3.962  13.297  0.4414 -0.2969  0.0226
  857MPD2    C512638   3.829   3.836  13.317 -0.5079  0.1139 -0.0567
  857MPD2     H12639   4.199   3.873  13.251  0.4300 -1.0513  1.5690
  857MPD2    H112640   3.815   4.049  13.305  1.6349  0.3634  2.3179
  857MPD2    H212641   3.849   3.623  13.288  5.3493 -1.7553  2.2587
  857MPD2    H312642   3.723   3.833  13.337 -0.1573 -1.4312  1.5570
  857MPD2     N12643   4.083   4.092  13.267  0.0910  0.3614  0.0967
  857MPD2    H512644   4.183   4.087  13.287  0.0335 -0.2397  0.2382
  857MPD2    N112645   4.104   3.614  13.235 -0.1567 -0.2843 -0.5147
  857MPD2    H712646   4.043   3.535  13.221 -0.9087  0.1273  0.4065
  858MPD2     C12647   4.468   2.674  16.680 -0.3338 -0.6362  0.4651
  858MPD2    C112648   4.403   2.554  16.694 -0.2821 -0.0745  0.0906
  858MPD2    C212649   4.376   2.497  16.818  0.2187  0.0029 -0.4786
  858MPD2    C312650   4.398   2.568  16.936  0.7492 -0.7564  0.0016
  858MPD2    C412651   4.458   2.693  16.918  0.2778  0.7888 -0.2891
  858MPD2    C512652   4.489   2.745  16.794  0.2822  0.0164  0.4120
  858MPD2     H12653   4.330   2.399  16.824 -0.1759  0.4126  3.1890
  858MPD2    H112654   4.493   2.753  17.001  1.0091  0.2596 -0.2148
  858MPD2    H212655   4.470   2.729  16.587 -2.1456  0.8261  1.2974
  858MPD2    H312656   4.519   2.849  16.786  0.6901 -0.1453 -0.1506
  858MPD2     N12657   4.353   2.534  17.063  0.1127  0.3385 -0.8412
  858MPD2    H512658   4.364   2.608  17.133  1.8509 -0.2336 -0.5079
  858MPD2    N112659   4.370   2.478  16.583 -0.4480  0.3152 -0.4311
  858MPD2    H712660   4.336   2.384  16.598  0.0084  0.4539  1.4276
  859MPD2     C12661   3.368   4.611  15.500  0.3696 -0.0638  0.1533
  859MPD2    C112662   3.273   4.708  15.467  0.0931 -0.4486  0.2340
  859MPD2    C212663   3.142   4.702  15.506 -0.8214 -0.6363  0.2191
  859MPD2    C312664   3.106   4.580  15.570 -0.5819 -0.6601  0.5872
  859MPD2    C412665   3.197   4.480  15.591 -0.6255  0.5518  0.5045
  859MPD2    C512666   3.335   4.501  15.569  0.3976 -0.0424  0.0111
  859MPD2     H12667   3.081   0.051  15.479  0.6592  0.0398 -0.9555
  859MPD2    H112668   3.170   4.386  15.638 -0.0797  0.6725  1.0546
  859MPD2    H212669   3.467   4.621  15.458  0.3915  1.5315  0.6054
  859MPD2    H312670   3.403   4.421  15.595 -2.1309 -1.4959  2.2261
  859MPD2     N12671   2.970   4.563  15.606  0.5273 -0.4728  0.5367
  859MPD2    H512672   2.945   4.469  15.633  0.8136 -0.5581  0.4977
  859MPD2    N112673   3.324   0.078  15.393  0.6114 -0.4557 -0.0486
  859MPD2    H712674   3.423   0.070  15.375  1.1795  0.7351  2.6272
  860MPD2     C12675   1.664   0.541  12.090 -0.4962  0.0606  0.3004
  860MPD2    C112676   1.699   0.553  12.224  0.5920 -0.6678  0.2089
  860MPD2    C212677   1.598   0.569  12.322  0.1004  0.3338 -0.6021
  860MPD2    C312678   1.467   0.562  12.293  0.6661  0.3494  0.5114
  860MPD2    C412679   1.438   0.525  12.160 -0.4696  0.3797 -0.4164
  860MPD2    C512680   1.532   0.527  12.056 -0.1734 -0.4329  0.1177
  860MPD2     H12681   1.635   0.602  12.419  1.5500  0.4673 -1.2049
  860MPD2    H112682   1.339   0.489  12.135  0.5921 -2.4286 -0.5646
  860MPD2    H212683   1.738   0.543  12.012  0.8346 -0.3162  1.5508
  860MPD2    H312684   1.507   0.503  11.953  0.0500 -0.4764  0.0740
  860MPD2     N12685   1.367   0.584  12.391  0.1400 -0.3126 -0.3811
  860MPD2    H512686   1.415   0.610  12.476 -0.4830 -1.2886  0.2723
  860MPD2    N112687   1.831   0.575  12.262  0.2363 -0.5534  0.3910
  860MPD2    H712688   1.855   0.590  12.360 -1.2168  1.1830  0.4738
  861MPD2     C12689   4.596   3.558  11.554  0.3430 -0.4858  0.6132
  861MPD2    C112690   4.651   3.684  11.555  0.0781 -0.4812 -0.5079
  861MPD2    C212691   4.587   3.785  11.484 -0.0346 -0.3016  0.1448
  861MPD2    C312692   4.470   3.762  11.411  0.1729  0.3138 -0.3588
  861MPD2    C412693   4.412   3.639  11.423  0.4896  0.2525  0.7115
  861MPD2    C512694   4.475   3.537  11.489  0.4796 -0.3025  0.5700
  861MPD2     H12695   4.625   3.886  11.485 -0.3503 -0.2140  3.9360
  861MPD2    H112696   4.316   3.633  11.374  1.3968  0.8278 -1.1346
  861MPD2    H212697   4.634   3.470  11.603 -0.1093  0.1605  2.1228
  861MPD2    H312698   4.430   3.438  11.498 -0.5013  0.0660 -0.1897
  861MPD2     N12699   4.403   3.867  11.341 -0.1040 -0.4276  0.5942
  861MPD2    H512700   4.313   3.831  11.308 -0.2956 -0.7443  1.4670
  861MPD2    N112701   0.031   3.713  11.634  0.5772  0.1806 -0.4222
  861MPD2    H712702   0.061   3.809  11.644  0.6007  0.1555 -0.2396
  862MPD2     C12703   3.745   3.970  11.027 -0.3867  0.1130  0.5179
  862MPD2    C112704   3.873   3.914  11.050  0.4651 -0.1920 -0.0414
  862MPD2    C212705   3.907   3.787  10.997  0.2040 -0.1029 -0.5473
  862MPD2    C312706   3.813   3.722  10.916 -0.4411 -0.0817 -0.1880
  862MPD2    C412707   3.693   3.790  10.884  0.1369 -0.4209  0.8410
  862MPD2    C512708   3.660   3.910  10.945  0.5327 -0.5590 -0.3798
  862MPD2     H12709   4.012   3.762  11.011  0.9031  1.2487 -3.4105
  862MPD2    H112710   3.624   3.746  10.812 -1.2746  0.5847  1.6049
  862MPD2    H212711   3.715   4.062  11.075  0.1198 -0.2476  1.5253
  862MPD2    H312712   3.558   3.946  10.931  0.2739 -1.1648 -0.0536
  862MPD2     N12713   3.849   3.597  10.849  0.1624  0.2451 -0.6161
  862MPD2    H512714   3.790   3.560  10.775  0.9646 -0.2581 -1.0191
  862MPD2    N112715   3.969   3.972  11.128  0.3771  0.5539 -0.1065
  862MPD2    H712716   4.056   3.922  11.139  0.4953  0.4153 -1.6604
  863MPD2     C12717   2.342   1.275  16.951  0.5096 -0.6060 -0.3681
  863MPD2    C112718   2.428   1.353  16.869 -0.5065 -0.2106  0.0450
  863MPD2    C212719   2.568   1.341  16.873 -0.9283  0.4796  0.2524
  863MPD2    C312720   2.624   1.258  16.966  0.0447 -0.1139 -0.3245
  863MPD2    C412721   2.542   1.187  17.059 -0.9980 -0.1011  0.1747
  863MPD2    C512722   2.403   1.202  17.043 -0.2529  0.6126  0.5615
  863MPD2     H12723   2.628   1.413  16.818  0.8829 -0.2228  1.3634
  863MPD2    H112724   2.579   1.113  17.130  1.3770  1.3103  0.4110
  863MPD2    H212725   2.234   1.268  16.956  0.2755  0.5894 -3.7592
  863MPD2    H312726   2.340   1.142  17.108 -1.0237 -0.2727 -0.9848
  863MPD2     N12727   2.763   1.257  16.992 -0.1844  0.2823  0.4966
  863MPD2    H512728   2.788   1.196  17.070 -1.2775 -0.9957 -0.1455
  863MPD2    N112729   2.368   1.443  16.772 -0.2474 -0.1862 -0.3689
  863MPD2    H712730   2.417   1.461  16.686 -1.4765  0.2656 -0.9820
  864MPD2     C12731   3.103   2.566  17.276 -0.2659  0.2739 -0.6965
  864MPD2    C112732   3.121   2.507  17.154  0.1778 -0.3672 -0.7026
  864MPD2    C212733   3.234   2.555  17.087  0.0601 -0.9935 -0.5737
  864MPD2    C312734   3.298   2.669  17.125  0.5827  0.4329  0.5738
  864MPD2    C412735   3.263   2.735  17.235  0.9939  0.1253 -1.4410
  864MPD2    C512736   3.160   2.681  17.306 -0.1613  0.2594 -0.5149
  864MPD2     H12737   3.255   2.499  16.996  3.0381 -1.6310  0.4981
  864MPD2    H112738   3.325   2.820  17.261  2.0904 -0.3413 -2.5606
  864MPD2    H212739   3.025   2.524  17.338  1.7572 -0.5350  1.2764
  864MPD2    H312740   3.132   2.734  17.396  1.6427  0.5119 -0.1007
  864MPD2     N12741   3.410   2.724  17.056 -0.1899 -0.6236  0.2333
  864MPD2    H512742   3.452   2.806  17.097  2.3723 -1.3840 -0.8571
  864MPD2    N112743   3.033   2.406  17.103  0.1002 -0.2622 -0.1207
  864MPD2    H712744   2.963   2.365  17.164  0.1615 -1.2781 -0.7156
  865MPD2     C12745   3.726   3.117  16.354 -0.3392  0.6997 -0.4267
  865MPD2    C112746   3.679   3.011  16.428 -0.5263  0.2194  0.2427
  865MPD2    C212747   3.653   3.030  16.563  0.0580 -0.0069 -0.1846
  865MPD2    C312748   3.701   3.149  16.625  0.1719 -0.5526  0.8412
  865MPD2    C412749   3.764   3.250  16.548 -0.0437  0.2701  0.2687
  865MPD2    C512750   3.769   3.227  16.414  0.8425  0.1294 -0.0007
  865MPD2     H12751   3.600   2.955  16.622  2.0928  0.3554  2.1189
  865MPD2    H112752   3.808   3.342  16.586  0.5297  0.2825 -0.4277
  865MPD2    H212753   3.729   3.110  16.245 -2.6002 -2.2194 -0.3090
  865MPD2    H312754   3.804   3.306  16.348  1.5912 -0.7169 -0.6074
  865MPD2     N12755   3.688   3.183  16.764  0.5540 -0.1571 -0.4772
  865MPD2    H512756   3.695   3.282  16.783  0.5785 -0.1374 -0.5894
  865MPD2    N112757   3.660   2.885  16.368  0.2443 -0.1943 -0.8169
  865MPD2    H712758   3.670   2.892  16.267 -0.4291  1.1334 -0.7874
  866MPD2     C12759   0.654   4.315  12.147 -0.3095  0.3047 -0.5743
  866MPD2    C112760   0.691   4.315  12.015 -0.0099 -1.5328 -0.4965
  866MPD2    C212761   0.596   4.313  11.917  0.0926  0.0009  0.2160
  866MPD2    C312762   0.463   4.324  11.945  0.0284  0.0867 -0.1448
  866MPD2    C412763   0.423   4.321  12.077  0.1477 -0.2176  0.4548
  866MPD2    C512764   0.519   4.311  12.176 -0.2237 -0.2192 -0.9576
  866MPD2     H12765   0.618   4.307  11.811 -0.3056 -0.6934  0.1762
  866MPD2    H112766   0.319   4.325  12.110 -0.2980  2.8359 -1.3406
  866MPD2    H212767   0.723   4.307  12.230  1.0020  0.1471 -1.6728
  866MPD2    H312768   0.486   4.311  12.279 -0.5459  1.1190 -1.0593
  866MPD2     N12769   0.360   4.311  11.853 -0.2434 -0.0946 -0.1420
  866MPD2    H512770   0.269   4.301  11.898 -1.0391  0.6558 -1.5616
  866MPD2    N112771   0.826   4.303  11.991  0.1638  0.4385  0.0384
  866MPD2    H712772   0.879   4.328  12.074 -1.7483  0.7322  1.1644
  867MPD2     C12773   1.833   2.815  16.691 -0.0268  0.0303  0.1011
  867MPD2    C112774   1.870   2.769  16.816 -0.1545  0.4350  0.4422
  867MPD2    C212775   1.856   2.847  16.929  0.3345 -0.2469  0.5539
  867MPD2    C312776   1.804   2.975  16.922 -0.2932 -0.0732  0.1174
  867MPD2    C412777   1.781   3.028  16.798  0.1062 -0.0691 -0.5551
  867MPD2    C512778   1.794   2.949  16.686  0.3558 -0.6010  0.4087
  867MPD2     H12779   1.894   2.820  17.027  1.1575  0.1331  0.3371
  867MPD2    H112780   1.742   3.129  16.788 -1.0815 -0.4727  0.0943
  867MPD2    H212781   1.843   2.757  16.600 -2.6554  0.0222 -0.1649
  867MPD2    H312782   1.764   2.983  16.587 -0.1184 -0.8126  0.4785
  867MPD2     N12783   1.785   3.067  17.025 -0.5434  0.1435  0.7429
  867MPD2    H512784   1.747   3.158  17.002  1.8788  0.2831 -2.7469
  867MPD2    N112785   1.917   2.633  16.819 -0.6871 -0.2591 -0.4275
  867MPD2    H712786   1.926   2.597  16.724 -2.2511 -0.1754 -0.5975
  868MPD2     C12787   4.033   2.329  13.540  0.1170 -0.7036  0.5656
  868MPD2    C112788   4.042   2.211  13.622  0.0210  0.2118 -0.4913
  868MPD2    C212789   4.000   2.218  13.748  0.1941 -0.2240  0.6672
  868MPD2    C312790   3.961   2.333  13.806  0.1532 -0.1664 -0.7078
  868MPD2    C412791   3.957   2.450  13.731 -0.4116 -0.9288  0.1779
  868MPD2    C512792   4.008   2.446  13.601 -0.2004  0.0391  0.4782
  868MPD2     H12793   3.992   2.123  13.799 -1.3788 -2.0773 -3.0208
  868MPD2    H112794   3.922   2.545  13.768  0.1436 -0.8727  0.5561
  868MPD2    H212795   4.058   2.333  13.435  0.3382 -0.3169  0.6339
  868MPD2    H312796   4.008   2.535  13.539 -1.5780 -1.4524 -1.6593
  868MPD2     N12797   3.907   2.316  13.931 -0.1920 -0.3179  0.0283
  868MPD2    H512798   3.907   2.221  13.967  0.0196 -1.0389 -1.8788
  868MPD2    N112799   4.104   2.093  13.558 -0.2537 -0.2481  0.3028
  868MPD2    H712800   4.139   2.108  13.464 -0.8083 -1.2166 -0.0594
  869MPD2     C12801   0.024   4.243   1.006 -0.5891 -0.0392  0.1546
  869MPD2    C112802   0.047   4.291   0.880  0.2599 -0.4036 -0.2747
  869MPD2    C212803   0.111   4.414   0.871 -0.9433 -0.0752  0.0790
  869MPD2    C312804   0.133   4.491   0.978  0.1057  0.5991  0.1714
  869MPD2    C412805   0.099   4.443   1.104  0.3310 -0.5641 -0.1802
  869MPD2    C512806   0.060   4.313   1.118  0.6395 -0.3643  0.4079
  869MPD2     H12807   0.126   4.460   0.775  0.8646 -1.5116 -0.3419
  869MPD2    H112808   0.118   4.501   1.194 -1.1963 -1.5320  0.7791
  869MPD2    H212809   4.715   4.146   1.023  1.7693 -1.2029 -0.2959
  869MPD2    H312810   0.054   4.271   1.218 -1.5888 -0.9346  0.0418
  869MPD2     N12811   0.197   4.616   0.971 -0.4789  0.4513 -1.0243
  869MPD2    H512812   0.199   4.680   1.050 -0.1124  0.8740 -1.3743
  869MPD2    N112813   0.028   4.202   0.776  0.1899 -0.3942 -0.5201
  869MPD2    H712814   4.736   4.109   0.807 -0.0098  0.2672  1.2884
  870MPD2     C12815   4.658   3.298   1.939  0.1451 -0.1236 -0.7858
  870MPD2    C112816   0.010   3.257   1.845 -0.2206 -0.1190  0.4587
  870MPD2    C212817   0.107   3.349   1.804  0.4716  0.3645 -0.1219
  870MPD2    C312818   0.126   3.474   1.867 -0.4743 -0.7445 -0.0230
  870MPD2    C412819   0.044   3.496   1.978  0.9376 -0.2797  0.4825
  870MPD2    C512820   4.674   3.417   2.005  0.0016 -1.0688 -0.2820
  870MPD2     H12821   0.190   3.312   1.745 -0.1321  0.0397 -0.7645
  870MPD2    H112822   0.059   3.588   2.032 -2.8661  0.2102  0.7109
  870MPD2    H212823   4.583   3.231   1.981  1.6381 -1.2575  0.0881
  870MPD2    H312824   4.608   3.438   2.088  0.3702  0.5724 -0.4182
  870MPD2     N12825   0.235   3.553   1.836  0.3802 -0.1991  0.4430
  870MPD2    H512826   0.282   3.538   1.747 -0.1048 -0.9945  0.3227
  870MPD2    N112827   4.729   3.134   1.778  0.8013  0.2696  0.1654
  870MPD2    H712828   4.674   3.069   1.833  0.8677 -0.1480 -0.2542
  871MPD2     C12829   1.107   3.410  16.543  0.0850 -0.0175  0.3771
  871MPD2    C112830   1.063   3.341  16.648 -0.3865 -0.2077 -0.1270
  871MPD2    C212831   1.011   3.215  16.640  0.4158  0.7980  0.0485
  871MPD2    C312832   1.010   3.161  16.519  0.4101 -0.3061 -0.2145
  871MPD2    C412833   1.044   3.233  16.403 -0.3834  0.5114  0.2527
  871MPD2    C512834   1.098   3.358  16.415 -0.2120 -0.7976 -0.0173
  871MPD2     H12835   0.984   3.165  16.732 -2.8238  1.8660 -0.3346
  871MPD2    H112836   1.035   3.190  16.304 -0.6744  0.3084  0.3682
  871MPD2    H212837   1.154   3.507  16.558 -1.0278  0.3955  1.2098
  871MPD2    H312838   1.129   3.413  16.326 -1.0286  0.1656  0.3008
  871MPD2     N12839   0.988   3.027  16.508  0.1567 -0.5202  0.3629
  871MPD2    H512840   0.996   2.977  16.596 -1.8912 -0.0806  0.7962
  871MPD2    N112841   1.068   3.420  16.769  0.1621  1.0227  0.0785
  871MPD2    H712842   1.125   3.503  16.756  2.1898 -0.7473 -2.4021
  872MPD2     C12843   2.087   1.464  14.206  0.5392 -0.5148  0.6112
  872MPD2    C112844   2.149   1.350  14.257  0.4672  0.0028 -0.0253
  872MPD2    C212845   2.065   1.250  14.306  0.2668 -0.1412 -0.2913
  872MPD2    C312846   1.929   1.268  14.297 -0.7156 -0.1080  0.6706
  872MPD2    C412847   1.874   1.385  14.249  0.2841 -0.5014  0.1939
  872MPD2    C512848   1.952   1.479  14.193 -0.7575 -0.0086 -0.2380
  872MPD2     H12849   2.112   1.157  14.335 -0.5726 -0.5742 -0.3127
  872MPD2    H112850   1.766   1.393  14.239  0.3637  0.6028  0.2005
  872MPD2    H212851   2.149   1.548  14.176  0.8176 -0.6363  0.8493
  872MPD2    H312852   1.907   1.565  14.144  1.2398 -0.6717 -3.2522
  872MPD2     N12853   1.849   1.159  14.340  0.3082  0.7806  0.6511
  872MPD2    H512854   1.901   1.079  14.376  0.9659  0.7255 -0.4278
  872MPD2    N112855   2.288   1.334  14.269 -0.1532 -0.4837 -0.0940
  872MPD2    H712856   2.311   1.244  14.311 -0.5113 -0.9004 -0.7906
  873MPD2     C12857   3.210   0.921   0.892 -0.0794 -0.1776  0.1630
  873MPD2    C112858   3.330   0.923   0.969  0.2608  0.3462 -0.2965
  873MPD2    C212859   3.421   0.826   0.937  1.1235  0.5209  0.1476
  873MPD2    C312860   3.407   0.747   0.822  0.0073  0.1710 -0.2454
  873MPD2    C412861   3.290   0.755   0.747  0.4601 -0.5019 -0.6224
  873MPD2    C512862   3.190   0.832   0.794 -0.0255 -0.5348  0.7648
  873MPD2     H12863   3.512   0.822   0.996  0.1334 -0.3251  1.6071
  873MPD2    H112864   3.267   0.683   0.669 -0.8364 -2.3003  1.4415
  873MPD2    H212865   3.131   0.993   0.904  1.0320  0.9782  0.5145
  873MPD2    H312866   3.093   0.828   0.745  0.5500  0.8717 -0.4718
  873MPD2     N12867   3.504   0.653   0.776  0.6289 -0.2343  0.1207
  873MPD2    H512868   3.471   0.585   0.708  2.4003 -1.9573  0.9762
  873MPD2    N112869   3.341   1.008   1.079  0.1279  0.1312 -0.7536
  873MPD2    H712870   3.262   1.069   1.096 -0.2949 -0.4112 -0.7817
  874MPD2     C12871   3.585   0.778  16.381  0.3857  0.0103  0.2720
  874MPD2    C112872   3.640   0.677  16.458 -0.7423 -0.0493  0.9819
  874MPD2    C212873   3.781   0.680  16.474 -0.7599 -0.6692 -0.9767
  874MPD2    C312874   3.858   0.773  16.411  0.0181  0.5094  0.3244
  874MPD2    C412875   3.802   0.875  16.330  0.5055 -1.0084 -0.2635
  874MPD2    C512876   3.664   0.871  16.318  0.1227 -0.1933 -0.2385
  874MPD2     H12877   3.839   0.614  16.537  1.4449  2.5498  0.3421
  874MPD2    H112878   3.854   0.958  16.283 -1.9102  0.0880 -0.9736
  874MPD2    H212879   3.480   0.778  16.354 -0.1249 -0.8697  2.2418
  874MPD2    H312880   3.621   0.952  16.261  3.1557  1.9808  0.5583
  874MPD2     N12881   3.997   0.754  16.423 -0.7114  0.0356 -0.6256
  874MPD2    H512882   4.020   0.667  16.471 -2.3926  1.0738  2.0637
  874MPD2    N112883   3.559   0.582  16.515  0.2141 -0.0485  0.3257
  874MPD2    H712884   3.462   0.578  16.486 -0.4794  3.0691  2.1952
  875MPD2     C12885   0.016   3.867  14.817  0.6682 -0.0333 -0.5821
  875MPD2    C112886   4.625   3.866  14.874  0.1540  0.0563 -0.5525
  875MPD2    C212887   4.611   3.925  15.001  0.4758  0.0333  0.3045
  875MPD2    C312888   4.721   3.990  15.072 -0.6972 -0.4846  0.0771
  875MPD2    C412889   0.107   3.991  15.003  0.5661 -0.1392 -0.1311
  875MPD2    C512890   0.110   3.934  14.878  0.0722 -0.1261 -0.0824
  875MPD2     H12891   4.511   3.921  15.042  0.1780 -0.5544 -0.4643
  875MPD2    H112892   0.200   4.024  15.046 -0.0813 -0.7494  1.7512
  875MPD2    H212893   0.034   3.814  14.724 -2.3894 -1.2537 -0.4944
  875MPD2    H312894   0.209   3.925  14.835 -0.2153 -2.4604 -0.2457
  875MPD2     N12895   4.711   4.045  15.205  0.2800  0.1180  0.2704
  875MPD2    H512896   0.057   4.096  15.236  0.1910  0.0207  0.6691
  875MPD2    N112897   4.518   3.804  14.818  0.0817 -0.5050 -0.5179
  875MPD2    H712898   4.434   3.814  14.874 -1.5054 -0.3314 -2.8963
  876MPD2     C12899   3.719   0.345  16.298  0.3487  0.3569 -0.0969
  876MPD2    C112900   3.667   0.321  16.172  0.5328 -0.7751  0.3669
  876MPD2    C212901   3.597   0.204  16.156  0.1681 -0.2589 -0.2105
  876MPD2    C312902   3.576   0.117  16.262 -0.2889 -0.3066  0.3583
  876MPD2    C412903   3.624   0.144  16.384  0.0063 -0.3059 -0.3238
  876MPD2    C512904   3.696   0.263  16.407 -0.0523  1.0749 -0.2157
  876MPD2     H12905   3.557   0.177  16.059 -0.1168  4.1200 -1.3178
  876MPD2    H112906   3.599   0.078  16.466  0.0994  1.5811  1.2341
  876MPD2    H212907   3.776   0.434  16.321  1.2795  0.0288 -1.1192
  876MPD2    H312908   3.731   0.276  16.509 -1.6139  0.9104  0.3325
  876MPD2     N12909   3.505   0.005  16.238  0.6362  0.2783 -0.1442
  876MPD2    H512910   3.487   4.721  16.140  0.7075  0.9068 -0.2815
  876MPD2    N112911   3.676   0.407  16.062 -0.4346  0.3509 -0.7976
  876MPD2    H712912   3.752   0.473  16.067 -1.2962  1.3897 -1.2563
  877MPD2     C12913   3.366   0.855  15.453 -0.4124  0.3171 -0.1737
  877MPD2    C112914   3.507   0.863  15.453  0.0527 -0.0221 -0.2604
  877MPD2    C212915   3.579   0.913  15.344  0.1989  0.8770  0.1999
  877MPD2    C312916   3.507   0.950  15.231 -0.2978  0.5314 -0.0431
  877MPD2    C412917   3.366   0.942  15.227 -0.2206 -0.3818 -0.2211
  877MPD2    C512918   3.297   0.900  15.342  0.1633 -0.0214 -0.0660
  877MPD2     H12919   3.687   0.914  15.334  0.0433  0.3382 -1.5211
  877MPD2    H112920   3.310   0.987  15.146 -0.4918 -1.3893 -0.5956
  877MPD2    H212921   3.298   0.809  15.523 -2.6595  4.2568  0.1948
  877MPD2    H312922   3.190   0.911  15.344  0.3682  1.7760  0.4988
  877MPD2     N12923   3.571   1.009  15.117 -0.1391  0.6330  0.2169
  877MPD2    H512924   3.509   1.034  15.041 -0.7279  2.4473  1.3025
  877MPD2    N112925   3.586   0.807  15.555  0.0088  0.1302 -0.3530
  877MPD2    H712926   3.687   0.816  15.555  0.0166  0.0407 -1.0276
  878MPD2     C12927   2.949   0.690  13.897 -0.3028 -0.4140  0.0269
  878MPD2    C112928   3.029   0.600  13.841 -0.3959  0.7826 -0.1937
  878MPD2    C212929   3.037   0.479  13.907 -0.1235 -0.6221 -0.6985
  878MPD2    C312930   2.962   0.447  14.021 -0.8472 -0.3747  0.1400
  878MPD2    C412931   2.874   0.546  14.070  0.9820 -0.2306 -0.4221
  878MPD2    C512932   2.878   0.671  14.009  0.1915 -0.4921  0.1134
  878MPD2     H12933   3.110   0.407  13.874  0.1583 -1.1947  1.1391
  878MPD2    H112934   2.809   0.545  14.157  0.3285 -1.9826 -0.9210
  878MPD2    H212935   2.948   0.786  13.847 -3.8389  0.2038  1.2965
  878MPD2    H312936   2.815   0.745  14.056  1.4385  0.1334  0.8016
  878MPD2     N12937   2.974   0.323  14.085 -0.3233 -0.1832 -0.1264
  878MPD2    H512938   3.030   0.251  14.042  1.1761  0.2103  1.1319
  878MPD2    N112939   3.109   0.639  13.728 -0.3307 -0.2007  0.4022
  878MPD2    H712940   3.087   0.726  13.682 -0.5313 -0.3687  0.1812
  879MPD2     C12941   4.049   0.739  17.289  0.1820 -0.1149 -0.1011
  879MPD2    C112942   4.045   0.836  17.190 -0.4668  0.1321  0.3908
  879MPD2    C212943   3.935   0.842  17.105  0.1252 -0.6686  0.6570
  879MPD2    C312944   3.841   0.743  17.110 -0.1698  0.3787 -0.2538
  879MPD2    C412945   3.839   0.643  17.210  0.2220 -0.4217  0.7397
  879MPD2    C512946   3.947   0.650  17.299  0.4930  0.0359  0.0034
  879MPD2     H12947   3.931   0.913  17.023 -0.6383  0.1201  1.3754
  879MPD2    H112948   3.764   0.566  17.221 -0.8787  0.4675 -0.6640
  879MPD2    H212949   4.139   0.713  17.345  0.8274  2.0751 -0.0948
  879MPD2    H312950   3.954   0.576  17.377 -0.0241 -2.0555 -1.9404
  879MPD2     N12951   3.730   0.749  17.019 -0.6098 -0.2909  0.5530
  879MPD2    H512952   3.671   0.666  17.014  0.9698 -1.3611 -0.3998
  879MPD2    N112953   4.152   0.922  17.181 -0.0689 -0.3484 -0.1689
  879MPD2    H712954   4.226   0.904  17.248 -1.9960 -1.2017  1.7348
  880MPD2     C12955   0.091   3.146   0.462 -0.1327 -0.2331 -0.2382
  880MPD2    C112956   0.178   3.181   0.561  0.0010  0.0364 -0.6816
  880MPD2    C212957   0.240   3.081   0.633 -0.1415  0.0691  0.0293
  880MPD2    C312958   0.210   2.948   0.600  0.0022  0.0160  0.0907
  880MPD2    C412959   0.128   2.916   0.499 -0.2290  0.0231 -0.2491
  880MPD2    C512960   0.063   3.014   0.435 -0.5491 -0.3248 -0.2712
  880MPD2     H12961   0.311   3.105   0.711 -0.9394  0.6700  0.5681
  880MPD2    H112962   0.124   2.814   0.463 -1.1004  0.4501 -1.3561
  880MPD2    H212963   0.028   3.221   0.416  0.9688  1.0164  0.2928
  880MPD2    H312964   4.720   2.998   0.362  1.9276 -0.6534 -2.8742
  880MPD2     N12965   0.281   2.852   0.680  0.6885  0.2020  0.0932
  880MPD2    H512966   0.338   2.887   0.756  1.4603  0.1606 -0.4602
  880MPD2    N112967   0.203   3.318   0.603 -0.4603 -0.1000  0.4885
  880MPD2    H712968   0.174   3.392   0.541 -0.7107 -0.6439 -0.0485
  881MPD2     C12969   0.476   4.207   0.262 -0.1569 -0.1552  0.2595
  881MPD2    C112970   0.468   4.073   0.226 -0.2699  0.2057 -0.1686
  881MPD2    C212971   0.428   3.979   0.320  0.3374 -0.0908 -0.0688
  881MPD2    C312972   0.416   4.016   0.450 -0.0028  0.1291 -0.2003
  881MPD2    C412973   0.430   4.152   0.492  0.2354 -0.1629 -0.5146
  881MPD2    C512974   0.449   4.249   0.391 -0.2104  0.1869  0.3685
  881MPD2     H12975   0.409   3.873   0.304  0.2113 -0.0276 -0.3361
  881MPD2    H112976   0.416   4.171   0.598  0.1563 -1.2906 -0.3128
  881MPD2    H212977   0.457   4.278   0.183 -1.1790  0.7170  1.3077
  881MPD2    H312978   0.430   4.355   0.401 -0.0438  0.6151 -3.8412
  881MPD2     N12979   0.389   3.919   0.554  0.0590 -0.2761  0.0960
  881MPD2    H512980   0.392   3.958   0.648 -0.5595  1.8165 -0.7371
  881MPD2    N112981   0.474   4.039   0.085  0.2864  0.0068 -0.2195
  881MPD2    H712982   0.476   4.114   0.017 -1.1650  0.2037 -0.0452
  882MPD2     C12983   3.608   0.656  14.636 -0.2522  0.4568 -0.6603
  882MPD2    C112984   3.526   0.757  14.681 -0.1154 -0.3668  0.5567
  882MPD2    C212985   3.388   0.732  14.709  0.0189  0.1190 -0.2500
  882MPD2    C312986   3.352   0.604  14.692 -0.2069 -0.2708 -0.0090
  882MPD2    C412987   3.438   0.504  14.662  0.1647  0.3848  0.4157
  882MPD2    C512988   3.571   0.529  14.640 -0.5898  0.5748 -0.0145
  882MPD2     H12989   3.312   0.797  14.752  0.3190  0.8757 -0.8701
  882MPD2    H112990   3.392   0.406  14.660  0.5531  0.1848  1.1855
  882MPD2    H212991   3.714   0.674  14.634 -0.2884  1.1176  2.2856
  882MPD2    H312992   3.646   0.451  14.626 -0.6990  0.0502  2.4133
  882MPD2     N12993   3.219   0.566  14.709  0.5239  0.4722 -0.3509
  882MPD2    H512994   3.186   0.471  14.695  0.3953 -0.0676  3.6736
  882MPD2    N112995   3.582   0.890  14.690 -0.2052  0.5723 -0.3932
  882MPD2    H712996   3.679   0.893  14.661 -0.2718  1.3813 -0.5404
  883MPD2     C12997   0.907   0.966  16.845 -0.3335 -0.6607  0.6103
  883MPD2    C112998   0.871   1.043  16.735 -0.1987  0.3231 -0.5466
  883MPD2    C212999   0.910   1.177  16.736 -0.3024  1.2232  0.1106
  883MPD2    C313000   0.958   1.241  16.846  0.3762  0.2216  0.7581
  883MPD2    C413001   0.993   1.162  16.956  0.1784  0.1378  0.0712
  883MPD2    C513002   0.964   1.029  16.954  0.2761 -0.1370 -0.0727
  883MPD2     H13003   0.884   1.243  16.654 -1.9226  2.1756  1.3876
  883MPD2    H113004   1.034   1.195  17.050 -0.6868  0.1014  0.4668
  883MPD2    H213005   0.909   0.858  16.858 -3.3785 -0.9571 -1.1633
  883MPD2    H313006   0.989   0.975  17.044  1.5346 -0.5238 -0.6609
  883MPD2     N13007   0.975   1.380  16.847  0.2351 -0.2322  0.4566
  883MPD2    H513008   0.955   1.424  16.758  0.6347 -3.3094 -1.1456
  883MPD2    N113009   0.790   0.989  16.624 -0.4471 -0.4307  0.2928
  883MPD2    H713010   0.768   1.053  16.548 -0.2537 -0.1310  0.4937
  884MPD2     C13011   2.711   1.284  15.292 -0.3053 -0.3555  0.2579
  884MPD2    C113012   2.675   1.414  15.247  0.1988  0.2793 -0.8972
  884MPD2    C213013   2.553   1.465  15.282  0.8132 -0.0106  0.0450
  884MPD2    C313014   2.469   1.409  15.367  0.3624  0.0625  0.1290
  884MPD2    C413015   2.513   1.297  15.429 -0.5615 -0.2436 -0.6654
  884MPD2    C513016   2.624   1.227  15.382  0.3388  0.2802 -0.0766
  884MPD2     H13017   2.528   1.565  15.251  0.6454  0.4616  1.6683
  884MPD2    H113018   2.463   1.250  15.513 -0.3010  0.7649  0.0458
  884MPD2    H213019   2.796   1.224  15.263 -0.6703 -1.2822  1.1343
  884MPD2    H313020   2.651   1.131  15.425 -1.7269 -1.2208 -2.1439
  884MPD2     N13021   2.336   1.463  15.381 -0.3335  1.0633 -1.0823
  884MPD2    H513022   2.314   1.541  15.321 -0.2123 -0.2352 -2.8200
  884MPD2    N113023   2.754   1.504  15.174 -0.2398 -0.0311 -0.2353
  884MPD2    H713024   2.705   1.581  15.131  0.4358  0.9207  0.6967
  885MPD2     C13025   0.249   1.720   0.258  0.5471  0.1166 -0.0857
  885MPD2    C113026   0.372   1.791   0.270 -0.2394 -0.0711  0.5612
  885MPD2    C213027   0.407   1.894   0.183 -1.0404  0.0205 -0.0614
  885MPD2    C313028   0.318   1.927   0.079 -0.0995 -0.3551  0.8631
  885MPD2    C413029   0.197   1.850   0.063  0.3357  0.2711 -0.0622
  885MPD2    C513030   0.172   1.750   0.151 -0.1719  0.0209  0.7163
  885MPD2     H13031   0.508   1.934   0.187 -1.0544  0.0567 -0.0718
  885MPD2    H113032   0.133   1.879  17.723  0.0666  1.4965  0.5715
  885MPD2    H213033   0.210   1.643   0.323  0.1552 -0.0255 -0.4868
  885MPD2    H313034   0.076   1.700   0.148 -0.2300  0.1938 -0.5289
  885MPD2     N13035   0.358   2.033  17.738 -0.0856  0.3668 -0.1302
  885MPD2    H513036   0.456   2.059  17.735 -0.3356  1.2161 -0.7446
  885MPD2    N113037   0.453   1.766   0.381 -0.1666  0.1709 -0.9660
  885MPD2    H713038   0.420   1.689   0.438  0.2543 -0.9562 -2.2600
  886MPD2     C13039   1.842   4.730  15.344  0.3237 -0.0512 -0.7134
  886MPD2    C113040   1.949   0.034  15.424 -0.0245  0.5733  0.2396
  886MPD2    C213041   2.034   0.125  15.377  0.2265  0.7955 -0.0951
  886MPD2    C313042   2.002   0.195  15.263 -0.8053  1.1617 -0.0497
  886MPD2    C413043   1.888   0.166  15.192 -0.0339 -0.6458  0.0723
  886MPD2    C513044   1.816   0.061  15.229  0.1536  0.9500 -0.5194
  886MPD2     H13045   2.126   0.148  15.429  1.2962 -2.1618 -0.7408
  886MPD2    H113046   1.864   0.217  15.100 -0.4769  0.0003  0.5505
  886MPD2    H213047   1.771   4.656  15.377  1.1344 -0.0538  1.0016
  886MPD2    H313048   1.738   0.026  15.162  1.1803 -1.9375 -0.2157
  886MPD2     N13049   2.079   0.297  15.206  0.3226 -0.8197 -0.7501
  886MPD2    H513050   2.040   0.338  15.122 -0.3865 -1.2245 -0.6241
  886MPD2    N113051   1.980   4.716  15.550 -0.0259 -0.0857 -0.0362
  886MPD2    H713052   2.071   4.735  15.590 -0.1355  0.0521  0.1467
  887MPD2     C13053   2.553   4.497  15.903  0.2886  0.2425  0.0610
  887MPD2    C113054   2.464   4.604  15.876 -0.2183 -0.1134 -0.4606
  887MPD2    C213055   2.510   4.731  15.873  0.6487  0.3520 -0.6826
  887MPD2    C313056   2.646   0.019  15.899  0.0563  0.0773 -0.0950
  887MPD2    C413057   2.736   4.650  15.915  0.1656 -0.1449  0.2349
  887MPD2    C513058   2.686   4.518  15.917 -0.4226  0.2099  0.1845
  887MPD2     H13059   2.438   0.075  15.861  2.9748  2.5442 -0.1719
  887MPD2    H113060   2.842   4.651  15.937 -0.5834  0.8618  3.9430
  887MPD2    H213061   2.519   4.395  15.917 -0.2497  0.2342 -1.2811
  887MPD2    H313062   2.743   4.437  15.962 -0.2601  0.7961  1.0492
  887MPD2     N13063   2.696   0.153  15.882  0.0294 -0.1106  0.4066
  887MPD2    H513064   2.627   0.227  15.879  2.7635  2.4031  0.2871
  887MPD2    N113065   2.325   4.590  15.871  0.5531 -0.7603 -0.3464
  887MPD2    H713066   2.265   4.670  15.856 -0.7850 -1.4439  1.3961
  888MPD2     C13067   4.576   0.177  15.081  0.0303  0.3584 -0.4124
  888MPD2    C113068   4.544   0.198  15.216 -0.2707 -0.0042 -0.1567
  888MPD2    C213069   4.610   0.302  15.292 -0.2359  0.0384 -0.7285
  888MPD2    C313070   4.700   0.381  15.225 -0.3230 -0.1753  0.8234
  888MPD2    C413071   4.709   0.367  15.085 -0.2356  0.3417  0.0832
  888MPD2    C513072   4.652   0.269  15.014 -0.3299  0.2525  0.8112
  888MPD2     H13073   4.590   0.315  15.397 -1.5961 -0.1724 -0.9632
  888MPD2    H113074   0.041   0.430  15.029  1.5833 -0.1516  1.7207
  888MPD2    H213075   4.531   0.092  15.031 -1.7093  0.3450  1.1529
  888MPD2    H313076   4.668   0.259  14.908 -0.7472 -1.6412  0.9198
  888MPD2     N13077   0.045   0.471  15.306 -0.1656 -0.3245  0.0100
  888MPD2    H513078   0.031   0.456  15.405  1.1788 -2.7084 -0.1588
  888MPD2    N113079   4.449   0.128  15.286  0.4547  0.0898  0.3491
  888MPD2    H713080   4.437   0.147  15.385 -1.3251  0.1085  0.1328
  889MPD2     C13081   3.812   0.076  13.105  0.3350 -0.0178 -0.1149
  889MPD2    C113082   3.912   0.066  13.206  0.7505  0.5897 -0.1066
  889MPD2    C213083   3.879   0.112  13.334 -0.5818  0.2906 -0.0493
  889MPD2    C313084   3.754   0.170  13.360  0.7219 -0.4209  0.4389
  889MPD2    C413085   3.664   0.182  13.256 -0.3566 -0.2984  0.3745
  889MPD2    C513086   3.691   0.138  13.133 -0.8019 -0.2595  0.2755
  889MPD2     H13087   3.945   0.085  13.416  0.9739  0.8007 -1.1562
  889MPD2    H113088   3.561   0.213  13.270  0.4340  2.5732 -0.2116
  889MPD2    H213089   3.832   0.034  13.007 -1.6594 -0.4222 -0.3432
  889MPD2    H313090   3.608   0.143  13.063  0.1425 -3.6564 -1.0932
  889MPD2     N13091   3.721   0.199  13.491  0.1106  0.1150  0.0350
  889MPD2    H513092   3.791   0.172  13.559 -0.7463 -1.6771  0.2168
  889MPD2    N113093   4.016   4.709  13.186 -0.8416 -0.1450 -0.5634
  889MPD2    H713094   4.020   4.661  13.097 -0.4819  1.5941 -1.4974
  890MPD2     C13095   3.325   1.350  14.819 -0.9159  0.1923  0.8433
  890MPD2    C113096   3.450   1.401  14.857 -0.0259  0.2591  0.3161
  890MPD2    C213097   3.490   1.400  14.995  0.6723 -0.3299  0.2905
  890MPD2    C313098   3.408   1.334  15.089 -0.2665  0.3644  0.0247
  890MPD2    C413099   3.290   1.272  15.052  0.5927  0.6425 -0.2473
  890MPD2    C513100   3.255   1.287  14.917 -0.0346 -0.0990 -0.7048
  890MPD2     H13101   3.579   1.450  15.032  1.7901 -0.4897 -2.1633
  890MPD2    H113102   3.224   1.209  15.112  1.0824  0.8503  0.5157
  890MPD2    H213103   3.284   1.359  14.719  0.7515  1.3211  0.2584
  890MPD2    H313104   3.168   1.240  14.872 -1.1209  0.4485  0.8397
  890MPD2     N13105   3.462   1.339  15.226 -0.1175 -0.0998 -0.2888
  890MPD2    H513106   3.540   1.399  15.252 -0.6992  0.4583  0.1401
  890MPD2    N113107   3.519   1.472  14.757 -0.3493  0.0879  0.4824
  890MPD2    H713108   3.470   1.501  14.673 -1.6213  0.1789  1.2647
  891MPD2     C13109   1.669   0.716  16.784  0.1156  0.5404 -0.5527
  891MPD2    C113110   1.592   0.678  16.895  0.2154  0.3740  0.5178
  891MPD2    C213111   1.654   0.612  16.999 -0.2870  0.5426  0.1082
  891MPD2    C313112   1.794   0.603  17.004  0.0577  0.5620  0.0293
  891MPD2    C413113   1.865   0.644  16.890 -0.2372  0.2672  0.1567
  891MPD2    C513114   1.805   0.695  16.781  0.3022 -0.3479 -0.4072
  891MPD2     H13115   1.601   0.562  17.079 -1.0247 -0.3425 -0.9422
  891MPD2    H113116   1.972   0.625  16.886 -0.1980  0.6664 -0.6307
  891MPD2    H213117   1.620   0.749  16.693  1.4046  0.6447 -1.2146
  891MPD2    H313118   1.855   0.701  16.685  0.7888 -0.5638 -0.1691
  891MPD2     N13119   1.871   0.538  17.108  0.5020 -0.5983  0.7176
  891MPD2    H513120   1.966   0.510  17.087  0.4921 -0.2549  0.2139
  891MPD2    N113121   1.447   0.685  16.881 -0.4513  0.2229 -0.4572
  891MPD2    H713122   1.415   0.741  16.803  0.7208  1.9342  0.2688
  892MPD2     C13123   2.655   1.259  14.809 -0.3994  0.2998 -0.2997
  892MPD2    C113124   2.588   1.174  14.889  0.0112 -0.2634  0.9239
  892MPD2    C213125   2.621   1.040  14.875 -0.3508 -0.3329  0.8009
  892MPD2    C313126   2.728   0.993  14.793 -0.6638  0.0961  0.0155
  892MPD2    C413127   2.802   1.087  14.727 -0.1132  0.4907 -0.1516
  892MPD2    C513128   2.754   1.215  14.725  1.0878  0.8318 -0.4397
  892MPD2     H13129   2.571   0.974  14.945  0.7571 -0.7177  1.2354
  892MPD2    H113130   2.874   1.063  14.651 -0.8389 -0.2237 -0.6138
  892MPD2    H213131   2.641   1.367  14.805  2.2165  0.6208 -0.9647
  892MPD2    H313132   2.807   1.285  14.662  0.0816 -0.2697 -2.5051
  892MPD2     N13133   2.762   0.859  14.782  0.0737 -0.2106  0.2024
  892MPD2    H513134   2.852   0.836  14.741 -0.4374 -1.4896 -0.2101
  892MPD2    N113135   2.462   1.209  14.958 -0.6519 -0.3598 -0.3882
  892MPD2    H713136   2.408   1.131  14.995 -0.0060 -1.2339 -1.2682
  893MPD2     C13137   4.305   3.309   1.931  0.2018  0.1068 -0.6629
  893MPD2    C113138   4.323   3.282   1.802  0.0080  0.5550  0.5004
  893MPD2    C213139   4.256   3.168   1.755  0.6275 -0.3962  0.0127
  893MPD2    C313140   4.172   3.087   1.839 -0.3909  0.0761  0.5393
  893MPD2    C413141   4.169   3.117   1.968  0.0746  0.5120 -0.0916
  893MPD2    C513142   4.226   3.232   2.008  0.0612  0.3861 -0.3003
  893MPD2     H13143   4.302   3.138   1.661  1.9478  3.6705 -0.6165
  893MPD2    H113144   4.118   3.052   2.038  0.2026 -1.3654 -1.7686
  893MPD2    H213145   4.361   3.394   1.969  0.1246 -0.1268 -0.0315
  893MPD2    H313146   4.215   3.265   2.111 -0.1708  1.4235 -0.6565
  893MPD2     N13147   4.112   2.970   1.794  0.6046  1.0371  0.3025
  893MPD2    H513148   4.048   2.935   1.864  1.6523  2.2472  1.8535
  893MPD2    N113149   4.405   3.367   1.722 -0.3959 -0.1674 -0.0029
  893MPD2    H713150   4.449   3.446   1.769  0.9153 -1.1857  0.4794
  894MPD2     C13151   2.265   1.427   1.042 -0.1862 -0.5609 -0.2157
  894MPD2    C113152   2.148   1.496   1.090 -0.2852  0.2128  0.1749
  894MPD2    C213153   2.112   1.610   1.025  0.2235 -0.2432 -0.6749
  894MPD2    C313154   2.185   1.663   0.918 -0.1918  0.4936 -0.5704
  894MPD2    C413155   2.290   1.590   0.863  0.2690 -0.0159  0.8982
  894MPD2    C513156   2.335   1.477   0.930 -0.5671 -0.2311 -0.4906
  894MPD2     H13157   2.018   1.660   1.046  0.5599 -0.2899  0.9035
  894MPD2    H113158   2.342   1.610   0.769  0.2503 -2.5121  0.3686
  894MPD2    H213159   2.309   1.342   1.093  2.3147  0.3269 -0.9217
  894MPD2    H313160   2.419   1.423   0.889  0.6048  1.2585 -0.0874
  894MPD2     N13161   2.151   1.792   0.885 -0.1942 -0.6721  0.6069
  894MPD2    H513162   2.113   1.844   0.964  0.8445  0.5604  0.3109
  894MPD2    N113163   2.068   1.445   1.193  0.3905  0.1017  0.5709
  894MPD2    H713164   1.983   1.495   1.215  1.0087  0.7176  1.5464
  895MPD2     C13165   2.053   0.167  14.395 -1.1150 -0.5801  0.4950
  895MPD2    C113166   1.972   0.140  14.285  0.1503 -0.1606 -0.1225
  895MPD2    C213167   1.989   0.029  14.214  0.2768 -0.2631  0.0135
  895MPD2    C313168   2.095   4.682  14.250  0.1379 -0.4717 -0.2676
  895MPD2    C413169   2.177   4.708  14.355 -0.4637  0.3945  0.3897
  895MPD2    C513170   2.156   0.084  14.429 -0.0134 -0.0560 -0.0508
  895MPD2     H13171   1.909   4.720  14.155  0.2291  1.0082 -0.8807
  895MPD2    H113172   2.260   4.648  14.391 -1.1926 -0.0935  1.2716
  895MPD2    H213173   2.038   0.251  14.463 -0.4071  1.0524 -1.3939
  895MPD2    H313174   2.219   0.107  14.515  0.3499  0.8782 -0.5666
  895MPD2     N13175   2.128   4.566  14.172  0.0129  0.2756  0.5699
  895MPD2    H513176   2.207   4.510  14.203  1.5495  2.1175  0.0009
  895MPD2    N113177   1.851   0.208  14.262  0.6733  0.2435 -0.1833
  895MPD2    H713178   1.798   0.171  14.184  0.4330  1.0525 -0.4014
  896MPD2     C13179   3.473   2.436   1.532  1.0299 -0.2634  0.2230
  896MPD2    C113180   3.477   2.368   1.412  0.6321  0.9728 -0.0325
  896MPD2    C213181   3.368   2.303   1.371 -0.0699  0.2913  0.2666
  896MPD2    C313182   3.255   2.304   1.442 -0.0919 -0.3181 -0.2696
  896MPD2    C413183   3.256   2.360   1.572 -0.4056 -0.5063  0.7786
  896MPD2    C513184   3.362   2.431   1.611 -0.5190 -0.1228  0.1595
  896MPD2     H13185   3.364   2.248   1.278  0.9885 -0.3703  0.6055
  896MPD2    H113186   3.172   2.349   1.639 -1.6932  2.0811 -0.4011
  896MPD2    H213187   3.556   2.495   1.569  0.6757  1.3369 -1.5455
  896MPD2    H313188   3.362   2.484   1.705 -0.1072  0.6212 -0.2547
  896MPD2     N13189   3.141   2.238   1.389  0.8000 -0.0234  0.2481
  896MPD2    H513190   3.156   2.189   1.302  0.4069 -0.7602  0.5878
  896MPD2    N113191   3.594   2.373   1.336  0.0452 -0.9271  0.1717
  896MPD2    H713192   3.664   2.438   1.369  0.4372 -0.3005 -1.8864
  897MPD2     C13193   0.816   4.544  10.629 -0.5104 -0.1364  0.0671
  897MPD2    C113194   0.746   4.667  10.651 -0.3331 -0.2763  0.7172
  897MPD2    C213195   0.646   4.672  10.755 -0.6540  0.2003 -0.6236
  897MPD2    C313196   0.620   4.557  10.832  0.0783  0.2607 -0.5956
  897MPD2    C413197   0.690   4.436  10.801 -0.0679 -0.7792  0.0468
  897MPD2    C513198   0.787   4.425  10.703 -0.5344 -0.4395  0.3715
  897MPD2     H13199   0.583   0.024  10.757 -1.3171 -0.3137  1.8344
  897MPD2    H113200   0.666   4.340  10.847 -1.0878 -0.5330  0.0362
  897MPD2    H213201   0.888   4.537  10.548 -0.5189 -0.1168  0.0579
  897MPD2    H313202   0.834   4.332  10.674  0.1597  0.5890 -1.7871
  897MPD2     N13203   0.495   4.564  10.903  0.0241 -0.1144 -0.2733
  897MPD2    H513204   0.433   4.641  10.883 -0.9089 -0.4437  1.4123
  897MPD2    N113205   0.759   0.035  10.555  0.3049 -0.2748  0.8088
  897MPD2    H713206   0.803   0.012  10.466  1.3394 -1.1757  1.5517
  898MPD2     C13207   2.262   0.873  17.007  0.4719 -0.5229 -0.3778
  898MPD2    C113208   2.314   0.861  17.139  0.2098 -0.2171 -0.0312
  898MPD2    C213209   2.222   0.859  17.246 -0.2625  0.1298  0.4053
  898MPD2    C313210   2.083   0.877  17.228  0.5090 -0.0567 -0.0906
  898MPD2    C413211   2.043   0.907  17.096  0.4568 -0.2132 -0.2728
  898MPD2    C513212   2.129   0.905  16.988 -0.2829  0.1444  0.2549
  898MPD2     H13213   2.269   0.843  17.342 -2.8516  1.5693  1.9146
  898MPD2    H113214   1.941   0.941  17.082  0.3886  0.1089  0.9856
  898MPD2    H213215   2.318   0.864  16.915  1.1599  2.8956 -0.2936
  898MPD2    H313216   2.098   0.925  16.886  1.0577  1.5489  0.1226
  898MPD2     N13217   1.990   0.884  17.334  1.0779  0.7907  0.0020
  898MPD2    H513218   2.031   0.890  17.426  0.0174 -0.2973  0.5440
  898MPD2    N113219   2.445   0.834  17.174 -0.0491 -0.8173 -0.6520
  898MPD2    H713220   2.457   0.797  17.267 -0.1672 -0.7378 -0.6051
  899MPD2     C13221   3.372   1.057  17.515  0.6252  0.8108 -0.3851
  899MPD2    C113222   3.245   1.108  17.478 -0.6771 -0.2325  0.3390
  899MPD2    C213223   3.139   1.076  17.562  0.0455  0.1659 -0.1719
  899MPD2    C313224   3.157   0.992  17.669 -1.0490 -0.3317  0.3528
  899MPD2    C413225   3.282   0.958  17.708 -0.2130 -0.4187  0.3229
  899MPD2    C513226   3.386   0.994  17.631 -0.4768 -0.2237 -0.0482
  899MPD2     H13227   3.044   1.126  17.550  0.3750  0.9143  0.3620
  899MPD2    H113228   3.301   0.889   0.047 -2.7606 -2.7718 -1.0758
  899MPD2    H213229   3.467   1.082  17.470  0.9721 -1.0119 -0.6766
  899MPD2    H313230   3.488   0.969  17.659 -0.8952  1.0515  2.5097
  899MPD2     N13231   3.044   0.951  17.736 -0.6875  0.4634  0.2477
  899MPD2    H513232   3.047   0.919   0.089 -1.0398 -0.3009  0.0019
  899MPD2    N113233   3.237   1.191  17.366  0.5408 -0.2089 -0.1443
  899MPD2    H713234   3.324   1.233  17.335  0.8621  0.6332  1.8956
  900MPD2     C13235   2.982   3.199  12.324 -0.5914 -0.1239 -0.5630
  900MPD2    C113236   2.870   3.126  12.349  0.1111 -0.1433 -0.6118
  900MPD2    C213237   2.748   3.184  12.365 -0.4333  1.0283 -0.1275
  900MPD2    C313238   2.738   3.326  12.365 -0.5657  0.1610  0.4000
  900MPD2    C413239   2.854   3.404  12.337  0.2519  0.3111  0.0778
  900MPD2    C513240   2.972   3.338  12.310  0.1543 -0.5878  0.6430
  900MPD2     H13241   2.657   3.137  12.399 -1.2442  3.1810  0.6593
  900MPD2    H113242   2.854   3.512  12.331  0.4402  0.3983  1.7979
  900MPD2    H213243   3.078   3.149  12.337  0.9964  3.2724  0.5799
  900MPD2    H313244   3.065   3.393  12.308 -1.1313  1.4896 -1.8580
  900MPD2     N13245   2.608   3.387  12.395 -0.2209 -0.0961 -0.1798
  900MPD2    H513246   2.538   3.331  12.441  0.6543 -2.7011 -2.0158
  900MPD2    N113247   2.889   2.985  12.378  0.2067  0.1094  0.0224
  900MPD2    H713248   2.981   2.942  12.369  1.0316  1.7259  0.7336
  901MPD2     C13249   2.709   2.114  12.846 -0.7208  0.1422 -0.5140
  901MPD2    C113250   2.820   2.088  12.771  0.1611 -0.4788 -0.3290
  901MPD2    C213251   2.840   2.151  12.651 -0.6833  0.9630  0.5254
  901MPD2    C313252   2.752   2.250  12.609  0.2967 -0.3118  0.7555
  901MPD2    C413253   2.639   2.278  12.686  0.0550  0.4685 -0.2058
  901MPD2    C513254   2.620   2.205  12.798  0.2408 -1.0150  0.2369
  901MPD2     H13255   2.927   2.123  12.592 -1.8067 -1.2144 -0.0972
  901MPD2    H113256   2.563   2.347  12.653  0.8049  0.3307 -2.2375
  901MPD2    H213257   2.677   2.056  12.932 -0.9382 -0.7783 -1.2233
  901MPD2    H313258   2.526   2.207  12.851  0.1340  1.2691 -0.0650
  901MPD2     N13259   2.787   2.333  12.503 -0.4978  0.0297 -0.5206
  901MPD2    H513260   2.887   2.330  12.483 -1.2232 -0.8978 -3.9550
  901MPD2    N113261   2.899   1.974  12.805 -0.2590 -0.0854  0.0612
  901MPD2    H713262   2.960   1.927  12.739 -0.5836  0.2161 -0.4481
  902MPD2     C13263   1.672   1.285  13.628 -0.0726 -0.1003  0.2861
  902MPD2    C113264   1.682   1.390  13.547 -0.9143  0.9446  0.5557
  902MPD2    C213265   1.801   1.420  13.477 -0.0161  0.7814  0.2695
  902MPD2    C313266   1.902   1.329  13.487 -0.1679 -0.1414 -0.2167
  902MPD2    C413267   1.898   1.223  13.570 -0.0141 -1.1142 -0.6471
  902MPD2    C513268   1.783   1.198  13.639 -0.4792  0.1173 -0.9063
  902MPD2     H13269   1.805   1.511  13.418  0.5060 -0.4195 -1.5309
  902MPD2    H113270   1.982   1.154  13.578 -0.2287 -1.1459  1.2511
  902MPD2    H213271   1.594   1.265  13.702 -1.2833  0.0791 -0.9514
  902MPD2    H313272   1.777   1.108  13.699  0.0638  1.2866  0.9466
  902MPD2     N13273   2.020   1.340  13.407  1.3280  0.4236  0.2305
  902MPD2    H513274   2.096   1.276  13.426 -1.5387 -3.1601 -0.1961
  902MPD2    N113275   1.571   1.473  13.526  0.4611 -0.3101 -0.3001
  902MPD2    H713276   1.588   1.545  13.457 -0.2763  1.7114  1.6556
  903MPD2     C13277   2.274   1.388  12.576  0.8685 -0.0929  0.0222
  903MPD2    C113278   2.275   1.285  12.670 -0.3133 -0.3605  0.0130
  903MPD2    C213279   2.270   1.158  12.620  0.5671 -0.1533 -0.4910
  903MPD2    C313280   2.239   1.132  12.490  0.7756 -0.8246 -0.3313
  903MPD2    C413281   2.237   1.236  12.398  0.4812 -0.1600  0.0238
  903MPD2    C513282   2.259   1.360  12.441 -0.4556  0.0899  0.0274
  903MPD2     H13283   2.284   1.075  12.688  1.8466 -0.1636 -0.7536
  903MPD2    H113284   2.209   1.225  12.294 -1.1909 -1.5851  0.6151
  903MPD2    H213285   2.286   1.493  12.602  1.2863  0.9239 -4.2251
  903MPD2    H313286   2.261   1.441  12.370 -1.0568  0.2719  0.2150
  903MPD2     N13287   2.211   0.999  12.457  0.6685 -0.2690 -0.3248
  903MPD2    H513288   2.203   0.930  12.531  2.0766 -0.7906 -0.6681
  903MPD2    N113289   2.289   1.304  12.811  0.1593 -0.6269  0.2129
  903MPD2    H713290   2.293   1.216  12.862  0.5750 -1.1328 -0.7067
  904MPD2     C13291   1.863   4.242  14.835 -0.0311  0.5517 -0.9464
  904MPD2    C113292   1.882   4.297  14.708  0.0641  0.5186 -0.6252
  904MPD2    C213293   2.011   4.336  14.687 -0.2211 -0.5287  0.2495
  904MPD2    C313294   2.121   4.311  14.771  0.1637  0.1225 -0.2327
  904MPD2    C413295   2.098   4.251  14.887 -0.1007 -0.2652  1.0443
  904MPD2    C513296   1.966   4.221  14.924 -0.0081 -0.0726  0.2138
  904MPD2     H13297   2.036   4.379  14.591  3.4680 -0.5876  1.1920
  904MPD2    H113298   2.177   4.238  14.960 -0.4046 -2.5392  0.9459
  904MPD2    H213299   1.762   4.224  14.870  0.7696 -2.8557 -0.4225
  904MPD2    H313300   1.958   4.186  15.026 -0.5111 -1.5046 -0.3243
  904MPD2     N13301   2.251   4.349  14.737 -0.4619 -0.6931  0.2667
  904MPD2    H513302   2.265   4.394  14.647 -0.1669 -1.1626  0.0751
  904MPD2    N113303   1.788   4.312  14.603 -0.5238  0.3833 -0.8050
  904MPD2    H713304   1.831   4.351  14.520  1.1400  0.5248  0.1123
  905MPD2     C13305   1.481   4.308  13.863 -0.0565  0.0634  0.2054
  905MPD2    C113306   1.589   4.350  13.929 -0.6874  0.1668  0.1579
  905MPD2    C213307   1.709   4.351  13.855 -0.2446  0.4131  0.4782
  905MPD2    C313308   1.725   4.280  13.735 -0.1891 -0.5837  0.2770
  905MPD2    C413309   1.615   4.223  13.682  0.4096 -0.4353 -0.0435
  905MPD2    C513310   1.496   4.247  13.741 -0.1024  0.1077 -0.1034
  905MPD2     H13311   1.801   4.393  13.895 -0.5262  0.0115  1.5427
  905MPD2    H113312   1.618   4.179  13.583 -0.4445 -1.8435  0.5637
  905MPD2    H213313   1.385   4.320  13.913 -0.6829 -1.3918 -0.6327
  905MPD2    H313314   1.407   4.223  13.685 -1.7505  0.1777  2.4717
  905MPD2     N13315   1.832   4.281  13.650 -0.7144 -0.6229  0.0601
  905MPD2    H513316   1.818   4.241  13.558 -0.1104  0.2242 -0.4007
  905MPD2    N113317   1.577   4.405  14.052  0.1098 -0.0253  0.2303
  905MPD2    H713318   1.483   4.417  14.090 -0.6371  0.8676 -1.8883
  906MPD2     C13319   4.101   0.035  11.516 -0.3280  1.0304 -0.1210
  906MPD2    C113320   3.996   4.704  11.456 -0.6612 -0.0700 -0.4991
  906MPD2    C213321   3.909   4.633  11.533  0.4641 -0.0091  0.1686
  906MPD2    C313322   3.924   4.635  11.666 -0.3322  0.0483 -0.1391
  906MPD2    C413323   4.028   4.698  11.732 -0.9281 -0.3428 -0.3558
  906MPD2    C513324   4.116   0.041  11.649  0.8010 -0.1433  0.0010
  906MPD2     H13325   3.828   4.578  11.486 -0.2766 -0.2482  1.7363
  906MPD2    H113326   4.042   4.704  11.839  0.3088 -0.5363 -0.5062
  906MPD2    H213327   4.172   0.095  11.461  0.8723  1.0201  1.4359
  906MPD2    H313328   4.199   0.097  11.691  3.0267 -2.0424 -1.8310
  906MPD2     N13329   3.824   4.574  11.742 -0.3183 -0.7259 -0.3249
  906MPD2    H513330   3.757   4.518  11.690 -1.9814  0.8325  0.1268
  906MPD2    N113331   3.974   4.709  11.315  0.2486 -0.1916  0.2073
  906MPD2    H713332   3.910   4.642  11.273 -0.4548  0.9485 -0.5602
  907MPD2     C13333   2.320   3.582  16.462 -0.1372  0.4976  0.4633
  907MPD2    C113334   2.380   3.475  16.400  0.1399 -0.1213  0.0184
  907MPD2    C213335   2.441   3.383  16.477 -0.1746 -0.0605  0.7150
  907MPD2    C313336   2.437   3.389  16.616 -0.1493  0.1739 -0.1555
  907MPD2    C413337   2.390   3.505  16.674 -0.7836  0.5056  0.0326
  907MPD2    C513338   2.326   3.597  16.598  0.0733 -0.7883 -0.5080
  907MPD2     H13339   2.482   3.297  16.424  0.8234  1.2763 -0.6849
  907MPD2    H113340   2.400   3.528  16.780  0.6592 -3.6407  0.7970
  907MPD2    H213341   2.269   3.661  16.408  2.3599  1.6129 -0.2447
  907MPD2    H313342   2.282   3.687  16.639  1.7070 -0.1651 -0.1475
  907MPD2     N13343   2.511   3.300  16.684 -0.1476 -0.0548 -0.4043
  907MPD2    H513344   2.562   3.230  16.630 -2.1673 -1.8079 -0.0800
  907MPD2    N113345   2.382   3.456  16.262 -0.2192 -0.0141  0.9063
  907MPD2    H713346   2.445   3.382  16.231 -1.4585 -0.3308 -0.8721
  908MPD2     C13347   0.188   4.363  10.111  0.2908 -0.5734 -0.1991
  908MPD2    C113348   0.318   4.337  10.157  0.2794 -0.5491 -0.4176
  908MPD2    C213349   0.394   4.448  10.201 -0.4246  0.5757  0.9303
  908MPD2    C313350   0.349   4.581  10.185 -0.3484 -0.2122 -0.1956
  908MPD2    C413351   0.228   4.599  10.128 -0.0052 -0.0197 -0.1963
  908MPD2    C513352   0.149   4.492  10.093  0.3865 -0.2696 -0.3108
  908MPD2     H13353   0.479   4.427  10.266  1.0035 -1.8976 -1.7465
  908MPD2    H113354   0.185   4.695  10.102 -1.1307 -0.1802  1.0724
  908MPD2    H213355   0.117   4.287  10.082 -2.2879  2.1265 -0.8888
  908MPD2    H313356   0.045   4.508  10.066  0.3957 -0.5067 -0.4837
  908MPD2     N13357   0.436   4.695  10.230 -0.1346 -0.1017  0.0313
  908MPD2    H513358   0.529   4.667  10.257 -0.2343 -1.5553 -1.1478
  908MPD2    N113359   0.351   4.199  10.187 -0.1377  0.2358  0.4599
  908MPD2    H713360   0.281   4.128  10.176  0.5572 -0.0480 -2.1994
  909MPD2     C13361   1.161   2.391  12.166  0.3901 -0.5318  0.8970
  909MPD2    C113362   1.150   2.495  12.076 -0.2719  0.4961  0.3271
  909MPD2    C213363   1.053   2.593  12.091  0.4060 -0.4089 -0.4709
  909MPD2    C313364   0.974   2.593  12.197 -0.2246  0.2396 -0.0006
  909MPD2    C413365   0.984   2.489  12.284  0.2839 -0.1756  0.0203
  909MPD2    C513366   1.074   2.394  12.273  0.4336 -0.1342 -0.4245
  909MPD2     H13367   1.063   2.678  12.025 -0.5688  1.6543  2.0500
  909MPD2    H113368   0.929   2.483  12.377 -1.2182  1.9610 -0.7419
  909MPD2    H213369   1.235   2.312  12.159 -2.4846 -2.9843 -1.6698
  909MPD2    H313370   1.095   2.315  12.344 -0.2694  0.5714  0.5560
  909MPD2     N13371   0.900   2.710  12.218  0.4113 -0.1283 -0.9136
  909MPD2    H513372   0.889   2.771  12.137  1.5383  1.3287  0.0465
  909MPD2    N113373   1.240   2.506  11.964 -0.3811 -0.3480 -0.1694
  909MPD2    H713374   1.222   2.580  11.896  1.2199 -0.8998 -1.2004
  910MPD2     C13375   2.095   3.931  16.691 -0.0372 -0.4502 -0.0718
  910MPD2    C113376   2.000   3.848  16.637 -0.3065 -0.0234  0.4357
  910MPD2    C213377   1.934   3.885  16.520  0.3327 -1.0537  0.2060
  910MPD2    C313378   1.972   3.998  16.453 -0.2118 -0.2931 -0.4993
  910MPD2    C413379   2.075   4.078  16.502 -0.3345 -0.2593  0.0733
  910MPD2    C513380   2.134   4.045  16.623  0.1892 -0.5766  0.0289
  910MPD2     H13381   1.857   3.826  16.473 -0.4717 -1.3630  1.9277
  910MPD2    H113382   2.105   4.172  16.457  0.9040 -0.1154  1.2212
  910MPD2    H213383   2.163   3.895  16.768  0.6565  1.1045  0.0554
  910MPD2    H313384   2.214   4.106  16.663 -0.1373 -0.0414 -0.1233
  910MPD2     N13385   1.895   4.054  16.345 -0.1878 -0.2470 -0.0170
  910MPD2    H513386   1.934   4.136  16.302  2.4193 -0.2837  2.3149
  910MPD2    N113387   1.958   3.725  16.694  0.1299  0.0657  0.3843
  910MPD2    H713388   1.906   3.660  16.635 -0.3805  0.7647  0.0641
  911MPD2     C13389   0.005   4.206  16.425 -0.1749 -0.1471 -0.3219
  911MPD2    C113390   0.050   4.325  16.470  0.2106  0.0080  0.0190
  911MPD2    C213391   4.704   4.436  16.456  0.2579  0.6081  0.4491
  911MPD2    C313392   4.585   4.425  16.385 -0.0282  0.1288  0.4831
  911MPD2    C413393   4.540   4.305  16.343 -0.1398 -0.3411 -0.3189
  911MPD2    C513394   4.616   4.192  16.366  0.0844 -0.4711 -0.0772
  911MPD2     H13395   0.012   4.529  16.490  0.4967  0.6377  0.0669
  911MPD2    H113396   4.451   4.283  16.285  0.5816 -2.2702 -0.6910
  911MPD2    H213397   0.069   4.119  16.437 -0.0649 -0.0527 -0.2288
  911MPD2    H313398   4.580   4.103  16.314 -0.8992 -0.3443  0.3697
  911MPD2     N13399   4.509   4.535  16.351 -0.0844  0.3699  0.1788
  911MPD2    H513400   4.430   4.512  16.292  1.7909 -0.1571 -2.0868
  911MPD2    N113401   0.184   4.336  16.515 -0.1454 -0.1897  0.1337
  911MPD2    H713402   0.247   4.258  16.500 -2.3582 -2.1324  0.8210
  912MPD2     C13403   4.050   4.492  15.798  0.8782 -0.2447 -0.1057
  912MPD2    C113404   4.137   4.465  15.901  0.0644  0.1512 -0.0795
  912MPD2    C213405   4.144   4.336  15.956  0.1175  0.1312  0.2687
  912MPD2    C313406   4.048   4.242  15.931  0.3400 -0.3334 -0.0585
  912MPD2    C413407   3.954   4.273  15.834 -0.3063 -0.4609  0.5291
  912MPD2    C513408   3.960   4.396  15.765 -0.4992  0.2237  0.0557
  912MPD2     H13409   4.214   4.310  16.034 -0.2702 -1.6925  0.0039
  912MPD2    H113410   3.869   4.210  15.809 -1.1842  1.2100 -0.6715
  912MPD2    H213411   4.055   4.594  15.762  0.5480 -0.6529 -1.3027
  912MPD2    H313412   3.888   4.432  15.692 -2.1225  1.7354  2.4051
  912MPD2     N13413   4.060   4.124  15.995  0.3066  0.0324 -0.3195
  912MPD2    H513414   4.123   4.127  16.074 -1.9733 -0.2812  1.5041
  912MPD2    N113415   4.210   4.568  15.956 -1.1168  0.3827  0.5651
  912MPD2    H713416   4.192   4.658  15.912  2.0497  0.0356 -1.4374
  913MPD2     C13417   0.139   0.864  11.134  0.4553  0.2466  0.7253
  913MPD2    C113418   0.206   0.976  11.167  0.1407  0.0567 -0.7048
  913MPD2    C213419   0.229   1.073  11.070  0.8242  0.1839  0.1517
  913MPD2    C313420   0.197   1.045  10.942  0.4040 -0.8069 -0.1002
  913MPD2    C413421   0.139   0.925  10.912  0.5653  0.4172  0.2299
  913MPD2    C513422   0.108   0.834  11.005  0.5876  0.5559 -0.2692
  913MPD2     H13423   0.260   1.173  11.096  0.9531  0.3814 -0.7491
  913MPD2    H113424   0.109   0.901  10.811  1.1358  0.5460  0.0290
  913MPD2    H213425   0.126   0.785  11.207  2.7450 -1.2349 -0.4611
  913MPD2    H313426   0.053   0.744  10.981  0.2366  1.6962 -3.8082
  913MPD2     N13427   0.213   1.146  10.839 -0.3721 -0.1799 -0.1881
  913MPD2    H513428   0.185   1.113  10.747  0.2411 -1.1803 -0.0184
  913MPD2    N113429   0.242   0.989  11.303  0.5867  0.2395  0.2997
  913MPD2    H713430   0.202   0.915  11.360 -3.2636  4.4292  2.9842
  914MPD2     C13431   2.663   1.470  12.252 -0.7201 -0.2129 -0.2734
  914MPD2    C113432   2.743   1.579  12.260  0.9201 -0.2309 -0.9669
  914MPD2    C213433   2.805   1.597  12.382 -0.5459  0.3684 -0.7707
  914MPD2    C313434   2.797   1.513  12.488 -0.7095  0.2790 -0.1858
  914MPD2    C413435   2.711   1.405  12.475 -0.3609  0.1997 -0.3191
  914MPD2    C513436   2.642   1.385  12.357 -0.1932  0.7214  0.6339
  914MPD2     H13437   2.867   1.682  12.406  0.0630 -0.6140  1.1586
  914MPD2    H113438   2.685   1.333  12.551 -1.8248  2.6458  1.5306
  914MPD2    H213439   2.602   1.455  12.164 -0.0492 -0.5894 -0.6737
  914MPD2    H313440   2.580   1.296  12.351 -0.1395  0.7211  0.1052
  914MPD2     N13441   2.871   1.550  12.601 -0.4376 -0.3670  0.1270
  914MPD2    H513442   2.934   1.629  12.593  2.1011 -2.3965  0.2391
  914MPD2    N113443   2.757   1.659  12.149  0.0631 -0.3248  0.3201
  914MPD2    H713444   2.703   1.632  12.068 -0.1609  1.4907 -0.1275
  915MPD2     C13445   0.318   1.061  15.935  0.3559  0.2304 -0.9662
  915MPD2    C113446   0.305   1.178  15.868  0.2150  0.6139  0.3867
  915MPD2    C213447   0.364   1.293  15.912 -0.1587  0.2822  0.1952
  915MPD2    C313448   0.421   1.289  16.037 -0.7648 -0.6565 -0.3842
  915MPD2    C413449   0.443   1.168  16.101 -0.1233  0.1276  0.4527
  915MPD2    C513450   0.395   1.056  16.050  0.2455 -0.5067 -0.6368
  915MPD2     H13451   0.350   1.390  15.865 -1.2690 -0.3874 -0.8307
  915MPD2    H113452   0.492   1.153  16.197 -1.0734  3.3166  1.4505
  915MPD2    H213453   0.263   0.974  15.901  0.7815 -0.8733  1.1577
  915MPD2    H313454   0.406   0.961  16.102  1.5549 -0.0853 -0.1516
  915MPD2     N13455   0.445   1.413  16.102 -0.7718  0.6526  0.6773
  915MPD2    H513456   0.416   1.494  16.047 -2.8974  0.7505  1.9368
  915MPD2    N113457   0.217   1.169  15.759  0.2793  0.2820 -0.0180
  915MPD2    H713458   0.159   1.087  15.746  3.4553 -1.8271 -0.7082
  916MPD2     C13459   3.377   4.124  15.709  0.3647 -0.3194  0.1608
  916MPD2    C113460   3.469   4.164  15.798 -0.3954  0.6525  0.0065
  916MPD2    C213461   3.600   4.135  15.771  0.0338  0.2199  0.3384
  916MPD2    C313462   3.634   4.074  15.650 -0.0345 -0.0545 -0.6753
  916MPD2    C413463   3.540   4.055  15.554 -0.3676 -0.0361 -0.7258
  916MPD2    C513464   3.413   4.079  15.588 -0.3120  0.0685  0.8177
  916MPD2     H13465   3.677   4.161  15.843 -0.8527 -0.4944  1.5318
  916MPD2    H113466   3.556   4.011  15.456 -0.6867 -1.0454 -0.3210
  916MPD2    H213467   3.272   4.132  15.732 -0.4521 -3.3223 -2.5329
  916MPD2    H313468   3.335   4.049  15.519  1.3925 -0.9157 -0.6903
  916MPD2     N13469   3.774   4.044  15.632 -0.0858 -0.8101  0.2864
  916MPD2    H513470   3.825   4.039  15.719  1.3532 -0.4276 -0.5473
  916MPD2    N113471   3.429   4.228  15.912  0.5455 -0.7992 -0.0954
  916MPD2    H713472   3.331   4.239  15.937  0.2481  2.3781 -2.7117
  917MPD2     C13473   3.950   1.766  11.378  0.2688  0.5341 -0.1151
  917MPD2    C113474   3.938   1.902  11.398 -0.6914 -0.4619 -0.0094
  917MPD2    C213475   3.965   1.979  11.289  0.0090  0.0118 -0.6427
  917MPD2    C313476   4.001   1.931  11.164  0.1031 -0.3261 -0.3007
  917MPD2    C413477   4.002   1.795  11.142  0.3035  0.3043 -0.5341
  917MPD2    C513478   3.980   1.716  11.252 -0.0146  0.6442 -0.2176
  917MPD2     H13479   3.953   2.086  11.300  0.7956  0.1661 -1.3294
  917MPD2    H113480   4.011   1.746  11.046 -0.2297 -0.9409  0.0561
  917MPD2    H213481   3.938   1.697  11.461 -0.1565  0.9877  0.2026
  917MPD2    H313482   3.979   1.609  11.234 -0.7266  0.8424 -1.3906
  917MPD2     N13483   4.043   2.019  11.050 -0.4534  0.0076  0.1880
  917MPD2    H513484   4.065   1.974  10.962  1.6414  0.2665  0.5885
  917MPD2    N113485   3.892   1.950  11.522 -0.0258  0.0037 -0.1242
  917MPD2    H713486   3.874   1.877  11.590  2.6185 -0.3740  0.1489
  918MPD2     C13487   4.263   2.520  12.248  0.0416 -0.3239  0.4908
  918MPD2    C113488   4.240   2.388  12.276 -0.4981  0.3696 -0.5304
  918MPD2    C213489   4.134   2.324  12.212 -0.6629 -0.1850 -0.1242
  918MPD2    C313490   4.058   2.396  12.122  0.2324  0.6674  0.4530
  918MPD2    C413491   4.086   2.529  12.099 -0.3887  1.0195 -0.1123
  918MPD2    C513492   4.175   2.591  12.173  0.5165  0.5930  0.0960
  918MPD2     H13493   4.119   2.217  12.215 -0.2693 -0.1765  1.7051
  918MPD2    H113494   4.025   2.598  12.042  1.3031  0.1983 -2.9626
  918MPD2    H213495   4.338   2.569  12.308  0.8492 -0.4086 -0.4521
  918MPD2    H313496   4.191   2.698  12.169 -0.4793  0.6409 -2.7051
  918MPD2     N13497   3.958   2.319  12.046  0.7781 -0.2285 -0.3836
  918MPD2    H513498   3.954   2.220  12.066  0.4158 -0.0390  0.5072
  918MPD2    N113499   4.318   2.311  12.358  0.1770  0.0198 -0.0279
  918MPD2    H713500   4.287   2.216  12.378 -0.5745  0.2466 -0.1172
  919MPD2     C13501   0.574   1.168  12.098  0.2790  0.0109  0.5234
  919MPD2    C113502   0.469   1.083  12.091  0.5273  0.1219 -0.2347
  919MPD2    C213503   0.349   1.125  12.036  0.0453  0.2526  0.5021
  919MPD2    C313504   0.347   1.241  11.957 -0.7332  0.1203 -0.1856
  919MPD2    C413505   0.460   1.322  11.964 -0.2061 -0.4762 -0.3304
  919MPD2    C513506   0.563   1.294  12.046 -0.5215  0.6146  0.2183
  919MPD2     H13507   0.263   1.060  12.048 -1.5617  1.9558 -1.8738
  919MPD2    H113508   0.467   1.411  11.903  0.6228 -0.3862 -0.0926
  919MPD2    H213509   0.668   1.143  12.146  0.2334 -0.6692  0.2568
  919MPD2    H313510   0.649   1.361  12.046 -1.5192  1.8976  1.5167
  919MPD2     N13511   0.239   1.285  11.876  0.1988 -0.5506 -0.7778
  919MPD2    H513512   0.253   1.367  11.818  0.3513 -0.4607 -0.6105
  919MPD2    N113513   0.480   0.954  12.144 -0.2571  0.0162 -0.1806
  919MPD2    H713514   0.392   0.905  12.150 -0.5780  0.5752 -0.4256
  920MPD2     C13515   0.028   1.451  10.915  0.1810 -0.0931 -0.1536
  920MPD2    C113516   4.678   1.343  10.950 -0.0289 -0.6730 -0.2763
  920MPD2    C213517   4.672   1.305  11.086  0.5812 -0.0959 -0.9030
  920MPD2    C313518   0.025   1.360  11.177 -0.3279  0.6983 -0.6894
  920MPD2    C413519   0.112   1.457  11.137  0.2891  0.4353 -0.5511
  920MPD2    C513520   0.112   1.505  11.009  0.3195  0.8421 -0.9548
  920MPD2     H13521   4.613   1.222  11.122 -0.3960  0.1708 -1.8648
  920MPD2    H113522   0.181   1.504  11.207 -0.6065  1.3489 -0.2884
  920MPD2    H213523   0.029   1.487  10.813 -0.1983 -1.3795 -0.6150
  920MPD2    H313524   0.191   1.571  10.976 -1.6608  3.5451 -0.2942
  920MPD2     N13525   0.011   1.320  11.310  0.2312 -0.7070 -0.6044
  920MPD2    H513526   4.678   1.249  11.333 -0.9784  0.3582 -0.9295
  920MPD2    N113527   4.580   1.283  10.863 -0.0152 -0.7690 -0.3336
  920MPD2    H713528   4.525   1.213  10.913  2.5616 -1.8325  1.0351
  921MPD2     C13529   0.674   0.323  17.064  0.1809  0.4943 -0.0308
  921MPD2    C113530   0.730   0.315  16.935 -0.0488 -0.5290  0.4143
  921MPD2    C213531   0.693   0.210  16.853 -0.0010 -0.0786 -0.1982
  921MPD2    C313532   0.599   0.108  16.890 -0.3958  0.2946  0.5868
  921MPD2    C413533   0.549   0.120  17.019 -0.5978 -0.0022  0.1329
  921MPD2    C513534   0.591   0.215  17.101  0.2617  0.1467 -0.5963
  921MPD2     H13535   0.738   0.202  16.755  0.0383  0.1697 -0.2004
  921MPD2    H113536   0.486   0.045  17.065 -0.9098  0.1754 -0.0050
  921MPD2    H213537   0.696   0.401  17.136  0.4440 -1.1165  1.6316
  921MPD2    H313538   0.546   0.218  17.200  0.8675  1.3423 -0.3607
  921MPD2     N13539   0.573   4.729  16.816 -0.5842  0.6795  0.2419
  921MPD2    H513540   0.515   4.659  16.862 -0.0764  0.2202  0.1867
  921MPD2    N113541   0.806   0.416  16.874 -0.0439 -0.2094  0.2387
  921MPD2    H713542   0.825   0.404  16.775  0.0627 -0.4875  0.2932
  922MPD2     C13543   1.365   2.886  17.330  0.4004  0.3850 -1.0518
  922MPD2    C113544   1.281   2.947  17.421 -0.4143  0.5582 -0.0723
  922MPD2    C213545   1.158   2.886  17.437  0.3091  0.2061 -0.0306
  922MPD2    C313546   1.110   2.783  17.361  1.4178  0.4532  0.0893
  922MPD2    C413547   1.191   2.733  17.262 -0.4840  0.5308 -0.9759
  922MPD2    C513548   1.320   2.777  17.257 -0.5091  0.2660 -0.4276
  922MPD2     H13549   1.087   2.930  17.506 -0.6321  0.7741 -1.3617
  922MPD2    H113550   1.154   2.662  17.189  1.2561 -0.3214 -1.0278
  922MPD2    H213551   1.456   2.936  17.299  1.1270 -1.5343 -2.0740
  922MPD2    H313552   1.375   2.733  17.175 -0.0365  0.8787 -0.4381
  922MPD2     N13553   0.975   2.744  17.383  0.5313  0.4814 -0.2343
  922MPD2    H513554   0.928   2.775  17.468 -0.4339  1.8506 -1.2469
  922MPD2    N113555   1.298   3.072  17.481 -0.1004  0.0027  0.0664
  922MPD2    H713556   1.214   3.116  17.516 -0.2600 -1.3154  1.3362
  923MPD2     C13557   3.161   0.174   9.882  0.3483 -0.0238 -0.4759
  923MPD2    C113558   3.121   0.306   9.894 -0.3190  0.0286 -0.3571
  923MPD2    C213559   3.204   0.404   9.948  1.3127 -0.1156 -0.0838
  923MPD2    C313560   3.321   0.363  10.008  0.0647  0.3858  0.1034
  923MPD2    C413561   3.358   0.228  10.002  0.3083  0.0475 -0.3652
  923MPD2    C513562   3.279   0.131   9.939  0.1552 -0.6868 -0.0138
  923MPD2     H13563   3.164   0.504   9.955  0.3507 -0.7645  3.7325
  923MPD2    H113564   3.448   0.190  10.049  0.7340  0.8149 -0.5561
  923MPD2    H213565   3.110   0.109   9.812  0.6246  0.8527 -1.4859
  923MPD2    H313566   3.311   0.027   9.932  0.8998 -0.4250 -0.4970
  923MPD2     N13567   3.414   0.457  10.071 -0.3671  0.6003 -0.4401
  923MPD2    H513568   3.498   0.422  10.114 -1.7339 -0.8872  1.0278
  923MPD2    N113569   2.995   0.343   9.832 -0.0290 -0.2469 -0.2735
  923MPD2    H713570   2.948   0.273   9.776 -1.1189  1.1674 -1.1541
  924MPD2     C13571   2.910   2.828  16.286 -0.6696 -0.2378 -0.1420
  924MPD2    C113572   2.836   2.771  16.391 -0.6931 -1.2551 -0.0213
  924MPD2    C213573   2.843   2.835  16.515  0.2303  0.3832 -0.2257
  924MPD2    C313574   2.903   2.958  16.537 -0.2341  0.0683  1.2129
  924MPD2    C413575   2.972   3.014  16.433 -0.0597  0.4947 -0.6556
  924MPD2    C513576   2.978   2.944  16.317  0.4631 -0.8718  0.2100
  924MPD2     H13577   2.788   2.790  16.597  1.2495  0.9829  0.7799
  924MPD2    H113578   3.010   3.114  16.449 -1.3281  1.1140 -1.5538
  924MPD2    H213579   2.906   2.783  16.187 -0.3897 -0.4548 -0.0552
  924MPD2    H313580   3.025   2.991  16.232  0.3514  0.5126  0.9250
  924MPD2     N13581   2.898   3.026  16.663  0.1672 -0.3829  0.6018
  924MPD2    H513582   2.915   3.127  16.665  0.1206 -0.3817  0.9546
  924MPD2    N113583   2.745   2.661  16.380 -0.1779 -0.4399 -0.3869
  924MPD2    H713584   2.687   2.646  16.463  3.0755 -2.2660  1.5428
  925MPD2     C13585   1.746   0.892  15.007  0.5973 -1.1514  0.1996
  925MPD2    C113586   1.620   0.914  14.972  0.3815  0.2614  0.1880
  925MPD2    C213587   1.526   0.927  15.073 -0.5129  0.0551  0.4498
  925MPD2    C313588   1.568   0.948  15.202 -0.3798 -0.1124 -0.2538
  925MPD2    C413589   1.698   0.950  15.225 -0.6799  0.2195  0.3510
  925MPD2    C513590   1.795   0.917  15.132  0.0459 -0.0442 -0.0111
  925MPD2     H13591   1.422   0.919  15.042 -0.8074 -0.1833  1.4802
  925MPD2    H113592   1.730   0.984  15.322  0.4304 -1.9047  0.7412
  925MPD2    H213593   1.820   0.858  14.936 -0.2765 -0.6383 -0.9589
  925MPD2    H313594   1.901   0.906  15.150 -0.0264 -1.2180 -0.3087
  925MPD2     N13595   1.478   0.973  15.313  0.6940 -0.0580  0.5857
  925MPD2    H513596   1.521   0.979  15.405  0.2983  1.3708  0.6817
  925MPD2    N113597   1.582   0.884  14.832 -0.0852  0.8916  1.2239
  925MPD2    H713598   1.482   0.874  14.816  0.3396 -0.8483 -0.3795
  926MPD2     C13599   0.494   3.826  13.491  0.1818 -0.1526  0.0034
  926MPD2    C113600   0.418   3.947  13.474  0.3386  0.0164  0.2745
  926MPD2    C213601   0.487   4.059  13.418 -0.1832 -0.5934  0.1805
  926MPD2    C313602   0.620   4.050  13.380 -0.4596 -0.3248  0.4313
  926MPD2    C413603   0.689   3.933  13.396 -0.1259 -0.4519  0.3739
  926MPD2    C513604   0.628   3.819  13.447  0.6083 -0.1466 -0.6187
  926MPD2     H13605   0.441   4.157  13.419  0.7892 -0.1264 -0.6556
  926MPD2    H113606   0.789   3.927  13.356 -0.1083  2.0671  0.0625
  926MPD2    H213607   0.457   3.732  13.530 -0.0995 -0.2695 -0.5499
  926MPD2    H313608   0.679   3.724  13.451  0.0460 -0.4229  0.1016
  926MPD2     N13609   0.703   4.157  13.332  0.3405  0.2715 -0.4737
  926MPD2    H513610   0.803   4.155  13.348  0.3331  1.4100 -0.2893
  926MPD2    N113611   0.281   3.961  13.519 -0.3765  0.4605  0.9944
  926MPD2    H713612   0.238   4.053  13.516  0.5350  0.8550 -0.0148
  927MPD2     C13613   4.283   1.508  17.655 -0.0739  0.5240 -0.1380
  927MPD2    C113614   4.328   1.390  17.718 -0.4816 -0.2011  0.4907
  927MPD2    C213615   4.431   1.312  17.662  0.4528 -0.1191  0.3932
  927MPD2    C313616   4.499   1.362  17.554 -0.0780  0.8714  0.4951
  927MPD2    C413617   4.463   1.483  17.496  0.7717 -0.0892 -0.3493
  927MPD2    C513618   4.355   1.547  17.540  0.5144  0.6316  0.4546
  927MPD2     H13619   4.460   1.216  17.702 -0.2391 -0.5457 -0.1492
  927MPD2    H113620   4.513   1.533  17.414 -1.1713  0.0008 -1.4658
  927MPD2    H213621   4.199   1.572  17.677  0.6853  0.8889  1.6517
  927MPD2    H313622   4.313   1.632  17.486  1.6484  0.3008 -0.9394
  927MPD2     N13623   4.603   1.283  17.503  0.4639  0.2909  0.7259
  927MPD2    H513624   4.633   1.202  17.556 -1.8806 -1.0988 -0.0844
  927MPD2    N113625   4.272   1.354   0.106  0.6157 -0.3793  0.3326
  927MPD2    H713626   4.188   1.402   0.138  0.7405 -0.4261  0.7270
  928MPD2     C13627   2.398   4.345   1.183  0.1991 -0.0832  0.5132
  928MPD2    C113628   2.512   4.414   1.216 -0.9114  0.6784 -0.3315
  928MPD2    C213629   2.629   4.373   1.155  0.3764  0.3745 -1.2129
  928MPD2    C313630   2.634   4.274   1.059 -0.1052  0.2702  0.4171
  928MPD2    C413631   2.516   4.212   1.026  0.9417  0.3142 -0.1579
  928MPD2    C513632   2.402   4.238   1.100 -0.5359  0.2559  0.3216
  928MPD2     H13633   2.717   4.433   1.171 -1.1449  1.1761  4.1100
  928MPD2    H113634   2.526   4.145   0.942 -0.8018  1.8237 -1.5822
  928MPD2    H213635   2.299   4.373   1.217 -0.8078 -3.7913  0.7101
  928MPD2    H313636   2.308   4.193   1.071 -1.3050  1.2942  1.2014
  928MPD2     N13637   2.754   4.250   0.979  0.1294 -0.1411  0.3638
  928MPD2    H513638   2.749   4.193   0.895  0.7145 -0.7682  0.7580
  928MPD2    N113639   2.498   4.536   1.289 -0.9624 -0.2039 -0.4929
  928MPD2    H713640   2.402   4.564   1.305 -0.6573 -0.2653  1.4438
  929MPD2     C13641   3.058   0.059  11.058  0.3800 -1.2407  0.1036
  929MPD2    C113642   2.927   0.072  11.087  0.7850  0.3317 -0.6851
  929MPD2    C213643   2.840   0.106  10.988  0.2893  0.0939 -0.1996
  929MPD2    C313644   2.888   0.141  10.861  0.2358 -0.0365  0.5538
  929MPD2    C413645   3.022   0.125  10.839 -0.5815 -0.8033 -1.2599
  929MPD2    C513646   3.107   0.080  10.936 -0.3795 -0.3461 -0.6951
  929MPD2     H13647   2.735   0.127  11.008  0.5497 -1.4787  2.7732
  929MPD2    H113648   3.051   0.158  10.740  1.6125  2.3050  0.4427
  929MPD2    H213649   3.119   0.032  11.143 -0.2256  1.8903  1.5286
  929MPD2    H313650   3.214   0.092  10.925 -0.3030 -0.9335 -0.6404
  929MPD2     N13651   2.803   0.174  10.752  0.2091  0.0095 -0.3847
  929MPD2    H513652   2.844   0.200  10.663  0.0955 -1.2689 -0.8098
  929MPD2    N113653   2.879   0.053  11.217 -0.0386 -0.3963  0.7390
  929MPD2    H713654   2.950   0.056  11.289  0.0821  0.3598  0.5939
  930MPD2     C13655   4.419   2.471  14.302  0.1080 -0.3953  0.1049
  930MPD2    C113656   4.490   2.380  14.227 -0.3894 -0.0834 -0.8402
  930MPD2    C213657   4.435   2.263  14.179 -0.0268 -0.5414  0.0209
  930MPD2    C313658   4.300   2.230  14.204  0.2240  0.3643  0.1879
  930MPD2    C413659   4.228   2.333  14.264 -0.0956 -0.0664  0.2314
  930MPD2    C513660   4.283   2.444  14.314 -0.8367  0.2909  0.0127
  930MPD2     H13661   4.496   2.186  14.134  1.4056 -0.0133  1.0667
  930MPD2    H113662   4.124   2.316  14.288 -0.4630  2.7242  0.5445
  930MPD2    H213663   4.467   2.550  14.358 -0.5062  0.7306 -0.9693
  930MPD2    H313664   4.219   2.521  14.355 -1.9599 -0.8822  0.4475
  930MPD2     N13665   4.233   2.109  14.183  0.4562  0.1938  0.0887
  930MPD2    H513666   4.149   2.109  14.240 -1.7453  2.1554 -3.1871
  930MPD2    N113667   4.625   2.418  14.203  0.2019 -0.0361  0.2706
  930MPD2    H713668   4.667   2.491  14.260 -2.2600  1.8650 -0.3462
  931MPD2     C13669   4.719   1.276   0.705 -0.2897  1.1510  0.0992
  931MPD2    C113670   4.588   1.276   0.745 -0.0569 -0.1776  0.4085
  931MPD2    C213671   4.560   1.251   0.880 -0.0261 -0.2679 -0.1822
  931MPD2    C313672   4.665   1.208   0.964  1.2596 -0.0908  0.3143
  931MPD2    C413673   0.059   1.203   0.921 -0.6747 -0.2524  0.2080
  931MPD2    C513674   0.083   1.244   0.794 -0.1951 -0.1791 -0.4324
  931MPD2     H13675   4.457   1.225   0.905 -0.9766  3.1325 -0.6279
  931MPD2    H113676   0.136   1.161   0.984 -0.4210 -1.1491 -0.6988
  931MPD2    H213677   0.006   1.282   0.599 -2.3666  0.7281 -0.3678
  931MPD2    H313678   0.188   1.248   0.765  0.1540 -1.0817  0.7224
  931MPD2     N13679   4.644   1.158   1.091 -0.3886 -0.3639 -0.2163
  931MPD2    H513680   4.724   1.105   1.123  0.1649  0.1399 -0.7576
  931MPD2    N113681   4.490   1.296   0.649 -0.2458  0.3078  0.0632
  931MPD2    H713682   4.529   1.300   0.555 -0.3871  2.4146  0.0809
  932MPD2     C13683   2.299   0.602  11.844  0.3558 -0.0192  0.1998
  932MPD2    C113684   2.311   0.724  11.911 -0.3991  0.0488 -0.4962
  932MPD2    C213685   2.384   0.715  12.030 -0.5976  0.5749  0.1512
  932MPD2    C313686   2.437   0.596  12.074  0.0575 -0.1588  0.0999
  932MPD2    C413687   2.430   0.483  11.994 -0.1028 -0.7538 -0.3275
  932MPD2    C513688   2.356   0.486  11.880  0.9703 -0.2913  0.6176
  932MPD2     H13689   2.394   0.801  12.096  0.7522 -0.2192  0.9773
  932MPD2    H113690   2.474   0.391  12.029  0.5173 -0.0969  0.6260
  932MPD2    H213691   2.253   0.593  11.746  0.7229 -0.5767  0.0777
  932MPD2    H313692   2.336   0.396  11.823 -2.6478  0.1548  1.2039
  932MPD2     N13693   2.497   0.572  12.201  0.2011 -0.1433  0.2006
  932MPD2    H513694   2.533   0.478  12.206  1.8157  0.5125  0.8334
  932MPD2    N113695   2.261   0.850  11.859  0.0908 -0.0613  0.1121
  932MPD2    H713696   2.274   0.937  11.909 -1.0582  1.0049 -1.4518
  933MPD2     C13697   1.977   0.171   1.357  0.3505  1.0991  0.4711
  933MPD2    C113698   2.078   0.245   1.289 -0.1296  0.1499  0.7503
  933MPD2    C213699   2.041   0.361   1.221 -0.1778 -0.5551 -0.5758
  933MPD2    C313700   1.917   0.419   1.231 -1.0075  0.5606  0.1979
  933MPD2    C413701   1.834   0.358   1.317  0.1680  0.1626 -0.4088
  933MPD2    C513702   1.854   0.232   1.372 -0.5818  0.2320  0.2366
  933MPD2     H13703   2.109   0.399   1.146  1.3294 -0.2993  0.9422
  933MPD2    H113704   1.745   0.412   1.347  0.0229 -0.9534  1.1930
  933MPD2    H213705   1.998   0.079   1.410 -1.1999  0.1154 -0.6196
  933MPD2    H313706   1.781   0.182   1.435 -0.0780  0.6335  1.1395
  933MPD2     N13707   1.887   0.538   1.162 -0.6597 -0.3530  0.3505
  933MPD2    H513708   1.971   0.578   1.122 -0.8367 -0.8230 -0.4895
  933MPD2    N113709   2.211   0.201   1.298  0.2853 -0.2027  0.2688
  933MPD2    H713710   2.224   0.109   1.339 -0.8054 -1.2765 -1.7631
  934MPD2     C13711   3.032   2.370   2.029  0.0049 -0.3263  0.7966
  934MPD2    C113712   3.136   2.314   1.956 -0.8699 -0.1904 -0.8626
  934MPD2    C213713   3.108   2.207   1.863 -0.3692  1.1383  0.4849
  934MPD2    C313714   2.982   2.152   1.855  0.1897  0.3004  0.9098
  934MPD2    C413715   2.894   2.193   1.948 -0.0939 -0.6178 -0.0375
  934MPD2    C513716   2.915   2.308   2.027  0.4469 -0.4161 -0.2202
  934MPD2     H13717   3.188   2.173   1.799 -2.6441  0.0772 -1.8161
  934MPD2    H113718   2.802   2.137   1.965 -0.7322 -0.0117 -1.4898
  934MPD2    H213719   3.054   2.448   2.102  0.2987  0.1492  0.2019
  934MPD2    H313720   2.839   2.340   2.097  1.0287  0.1535  0.1439
  934MPD2     N13721   2.937   2.053   1.764  0.5155 -0.2186  0.2453
  934MPD2    H513722   2.845   2.012   1.781 -0.1082  2.8108  4.1726
  934MPD2    N113723   3.269   2.358   1.963 -0.1042  0.3334  0.2660
  934MPD2    H713724   3.337   2.297   1.919 -0.3803 -0.1844  0.5581
  935MPD2     C13725   3.544   1.475   1.253  0.1886  0.4288  0.1149
  935MPD2    C113726   3.425   1.453   1.178  0.4706 -0.1475  0.5235
  935MPD2    C213727   3.310   1.522   1.208  0.2375  0.4668  0.2299
  935MPD2    C313728   3.311   1.601   1.321 -0.2168 -0.8403  0.1855
  935MPD2    C413729   3.424   1.624   1.400 -0.0697 -0.3669 -0.3745
  935MPD2    C513730   3.542   1.557   1.356  0.1732  0.5433 -0.1554
  935MPD2     H13731   3.223   1.528   1.144 -1.9594  3.0249  3.4985
  935MPD2    H113732   3.429   1.683   1.490 -1.4715 -1.0248  0.1240
  935MPD2    H213733   3.637   1.424   1.235 -0.8030 -1.0818 -0.6925
  935MPD2    H313734   3.636   1.569   1.409 -0.3910 -0.7300  1.1590
  935MPD2     N13735   3.201   1.669   1.374  0.2509  0.0677 -0.5095
  935MPD2    H513736   3.226   1.738   1.445 -1.2330 -1.2697  1.2983
  935MPD2    N113737   3.418   1.372   1.063  0.3632  0.5853  0.1148
  935MPD2    H713738   3.326   1.363   1.021  1.3415  1.1812 -2.1568
  936MPD2     C13739   2.707   3.469  12.852  0.4224  0.7144  0.4323
  936MPD2    C113740   2.632   3.565  12.919 -0.4542  0.3226  0.0584
  936MPD2    C213741   2.618   3.691  12.867 -0.1478  0.1272 -0.5047
  936MPD2    C313742   2.673   3.721  12.742  0.0208 -0.1197  0.1366
  936MPD2    C413743   2.749   3.625  12.678 -0.4252  0.6252 -0.2371
  936MPD2    C513744   2.757   3.502  12.728  0.7998  0.2327  0.3663
  936MPD2     H13745   2.551   3.768  12.905  1.7674  0.1452  2.8188
  936MPD2    H113746   2.805   3.651  12.588 -0.6749  1.1588 -0.2369
  936MPD2    H213747   2.735   3.374  12.895 -0.9079  0.5161  0.8715
  936MPD2    H313748   2.828   3.430  12.689  1.2462 -0.0066  1.5966
  936MPD2     N13749   2.651   3.853  12.692 -0.1822 -0.3476 -0.1270
  936MPD2    H513750   2.599   3.907  12.760 -0.1184 -0.5508  0.0845
  936MPD2    N113751   2.566   3.547  13.038 -0.0175 -0.1087  0.5485
  936MPD2    H713752   2.503   3.621  13.069 -0.7909 -0.5750  0.0769
  937MPD2     C13753   0.515   0.409  11.705 -0.2755 -0.0150 -0.2698
  937MPD2    C113754   0.601   0.508  11.743 -0.1169  0.1360 -0.9485
  937MPD2    C213755   0.623   0.618  11.659 -0.0882  0.1133  0.1691
  937MPD2    C313756   0.568   0.624  11.530  0.7292  0.5365 -0.3497
  937MPD2    C413757   0.485   0.521  11.497 -0.1992  0.4624 -0.1019
  937MPD2    C513758   0.456   0.415  11.582  0.7566  0.7325 -0.2117
  937MPD2     H13759   0.676   0.701  11.704 -0.2560  0.1316  0.3369
  937MPD2    H113760   0.449   0.515  11.395 -0.5312  1.6503 -0.0532
  937MPD2    H213761   0.487   0.332  11.775  0.0715  0.8964  0.8687
  937MPD2    H313762   0.390   0.334  11.556 -0.3700  1.4486  0.4384
  937MPD2     N13763   0.605   0.724  11.440  1.0935 -0.3513 -0.4493
  937MPD2    H513764   0.683   0.781  11.470  0.5754  0.3250 -0.3743
  937MPD2    N113765   0.633   0.531  11.880 -0.1176 -0.3971 -0.8376
  937MPD2    H713766   0.668   0.624  11.899 -0.2718 -0.3087 -0.9820
  938MPD2     C13767   2.431   1.484   0.085 -0.3041  0.4247  0.0950
  938MPD2    C113768   2.409   1.548   0.205  0.4676  0.6014 -0.0172
  938MPD2    C213769   2.374   1.476   0.321 -0.2315 -0.0055  0.3881
  938MPD2    C313770   2.361   1.338   0.313 -0.2697  0.3174  0.4137
  938MPD2    C413771   2.386   1.277   0.189 -0.5929 -0.7744 -0.2010
  938MPD2    C513772   2.410   1.354   0.082  0.1666 -0.3031  0.8449
  938MPD2     H13773   2.354   1.530   0.412  2.4484  3.4154 -1.0808
  938MPD2    H113774   2.381   1.169   0.177  0.5445 -1.0103  1.4617
  938MPD2    H213775   2.448   1.534  17.734 -0.7575 -0.0765 -0.2561
  938MPD2    H313776   2.423   1.305  17.729  0.2831  2.0155 -0.3408
  938MPD2     N13777   2.328   1.252   0.423  0.0586 -0.1724 -0.3229
  938MPD2    H513778   2.350   1.153   0.413  1.3396  0.1861 -1.1305
  938MPD2    N113779   2.418   1.689   0.212  0.2395  0.0481 -0.7296
  938MPD2    H713780   2.421   1.724   0.307  2.4798  0.8067 -1.0655
  939MPD2     C13781   3.081   2.446   1.117  0.4456  0.2659  0.2592
  939MPD2    C113782   2.997   2.520   1.041  1.0757  0.3690  0.1960
  939MPD2    C213783   3.017   2.529   0.906  0.2789  0.7690  0.1764
  939MPD2    C313784   3.100   2.446   0.835  0.3863 -0.0441  0.6092
  939MPD2    C413785   3.174   2.366   0.907  0.0132  0.0268 -0.3341
  939MPD2    C513786   3.171   2.365   1.040 -0.3225 -0.2237  0.2884
  939MPD2     H13787   2.958   2.594   0.842 -0.6154  1.0939  1.3439
  939MPD2    H113788   3.253   2.313   0.856  0.5590 -0.9292  1.4738
  939MPD2    H213789   3.074   2.447   1.225  0.1209  0.7720  0.2342
  939MPD2    H313790   3.239   2.300   1.093  0.6063  0.3278 -0.2444
  939MPD2     N13791   3.118   2.464   0.693  0.2889 -0.3443  0.0926
  939MPD2    H513792   3.073   2.538   0.640  0.4068  1.0837  1.9566
  939MPD2    N113793   2.894   2.594   1.106  0.4326 -0.0418 -0.1965
  939MPD2    H713794   2.881   2.592   1.206  1.4886 -0.8516 -0.0658
  940MPD2     C13795   3.594   4.461  13.003  0.3516 -0.5221  0.0178
  940MPD2    C113796   3.526   4.343  13.012  0.3837 -0.5968  0.8043
  940MPD2    C213797   3.589   4.227  13.015  0.0047 -0.5865  0.3125
  940MPD2    C313798   3.725   4.230  12.989  1.0572  0.1710  0.1907
  940MPD2    C413799   3.796   4.348  12.984  0.0742  0.2095 -0.2317
  940MPD2    C513800   3.731   4.460  13.000 -0.2651  0.0337  0.9052
  940MPD2     H13801   3.541   4.131  13.030 -1.1629  0.0694  0.7424
  940MPD2    H113802   3.901   4.344  12.955  0.0375 -1.3102 -0.1665
  940MPD2    H213803   3.542   4.556  13.008  0.2813 -0.5779  0.3352
  940MPD2    H313804   3.782   4.556  12.995 -0.7936  0.3326  1.2351
  940MPD2     N13805   3.809   4.110  12.978 -0.0885 -0.6791 -0.5536
  940MPD2    H513806   3.905   4.132  12.954  0.0799 -0.2281  0.5247
  940MPD2    N113807   3.387   4.337  13.029 -0.1642  0.5201 -0.4202
  940MPD2    H713808   3.348   4.257  13.079 -0.7467  0.8622 -0.3230
  941MPD2     C13809   2.322   3.298   9.775 -0.7644 -0.2008  0.4414
  941MPD2    C113810   2.362   3.290   9.907 -0.0655 -0.6819 -0.8052
  941MPD2    C213811   2.353   3.170   9.970  0.2114  0.0674  0.2053
  941MPD2    C313812   2.300   3.052   9.913  0.3061  0.4627  0.0560
  941MPD2    C413813   2.277   3.054   9.773 -0.5977 -0.8447  0.4606
  941MPD2    C513814   2.286   3.180   9.702  0.3606  0.6630  0.3699
  941MPD2     H13815   2.393   3.167  10.070  1.4470 -1.7526 -0.3509
  941MPD2    H113816   2.247   2.968   9.714 -0.8308 -0.6162  0.2443
  941MPD2    H213817   2.328   3.390   9.718 -2.3907  0.3519  1.1812
  941MPD2    H313818   2.249   3.193   9.601  0.2311  0.6914  0.4206
  941MPD2     N13819   2.291   2.926   9.981  0.1479  0.2463  0.3290
  941MPD2    H513820   2.272   2.841   9.927 -1.0699  1.4519 -1.1429
  941MPD2    N113821   2.422   3.396   9.979 -0.0654 -0.3278 -0.3662
  941MPD2    H713822   2.448   3.378  10.075 -0.3868  0.1831 -0.1841
  942MPD2     C13823   2.041   4.321  10.406  0.4332 -0.0903 -0.1252
  942MPD2    C113824   1.936   4.352  10.328  0.1132 -1.1958 -0.0058
  942MPD2    C213825   1.912   4.480  10.299  0.5714 -0.1957 -0.4093
  942MPD2    C313826   1.999   4.579  10.331  0.2486  0.1618 -0.3341
  942MPD2    C413827   2.108   4.548  10.407 -0.4503 -0.2169 -0.2982
  942MPD2    C513828   2.124   4.419  10.447 -0.2526 -0.0774 -0.0988
  942MPD2     H13829   1.826   4.505  10.237 -0.2528  0.5883  1.0619
  942MPD2    H113830   2.186   4.619  10.430 -2.2360  1.5836  0.2007
  942MPD2    H213831   2.053   4.223  10.451  0.8064 -0.9344 -2.0598
  942MPD2    H313832   2.204   4.404  10.517 -0.0982 -0.9196 -0.4523
  942MPD2     N13833   1.993   4.717  10.284 -0.2058  0.2183 -0.2649
  942MPD2    H513834   2.069   0.046  10.302  0.8824 -0.9721 -0.5963
  942MPD2    N113835   1.851   4.251  10.275  0.1581  0.1735  0.3838
  942MPD2    H713836   1.761   4.285  10.243  1.1726  0.9910 -1.5347
  943MPD2     C13837   1.686   2.143  10.158  0.1257 -0.5216  0.4558
  943MPD2    C113838   1.583   2.153  10.248 -0.0674  0.6541  0.2375
  943MPD2    C213839   1.584   2.258  10.340  0.0906 -0.3654  0.4483
  943MPD2    C313840   1.684   2.359  10.324 -0.0588  0.4808 -0.3152
  943MPD2    C413841   1.792   2.339  10.234  0.0046  0.4845 -0.8570
  943MPD2    C513842   1.784   2.235  10.147 -0.6062 -0.7649 -0.0537
  943MPD2     H13843   1.499   2.266  10.408  0.3844 -0.8823  0.8782
  943MPD2    H113844   1.878   2.404  10.228  0.1157  0.2927 -1.3077
  943MPD2    H213845   1.704   2.069  10.082  0.3880  0.7472 -0.7221
  943MPD2    H313846   1.859   2.216  10.072 -1.2219  1.4239 -1.2114
  943MPD2     N13847   1.687   2.481  10.397  0.0863  0.3537 -0.2047
  943MPD2    H513848   1.763   2.548  10.387 -0.0144  0.6207  0.8644
  943MPD2    N113849   1.492   2.043  10.258  0.0401  0.0423 -0.0617
  943MPD2    H713850   1.500   1.969  10.189 -1.4651  0.4539 -0.6865
  944MPD2     C13851   1.137   2.770  11.396  0.3171 -0.0426  0.0209
  944MPD2    C113852   1.106   2.641  11.403 -0.7013 -0.1588  0.4800
  944MPD2    C213853   0.984   2.609  11.464  0.3769  0.1764 -0.0510
  944MPD2    C313854   0.908   2.703  11.529  0.1826 -0.4593 -0.3353
  944MPD2    C413855   0.940   2.833  11.505 -0.1416 -0.3141 -0.5763
  944MPD2    C513856   1.055   2.869  11.436  0.3274 -0.4533 -0.0168
  944MPD2     H13857   0.950   2.506  11.473 -0.4352  0.6872  2.7979
  944MPD2    H113858   0.885   2.916  11.547  3.0641  1.0004  1.0221
  944MPD2    H213859   1.236   2.796  11.359  0.3803  1.2098  1.0607
  944MPD2    H313860   1.096   2.970  11.439  0.2252 -0.4070 -0.1320
  944MPD2     N13861   0.796   2.656  11.604  0.4425 -0.2450  0.9441
  944MPD2    H513862   0.773   2.557  11.600 -2.5976  0.3729  2.5131
  944MPD2    N113863   1.190   2.537  11.357  0.3625  0.1998 -0.2373
  944MPD2    H713864   1.266   2.565  11.297  0.6527  0.3904  0.2209
    1TMC1    C113865   3.729   2.860  14.611  0.2480  0.4455  0.0790
    1TMC1    C213866   3.850   2.793  14.597  0.1344  0.1872  0.1559
    1TMC1    C313867   3.849   2.700  14.492  0.3738 -0.3059  0.3750
    1TMC1    C413868   3.629   2.854  14.515 -0.2147 -0.2642  0.3777
    1TMC1    C513869   3.642   2.758  14.418 -0.7072 -0.5941  0.4736
    1TMC1    C613870   3.748   2.676  14.404 -0.3254  0.7537  0.4527
    1TMC1     C13871   3.724   2.968  14.709 -0.0385  0.1488  0.0899
    1TMC1     O13872   3.791   2.952  14.813  0.1169  0.3142 -0.1245
    1TMC1     H13873   3.932   2.787  14.668  1.1161  1.2088 -0.8942
    1TMC1    H113874   3.529   2.897  14.517  0.3735  1.0707  1.2737
    1TMC1    H213875   3.761   2.620  14.312  1.4041  1.8111  0.0392
    1TMC1    C713876   3.550   2.750  14.302 -0.2937  0.3355  0.1512
    1TMC1    C813877   3.969   2.615  14.465  0.1854 -0.4506  0.0033
    1TMC1    O113878   3.517   2.656  14.234  0.2022  0.2207 -0.1465
    1TMC1    O213879   3.971   2.526  14.381 -0.1119 -0.5535  0.1610
    1TMC1    O313880   3.506   2.868  14.269  0.2700 -0.1219 -0.1689
    1TMC1    H313881   3.545   2.940  14.323 -0.1781 -1.2106  1.6019
    1TMC1    O513882   4.072   2.656  14.544 -0.0620  0.0330 -0.3611
    1TMC1    H513883   4.067   2.751  14.566  1.6302  0.0738 -0.1200
    2MPD2     C13884   3.546   3.411  14.899  0.6851  0.4024 -0.1689
    2MPD2    C113885   3.527   3.418  14.763 -0.1960 -0.1255 -0.7642
    2MPD2    C213886   3.559   3.302  14.686  0.1687  0.0243  0.1057
    2MPD2    C313887   3.623   3.188  14.748  0.1845  0.0109  0.1359
    2MPD2    C413888   3.632   3.192  14.881  0.1961 -0.1623 -0.2873
    2MPD2    C513889   3.608   3.307  14.953 -0.5502 -0.6248  0.1344
    2MPD2     H13890   3.556   3.314  14.579  0.4983  1.0989  0.2190
    2MPD2    H113891   3.677   3.115  14.943  1.0701  1.3065  0.9017
    2MPD2    H213892   3.530   3.495  14.966  0.5625  1.1575 -1.1514
    2MPD2    H313893   3.619   3.297  15.061  0.1278 -1.3679 -0.0054
    2MPD2     N13894   3.662   3.078  14.668 -0.0757  0.1456 -0.0083
    2MPD2    H513895   3.620   3.077  14.575 -1.1849  1.2440  0.4883
    2MPD2    N113896   3.480   3.542  14.714 -0.3104  0.0710 -0.1755
    2MPD2    H713897   3.455   3.607  14.788  0.4469 -2.2139  2.1099
    3TMC2    C113898   3.371   3.685  14.555  0.9373  0.6496 -0.2302
    3TMC2    C213899   3.428   3.798  14.609  0.1935  1.1330 -0.4843
    3TMC2    C313900   3.403   3.914  14.551 -0.0645  0.0394 -0.3882
    3TMC2    C413901   3.310   3.690  14.436  0.4986  0.2271  0.9880
    3TMC2    C513902   3.283   3.814  14.381  0.0343  0.9719 -0.3154
    3TMC2    C613903   3.323   3.930  14.436 -0.0049  0.5294 -0.2260
    3TMC2     C13904   3.411   3.557  14.595  0.0621 -0.0896  0.1357
    3TMC2     O13905   3.405   3.474  14.504 -0.3811 -0.2704 -0.5419
    3TMC2     H13906   3.488   3.788  14.699 -0.7479  0.4174  0.0798
    3TMC2    H113907   3.299   3.601  14.376 -0.0090 -1.0620  2.9924
    3TMC2    H213908   3.310   4.026  14.388 -2.2324  0.6236  0.5432
    3TMC2    C713909   3.235   3.798  14.238  0.0781 -0.0449  0.5143
    3TMC2    C813910   3.474   4.031  14.602 -0.7292 -0.4311 -0.7375
    3TMC2    O113911   3.176   3.695  14.201 -0.5319  0.0788  0.1718
    3TMC2    O213912   3.514   4.035  14.717 -0.1913  0.2141 -0.4723
    3TMC2    O513913   3.523   4.098  14.496  0.1260 -0.9004  0.0970
    3TMC2    H513914   3.495   4.057  14.411 -1.1147 -0.2940  0.2034
    4TMC2    C113915   3.444   4.531  13.604 -0.0516 -0.6101  0.4762
    4TMC2    C213916   3.576   4.571  13.600 -0.3644 -0.6300  0.3461
    4TMC2    C313917   3.670   4.478  13.642 -0.0262  0.2833 -0.4429
    4TMC2    C413918   3.408   4.411  13.661 -0.2011  0.1288  0.0453
    4TMC2    C513919   3.505   4.333  13.715 -0.4906 -0.8477 -0.3465
    4TMC2    C613920   3.636   4.364  13.704  0.1173  0.0724  0.3373
    4TMC2     C13921   3.355   4.646  13.615 -0.1562  0.3654 -0.2839
    4TMC2     O13922   3.416   0.016  13.613  0.1158  0.4453  0.2849
    4TMC2     H13923   3.611   4.668  13.567  0.6689 -1.8001 -2.0274
    4TMC2    H113924   3.304   4.391  13.681  0.1613  0.0665  1.8739
    4TMC2    H213925   3.716   4.305  13.749 -0.4770 -0.7005  0.3774
    4TMC2    C713926   3.469   4.222  13.795  0.2511 -0.0784 -0.0932
    4TMC2    C813927   3.810   4.500  13.617 -0.3924 -0.0127  0.8934
    4TMC2    O113928   3.537   4.197  13.895 -0.3708 -0.3805 -0.0831
    4TMC2    O213929   3.895   4.473  13.704  0.3580 -0.1414  0.1667
    4TMC2    O513930   3.828   4.574  13.504  0.6407 -0.7483 -0.2458
    4TMC2    H513931   3.764   4.556  13.432 -1.9701  1.5718  1.4908
    5MPD2     C13932   2.899   0.134  13.600  0.0730  0.6168 -0.0077
    5MPD2    C113933   2.869   0.003  13.571  0.1710  0.0638  0.3504
    5MPD2    C213934   2.980   4.650  13.575 -0.6540 -0.5137  0.4009
    5MPD2    C313935   3.105   4.703  13.608  0.1106  0.2812  0.1620
    5MPD2    C413936   3.125   0.098  13.642  0.2446  0.3833 -0.5290
    5MPD2    C513937   3.022   0.185  13.642  0.5011  0.3370 -0.4682
    5MPD2     H13938   2.969   4.551  13.533 -2.0811  0.7848 -2.2852
    5MPD2    H113939   3.225   0.131  13.669 -0.4346  1.9729  0.0216
    5MPD2    H213940   2.822   0.210  13.603 -1.5344 -1.0122  0.2935
    5MPD2    H313941   3.040   0.288  13.668  0.2358  0.7987 -2.1290
    5MPD2     N13942   3.219   4.617  13.605 -0.3177 -0.2433  1.2085
    5MPD2    H513943   3.200   4.518  13.594 -1.3278 -0.2218  2.6329
    5MPD2    N113944   2.735   4.705  13.545  0.6280  0.0923  0.3168
    5MPD2    H713945   2.656   0.032  13.548 -0.2316 -0.9051 -1.5946
    6MPD1     C13946   2.316   1.529  13.673  0.7221  0.2856 -0.1900
    6MPD1    C113947   2.211   1.466  13.744 -0.6616 -0.2661  0.0734
    6MPD1    C213948   2.214   1.333  13.748  0.0021 -0.3030  0.4481
    6MPD1    C313949   2.297   1.254  13.667  0.8442 -0.2353  0.8476
    6MPD1    C413950   2.398   1.316  13.598  0.4216  0.9057 -0.2618
    6MPD1    C513951   2.401   1.458  13.597 -0.6645  0.8790  0.4186
    6MPD1     H13952   2.144   1.283  13.815  2.2110  0.0843  3.0226
    6MPD1    H113953   2.479   1.263  13.550 -1.6445 -0.8391 -1.8268
    6MPD1    H213954   2.335   1.636  13.679  3.0712 -0.1844  0.8550
    6MPD1    H313955   2.482   1.501  13.539  0.9164 -1.7350  0.6925
    6MPD1     N13956   2.306   1.115  13.663  0.6376 -0.2616  0.5690
    6MPD1    H513957   2.371   1.072  13.597  0.7530 -0.9185  1.1044
    6MPD1    N113958   2.140   1.538  13.839  0.3687 -0.2292 -0.7566
    6MPD1    H613959   2.121   1.622  13.786  2.4672 -0.1197 -1.3303
    6MPD1    H713960   2.048   1.502  13.864  1.1191 -0.0342  2.2956
    7MPD2     C13961   2.209   0.316  14.002 -0.1001 -0.5335  0.2336
    7MPD2    C113962   2.192   0.336  13.865 -0.5005  0.4419  0.0157
    7MPD2    C213963   2.212   0.223  13.785 -0.0453  0.3962 -0.3501
    7MPD2    C313964   2.263   0.099  13.834  0.0712  0.1413 -0.1146
    7MPD2    C413965   2.288   0.093  13.966 -0.3176 -0.6025 -0.2104
    7MPD2    C513966   2.252   0.198  14.047 -0.0643  0.0910  0.6257
    7MPD2     H13967   2.180   0.230  13.682  1.2449  0.3389 -0.7520
    7MPD2    H113968   2.324   0.000  14.010  0.6646 -1.1552 -2.1553
    7MPD2    H213969   2.186   0.391  14.077 -0.6171 -0.3881 -0.0708
    7MPD2    H313970   2.272   0.184  14.152  3.1171  2.0246  0.2939
    7MPD2     N13971   2.303   4.735  13.745  0.7518  0.0967 -0.1641
    7MPD2    H513972   2.353   4.659  13.790  2.8283  0.1633 -2.3145
    7MPD2    N113973   2.146   0.457  13.806  0.3088 -0.4122 -0.6504
    7MPD2    H713974   2.110   0.457  13.711  1.3468 -1.7164 -1.0469
    8TMC3    C113975   2.356   4.621  13.533  0.2796  0.4528  0.8510
    8TMC3    C213976   2.485   4.599  13.568 -0.2703 -0.1812  0.1120
    8TMC3    C313977   2.569   4.592  13.459  0.5218  0.1568  0.6605
    8TMC3    C413978   2.319   4.634  13.402  0.9660  0.6834 -0.2349
    8TMC3    C513979   2.413   4.625  13.303 -0.1806 -1.5172  0.8981
    8TMC3    C613980   2.545   4.607  13.330 -0.6346 -0.3230  0.0235
    8TMC3     C13981   2.287   4.729  13.608  0.0883 -0.0976  0.3278
    8TMC3     O13982   2.238   0.074  13.528 -0.5603 -0.4285 -0.3112
    8TMC3     H13983   2.522   4.589  13.669 -2.0049 -0.8606  0.6835
    8TMC3    H113984   2.219   4.652  13.365  1.8238  0.6367 -2.5410
    8TMC3    H213985   2.630   4.625  13.265  0.5846 -0.2427  1.6497
    8TMC3    C713986   2.405   0.009  13.217 -0.1525  0.5341 -0.8079
    8TMC3    C813987   2.708   4.586  13.499 -0.1654 -0.3061  0.7523
    8TMC3    O113988   2.479   0.021  13.121 -0.0604  0.4993 -0.4274
    8TMC3    O213989   2.773   4.494  13.454  0.1907  0.8296  0.3576
    9TMC3    C113990   2.268   0.889  13.719  0.2660 -0.9084 -1.1973
    9TMC3    C213991   2.293   0.855  13.587 -0.1000  0.1746 -0.1546
    9TMC3    C313992   2.226   0.739  13.546  0.2904  0.8624 -0.1772
    9TMC3    C413993   2.213   0.800  13.811  0.3845 -0.2624 -0.4826
    9TMC3    C513994   2.166   0.684  13.766 -0.5461 -0.3312 -0.5508
    9TMC3    C613995   2.161   0.655  13.631 -0.1226 -0.0461 -0.0658
    9TMC3     C13996   2.237   1.030  13.744  0.3185 -0.5618 -0.2940
    9TMC3     O13997   2.162   1.056  13.835 -0.4145 -0.6788 -0.6511
    9TMC3     H13998   2.331   0.920  13.509 -2.4973  0.4937 -1.0671
    9TMC3    H113999   2.189   0.842  13.908  1.3423  1.2949 -0.9197
    9TMC3    H214000   2.080   0.591  13.601 -1.1942  0.2592  2.1650
    9TMC3    C714001   2.164   0.578  13.869  0.2322  0.2636  0.0182
    9TMC3    C814002   2.261   0.683  13.416 -0.7760 -0.3774  0.2962
    9TMC3    O114003   2.225   0.595  13.974 -0.6710  0.0765 -0.6209
    9TMC3    O214004   2.292   0.764  13.330 -0.0915  0.6093  0.1866
   10MPD2     C14005   2.386   0.287  13.120 -0.2080 -0.4974 -0.7158
   10MPD2    C114006   2.347   0.239  13.243 -0.6727  0.0670  0.0129
   10MPD2    C214007   2.287   0.337  13.331 -0.5510 -0.2826 -0.2543
   10MPD2    C314008   2.304   0.469  13.311  0.0554 -0.1716  0.0812
   10MPD2    C414009   2.358   0.512  13.189  0.2406  0.0071  0.0433
   10MPD2    C514010   2.393   0.418  13.095  0.0691  0.2323  0.6451
   10MPD2     H14011   2.251   0.300  13.427 -0.6834 -1.8691 -0.9131
   10MPD2    H114012   2.372   0.618  13.170 -0.0936 -0.1109 -0.8254
   10MPD2    H214013   2.413   0.218  13.041  1.6036 -0.1194 -0.4333
   10MPD2    H314014   2.426   0.454  12.998  0.8477 -2.6196 -0.1432
   10MPD2     N14015   2.248   0.552  13.413  0.3048  0.3248 -0.1594
   10MPD2    H514016   2.210   0.499  13.491  1.8132  0.6861  0.8081
   10MPD2    N114017   2.327   0.107  13.270  0.0834  0.6005 -0.5435
   10MPD2    H714018   2.284   0.102  13.362 -1.4801 -1.8404 -1.3757
   11MPD2     C14019   3.177   3.842  13.955 -0.3013  0.2025 -0.0320
   11MPD2    C114020   3.252   3.930  14.031 -0.3217 -0.3963 -0.9207
   11MPD2    C214021   3.312   4.035  13.964  0.1726  0.4750  0.1676
   11MPD2    C314022   3.291   4.056  13.833  0.3036  0.6432 -0.2695
   11MPD2    C414023   3.201   3.975  13.760  0.4550  0.7120 -0.0802
   11MPD2    C514024   3.150   3.867  13.825  1.0376 -0.4868 -0.0455
   11MPD2     H14025   3.380   4.097  14.021 -0.9093 -0.8178  2.8533
   11MPD2    H114026   3.185   3.979  13.653 -0.9596  1.4752  0.1684
   11MPD2    H214027   3.142   3.750  13.999  0.9142 -0.3384 -0.2114
   11MPD2    H314028   3.088   3.798  13.767 -1.7979  1.6852  0.3888
   11MPD2     N14029   3.354   4.161  13.759 -0.0354 -0.0847  0.4819
   11MPD2    H514030   3.321   4.172  13.663 -0.6256 -1.6333  0.4946
   11MPD2    N114031   3.276   3.911  14.170  0.2553 -0.0893 -0.1702
   11MPD2    H714032   3.344   3.968  14.218  0.8450 -0.4508 -0.5662
    1MPD1     C14033   1.828   0.664  17.715  0.0769 -0.3607  0.8820
    1MPD1    C114034   1.745   0.562   0.011  0.1955  0.7128  0.0397
    1MPD1    C214035   1.782   0.480   0.116 -0.1983 -0.5700 -0.0981
    1MPD1    C314036   1.893   0.506   0.191 -1.2504  0.1784 -0.0460
    1MPD1    C414037   1.976   0.610   0.153  0.2025 -0.0583 -0.4793
    1MPD1    C514038   1.946   0.685   0.040 -0.1757 -0.1113 -0.9069
    1MPD1     H14039   1.724   0.393   0.147 -0.3212  0.2478  1.9713
    1MPD1    H114040   2.067   0.624   0.210  0.5041 -1.5041 -0.5974
    1MPD1    H214041   1.804   0.732  17.634  0.9052  0.4427  1.2930
    1MPD1    H314042   2.008   0.770   0.012  0.3729 -0.3342 -0.3574
    1MPD1     N14043   1.928   0.428   0.304 -0.8723 -0.2149  0.1260
    1MPD1    H514044   2.025   0.444   0.331  0.5292 -1.2806 -4.3059
    1MPD1    N114045   1.640   0.518  17.670  0.4884 -0.1706 -0.3297
    1MPD1    H614046   1.600   0.593  17.614  2.3443  0.4828 -0.7999
    1MPD1    H714047   1.568   0.463  17.716  2.1281 -0.5564  1.7950
    2MPD1     C14048   2.671   0.045   0.308 -0.1240 -0.5203 -0.2922
    2MPD1    C114049   2.603   0.134   0.232 -0.4952  0.6235  0.2608
    2MPD1    C214050   2.479   0.174   0.274  0.0770 -0.4598  0.7339
    2MPD1    C314051   2.425   0.134   0.393 -0.0797 -0.0094 -0.0023
    2MPD1    C414052   2.499   0.051   0.476 -1.0494 -0.1421  0.1366
    2MPD1    C514053   2.620   0.013   0.435  0.4655 -0.5227  0.4393
    2MPD1     H14054   2.418   0.250   0.226  0.6800 -0.6242 -0.2702
    2MPD1    H114055   2.466   0.016   0.573 -1.7193 -1.3886 -0.5466
    2MPD1    H214056   2.770   0.009   0.283  1.9057  2.6528  3.0415
    2MPD1    H314057   2.675   4.686   0.504  1.5727 -1.6756 -1.4840
    2MPD1     N14058   2.291   0.172   0.440  0.3471 -0.5995  0.5729
    2MPD1    H514059   2.228   0.196   0.364 -0.0692 -1.0577  0.7645
    2MPD1    N114060   2.648   0.170   0.100 -0.1917 -0.0782  0.0533
    2MPD1    H614061   2.610   0.252   0.054 -0.9451  0.2792  1.2952
    2MPD1    H714062   2.749   0.174   0.091 -0.2942 -2.7267 -2.4468
    3TMC3    C114063   2.106   0.171   0.582  0.1423  0.5940 -0.2778
    3TMC3    C214064   2.038   0.060   0.624 -0.1221  0.5687  0.4221
    3TMC3    C314065   1.903   0.049   0.597 -0.0346 -0.6645 -0.4542
    3TMC3    C414066   2.047   0.255   0.498 -0.5172  0.4449  0.1330
    3TMC3    C514067   1.913   0.244   0.466 -0.1890  0.5796 -0.4787
    3TMC3    C614068   1.839   0.142   0.519 -0.3401 -0.8511  0.3657
    3TMC3     C14069   2.249   0.166   0.569  0.0960 -0.4582  0.4371
    3TMC3     O14070   2.318   0.154   0.666 -0.2023  0.6599  0.1590
    3TMC3     H14071   2.084   4.715   0.678  2.0869  0.6910 -1.2860
    3TMC3    H114072   2.102   0.341   0.462  1.2681 -2.0928 -3.2482
    3TMC3    H214073   1.736   0.126   0.489 -0.3648  0.2644 -0.1085
    3TMC3    C714074   1.853   0.326   0.365  0.5671 -0.0346  0.2383
    3TMC3    C814075   1.830   4.663   0.626  0.3666 -1.0665 -0.1165
    3TMC3    O114076   1.734   0.303   0.349  0.1234  0.4437  0.1062
    3TMC3    O214077   1.753   4.625   0.540 -0.0599  0.0149 -0.6777
    4MPD1     C14078   1.725   4.257   0.914  0.4789 -0.0689  0.1989
    4MPD1    C114079   1.763   4.357   0.992  0.7325 -0.1190  0.7001
    4MPD1    C214080   1.806   4.470   0.935  0.2865  0.4781  0.0830
    4MPD1    C314081   1.795   4.490   0.802  0.6687 -0.2046 -0.3011
    4MPD1    C414082   1.751   4.389   0.723  0.0980 -0.2921  0.5423
    4MPD1    C514083   1.721   4.272   0.777 -0.0422 -0.2056  0.2250
    4MPD1     H14084   1.859   4.542   0.997 -1.0739 -1.6081  3.6521
    4MPD1    H114085   1.743   4.388   0.615 -2.2031  2.4123  0.6991
    4MPD1    H214086   1.696   4.161   0.954 -1.2496  1.4796  2.6035
    4MPD1    H314087   1.689   4.187   0.717 -0.2969 -0.2929  0.4819
    4MPD1     N14088   1.848   4.615   0.751 -0.0924 -0.0306 -0.5560
    4MPD1    H514089   1.901   4.671   0.817 -1.6546 -0.3524  0.9566
    4MPD1    N114090   1.785   4.330   1.130 -0.4904 -0.5084 -0.2758
    4MPD1    H614091   1.771   4.409   1.193 -0.4407 -1.2760  0.7059
    4MPD1    H714092   1.719   4.256   1.155 -0.7203 -0.6211 -1.2269
    1TCq1    O114093   2.193   0.039  11.467 -0.0718 -0.5657 -0.6741
    1TCq1    C114094   2.304   0.093  11.407  0.2074  0.2312  0.5684
    1TCq1    O214095   2.342   0.072  11.292 -0.3296 -0.2765 -0.4145
    1TCq1    C214096   2.381   0.160  11.513  0.5498  0.1760  0.5706
    1TCq1    C314097   2.372   0.110  11.642  0.3862 -0.8880 -0.3301
    1TCq1    C414098   2.457   0.147  11.740  0.3361  0.6092  0.2447
    1TCq1    C514099   2.553   0.240  11.705  0.1185  0.1527  0.0737
    1TCq1    C614100   2.568   0.279  11.572  0.3396  0.5697 -0.2955
    1TCq1    C714101   2.490   0.235  11.469  0.1248  0.2780  0.3212
    1TCq1    C814102   2.684   0.359  11.537  0.2194 -0.4183 -0.4483
    1TCq1    O414103   2.719   0.351  11.418  0.2480  0.0884  0.2752
    1TCq1    C914104   2.489   0.053  11.834 -0.4576  0.6397 -0.0072
    1TCq1    O514105   2.611   0.040  11.859  0.6429  0.4314  0.1902
    1TCq1    O614106   2.395   0.003  11.901  0.5043 -0.5711 -0.0996
    1TCq1    H114107   2.186   0.078  11.557  0.3765 -0.3651 -0.7237
    1TCq1    H214108   2.328   0.013  11.663  0.1250 -1.2388 -2.4633
    1TCq1    H314109   2.628   0.265  11.779  1.8322  1.1837 -2.0179
    1TCq1    H414110   2.495   0.264  11.365  0.0122 -0.1571  0.1949
    2MPD1     C14111   3.094   0.641  11.665 -0.2855 -0.4874  0.5020
    2MPD1    C114112   3.010   0.635  11.779 -0.7783 -0.2618 -0.5351
    2MPD1    C214113   2.887   0.569  11.755 -0.1836 -0.4119  0.2277
    2MPD1    C314114   2.860   0.495  11.638  0.5338  0.2070 -0.0484
    2MPD1    C414115   2.953   0.491  11.535  0.3227  0.7495 -0.2426
    2MPD1    C514116   3.067   0.566  11.550  0.6826 -0.2252  0.1158
    2MPD1     H14117   2.805   0.593  11.821 -1.2125  0.7601 -1.4611
    2MPD1    H114118   2.929   0.447  11.439  0.0735 -0.3705  0.3361
    2MPD1    H214119   3.181   0.705  11.669 -1.3308  0.9470  0.5029
    2MPD1    H314120   3.130   0.585  11.464  2.0685  0.1577  1.2169
    2MPD1     N14121   2.737   0.429  11.635  0.3427 -0.6141  0.2378
    2MPD1    H514122   2.673   0.430  11.713  1.2669  0.3281  0.9774
    2MPD1    N114123   3.038   0.717  11.892  0.1411 -0.1515  0.0050
    2MPD1    H614124   2.984   0.693  11.975  0.5865  0.0863  0.3657
    2MPD1    H714125   3.136   0.740  11.911 -0.0794 -0.0050  0.9610
    1TMC1    C114126   1.587   2.740   0.900  0.0890  0.2645  0.3917
    1TMC1    C214127   1.670   2.825   0.969  0.2902 -0.0797 -0.8972
    1TMC1    C314128   1.796   2.786   0.974  0.1763 -0.0604 -0.3407
    1TMC1    C414129   1.621   2.637   0.821 -0.0483  0.0930  0.0509
    1TMC1    C514130   1.757   2.609   0.823  1.0422 -0.2334 -0.1123
    1TMC1    C614131   1.846   2.679   0.896  0.1902  0.3380 -0.0210
    1TMC1     C14132   1.447   2.775   0.893 -0.1306 -0.9097  0.3391
    1TMC1     O14133   1.358   2.696   0.861  0.1142 -0.3264  0.2724
    1TMC1     H14134   1.643   2.906   1.037 -1.2757 -0.7672 -0.7068
    1TMC1    H114135   1.553   2.576   0.763 -0.8756  1.1380 -0.0792
    1TMC1    H214136   1.950   2.657   0.876  0.5689  3.0481 -1.0803
    1TMC1    C714137   1.814   2.486   0.763  0.1841  0.4725 -0.0104
    1TMC1    C814138   1.892   2.876   1.033  0.6242  0.0655 -0.3716
    1TMC1    O114139   1.915   2.437   0.800  0.3483 -0.2905 -0.0914
    1TMC1    O214140   1.872   2.997   1.063  0.3956 -0.4035  0.2908
    1TMC1    O314141   1.753   2.472   0.642  0.0723 -0.3819  0.2795
    1TMC1    H314142   1.692   2.542   0.612 -0.0531 -0.5988  0.0262
    1TMC1    O514143   1.995   2.802   1.072 -0.0389  0.6185  0.3171
    1TMC1    H514144   1.974   2.707   1.075  0.5005  0.4405 -1.7359
    2MPD1     C14145   1.089   3.133   0.997 -0.2759  0.6403 -0.6004
    2MPD1    C114146   1.210   3.186   1.016  0.4722  0.2027 -0.1599
    2MPD1    C214147   1.321   3.112   0.979  0.2338 -0.6817  0.2820
    2MPD1    C314148   1.308   2.979   0.947  0.2306 -0.5607 -0.6115
    2MPD1    C414149   1.183   2.920   0.961  0.3504  0.6438 -0.3754
    2MPD1    C514150   1.072   3.000   0.972  0.0620  0.1835 -1.1572
    2MPD1     H14151   1.415   3.166   0.967 -1.3672  1.8593 -0.8399
    2MPD1    H114152   1.177   2.814   0.939  0.9177  0.8666 -1.6713
    2MPD1    H214153   1.007   3.197   1.029 -0.2259 -0.2450  1.3047
    2MPD1    H314154   0.969   2.964   0.970  0.0621  0.2556 -2.6338
    2MPD1     N14155   1.427   2.903   0.929  0.0345 -0.0541 -0.0034
    2MPD1    H514156   1.511   2.960   0.928 -0.6825  1.0094  0.0508
    2MPD1    N114157   1.227   3.322   1.020 -0.5592 -0.1150 -0.0907
    2MPD1    H614158   1.153   3.373   1.068 -0.3745 -1.8434  2.0280
    2MPD1    H714159   1.318   3.343   1.062 -0.6147 -0.9438  0.4431
    1MPD1     C14160   0.681   3.818  12.599 -0.1877 -0.0944  0.5364
    1MPD1    C114161   0.766   3.928  12.592  0.6617  0.2814  1.0935
    1MPD1    C214162   0.697   4.048  12.620  0.2990 -0.1124  0.3738
    1MPD1    C314163   0.557   4.050  12.617 -0.0172  0.6231  0.6664
    1MPD1    C414164   0.484   3.935  12.591  0.0517 -0.5471  0.8139
    1MPD1    C514165   0.549   3.818  12.585 -0.0969 -0.1709 -0.0868
    1MPD1     H14166   0.749   4.141  12.639 -0.2012 -0.1410  1.8806
    1MPD1    H114167   0.387   3.926  12.544  0.4453  0.7908 -0.2645
    1MPD1    H214168   0.729   3.721  12.609  1.1195  0.3106 -1.7332
    1MPD1    H314169   0.490   3.727  12.585 -0.3263 -0.0201 -0.7095
    1MPD1     N14170   0.491   4.170  12.637  0.1258 -0.1444 -0.3273
    1MPD1    H514171   0.555   4.248  12.645  1.5603 -1.5715  2.1758
    1MPD1    N114172   0.906   3.912  12.609  0.3569 -0.8549 -0.2632
    1MPD1    H614173   0.947   3.842  12.548 -0.1621  0.9601 -2.7236
    1MPD1    H714174   0.948   4.000  12.578 -0.3126 -0.0888  0.9716
    2MPD1     C14175   3.866   1.150  12.011  0.2040  0.4591  0.3633
    2MPD1    C114176   3.929   1.098  11.904 -0.6124  0.0310 -0.1566
    2MPD1    C214177   3.903   0.965  11.866 -0.0851  0.0052 -0.0699
    2MPD1    C314178   3.826   0.881  11.946  0.6274 -0.7191  0.1869
    2MPD1    C414179   3.765   0.935  12.059 -0.3974 -0.5800 -0.6276
    2MPD1    C514180   3.785   1.070  12.086  0.8203  0.4808 -0.3673
    2MPD1     H14181   3.954   0.929  11.778  1.4513  0.5401  0.6090
    2MPD1    H114182   3.694   0.879  12.119 -0.0758 -1.8426 -1.4350
    2MPD1    H214183   3.866   1.257  12.032  0.6484  0.6790 -0.7852
    2MPD1    H314184   3.716   1.111  12.159  0.4771 -1.5942  0.4809
    2MPD1     N14185   3.819   0.737  11.922  0.2520  0.3799  0.2304
    2MPD1    H514186   3.766   0.690  11.995  2.0150  1.2438  2.0782
    2MPD1    N114187   3.995   1.184  11.813 -0.5987 -0.1107 -0.0569
    2MPD1    H614188   4.069   1.134  11.765 -0.9329  0.7822 -1.5044
    2MPD1    H714189   4.034   1.265  11.863  2.4052 -0.7129 -1.4299
    3MPD1     C14190   3.473   4.718  11.285 -0.0920 -0.7391 -0.6609
    3MPD1    C114191   3.480   4.658  11.405 -0.0314  0.0132  0.4163
    3MPD1    C214192   3.545   4.728  11.507  0.1322  0.2540  0.4368
    3MPD1    C314193   3.635   0.095  11.489 -0.1982  0.8107  0.2925
    3MPD1    C414194   3.651   0.124  11.358 -0.4316  0.0624  0.1545
    3MPD1    C514195   3.563   0.086  11.264  0.3811 -0.1709 -0.1651
    3MPD1     H14196   3.534   4.684  11.606  2.7372 -1.2860  0.0370
    3MPD1    H114197   3.728   0.191  11.321 -0.5956  0.4009  0.4241
    3MPD1    H214198   3.421   4.674  11.200  0.9292  1.2393 -2.3270
    3MPD1    H314199   3.592   0.106  11.161  0.8066  0.9522  0.1741
    3MPD1     N14200   3.705   0.163  11.593  0.0413  0.4518 -0.1866
    3MPD1    H514201   3.679   0.129  11.685 -0.0121 -0.9460 -0.7245
    3MPD1    N114202   3.388   4.553  11.431 -0.1970 -0.0596  0.4016
    3MPD1    H614203   3.402   4.500  11.516  0.1627  1.1116  1.0725
    3MPD1    H714204   3.384   4.483  11.357 -2.9556  1.9356 -1.3708
    4MPD2     C14205   4.644   4.704  13.030 -0.3775 -0.7506 -0.0513
    4MPD2    C114206   4.715   4.710  12.912 -0.7544  0.5239 -0.0782
    4MPD2    C214207   4.699   0.070  12.819 -0.2993 -0.0579 -0.0464
    4MPD2    C314208   4.594   0.157  12.821 -0.2175  0.3968  0.0406
    4MPD2    C414209   4.511   0.144  12.933  0.2268  0.3950  0.0529
    4MPD2    C514210   4.547   0.060  13.038 -0.3892 -0.1674  0.0056
    4MPD2     H14211   0.020   0.062  12.727  1.6815  1.3069  1.0510
    4MPD2    H114212   4.425   0.207  12.953 -0.1158  0.3056 -1.1255
    4MPD2    H214213   4.657   4.629  13.107  2.1700 -0.1968  0.0760
    4MPD2    H314214   4.490   0.056  13.130 -0.6694  0.1262 -0.1530
    4MPD2     N14215   4.560   0.244  12.718  0.1858 -0.1428  0.2401
    4MPD2    H514216   4.470   0.290  12.718 -0.1068 -0.7208 -1.6616
    4MPD2    N114217   0.087   4.627  12.886 -0.1999  0.5195 -0.3336
    4MPD2    H714218   0.153   4.653  12.814 -0.4946  0.4783 -0.6159
    5TMC3    C114219   0.237   4.461  12.871 -0.2316  0.0033  0.5755
    5TMC3    C214220   0.244   4.330  12.824 -0.7411  0.4148 -0.0741
    5TMC3    C314221   0.322   4.311  12.710  0.6019 -0.2641 -0.3339
    5TMC3    C414222   0.314   4.562  12.817 -0.1004 -0.1785 -0.4674
    5TMC3    C514223   0.374   4.540  12.696 -0.1176 -0.2551  0.2884
    5TMC3    C614224   0.382   4.414  12.645 -0.0809 -0.1783  0.2470
    5TMC3     C14225   0.116   4.505  12.935  0.4269  0.1838 -0.1027
    5TMC3     O14226   0.046   4.419  12.989  0.0774  0.0332  0.0029
    5TMC3     H14227   0.193   4.247  12.871 -0.9148  0.3831 -0.3202
    5TMC3    H114228   0.309   4.660  12.862  0.3743 -0.6958  0.7136
    5TMC3    H214229   0.432   4.405  12.549  1.9106  0.2354  1.2401
    5TMC3    C714230   0.326   4.634  12.602  0.7442 -0.0301  0.1117
    5TMC3    C814231   0.357   4.180  12.675 -0.1835  0.1960  0.8164
    5TMC3    O114232   0.232   4.691  12.653 -0.5513  0.2506 -0.2747
    5TMC3    O214233   0.282   4.089  12.697  0.0078 -0.1867 -0.0434
    6TMC3    C114234   3.838   0.536  11.812 -0.6197 -0.4904 -0.7562
    6TMC3    C214235   3.845   0.466  11.696 -0.0252 -0.0092 -0.2790
    6TMC3    C314236   3.833   0.327  11.698 -0.7235  0.6504 -0.0351
    6TMC3    C414237   3.806   0.473  11.933 -0.1367  0.6955  0.3741
    6TMC3    C514238   3.806   0.333  11.931  0.0468  0.3395  0.5566
    6TMC3    C614239   3.829   0.259  11.818 -0.3095 -0.1075 -0.4613
    6TMC3     C14240   3.860   0.676  11.805 -0.2010  0.1430  0.4425
    6TMC3     O14241   3.890   0.726  11.700  0.0565  0.1328  0.1590
    6TMC3     H14242   3.866   0.511  11.600  0.9250  0.0055 -0.0664
    6TMC3    H114243   3.789   0.516  12.031  1.0036  2.7153 -0.3113
    6TMC3    H214244   3.832   0.150  11.818 -2.1465 -0.1662  2.3849
    6TMC3    C714245   3.829   0.267  12.058  0.4051 -0.1804  0.0745
    6TMC3    C814246   3.798   0.262  11.576  0.0152  0.2109  0.0722
    6TMC3    O114247   3.893   0.159  12.061  0.1400 -0.0797 -0.3274
    6TMC3    O214248   3.841   0.315  11.477 -0.1827  0.1373 -0.2252
    7MPD2     C14249   0.229   0.119  12.150 -0.1882  0.3492 -0.4505
    7MPD2    C114250   0.180   0.142  12.270 -0.7728 -0.0767 -0.0544
    7MPD2    C214251   0.225   0.073  12.378  0.4067  0.0728  0.0942
    7MPD2    C314252   0.316   4.704  12.371  0.1543 -0.1188 -0.0989
    7MPD2    C414253   0.361   4.675  12.247  0.6003  0.4486  0.5816
    7MPD2    C514254   0.319   0.015  12.140  0.6733 -0.1344  0.1473
    7MPD2     H14255   0.177   0.099  12.471 -0.6343 -1.5956  0.0148
    7MPD2    H114256   0.443   4.607  12.226 -0.5248 -1.4587  2.3280
    7MPD2    H214257   0.208   0.183  12.065 -1.0431 -0.6590 -1.0107
    7MPD2    H314258   0.360   0.003  12.040  0.5786 -3.8679  0.5477
    7MPD2     N14259   0.355   4.616  12.469 -0.0909  0.2905 -0.0638
    7MPD2    H514260   0.428   4.548  12.453 -0.7200 -0.3903 -0.0311
    7MPD2    N114261   0.098   0.253  12.301  0.0376  0.0473  0.6295
    7MPD2    H714262   0.076   0.261  12.400 -1.6654 -1.1229  0.3378
    8TMC3    C114263   4.644   0.388  12.298  0.3713  0.0967 -1.0383
    8TMC3    C214264   4.515   0.389  12.251  0.3050  0.1098  0.3653
    8TMC3    C314265   4.416   0.369  12.343 -0.2833 -0.0429  0.3088
    8TMC3    C414266   4.679   0.398  12.432  0.1079 -0.7812 -0.4220
    8TMC3    C514267   4.581   0.364  12.518  0.7445 -0.2258  0.0134
    8TMC3    C614268   4.449   0.345  12.474 -0.1287  1.5884 -0.3786
    8TMC3     C14269   0.010   0.321  12.216 -0.0551 -0.3738 -0.0124
    8TMC3     O14270   4.722   0.291  12.102  0.1178  0.2289 -0.4739
    8TMC3     H14271   4.507   0.394  12.143  1.8278  0.0271  0.2359
    8TMC3    H114272   0.042   0.421  12.468 -1.1014  3.1762  0.3496
    8TMC3    H214273   4.384   0.293  12.543  2.0972 -2.3796 -1.3039
    8TMC3    C714274   4.629   0.256  12.598  0.4220  0.4448  0.5536
    8TMC3    C814275   4.274   0.372  12.308  0.7173 -0.0555  0.4159
    8TMC3    O114276   0.002   0.207  12.568  0.3062 -0.1966  0.4845
    8TMC3    O214277   4.249   0.415  12.197  0.4164 -0.2647 -0.2562
    9MPD2     C14278   3.977   0.388  12.527  0.3209 -0.1900  0.1356
    9MPD2    C114279   4.050   0.353  12.412  0.2468 -0.3822  0.5384
    9MPD2    C214280   3.986   0.328  12.292 -0.2603 -0.6349 -0.6797
    9MPD2    C314281   3.844   0.336  12.289  0.1509 -0.4430  0.6672
    9MPD2    C414282   3.772   0.374  12.399 -0.1094  0.2085  0.4455
    9MPD2    C514283   3.839   0.403  12.516 -0.0818  0.8822  0.3095
    9MPD2     H14284   4.045   0.302  12.205  0.9089  2.1050 -0.7322
    9MPD2    H114285   3.665   0.365  12.389  0.1422 -0.6779 -1.3613
    9MPD2    H214286   4.033   0.379  12.619  1.5874 -1.2455 -0.7420
    9MPD2    H314287   3.776   0.395  12.604 -0.0391 -0.9176  0.1821
    9MPD2     N14288   3.778   0.336  12.166 -0.0113  0.4383  0.0101
    9MPD2    H514289   3.677   0.349  12.159 -0.3697 -2.2268  0.4424
    9MPD2    N114290   4.192   0.354  12.417  0.1021 -0.2776 -0.4614
    9MPD2    H714291   4.234   0.372  12.508  0.3190  1.4510 -0.8922
    1MPD1     C14292   4.126   3.989  17.226  0.1652  0.1772 -0.1489
    1MPD1    C114293   4.093   3.860  17.182  0.0200  0.4339  1.3833
    1MPD1    C214294   3.983   3.855  17.095  0.3054 -0.1071  0.8202
    1MPD1    C314295   3.921   3.967  17.049  0.2731  0.3640 -0.2242
    1MPD1    C414296   3.962   4.091  17.089  0.1514  0.0974 -0.8642
    1MPD1    C514297   4.071   4.102  17.168 -0.3137  0.0126  0.3401
    1MPD1     H14298   3.941   3.760  17.066 -2.5478  0.4129  3.3608
    1MPD1    H114299   3.925   4.188  17.056  0.7183  1.3062  2.0589
    1MPD1    H214300   4.202   4.006  17.301 -1.7652  0.8196  1.6395
    1MPD1    H314301   4.112   4.200  17.192  0.5563 -0.3861  0.4662
    1MPD1     N14302   3.812   3.969  16.962  0.5060  0.1378 -0.0293
    1MPD1    H514303   3.786   4.061  16.926 -0.7539 -1.0268 -2.1298
    1MPD1    N114304   4.135   3.752  17.250 -0.2241 -0.4346 -0.5678
    1MPD1    H614305   4.121   3.662  17.204  0.5641 -1.5961  1.4393
    1MPD1    H714306   4.234   3.758  17.272 -0.7558  0.3501  1.5902
    2TMC2    C114307   3.591   3.977  16.619  0.5414 -0.3341 -0.5712
    2TMC2    C214308   3.456   3.950  16.621  0.3825  0.2736 -0.1010
    2TMC2    C314309   3.413   3.880  16.730 -0.4953  0.4171  0.0479
    2TMC2    C414310   3.678   3.961  16.721  0.2590  0.0967 -0.1763
    2TMC2    C514311   3.635   3.897  16.824  0.8102  0.4898  0.2587
    2TMC2    C614312   3.502   3.848  16.830 -0.0871 -0.1604  0.7272
    2TMC2     C14313   3.620   4.067  16.507 -0.1835 -0.1345  1.4775
    2TMC2     O14314   3.532   4.121  16.439  0.5525  0.4204  1.0619
    2TMC2     H14315   3.378   3.978  16.551  0.9578  0.4456 -0.6715
    2TMC2    H114316   3.779   3.999  16.726  0.4532 -0.5494  0.7751
    2TMC2    H214317   3.466   3.791  16.915  0.8552 -1.9389 -0.0592
    2TMC2    C714318   3.726   3.866  16.931 -0.2742  0.2883  0.0167
    2TMC2    C814319   3.274   3.856  16.770 -0.4538 -0.2904 -0.0054
    2TMC2    O114320   3.711   3.766  16.997  0.1416 -0.4252 -0.0255
    2TMC2    O214321   3.235   3.837  16.884  0.3985  0.2171 -0.8637
    2TMC2    O514322   3.208   3.825  16.663  0.0063 -0.2461  0.8050
    2TMC2    H514323   3.261   3.823  16.581 -1.5434  0.4150 -0.2200
    3MPD1     C14324   3.947   4.363  16.255  0.4347 -0.0983 -0.0788
    3MPD1    C114325   4.019   4.265  16.319 -0.2123  0.2278 -0.3342
    3MPD1    C214326   3.946   4.177  16.397 -0.1951 -0.4471  0.6571
    3MPD1    C314327   3.811   4.172  16.397  0.1375 -0.4896  0.4934
    3MPD1    C414328   3.743   4.269  16.322 -0.1713 -0.0893 -1.2675
    3MPD1    C514329   3.809   4.365  16.250 -0.1137 -0.1460  0.5838
    3MPD1     H14330   3.994   4.099  16.454 -0.2844 -2.5219 -2.0947
    3MPD1    H114331   3.636   4.273  16.301 -0.5978  1.2187  1.0960
    3MPD1    H214332   3.997   4.446  16.207 -1.8849  0.8024 -0.9435
    3MPD1    H314333   3.753   4.441  16.196  0.6229 -0.1952 -0.2572
    3MPD1     N14334   3.755   4.069  16.478  0.0661 -0.7028 -0.6432
    3MPD1    H514335   3.818   4.007  16.528 -1.8259 -0.4711  2.0205
    3MPD1    N114336   4.159   4.279  16.326  0.9249 -0.2988 -0.9302
    3MPD1    H614337   4.206   4.192  16.299 -1.7317 -1.4584 -1.8665
    3MPD1    H714338   4.195   4.343  16.255 -1.0202  1.5022 -0.2955
    1TMC1    C114339   2.386   3.207  13.693 -0.4617 -0.1793 -0.3058
    1TMC1    C214340   2.280   3.154  13.766 -0.3977  0.6672  0.5293
    1TMC1    C314341   2.208   3.053  13.706  0.7192 -0.2516  0.2927
    1TMC1    C414342   2.422   3.164  13.572  0.3471  0.6474 -0.5103
    1TMC1    C514343   2.360   3.052  13.520 -0.3352 -0.2243 -0.2142
    1TMC1    C614344   2.246   3.001  13.581  0.5838  0.1961  0.3321
    1TMC1     C14345   2.429   3.338  13.725  0.2415  0.0988 -0.1954
    1TMC1     O14346   2.490   3.404  13.642  0.4077 -0.2242  0.1734
    1TMC1     H14347   2.253   3.185  13.866 -0.9888 -0.0333  0.5800
    1TMC1    H114348   2.493   3.222  13.514 -0.2563  0.5681 -1.3175
    1TMC1    H214349   2.177   2.933  13.532 -0.0712  1.1139 -0.0217
    1TMC1    C714350   2.358   3.027  13.377 -0.2772  0.5585  0.2252
    1TMC1    C814351   2.096   2.997  13.768  0.0771 -0.0119 -0.0747
    1TMC1    O114352   2.265   2.981  13.311  0.1088  0.1423  0.2802
    1TMC1    O214353   2.064   2.881  13.768  0.2560 -0.1693  0.2880
    1TMC1    O314354   2.478   3.064  13.324 -0.2857 -0.2699  0.1644
    1TMC1    H314355   2.551   3.085  13.386 -0.0427  0.9612 -0.5416
    1TMC1    O514356   2.056   3.090  13.860  0.1136 -0.4083  0.2595
    1TMC1    H514357   2.055   3.182  13.825 -0.1898  0.1215  1.6256
    2MPD2     C14358   2.481   3.594  13.880 -0.2918 -0.8136  1.4562
    2MPD2    C114359   2.477   3.466  13.928 -0.1045  0.1899  0.9320
    2MPD2    C214360   2.500   3.446  14.061 -0.2033 -0.4964 -0.3944
    2MPD2    C314361   2.521   3.549  14.146  0.0438 -0.4731  0.6605
    2MPD2    C414362   2.522   3.682  14.103 -0.3933  0.0651 -0.5368
    2MPD2    C514363   2.504   3.699  13.967 -0.1816  0.4319  0.3118
    2MPD2     H14364   2.511   3.346  14.100 -0.6618 -0.1224  0.6912
    2MPD2    H114365   2.533   3.767  14.170  0.6137  0.3721 -1.0800
    2MPD2    H214366   2.473   3.609  13.773 -1.0970 -0.6883  1.5370
    2MPD2    H314367   2.510   3.797  13.923 -1.9565  0.8793  1.0968
    2MPD2     N14368   2.543   3.526  14.282  0.4237  0.0672  0.2123
    2MPD2    H514369   2.561   3.430  14.309 -0.2991  0.2110  1.2102
    2MPD2    N114370   2.443   3.352  13.862  0.0188  0.0450 -0.1848
    2MPD2    H714371   2.447   3.273  13.925  0.5902  1.1117  1.1063
    3TCq1    O114372   2.507   3.205  14.803 -0.4334 -0.1586  0.0393
    3TCq1    C114373   2.441   3.285  14.726  0.3805 -0.8718 -0.1266
    3TCq1    O214374   2.319   3.303  14.704  0.1879  0.4676  0.0861
    3TCq1    C214375   2.540   3.380  14.673  0.1987  0.5317 -0.0471
    3TCq1    C314376   2.629   3.435  14.757  0.1234  0.0226  0.3351
    3TCq1    C414377   2.700   3.546  14.719 -0.7363  0.0280 -0.0858
    3TCq1    C514378   2.682   3.598  14.596 -0.6856  0.0542  0.5099
    3TCq1    C614379   2.600   3.540  14.508  0.5546  0.3881  1.5505
    3TCq1    C714380   2.519   3.431  14.545 -0.1960  0.3509 -0.8356
    3TCq1    C814381   2.572   3.619  14.386  0.6842  0.1838  0.3992
    3TCq1    O414382   2.597   3.736  14.389 -0.1425 -0.5318 -0.3673
    3TCq1    C914383   2.789   3.617  14.809  0.4775 -0.5232  0.7679
    3TCq1    O514384   2.845   3.720  14.771 -0.3394 -0.4861 -0.0865
    3TCq1    O614385   2.820   3.559  14.917 -0.2829  0.0815 -0.6757
    3TCq1    H114386   2.602   3.197  14.782  0.1842 -1.2297  3.2159
    3TCq1    H214387   2.649   3.386  14.852 -1.1190  0.8191  1.0080
    3TCq1    H314388   2.727   3.696  14.583  1.3065 -1.1606 -1.6642
    3TCq1    H414389   2.440   3.402  14.478 -0.9916 -0.8391  0.6206
    1MPD2     C14390   1.638   4.088  15.108 -0.2253 -0.5769  0.2108
    1MPD2    C114391   1.522   4.072  15.043 -0.1142  0.4118  0.4437
    1MPD2    C214392   1.478   3.937  15.040 -0.0756 -0.2571  0.1330
    1MPD2    C314393   1.557   3.829  15.069  0.0236 -0.2423 -0.5902
    1MPD2    C414394   1.675   3.853  15.133 -0.2905 -0.3695  0.7358
    1MPD2    C514395   1.717   3.984  15.152 -0.5512 -0.2058  0.4394
    1MPD2     H14396   1.380   3.912  15.001  1.1155 -4.2460 -0.3116
    1MPD2    H114397   1.739   3.770  15.162  1.3557  1.1312  1.3759
    1MPD2    H214398   1.675   4.190  15.110 -1.1077 -0.2748  1.3052
    1MPD2    H314399   1.812   4.008  15.199  0.9932 -0.5601 -2.5119
    1MPD2     N14400   1.502   3.702  15.036 -0.0370  0.0902  0.1372
    1MPD2    H514401   1.418   3.701  14.979  1.5718 -1.5257 -2.1884
    1MPD2    N114402   1.445   4.191  15.007  0.0380  0.3067 -0.2321
    1MPD2    H714403   1.489   4.281  15.024 -0.6340  0.3174  1.4476
    2TMC3    C114404   1.247   4.308  14.977 -0.0405 -0.7429 -0.2705
    2TMC3    C214405   1.125   4.273  15.022 -0.7978 -0.0905  0.1278
    2TMC3    C314406   1.010   4.313  14.959 -0.2263  0.5312 -0.4017
    2TMC3    C414407   1.254   4.394  14.871 -0.2697  0.1546  0.5271
    2TMC3    C514408   1.144   4.441  14.818  0.4000 -0.3821  0.2727
    2TMC3    C614409   1.017   4.396  14.851  0.0822  0.0162  0.0869
    2TMC3     C14410   1.319   4.185  14.966 -0.7447  0.7138  0.6053
    2TMC3     O14411   1.248   4.086  14.938 -0.4107 -0.0432  0.3067
    2TMC3     H14412   1.122   4.194  15.096  2.3728 -0.6146 -0.3082
    2TMC3    H114413   1.350   4.410  14.824 -0.9212 -1.3152 -1.3058
    2TMC3    H214414   0.934   4.424  14.788  0.6070  0.3091 -0.4779
    2TMC3    C714415   1.157   4.529  14.705  0.8158  0.2657  0.3898
    2TMC3    C814416   0.913   4.202  14.934  0.6437 -0.1436  0.7352
    2TMC3    O114417   1.068   4.532  14.624 -0.6482  0.0047 -0.3817
    2TMC3    O214418   0.801   4.232  14.896 -0.2975  0.3042  0.2864
    3TCq1    O114419   2.057   0.615  14.658 -0.4572  0.5334  0.1434
    3TCq1    C114420   1.940   0.671  14.616 -0.2764  0.7410  0.8261
    3TCq1    O214421   1.924   0.719  14.503 -0.2473 -0.6267  0.3672
    3TCq1    C214422   1.835   0.601  14.684  0.2594 -0.3738  0.2363
    3TCq1    C314423   1.848   0.568  14.810 -0.1104 -0.4957  0.7089
    3TCq1    C414424   1.763   0.488  14.872 -0.6829 -0.2881  0.1034
    3TCq1    C514425   1.657   0.444  14.807 -0.1190  0.0632  0.2275
    3TCq1    C614426   1.640   0.476  14.675  0.6251  0.3445 -1.0718
    3TCq1    C714427   1.731   0.554  14.608  0.0224  0.2681  0.3957
    3TCq1    C814428   1.540   0.416  14.598 -0.2659 -0.2747 -0.7045
    3TCq1    O414429   1.518   0.456  14.486  0.2683  0.6072 -0.3484
    3TCq1    C914430   1.790   0.439  15.004 -0.0883 -0.0613  0.1188
    3TCq1    O514431   1.912   0.411  15.024  0.0317  0.1226  0.2169
    3TCq1    O614432   1.694   0.421  15.086 -0.1654  0.3789 -0.1680
    3TCq1    H114433   2.053   0.552  14.734 -0.2707 -0.6221 -0.8042
    3TCq1    H214434   1.926   0.611  14.872 -0.7684  0.0296  1.1621
    3TCq1    H314435   1.593   0.377  14.864  0.5459  0.0508  0.9663
    3TCq1    H414436   1.732   0.567  14.501 -2.8941 -0.9327  0.2358
    4MPD2     C14437   1.310   0.242  14.507 -0.1107 -0.2471 -0.4551
    4MPD2    C114438   1.388   0.213  14.618  1.2654 -1.2331  0.5669
    4MPD2    C214439   1.370   0.096  14.692 -0.6039  0.2232  0.4934
    4MPD2    C314440   1.266   0.016  14.654  0.0769  0.3691  0.6758
    4MPD2    C414441   1.193   0.043  14.544  0.4992 -0.0477  0.3548
    4MPD2    C514442   1.215   0.152  14.461  0.5004 -0.3851 -0.2426
    4MPD2     H14443   1.443   0.080  14.771  0.3046 -1.4189 -0.6761
    4MPD2    H114444   1.112   4.717  14.508  1.2691 -0.3330 -0.8898
    4MPD2    H214445   1.323   0.335  14.453 -1.6803 -0.5039 -1.2652
    4MPD2    H314446   1.156   0.161  14.370  0.8601  1.7967 -0.2677
    4MPD2     N14447   1.257   4.626  14.723 -0.3062  0.1537  0.5015
    4MPD2    H514448   1.333   4.608  14.788  0.5392  0.2129 -0.4799
    4MPD2    N114449   1.490   0.305  14.664 -0.7320  0.1538 -0.2192
    4MPD2    H714450   1.537   0.280  14.751  1.1354  1.6181 -0.8149
    5TMC2    C114451   1.261   3.495  14.928  0.3089 -0.2573  0.6262
    5TMC2    C214452   1.197   3.417  15.028 -0.2333 -0.2635  0.4357
    5TMC2    C314453   1.285   3.360  15.116 -0.0979 -0.1165 -0.1941
    5TMC2    C414454   1.395   3.518  14.920 -0.4784  0.0923  0.6020
    5TMC2    C514455   1.466   3.471  15.026 -0.2224  0.8131 -0.1918
    5TMC2    C614456   1.422   3.380  15.117  0.5073 -0.6148  0.3059
    5TMC2     C14457   1.191   3.613  14.873  0.0323  0.3892 -0.4958
    5TMC2     O14458   1.260   3.710  14.858  0.0034  0.1690 -0.2972
    5TMC2     H14459   1.092   3.410  15.052 -0.9034  1.0785 -2.1413
    5TMC2    H114460   1.443   3.572  14.839 -0.4138 -2.4921 -1.0870
    5TMC2    H214461   1.491   3.343  15.192  1.3594  0.5417  0.1036
    5TMC2    C714462   1.548   3.579  15.077  0.3909  0.9111 -0.4248
    5TMC2    C814463   1.232   3.268  15.204  0.3978 -0.9024  0.2588
    5TMC2    O114464   1.645   3.543  15.143  0.3205  0.5957  0.0321
    5TMC2    O214465   1.306   3.202  15.278 -0.1028  0.0802 -0.2087
    5TMC2    O514466   1.120   3.319  15.248  0.6348  0.5691 -0.0433
    5TMC2    H514467   1.086   3.400  15.202 -1.1692 -0.7845 -1.0903
    6MPD2     C14468   0.797   3.934  14.852 -0.7538  0.2311 -0.2704
    6MPD2    C114469   0.921   3.953  14.908 -0.3146 -0.0933 -0.0398
    6MPD2    C214470   1.012   3.848  14.903  0.3458  0.0189  0.4073
    6MPD2    C314471   0.974   3.720  14.859 -0.3774  0.2165  0.6242
    6MPD2    C414472   0.842   3.702  14.819  0.1769 -0.0361  0.5774
    6MPD2    C514473   0.759   3.809  14.809 -0.7986  0.2320 -0.0159
    6MPD2     H14474   1.111   3.863  14.943 -0.1209  2.2666  0.6901
    6MPD2    H114475   0.806   3.601  14.801  1.3579 -0.4028  0.2647
    6MPD2    H214476   0.716   4.007  14.847 -2.2543 -1.5081 -1.2620
    6MPD2    H314477   0.654   3.785  14.792 -0.1340 -2.4974 -0.2324
    6MPD2     N14478   1.055   3.603  14.870  0.2582 -0.1133 -0.3743
    6MPD2    H514479   1.028   3.505  14.881  2.2141 -0.4587  1.4807
    6MPD2    N114480   0.969   4.078  14.943  0.6913  0.9229  0.3760
    6MPD2    H714481   1.070   4.076  14.954  0.4496 -0.9036  2.4388
  945NH4     N114482   2.265   1.717  14.474 -0.5767 -0.1999 -0.2478
  945NH4     H214483   2.362   1.751  14.493 -0.8958 -0.5272  2.0421
  945NH4     H314484   2.227   1.794  14.416  2.8069  0.5155 -1.5310
  945NH4     H414485   2.199   1.699  14.553 -1.6205 -0.2750 -1.1515
  945NH4     H514486   2.275   1.634  14.412 -2.1865  0.3930 -1.2906
  946SOD     NA14487   1.091   1.116  11.458 -0.2184  0.5931 -0.2975
  947SOD     NA14488   2.828   3.130  11.576  0.0902  0.1954  0.1095
  948SOD     NA14489   2.132   0.685  11.479  0.3996 -0.2360 -0.0418
  949SOD     NA14490   2.811   1.330  16.588  0.3245  0.0875  0.0893
  950SOD     NA14491   2.516   2.220  10.525  0.3041 -0.0153 -0.1866
  951SOD     NA14492   3.284   3.680   5.789  0.1455 -0.2262  0.0103
  952SOD     NA14493   3.644   1.448  12.979  0.1793  0.0691  0.3900
  953SOL     OW14494   4.630   4.055   7.211  0.0744  0.2418 -0.1893
  953SOL    HW114495   4.688   4.016   7.276 -0.1845  0.1105 -0.0359
  953SOL    HW214496   4.614   3.993   7.140 -1.5833  1.3576 -0.8108
  954SOL     OW14497   0.016   3.330  14.541  0.0543  0.4682 -0.3919
  954SOL    HW114498   0.042   3.422  14.535 -1.2218  0.9820  1.7988
  954SOL    HW214499   4.660   3.331  14.567 -0.6973 -1.2229 -2.9634
  955SOL     OW14500   2.465   1.109   3.745  0.0007  0.0730  0.1386
  955SOL    HW114501   2.535   1.106   3.811 -0.2778  0.0105  0.4280
  955SOL    HW214502   2.404   1.043   3.777  1.5421 -0.5516  1.7910
  956SOL     OW14503   2.675   1.690   6.363 -0.8453  0.4892 -0.1570
  956SOL    HW114504   2.679   1.605   6.319  1.6197  0.4380  0.2032
  956SOL    HW214505   2.704   1.746   6.291  0.2289 -0.3519 -0.3678
  957SOL     OW14506   0.299   0.196   7.708 -0.1234  0.1188  0.4615
  957SOL    HW114507   0.245   0.180   7.786  2.1870 -0.7363  1.8832
  957SOL    HW214508   0.301   0.108   7.672 -0.8673  0.4253 -0.3394
  958SOL     OW14509   2.237   1.445   2.492  0.1684 -0.8725  0.2855
  958SOL    HW114510   2.193   1.530   2.484 -1.4444 -1.6829  0.5494
  958SOL    HW214511   2.224   1.411   2.404  0.7639  0.3750 -0.2815
  959SOL     OW14512   1.807   4.688   1.559  0.3842 -0.0840  0.1829
  959SOL    HW114513   1.778   0.025   1.613 -1.5206  0.8581 -2.0996
  959SOL    HW214514   1.897   4.684   1.590  0.0321  1.7787  1.4473
  960SOL     OW14515   4.404   0.873   5.116 -0.2018 -0.0206 -0.1957
  960SOL    HW114516   4.362   0.878   5.030 -1.4952  3.0807  0.6371
  960SOL    HW214517   4.484   0.924   5.111 -0.0053 -0.3876 -0.8786
  961SOL     OW14518   2.952   2.981   7.947  0.8345 -0.1105  0.4653
  961SOL    HW114519   2.953   3.002   7.853  1.3814  2.3048  1.0019
  961SOL    HW214520   3.046   2.963   7.953  0.7472 -0.2443  1.3868
  962SOL     OW14521   1.331   0.470  16.565 -0.1591  0.1248  0.0711
  962SOL    HW114522   1.355   0.417  16.489 -0.1506  1.5282 -0.9079
  962SOL    HW214523   1.382   0.551  16.551 -1.2138  0.9234  0.8335
  963SOL     OW14524   1.887   2.461  17.272  0.3529 -0.5303  0.3758
  963SOL    HW114525   1.915   2.543  17.314  0.6662 -1.5450  2.1491
  963SOL    HW214526   1.890   2.490  17.181 -2.5479 -0.7319  0.2190
  964SOL     OW14527   1.309   3.069  14.395 -0.1025  0.2970 -0.5153
  964SOL    HW114528   1.387   3.021  14.423  2.0382  3.8472 -0.3953
  964SOL    HW214529   1.241   3.007  14.421  0.1187 -1.0175 -2.9871
  965SOL     OW14530   2.232   4.464   6.357  0.3200  1.0967  0.1952
  965SOL    HW114531   2.218   4.557   6.337  2.7187  1.3698 -0.2293
  965SOL    HW214532   2.220   4.431   6.268  5.3800 -0.6417  0.1575
  966SOL     OW14533   0.917   2.612   6.601 -0.1530 -0.6447  0.0107
  966SOL    HW114534   0.947   2.663   6.676  0.9647 -0.2998 -0.6733
  966SOL    HW214535   0.963   2.657   6.530 -0.3357 -2.2396 -1.1165
  967SOL     OW14536   1.607   1.512   6.493 -0.0205  0.4124 -0.0246
  967SOL    HW114537   1.621   1.575   6.423  0.2797  0.3401 -0.0313
  967SOL    HW214538   1.653   1.551   6.568 -1.0647 -1.7098  1.7300
  968SOL     OW14539   2.675   1.200  15.733  0.1805 -0.1971 -0.5808
  968SOL    HW114540   2.747   1.140  15.717  1.2975  0.2855  2.5904
  968SOL    HW214541   2.605   1.142  15.761 -0.8680  1.3048 -0.0831
  969SOL     OW14542   1.734   2.877   6.371  0.7646 -0.3555 -0.7151
  969SOL    HW114543   1.734   2.788   6.334 -3.1113 -0.4129 -0.6362
  969SOL    HW214544   1.809   2.870   6.430  0.9605  3.1080 -0.5863
  970SOL     OW14545   2.414   3.625   9.551  0.3657 -0.1459  0.3655
  970SOL    HW114546   2.430   3.603   9.643 -1.4978  0.9395  0.9447
  970SOL    HW214547   2.399   3.718   9.568  1.0356 -0.1341  0.8951
  971SOL     OW14548   1.234   3.725   5.016 -0.3290  0.1635 -0.1968
  971SOL    HW114549   1.179   3.800   4.996 -3.4835 -1.4860  2.1724
  971SOL    HW214550   1.218   3.679   4.934 -1.4332  1.8820 -0.9359
  972SOL     OW14551   2.366   3.943   0.285  0.6588  0.3107 -0.5671
  972SOL    HW114552   2.368   3.884   0.361  0.7673  0.8580 -0.1396
  972SOL    HW214553   2.289   3.995   0.309  1.2677  0.9911 -0.0573
  973SOL     OW14554   1.106   1.419   4.283 -0.7794  0.1927 -0.3946
  973SOL    HW114555   1.014   1.448   4.289 -0.3044  1.3759  1.0449
  973SOL    HW214556   1.131   1.425   4.190 -1.3872  1.8007 -0.4519
  974SOL     OW14557   4.146   0.714   1.709  0.5971 -0.6319 -0.4192
  974SOL    HW114558   4.182   0.697   1.622  0.7830 -1.3487 -0.2010
  974SOL    HW214559   4.217   0.770   1.739 -0.2576  1.2616 -1.8628
  975SOL     OW14560   4.088   4.593   9.819 -0.1279 -0.3294 -0.5265
  975SOL    HW114561   4.151   4.524   9.842  1.3953  1.8867  1.9218
  975SOL    HW214562   4.026   4.595   9.892  0.9081  1.3576  0.3105
  976SOL     OW14563   3.915   1.417   1.025  0.8925 -0.0307 -0.6671
  976SOL    HW114564   3.841   1.476   1.016  0.8450  0.2575  1.5457
  976SOL    HW214565   3.984   1.464   1.072  2.4671 -1.7156 -1.2925
  977SOL     OW14566   0.547   4.313  14.917  0.0563 -0.2398  0.6687
  977SOL    HW114567   0.634   4.273  14.919 -0.0102 -0.3520  1.4843
  977SOL    HW214568   0.520   4.301  14.826 -0.8801 -1.8007  1.1499
  978SOL     OW14569   3.535   4.201   5.095 -0.2953  0.2753  0.6475
  978SOL    HW114570   3.556   4.246   5.177 -0.6093  0.5356  0.5874
  978SOL    HW214571   3.521   4.114   5.132  1.4781  0.3919  1.5741
  979SOL     OW14572   1.422   0.450   9.535  0.5621  0.4344  0.0102
  979SOL    HW114573   1.335   0.480   9.509  0.4030  2.0133  2.3141
  979SOL    HW214574   1.406   0.410   9.621 -2.0610 -0.7014 -1.0267
  980SOL     OW14575   4.346   0.394   9.914 -0.0016 -0.6263 -0.0239
  980SOL    HW114576   4.291   0.444   9.854  3.1490 -0.5257 -2.8253
  980SOL    HW214577   4.312   0.313   9.877 -0.1886 -2.2014  3.5786
  981SOL     OW14578   1.306   0.902   1.022 -0.0985 -0.3097  0.0076
  981SOL    HW114579   1.358   0.978   0.995  0.0420  0.3607  2.1529
  981SOL    HW214580   1.255   0.874   0.946 -0.7405 -0.1593  0.3876
  982SOL     OW14581   4.378   4.046   6.707  0.3102  0.9971  0.7733
  982SOL    HW114582   4.471   4.043   6.730  0.3206  1.5373  0.8155
  982SOL    HW214583   4.346   3.960   6.733 -0.5775 -0.0966 -3.9588
  983SOL     OW14584   4.546   3.902   6.312  0.4684  0.8170  0.4907
  983SOL    HW114585   4.473   3.937   6.260 -0.3236 -1.0003  0.3937
  983SOL    HW214586   4.606   3.974   6.330  0.6803  1.0615 -1.2058
  984SOL     OW14587   1.743   2.416   4.166 -0.0105 -0.1878  0.4461
  984SOL    HW114588   1.774   2.398   4.255  1.9472  0.2770 -0.1275
  984SOL    HW214589   1.825   2.456   4.134  0.1625  0.6209  1.8748
  985SOL     OW14590   0.673   2.008   9.512 -0.4359 -0.0103 -0.5611
  985SOL    HW114591   0.610   2.070   9.549  1.8131  0.4749  2.4601
  985SOL    HW214592   0.698   2.061   9.437  1.5655  0.0819  0.1824
  986SOL     OW14593   2.729   2.773  15.961 -0.0009  0.5670  0.1848
  986SOL    HW114594   2.635   2.788  15.947 -0.1597 -0.4944  0.1164
  986SOL    HW214595   2.738   2.741  16.051 -2.9814 -1.9096 -0.3769
  987SOL     OW14596   3.375   4.642   6.970 -0.7012 -0.5364 -0.1768
  987SOL    HW114597   3.392   4.555   6.935  2.4793  0.9326 -2.2692
  987SOL    HW214598   3.416   4.702   6.908 -0.0588  0.3209  1.0623
  988SOL     OW14599   4.636   0.066   3.822 -0.4199 -0.5046  0.5750
  988SOL    HW114600   4.608   0.147   3.779 -1.0907 -1.3841 -0.6479
  988SOL    HW214601   4.687   0.102   3.894  0.2806  0.2779 -0.3197
  989SOL     OW14602   0.851   4.336  12.485 -0.2414 -0.0125  0.1017
  989SOL    HW114603   0.915   4.265  12.493 -1.3043 -0.8610  0.9937
  989SOL    HW214604   0.833   4.356  12.576 -0.2865 -0.6676  0.2398
  990SOL     OW14605   2.188   0.135  15.786  0.0843  0.3076  0.5485
  990SOL    HW114606   2.148   0.190  15.854  0.3599  1.6055 -0.3484
  990SOL    HW214607   2.221   0.198  15.722 -3.1100 -1.8711 -3.2398
  991SOL     OW14608   3.038   2.319   5.574  0.3882  0.1355 -0.6545
  991SOL    HW114609   3.094   2.304   5.650  2.1227  1.0828 -1.7491
  991SOL    HW214610   3.101   2.362   5.517  2.9771 -0.1641  1.9754
  992SOL     OW14611   1.929   1.198   3.355 -0.3353  0.9869  0.2044
  992SOL    HW114612   1.958   1.240   3.274 -0.7316  1.6135  0.3941
  992SOL    HW214613   1.845   1.158   3.331  0.1557 -0.3079  0.6092
  993SOL     OW14614   2.816   2.683   4.622  0.8756  0.0074  0.1287
  993SOL    HW114615   2.738   2.642   4.585 -0.9855  3.5692  0.1065
  993SOL    HW214616   2.791   2.775   4.631 -0.2563 -0.4876  1.9884
  994SOL     OW14617   2.210   4.130  17.569  0.1918 -0.2089  0.0019
  994SOL    HW114618   2.166   4.175  17.641  1.4608  1.9961 -0.5946
  994SOL    HW214619   2.170   4.176  17.496  0.3448 -0.2838 -0.1287
  995SOL     OW14620   0.465   2.629   9.855 -1.2562 -0.1399  0.7252
  995SOL    HW114621   0.444   2.580   9.934  3.9595 -1.7456  1.0604
  995SOL    HW214622   0.436   2.570   9.785  1.8904 -0.3828 -0.3879
  996SOL     OW14623   1.062   1.505  14.721  0.1855 -0.6666 -0.0783
  996SOL    HW114624   1.010   1.517  14.641 -1.7154 -1.4450  1.0319
  996SOL    HW214625   0.993   1.532  14.782 -0.7210 -1.8205 -0.6024
  997SOL     OW14626   1.499   3.519   2.698  0.3307  0.4464 -0.1129
  997SOL    HW114627   1.448   3.517   2.778  0.1751  2.6171 -0.1826
  997SOL    HW214628   1.536   3.607   2.693  0.2742  0.4805  0.0852
  998SOL     OW14629   0.776   3.184   3.047 -0.0286 -0.1787 -0.6855
  998SOL    HW114630   0.691   3.205   3.009 -1.4769 -1.0628  2.1043
  998SOL    HW214631   0.767   3.229   3.131 -0.7783 -0.8025 -0.4321
  999SOL     OW14632   3.496   3.209   5.828  0.4813 -0.1588  0.2064
  999SOL    HW114633   3.440   3.212   5.750 -1.6633 -1.8535  1.6656
  999SOL    HW214634   3.440   3.159   5.888  0.8983 -0.9478 -0.0557
 1000SOL     OW14635   1.622   0.397   6.854  0.2805  0.8532 -0.1981
 1000SOL    HW114636   1.661   0.342   6.922 -0.4193  0.0841 -0.4131
 1000SOL    HW214637   1.540   0.349   6.839  0.2652  0.4626  1.1074
 1001SOL     OW14638   0.201   0.921   5.112 -0.2508 -0.1462 -0.8464
 1001SOL    HW114639   0.236   0.858   5.049 -1.7254 -1.6472 -0.1764
 1001SOL    HW214640   0.266   0.914   5.182 -1.2511  0.1909  0.1247
 1002SOL     OW14641   0.338   0.896   5.373  0.9789  0.4592  0.0939
 1002SOL    HW114642   0.322   0.802   5.383  1.2658  0.1999 -1.8307
 1002SOL    HW214643   0.425   0.891   5.412  0.7470 -1.2434  0.3924
 1003SOL     OW14644   2.555   2.042   8.355 -0.0356 -0.2761  0.1475
 1003SOL    HW114645   2.559   2.054   8.260  0.5631 -1.0094  0.0751
 1003SOL    HW214646   2.608   1.964   8.373 -2.1975 -2.1322 -1.5209
 1004SOL     OW14647   1.997   0.429   2.630 -0.1842 -0.1521 -0.0514
 1004SOL    HW114648   1.997   0.422   2.534 -0.5785  2.1928 -0.2114
 1004SOL    HW214649   1.971   0.339   2.650  0.3297  0.0780  1.6210
 1005SOL     OW14650   2.975   2.365  13.161  0.3705  0.2510  0.1925
 1005SOL    HW114651   2.999   2.302  13.093 -0.5259 -0.2964  0.3782
 1005SOL    HW214652   2.879   2.366  13.169  0.4640 -0.0887  1.3311
 1006SOL     OW14653   1.458   3.291   3.964 -0.3483  0.1151 -0.5259
 1006SOL    HW114654   1.405   3.340   4.026 -0.4312 -0.3906 -0.1917
 1006SOL    HW214655   1.500   3.218   4.010  0.1981  0.8222  0.0903
 1007SOL     OW14656   3.031   3.736  15.307 -0.2575  0.0754 -0.4351
 1007SOL    HW114657   3.016   3.736  15.212 -1.5288  1.2881 -0.2336
 1007SOL    HW214658   2.985   3.659  15.341 -1.1210  1.0563  0.6214
 1008SOL     OW14659   2.302   1.844   8.284 -0.3814  0.1267 -0.0089
 1008SOL    HW114660   2.392   1.844   8.319 -0.5561  1.0580  0.4225
 1008SOL    HW214661   2.244   1.836   8.360 -2.9040 -0.3394 -2.0156
 1009SOL     OW14662   4.542   1.662   8.524 -0.5821 -0.1473  0.6648
 1009SOL    HW114663   4.594   1.702   8.594 -1.7853  0.8007  1.0114
 1009SOL    HW214664   4.458   1.694   8.555 -1.3312 -1.2421 -0.2612
 1010SOL     OW14665   3.325   3.244   0.952  0.3489  0.2381 -0.1644
 1010SOL    HW114666   3.395   3.308   0.939  1.8299 -1.5626 -0.9854
 1010SOL    HW214667   3.252   3.300   0.981  0.1943 -0.9396  1.6991
 1011SOL     OW14668   0.713   1.407   4.536  0.3813 -0.0468  0.7520
 1011SOL    HW114669   0.656   1.483   4.524  1.8956  1.2320  1.5496
 1011SOL    HW214670   0.798   1.445   4.561  1.5917 -1.5279 -1.1366
 1012SOL     OW14671   4.532   1.911   8.738  0.1505  0.1894  0.6610
 1012SOL    HW114672   4.588   1.834   8.743  1.6330  1.3051  1.3886
 1012SOL    HW214673   4.531   1.951   8.825 -0.1355 -0.8196  1.1232
 1013SOL     OW14674   2.685   1.371   6.531  0.9522 -0.0516  0.2545
 1013SOL    HW114675   2.770   1.392   6.570  0.3012 -0.5359  1.9066
 1013SOL    HW214676   2.650   1.316   6.600 -2.5235 -0.3880 -1.7896
 1014SOL     OW14677   3.761   3.737   5.800  0.1734  0.0683 -0.4167
 1014SOL    HW114678   3.849   3.772   5.813 -0.2775  0.2568  2.0282
 1014SOL    HW214679   3.774   3.680   5.724 -2.4658  0.6566 -1.3257
 1015SOL     OW14680   2.588   2.048   8.068  0.4338 -0.2742  0.7623
 1015SOL    HW114681   2.646   2.107   8.021 -0.0138 -0.4965 -0.0593
 1015SOL    HW214682   2.604   1.964   8.024  4.0709  0.9858 -0.2849
 1016SOL     OW14683   4.481   0.648  10.121 -0.5425 -0.2810  0.2556
 1016SOL    HW114684   4.431   0.729  10.112 -0.6905 -0.2662  1.1727
 1016SOL    HW214685   4.510   0.655  10.212  1.3308 -1.0043 -0.2919
 1017SOL     OW14686   3.930   2.360   3.150  0.1520  0.7396 -0.2186
 1017SOL    HW114687   3.971   2.282   3.114  0.7368  0.5373  0.8840
 1017SOL    HW214688   3.970   2.428   3.095 -0.3992  1.4864  0.2994
 1018SOL     OW14689   4.722   1.690   3.308 -0.2805  0.1459 -0.1873
 1018SOL    HW114690   4.639   1.711   3.352 -0.1824  0.1525 -0.0059
 1018SOL    HW214691   0.032   1.765   3.345  0.4460 -0.2995 -0.1978
 1019SOL     OW14692   4.572   1.711  10.710  0.1076  0.0363  0.0064
 1019SOL    HW114693   4.578   1.733  10.803 -1.0906 -0.5279  0.2245
 1019SOL    HW214694   4.480   1.689  10.696  0.0405 -0.9411  1.9328
 1020SOL     OW14695   3.012   3.135   4.213 -0.1915  0.7829 -0.0500
 1020SOL    HW114696   3.042   3.071   4.278 -2.1874  0.4933  0.6086
 1020SOL    HW214697   2.924   3.111   4.183  0.0935  1.6312 -1.5732
 1021SOL     OW14698   0.855   4.720   5.678  0.1154 -0.3071  0.0071
 1021SOL    HW114699   0.849   0.067   5.725 -1.4448  1.1214 -2.7314
 1021SOL    HW214700   0.763   4.707   5.656 -0.5202 -0.7641  2.8704
 1022SOL     OW14701   1.968   1.845   7.963  0.4445 -0.2804  0.2135
 1022SOL    HW114702   1.994   1.805   7.880  1.3925  0.9419 -0.0754
 1022SOL    HW214703   1.878   1.870   7.942  0.6503 -0.1804 -0.5434
 1023SOL     OW14704   3.910   1.730   3.864  0.1616  0.4793 -0.0421
 1023SOL    HW114705   3.901   1.825   3.876  0.8700  0.3744  1.3732
 1023SOL    HW214706   3.832   1.696   3.907  0.4292  2.4838  2.0581
 1024SOL     OW14707   3.652   1.823   5.151 -0.6821 -0.0813  0.2842
 1024SOL    HW114708   3.581   1.796   5.209 -1.1724  1.8420  0.5892
 1024SOL    HW214709   3.717   1.756   5.173  0.0951  0.5604 -0.0642
 1025SOL     OW14710   1.549   4.054   2.056  0.4332  0.1685  0.0790
 1025SOL    HW114711   1.600   4.128   2.022 -0.9950  1.3837  0.5854
 1025SOL    HW214712   1.621   4.012   2.103 -1.4461 -0.6539  2.2449
 1026SOL     OW14713   3.666   2.319  12.950  0.5007  0.1966  0.1980
 1026SOL    HW114714   3.598   2.361  13.002 -0.0193  0.7112 -0.8822
 1026SOL    HW214715   3.611   2.285  12.879  0.0210  2.1181 -0.3676
 1027SOL     OW14716   0.649   1.225   7.116  0.0865 -0.1222 -0.1014
 1027SOL    HW114717   0.718   1.162   7.137  0.4757 -0.1488 -1.4670
 1027SOL    HW214718   0.607   1.250   7.198  0.6597 -2.7477  0.9874
 1028SOL     OW14719   0.708   3.968   4.005 -0.1369 -0.0478 -0.9842
 1028SOL    HW114720   0.719   4.041   4.065 -0.2730  0.6086 -1.7537
 1028SOL    HW214721   0.614   3.949   4.016  0.2376 -0.9753  0.6464
 1029SOL     OW14722   3.073   3.550  13.806  0.0482 -0.0041 -0.0021
 1029SOL    HW114723   3.062   3.459  13.776 -1.5410  0.2449 -0.1705
 1029SOL    HW214724   3.163   3.545  13.838 -0.6128  0.8280  1.9787
 1030SOL     OW14725   1.907   1.443   6.455 -0.2521  0.1677 -0.4693
 1030SOL    HW114726   1.920   1.435   6.361 -1.8583 -0.2292 -0.6677
 1030SOL    HW214727   1.869   1.358   6.480  1.2448 -0.4393 -0.2435
 1031SOL     OW14728   4.517   2.625   7.785 -0.1967 -0.0992 -0.0183
 1031SOL    HW114729   4.562   2.698   7.826 -0.0626  0.2163 -0.7398
 1031SOL    HW214730   4.567   2.613   7.705 -0.9104  0.3158 -0.5270
 1032SOL     OW14731   0.549   1.563  12.868  0.2997  0.7979 -0.5902
 1032SOL    HW114732   0.620   1.503  12.888 -0.0367  0.7389  0.4313
 1032SOL    HW214733   0.584   1.636  12.918 -1.4536  0.3780  1.2938
 1033SOL     OW14734   3.312   0.462  16.158 -0.3410  0.1387  0.1228
 1033SOL    HW114735   3.378   0.468  16.088 -2.2853 -0.3818 -1.7540
 1033SOL    HW214736   3.236   0.495  16.111 -2.2501 -0.9662  2.4208
 1034SOL     OW14737   3.324   3.319   4.451 -0.1749  0.1772  0.8826
 1034SOL    HW114738   3.337   3.276   4.536 -1.6308 -2.3790 -0.1944
 1034SOL    HW214739   3.377   3.267   4.390  0.8135  2.6222 -0.3472
 1035SOL     OW14740   0.977   0.737   5.019  0.5240 -0.2351  0.4888
 1035SOL    HW114741   1.062   0.756   4.979  1.2839  0.1006  2.2435
 1035SOL    HW214742   0.992   0.736   5.114 -0.3276  2.0351  0.6373
 1036SOL     OW14743   3.765   3.336   9.454  0.0965  0.0715  0.4004
 1036SOL    HW114744   3.714   3.391   9.514 -0.8665  2.1009 -2.2995
 1036SOL    HW214745   3.788   3.404   9.390  1.9837 -0.7604  0.1935
 1037SOL     OW14746   1.347   1.255   4.173 -0.0484  0.1620 -0.0550
 1037SOL    HW114747   1.294   1.254   4.093 -0.2579 -1.0017  0.1021
 1037SOL    HW214748   1.275   1.284   4.230 -0.7863  0.8032 -1.3053
 1038SOL     OW14749   2.432   1.554   6.579  0.3071 -0.4805  0.1805
 1038SOL    HW114750   2.494   1.484   6.558  0.9644 -0.5633  2.3755
 1038SOL    HW214751   2.352   1.509   6.554  0.6019 -0.8820 -0.0559
 1039SOL     OW14752   3.545   2.696   8.918 -0.0081 -0.2058 -0.2607
 1039SOL    HW114753   3.476   2.761   8.904  1.1751  1.1502  0.1941
 1039SOL    HW214754   3.565   2.658   8.833 -1.6490  0.2715 -0.8545
 1040SOL     OW14755   4.572   0.682   3.621 -0.1977  0.2000 -0.2118
 1040SOL    HW114756   4.581   0.770   3.585 -0.6726  0.1862 -0.3595
 1040SOL    HW214757   4.508   0.640   3.565 -1.0276  0.7510  0.3224
 1041SOL     OW14758   4.215   1.878  10.807  0.3752 -0.0395  0.0239
 1041SOL    HW114759   4.271   1.869  10.729  0.9231 -0.6500  0.4838
 1041SOL    HW214760   4.153   1.806  10.796 -0.8930  1.7048 -4.0032
 1042SOL     OW14761   0.966   2.083  15.604 -0.4960  0.0656 -0.1606
 1042SOL    HW114762   0.911   2.060  15.529  1.2011  0.5364 -1.5706
 1042SOL    HW214763   0.921   2.161  15.635 -0.3083 -0.7254  2.0941
 1043SOL     OW14764   1.964   3.459   3.768  0.0070  0.1447  0.2814
 1043SOL    HW114765   1.909   3.389   3.805  0.5239 -1.5059 -2.1109
 1043SOL    HW214766   1.907   3.492   3.698 -2.6222 -1.9869  1.3590
 1044SOL     OW14767   1.424   3.211  15.665  0.2296 -0.3218  0.0052
 1044SOL    HW114768   1.420   3.305  15.647  1.0506 -0.3813 -0.5189
 1044SOL    HW214769   1.397   3.202  15.756  0.6079 -0.0677  0.1445
 1045SOL     OW14770   1.897   1.632   4.484  0.5678 -0.2379  0.2972
 1045SOL    HW114771   1.872   1.626   4.392  1.2435  2.6723 -0.0515
 1045SOL    HW214772   1.900   1.539   4.506  4.8593 -0.6298 -1.9234
 1046SOL     OW14773   1.595   4.107   1.198  0.0417 -0.2136  0.4767
 1046SOL    HW114774   1.517   4.160   1.186  0.6394  0.6061  0.1994
 1046SOL    HW214775   1.605   4.117   1.292 -1.3939 -1.5704  0.7763
 1047SOL     OW14776   0.561   1.946  10.591  0.2920  0.1882 -0.4819
 1047SOL    HW114777   0.580   1.983  10.504 -1.0544  0.0604 -0.8223
 1047SOL    HW214778   0.549   1.854  10.571 -0.6541  0.5581 -1.6301
 1048SOL     OW14779   3.929   4.410  10.507 -1.0307 -0.0722 -0.0464
 1048SOL    HW114780   3.941   4.441  10.597  0.9576 -1.2926  0.1167
 1048SOL    HW214781   3.916   4.488  10.453 -1.5112 -0.0703  0.0775
 1049SOL     OW14782   4.561   4.523   8.995  0.4502 -1.0819  0.2569
 1049SOL    HW114783   4.627   4.471   9.041  0.8689 -0.3678  0.4470
 1049SOL    HW214784   4.620   4.548   8.924  1.1486 -1.0873  0.8410
 1050SOL     OW14785   0.696   4.062   7.634 -0.5344 -0.2997 -0.0599
 1050SOL    HW114786   0.622   4.026   7.683 -1.9150  0.0370 -1.8935
 1050SOL    HW214787   0.762   4.038   7.698 -0.1802 -0.0946 -0.3498
 1051SOL     OW14788   3.817   4.590  15.456  0.4706 -0.0330 -0.6189
 1051SOL    HW114789   3.786   4.500  15.455 -0.0942  0.1607 -0.6652
 1051SOL    HW214790   3.860   4.600  15.541 -0.9161  0.1215  0.0709
 1052SOL     OW14791   3.463   3.005   6.665 -0.3276  1.0514  0.1970
 1052SOL    HW114792   3.431   2.916   6.679 -0.4332  1.3611  1.9762
 1052SOL    HW214793   3.554   2.990   6.639 -0.6712 -1.1768  0.3570
 1053SOL     OW14794   4.450   0.406   4.582  0.2004  0.6582 -0.3912
 1053SOL    HW114795   4.400   0.486   4.568 -0.3767  0.2162 -0.8443
 1053SOL    HW214796   4.442   0.396   4.677 -2.2541  0.0443 -0.6580
 1054SOL     OW14797   0.992   1.227   8.416  0.6109 -0.4970 -0.2415
 1054SOL    HW114798   0.944   1.148   8.442 -0.2974  0.1963  0.2040
 1054SOL    HW214799   0.925   1.255   8.353 -0.2913 -0.6024  0.6605
 1055SOL     OW14800   3.072   0.072   8.240  0.5165 -0.1390 -0.2833
 1055SOL    HW114801   3.070   0.168   8.232  0.7861 -0.0795  0.3541
 1055SOL    HW214802   2.990   0.047   8.282  1.6078  1.2654  2.6636
 1056SOL     OW14803   1.849   3.134   1.520 -0.1794  0.1187 -0.1848
 1056SOL    HW114804   1.765   3.147   1.563 -1.0752  0.7970 -2.1164
 1056SOL    HW214805   1.856   3.225   1.489  0.6789 -0.4542 -1.6873
 1057SOL     OW14806   4.637   0.173   8.744 -0.5048 -0.0749  0.1847
 1057SOL    HW114807   4.630   0.267   8.762 -2.0170  0.4001 -2.9769
 1057SOL    HW214808   4.729   0.178   8.720 -0.3825  0.7210  0.7905
 1058SOL     OW14809   2.468   1.943   7.004 -0.3228 -0.5045  0.0658
 1058SOL    HW114810   2.437   1.955   7.094  0.8706  0.5872  0.3283
 1058SOL    HW214811   2.560   1.931   7.028  0.5817 -0.5688 -3.4811
 1059SOL     OW14812   4.240   2.654   7.832  0.0322  0.6243  0.3301
 1059SOL    HW114813   4.335   2.645   7.827 -0.1129 -1.2221  1.2015
 1059SOL    HW214814   4.223   2.620   7.919  3.0023  1.0118  1.0581
 1060SOL     OW14815   0.718   1.782  12.123 -0.2348 -0.5387  0.3509
 1060SOL    HW114816   0.644   1.762  12.180 -1.9772 -0.5595 -1.9284
 1060SOL    HW214817   0.785   1.719  12.152  0.2935 -0.5298 -0.8176
 1061SOL     OW14818   2.439   0.698   6.508  0.2252 -0.5636 -0.0550
 1061SOL    HW114819   2.457   0.705   6.602 -0.3401 -1.4874  0.1294
 1061SOL    HW214820   2.464   0.785   6.478  0.0060 -0.8275 -0.9921
 1062SOL     OW14821   4.177   1.945   5.641  0.1523 -0.2208 -0.1050
 1062SOL    HW114822   4.165   1.872   5.702 -0.8391 -0.5346 -0.6733
 1062SOL    HW214823   4.250   1.906   5.593  1.8528 -2.1697  4.0391
 1063SOL     OW14824   1.282   1.483   3.397  0.0318 -0.1381  0.0189
 1063SOL    HW114825   1.220   1.517   3.333  1.1207  1.0343 -0.4203
 1063SOL    HW214826   1.340   1.559   3.406 -0.0324 -0.2907  1.7404
 1064SOL     OW14827   0.575   2.495   5.770 -0.0428  0.7108 -0.2849
 1064SOL    HW114828   0.485   2.527   5.774 -0.2579  0.0074  0.4604
 1064SOL    HW214829   0.612   2.548   5.700  1.4047 -0.8589 -0.7079
 1065SOL     OW14830   4.383   1.781  11.928  0.0698  0.3181  0.0841
 1065SOL    HW114831   4.445   1.723  11.883 -1.1665 -0.2126 -0.9348
 1065SOL    HW214832   4.425   1.783  12.014 -0.0857 -2.3639  0.2312
 1066SOL     OW14833   2.137   3.460  11.542  0.0535  0.6194  0.1412
 1066SOL    HW114834   2.101   3.541  11.578  0.5124  1.3094 -0.9571
 1066SOL    HW214835   2.103   3.401  11.609  0.7355  1.2323  1.0247
 1067SOL     OW14836   0.138   1.088   4.590 -0.1753  0.5707  0.2057
 1067SOL    HW114837   0.086   1.131   4.658 -1.2492  0.1993 -0.3697
 1067SOL    HW214838   0.191   1.026   4.639  0.6492 -0.4349 -1.9927
 1068SOL     OW14839   0.664   3.101   6.753  0.4075 -0.0698  0.1926
 1068SOL    HW114840   0.655   3.007   6.740 -4.6982  0.2978  1.0797
 1068SOL    HW214841   0.705   3.132   6.672 -0.5652  1.5715  0.3067
 1069SOL     OW14842   3.130   2.920   3.752 -0.7086  0.5072 -0.0982
 1069SOL    HW114843   3.077   2.843   3.772 -0.1719  0.9260  2.8811
 1069SOL    HW214844   3.193   2.872   3.697 -3.6795 -2.0793 -1.2396
 1070SOL     OW14845   1.279   1.395   9.325 -0.5120 -0.2019  1.3166
 1070SOL    HW114846   1.354   1.411   9.267 -1.2028  0.6675  0.6617
 1070SOL    HW214847   1.330   1.391   9.406  1.6103  0.3578  0.0111
 1071SOL     OW14848   3.813   2.236  15.078 -0.3089  0.4174  0.2257
 1071SOL    HW114849   3.749   2.304  15.100  1.6920  3.0672 -1.9450
 1071SOL    HW214850   3.846   2.274  14.996 -0.1350  2.5102  1.2722
 1072SOL     OW14851   4.294   4.433   3.693 -0.5287 -0.2054  0.0618
 1072SOL    HW114852   4.327   4.492   3.624  0.0773 -0.9834 -0.3129
 1072SOL    HW214853   4.310   4.486   3.771  0.4738 -0.5837  0.1096
 1073SOL     OW14854   3.332   3.235   4.725  0.2580  0.0784 -0.0120
 1073SOL    HW114855   3.320   3.154   4.775  0.9221  0.6675  1.0944
 1073SOL    HW214856   3.245   3.274   4.734  1.3783  2.7739 -0.8628
 1074SOL     OW14857   1.177   2.941   0.072  0.4439 -0.3267 -0.0761
 1074SOL    HW114858   1.137   2.868   0.119 -1.3294  0.8013  0.1774
 1074SOL    HW214859   1.113   3.011   0.085 -0.0194 -0.6653 -0.5691
 1075SOL     OW14860   2.794   2.716  11.332  0.5816  0.4091 -0.6853
 1075SOL    HW114861   2.863   2.684  11.390  0.1821 -0.6992 -0.8266
 1075SOL    HW214862   2.850   2.750  11.263  3.1453 -0.2947  1.0445
 1076SOL     OW14863   3.502   2.829   3.889 -0.3387  0.2180 -0.6758
 1076SOL    HW114864   3.592   2.846   3.863 -0.5974  0.0374 -1.6865
 1076SOL    HW214865   3.480   2.771   3.816 -1.4436  0.8921 -0.8725
 1077SOL     OW14866   2.999   1.943   8.018 -0.7171 -0.2106  0.6118
 1077SOL    HW114867   3.049   1.940   8.099  0.5236 -0.7700 -0.1631
 1077SOL    HW214868   2.945   2.021   8.027  0.0750  0.6388 -2.0160
 1078SOL     OW14869   0.758   3.766   4.522  0.1015 -0.3637 -0.3393
 1078SOL    HW114870   0.838   3.804   4.487  0.4144 -1.5818 -0.9380
 1078SOL    HW214871   0.682   3.806   4.480  0.2791  0.6693  0.3246
 1079SOL     OW14872   4.231   4.645   8.416 -0.5984  0.7027 -0.0102
 1079SOL    HW114873   4.212   4.620   8.506  2.4207  1.6039  0.8788
 1079SOL    HW214874   4.326   4.642   8.405 -0.5202 -0.9313  1.0933
 1080SOL     OW14875   2.266   2.282  13.974  0.1545 -0.0734  0.6940
 1080SOL    HW114876   2.236   2.334  14.049  1.9371  0.8177  0.7911
 1080SOL    HW214877   2.322   2.344  13.927 -0.1821 -1.6956 -1.8572
 1081SOL     OW14878   3.477   4.526   5.630 -0.4590  0.1918  0.4053
 1081SOL    HW114879   3.431   4.562   5.555 -1.8205  0.3753  1.3320
 1081SOL    HW214880   3.503   4.440   5.595 -0.8814 -0.3942  1.5344
 1082SOL     OW14881   1.588   2.837   4.838  0.0079  0.1471 -0.7389
 1082SOL    HW114882   1.577   2.780   4.763 -2.3839 -1.0895  0.5460
 1082SOL    HW214883   1.552   2.920   4.806  2.2985  0.0060 -3.6384
 1083SOL     OW14884   1.363   4.161   9.956  0.3250 -0.2459  0.5402
 1083SOL    HW114885   1.288   4.134   9.903 -0.8214  1.3963  1.3117
 1083SOL    HW214886   1.353   4.253   9.983  1.4249 -0.1323  0.5786
 1084SOL     OW14887   1.877   2.112  16.317  0.4645  0.0693 -0.1107
 1084SOL    HW114888   1.940   2.174  16.353 -0.5887  0.7543  0.5764
 1084SOL    HW214889   1.892   2.033  16.368 -2.1760 -1.3763 -1.5385
 1085SOL     OW14890   4.178   2.450   5.188 -0.3254  0.0631  0.0445
 1085SOL    HW114891   4.260   2.484   5.151 -0.6113 -1.6150 -2.1201
 1085SOL    HW214892   4.128   2.417   5.113 -0.1690  0.6895 -0.3344
 1086SOL     OW14893   2.762   3.919  14.421  0.2198  0.5358  0.6663
 1086SOL    HW114894   2.698   3.851  14.400 -1.0812  3.2690 -4.3250
 1086SOL    HW214895   2.802   3.879  14.498 -2.7257 -0.3149  1.7824
 1087SOL     OW14896   2.059   1.556   7.195  0.4133  0.2091  0.9650
 1087SOL    HW114897   2.114   1.579   7.269 -0.4098 -0.9310  1.9313
 1087SOL    HW214898   2.037   1.466   7.219  1.1647 -0.5118 -1.0063
 1088SOL     OW14899   3.185   1.252   3.539 -0.2668 -0.5322  0.2450
 1088SOL    HW114900   3.164   1.195   3.612  0.7779  0.6058  1.4358
 1088SOL    HW214901   3.115   1.227   3.479  0.0266  1.5266 -0.9853
 1089SOL     OW14902   0.048   1.241   9.491 -0.5361 -0.4418  0.5886
 1089SOL    HW114903   4.726   1.195   9.552 -0.8657 -1.2671 -0.3332
 1089SOL    HW214904   4.724   1.276   9.425  0.7679 -0.0352 -0.3725
 1090SOL     OW14905   2.616   1.346   8.193  0.0200  0.2524 -0.3982
 1090SOL    HW114906   2.540   1.320   8.243 -0.5762 -0.4334 -1.6562
 1090SOL    HW214907   2.675   1.280   8.229 -0.6301 -0.6056 -0.9076
 1091SOL     OW14908   0.817   0.473   6.792 -0.3807  0.3428 -0.0077
 1091SOL    HW114909   0.807   0.495   6.699 -2.3149  0.6814  0.2891
 1091SOL    HW214910   0.785   0.384   6.801  0.1135  0.2708  1.0996
 1092SOL     OW14911   2.206   2.798   8.744  0.1371 -0.0105 -1.0177
 1092SOL    HW114912   2.178   2.739   8.674  0.5595 -0.9215 -0.4091
 1092SOL    HW214913   2.228   2.878   8.697  3.3220  1.2702  2.6883
 1093SOL     OW14914   0.972   1.777   1.372  0.5375 -0.1565  0.1257
 1093SOL    HW114915   0.998   1.751   1.283 -1.6854 -1.1225 -0.2549
 1093SOL    HW214916   0.953   1.688   1.403  0.3919  0.3838  1.5764
 1094SOL     OW14917   3.010   0.547   7.320  0.0616  0.1180 -0.0100
 1094SOL    HW114918   3.012   0.464   7.367 -1.2636 -1.4348 -2.6965
 1094SOL    HW214919   3.102   0.573   7.326 -0.0902  0.8727 -0.8935
 1095SOL     OW14920   1.006   1.690   6.543  0.5640  0.3338 -0.0860
 1095SOL    HW114921   1.035   1.600   6.528 -0.4751  0.0560 -0.4054
 1095SOL    HW214922   1.068   1.716   6.612 -0.9860  1.1547  0.9848
 1096SOL     OW14923   2.280   2.124   8.803 -0.5532 -0.6653  0.3281
 1096SOL    HW114924   2.200   2.168   8.774 -0.6811 -1.3533 -0.3873
 1096SOL    HW214925   2.334   2.130   8.725 -0.9836 -1.4938 -0.0406
 1097SOL     OW14926   3.869   3.284   2.109  0.2101 -0.7284 -0.6851
 1097SOL    HW114927   3.922   3.235   2.172 -0.2769  1.0560  1.1273
 1097SOL    HW214928   3.800   3.323   2.163 -1.1360 -1.7403 -1.6551
 1098SOL     OW14929   4.328   1.240   8.665  1.0942 -0.1561 -0.1078
 1098SOL    HW114930   4.257   1.251   8.728 -0.7196  1.5949 -2.4451
 1098SOL    HW214931   4.273   1.227   8.588  2.3703 -2.3431 -0.6407
 1099SOL     OW14932   0.497   3.340   6.890 -0.2473 -0.1402 -0.3343
 1099SOL    HW114933   0.529   3.258   6.853 -0.5648 -0.3756 -0.0802
 1099SOL    HW214934   0.409   3.325   6.924 -0.0731 -0.5811 -0.0814
 1100SOL     OW14935   4.622   2.967   0.680 -0.2764  0.1212  0.3669
 1100SOL    HW114936   4.645   2.947   0.770  1.6382  1.6219  0.1970
 1100SOL    HW214937   4.691   2.917   0.636  0.0183 -0.0773  1.0657
 1101SOL     OW14938   4.502   3.098   6.904 -0.1146  0.4768  0.2163
 1101SOL    HW114939   4.493   3.120   6.811 -0.2553  1.3749  0.4461
 1101SOL    HW214940   4.469   3.008   6.902  0.7659  0.1649 -0.6666
 1102SOL     OW14941   4.671   2.946   5.416  0.3846  0.6660  0.1099
 1102SOL    HW114942   4.713   2.942   5.502  2.0750  1.3551 -0.6834
 1102SOL    HW214943   4.580   2.932   5.442  0.3667  1.7251  0.6660
 1103SOL     OW14944   0.683   1.560  16.900 -0.2551  0.4092 -0.0024
 1103SOL    HW114945   0.601   1.598  16.866  0.6338 -0.3730 -3.0099
 1103SOL    HW214946   0.640   1.481  16.933 -2.4363  0.1867 -3.3361
 1104SOL     OW14947   0.867   1.521  17.236 -0.6912  0.0579 -0.0346
 1104SOL    HW114948   0.941   1.502  17.179  0.7578  2.8674  0.9599
 1104SOL    HW214949   0.882   1.448  17.297 -0.6200 -0.6616 -0.9032
 1105SOL     OW14950   1.129   3.122   3.209  0.2502  0.1380  0.4703
 1105SOL    HW114951   1.205   3.132   3.153  0.5244 -1.1514  0.6235
 1105SOL    HW214952   1.096   3.212   3.216  2.9356  1.1628 -0.2070
 1106SOL     OW14953   0.102   4.579   7.810  0.0788 -0.2141  0.2892
 1106SOL    HW114954   0.174   4.609   7.866 -0.3215  1.7431 -0.2416
 1106SOL    HW214955   0.062   4.664   7.793 -0.4470 -0.5376 -0.0984
 1107SOL     OW14956   4.552   2.111   2.916 -0.4481  0.6087 -0.4064
 1107SOL    HW114957   4.628   2.127   2.860  0.2642 -1.9291 -0.1275
 1107SOL    HW214958   4.482   2.140   2.857 -0.6618  0.7458 -0.0846
 1108SOL     OW14959   3.829   1.575  13.672 -0.3017  0.1830  0.0775
 1108SOL    HW114960   3.775   1.497  13.655  1.0142 -0.6909 -0.1127
 1108SOL    HW214961   3.890   1.535  13.733 -1.2866  0.6243  1.3526
 1109SOL     OW14962   2.543   1.945   8.934  0.2130  0.0478 -0.4075
 1109SOL    HW114963   2.628   1.916   8.900  0.0354 -1.1538  0.1762
 1109SOL    HW214964   2.518   2.018   8.878 -3.9408 -1.0298  0.0591
 1110SOL     OW14965   0.555   4.501   3.045 -0.5136 -0.4215  0.3158
 1110SOL    HW114966   0.585   4.592   3.040  1.3816 -1.0905 -0.3037
 1110SOL    HW214967   0.462   4.512   3.064 -0.2522 -2.2568  2.6492
 1111SOL     OW14968   4.559   4.427  12.578 -0.0018 -0.1899  0.0586
 1111SOL    HW114969   4.568   4.332  12.593  1.2906  0.2865  2.3173
 1111SOL    HW214970   4.507   4.443  12.657 -0.7332  0.1242 -0.4878
 1112SOL     OW14971   4.680   3.412   8.914 -0.2913  0.2650  0.4883
 1112SOL    HW114972   4.724   3.458   8.986  1.4108 -1.4257  0.5469
 1112SOL    HW214973   4.641   3.493   8.883 -0.5753 -0.5651 -1.3137
 1113SOL     OW14974   4.471   0.587   4.810  0.0245 -0.6010 -0.3334
 1113SOL    HW114975   4.435   0.675   4.817  1.5093 -0.2436  2.9910
 1113SOL    HW214976   4.563   0.607   4.791  1.0541 -3.4054  1.6206
 1114SOL     OW14977   0.819   1.830   9.232  0.2549  0.3230 -0.5144
 1114SOL    HW114978   0.784   1.915   9.260  0.6764 -0.1661  1.4422
 1114SOL    HW214979   0.864   1.861   9.153  1.3859  0.6468  0.2552
 1115SOL     OW14980   2.325   4.011   2.937 -0.0780  0.1331  0.2364
 1115SOL    HW114981   2.357   3.922   2.919 -0.1871 -0.0096  0.7351
 1115SOL    HW214982   2.370   4.033   3.019 -2.4862 -0.9159  1.8330
 1116SOL     OW14983   3.474   3.238  13.940  0.2454  0.3691  0.2112
 1116SOL    HW114984   3.533   3.289  13.996  0.0975  0.3542  0.3789
 1116SOL    HW214985   3.524   3.157  13.939 -1.6411 -0.7854  0.1146
 1117SOL     OW14986   1.720   0.083  11.792 -0.2824  0.2622 -0.3653
 1117SOL    HW114987   1.639   0.033  11.805  0.5582 -0.5066  1.7813
 1117SOL    HW214988   1.785   0.015  11.806  1.3298  2.5369  3.0865
 1118SOL     OW14989   3.833   4.074   0.098  0.0939 -0.2376 -0.0231
 1118SOL    HW114990   3.789   4.056   0.181 -0.3592  0.8685 -0.0272
 1118SOL    HW214991   3.922   4.104   0.114 -1.0402  2.4733  1.0649
 1119SOL     OW14992   3.405   2.490   2.790  0.5415  0.2543 -0.3538
 1119SOL    HW114993   3.435   2.581   2.791  3.2397 -0.6338  0.3962
 1119SOL    HW214994   3.344   2.490   2.716 -2.4478 -0.0371  2.1207
 1120SOL     OW14995   2.092   3.100   4.421 -0.7561  0.5787  0.2781
 1120SOL    HW114996   2.127   3.164   4.483  1.3018 -0.6943  0.4206
 1120SOL    HW214997   2.035   3.054   4.483 -1.7843  0.5014 -0.7317
 1121SOL     OW14998   0.026   2.649   7.572  0.1367 -0.3661 -0.5528
 1121SOL    HW114999   4.729   2.672   7.485  0.1884 -1.1109 -0.7686
 1121SOL    HW215000   0.006   2.729   7.621  0.9871  0.5262 -1.6542
 1122SOL     OW15001   1.689   2.461   5.783 -0.2344  0.6070  0.1130
 1122SOL    HW115002   1.606   2.414   5.792 -1.9622  3.2055 -2.2459
 1122SOL    HW215003   1.738   2.407   5.721  1.2869  1.5062  0.5354
 1123SOL     OW15004   1.045   0.039  14.884 -0.2467  0.0544  0.1921
 1123SOL    HW115005   1.096   0.052  14.804 -1.2258  2.0416 -0.1176
 1123SOL    HW215006   1.059   0.124  14.926 -0.7516  0.3756 -0.2914
 1124SOL     OW15007   1.057   0.957   8.352  0.1721  0.4928  0.2903
 1124SOL    HW115008   1.120   0.961   8.423  2.8267 -1.6568 -1.9592
 1124SOL    HW215009   1.085   1.033   8.301 -0.6308  0.4325 -0.2362
 1125SOL     OW15010   1.868   1.146   8.361 -0.4744 -0.3430 -0.2697
 1125SOL    HW115011   1.926   1.185   8.296 -1.7104 -0.9546 -1.7652
 1125SOL    HW215012   1.804   1.217   8.364 -1.5318 -1.4167  2.1550
 1126SOL     OW15013   1.285   3.612  15.345 -0.2787  0.2529  0.5171
 1126SOL    HW115014   1.318   3.581  15.429  0.2231 -2.6350 -0.7694
 1126SOL    HW215015   1.360   3.671  15.337  0.4583 -0.8547 -0.6208
 1127SOL     OW15016   0.227   0.827  12.091 -0.1457 -0.2777 -0.3015
 1127SOL    HW115017   0.274   0.801  12.012  2.1635 -0.9561  1.2948
 1127SOL    HW215018   0.147   0.774  12.080 -0.5624  0.3421 -0.2549
 1128SOL     OW15019   3.396   3.164   8.704 -0.0299 -0.3380 -0.3304
 1128SOL    HW115020   3.481   3.131   8.731  0.3380  1.1302  0.2831
 1128SOL    HW215021   3.348   3.166   8.787  0.8604  0.4263  0.1635
 1129SOL     OW15022   4.399   4.045   5.444  0.6475  0.4169  0.0480
 1129SOL    HW115023   4.483   4.045   5.399  0.3487  0.3991 -0.5105
 1129SOL    HW215024   4.410   4.118   5.505 -1.3279  1.9513 -1.4161
 1130SOL     OW15025   2.162   3.299   8.984  0.2071 -0.2952  0.3985
 1130SOL    HW115026   2.108   3.267   8.912 -0.7379 -1.2852  1.5419
 1130SOL    HW215027   2.115   3.359   9.043  0.1303 -0.6156  0.6643
 1131SOL     OW15028   1.513   3.956   6.364 -0.0258 -0.1865 -0.0406
 1131SOL    HW115029   1.560   4.039   6.360  0.0229 -0.1796  0.7109
 1131SOL    HW215030   1.501   3.951   6.459  0.2267  2.5057  0.1339
 1132SOL     OW15031   1.172   2.643   7.581 -0.4618 -0.8040  0.2984
 1132SOL    HW115032   1.247   2.697   7.603 -1.0648  0.3397 -0.4491
 1132SOL    HW215033   1.134   2.611   7.662  0.0898 -0.9469  0.4965
 1133SOL     OW15034   3.287   4.724   3.882  0.2951  0.4967 -0.3891
 1133SOL    HW115035   3.328   4.643   3.914 -1.6736 -0.0697  0.7515
 1133SOL    HW215036   3.224   0.009   3.951 -0.0395 -1.7299 -0.0028
 1134SOL     OW15037   1.331   4.702   4.481 -0.5465  0.6052 -0.0196
 1134SOL    HW115038   1.361   0.044   4.435  2.2532 -0.3330  0.2398
 1134SOL    HW215039   1.248   4.689   4.435 -0.5074 -0.2383  0.1479
 1135SOL     OW15040   2.449   3.667   8.404 -0.2802  0.4872 -0.6217
 1135SOL    HW115041   2.406   3.619   8.333 -0.6337  0.8359 -0.6411
 1135SOL    HW215042   2.399   3.748   8.405 -0.2917  0.4691  0.5248
 1136SOL     OW15043   2.480   3.189   3.180  0.3266  0.5078 -0.0222
 1136SOL    HW115044   2.493   3.255   3.249 -3.4369  0.3852  0.8004
 1136SOL    HW215045   2.558   3.133   3.181  1.0452  1.5245  0.0540
 1137SOL     OW15046   1.476   4.597  14.897  0.6546 -0.5014 -0.0495
 1137SOL    HW115047   1.482   4.679  14.947 -1.8997  0.3992 -1.2446
 1137SOL    HW215048   1.524   4.541  14.958  1.5356 -0.8123 -1.0169
 1138SOL     OW15049   1.991   2.561   3.355  0.5651 -0.6468  0.1225
 1138SOL    HW115050   1.996   2.597   3.266 -0.6107  1.7710  1.0541
 1138SOL    HW215051   1.999   2.647   3.396  2.1435 -0.8594  0.2493
 1139SOL     OW15052   4.729   2.898  16.268  0.2913 -0.7824 -0.0494
 1139SOL    HW115053   0.032   2.940  16.344  0.6478  0.4658 -0.9113
 1139SOL    HW215054   0.008   2.968  16.204  1.7356  0.0558  1.2148
 1140SOL     OW15055   2.803   4.013   4.227 -0.0070 -0.2818  0.2645
 1140SOL    HW115056   2.785   3.931   4.274 -1.7143 -1.1236 -1.8664
 1140SOL    HW215057   2.884   3.991   4.181  0.3674  3.0581 -0.6212
 1141SOL     OW15058   2.683   3.292   2.807 -0.5264 -0.3994  0.3871
 1141SOL    HW115059   2.691   3.386   2.826 -1.4075 -0.2021 -0.2144
 1141SOL    HW215060   2.639   3.302   2.722 -0.5700  0.5023  0.5153
 1142SOL     OW15061   1.560   3.168   9.926 -0.6780 -0.2657 -0.4300
 1142SOL    HW115062   1.555   3.156   9.831  1.1766 -1.1216 -0.4174
 1142SOL    HW215063   1.499   3.240   9.942  0.1858  0.9303 -2.4058
 1143SOL     OW15064   1.945   1.230   6.119 -0.0420  0.3271  0.3059
 1143SOL    HW115065   2.023   1.211   6.171 -1.5201 -1.0429  2.0429
 1143SOL    HW215066   1.922   1.317   6.152 -1.2730  0.5324 -1.0612
 1144SOL     OW15067   0.244   3.338   6.992  0.1838 -0.2618  0.1719
 1144SOL    HW115068   0.171   3.277   6.980  0.6645 -0.7578 -0.1854
 1144SOL    HW215069   0.215   3.363   7.080  3.7223 -1.7078  1.7058
 1145SOL     OW15070   1.498   3.877   6.905 -0.0971 -0.1124 -0.4906
 1145SOL    HW115071   1.478   3.784   6.913  0.8433 -0.2057  0.6637
 1145SOL    HW215072   1.590   3.857   6.886  0.2069  0.0205  0.8732
 1146SOL     OW15073   2.614   3.496   6.028  0.3316  0.6387  0.0084
 1146SOL    HW115074   2.575   3.473   5.944 -0.5633  1.4292  0.2149
 1146SOL    HW215075   2.686   3.551   5.998  1.9208 -2.2370 -1.5023
 1147SOL     OW15076   4.075   1.471   1.612  0.4884 -0.1391  0.2358
 1147SOL    HW115077   4.071   1.496   1.705 -0.3281 -2.5812  0.8758
 1147SOL    HW215078   4.069   1.377   1.630  1.6972 -0.4225 -0.8376
 1148SOL     OW15079   3.929   4.678  12.225 -0.1732 -0.2548  0.1303
 1148SOL    HW115080   3.917   4.631  12.143 -1.0788  1.5860 -0.7873
 1148SOL    HW215081   3.933   0.030  12.188 -0.5477 -0.6891 -0.9461
 1149SOL     OW15082   0.471   2.944   5.856  0.0088  0.2400  0.7717
 1149SOL    HW115083   0.492   2.928   5.764 -2.6042  2.9069 -0.2743
 1149SOL    HW215084   0.490   3.037   5.857  2.8008 -0.3240  0.5523
 1150SOL     OW15085   1.698   4.406   9.425 -0.0271 -0.2926 -0.4226
 1150SOL    HW115086   1.745   4.489   9.427 -1.6987  0.6511 -0.4161
 1150SOL    HW215087   1.621   4.421   9.478  0.0793  0.6293 -0.5378
 1151SOL     OW15088   1.145   3.455  11.258 -0.4387 -0.5648 -0.0003
 1151SOL    HW115089   1.184   3.521  11.200 -0.6654 -0.7063 -0.3092
 1151SOL    HW215090   1.124   3.387  11.194  1.5947  1.0795 -2.4170
 1152SOL     OW15091   4.100   1.248   7.153 -0.3317 -0.1423 -0.2842
 1152SOL    HW115092   4.066   1.254   7.064 -1.2543  2.3104  0.2282
 1152SOL    HW215093   4.156   1.172   7.140  2.3252  2.1358 -2.0642
 1153SOL     OW15094   1.671   0.830  12.116  0.6233  0.0601 -0.1003
 1153SOL    HW115095   1.596   0.837  12.176  1.3231  2.1232  0.5070
 1153SOL    HW215096   1.698   0.741  12.139 -0.4721 -0.0869  0.6234
 1154SOL     OW15097   1.305   4.308  17.484 -0.5830  0.3417 -0.1053
 1154SOL    HW115098   1.267   4.365  17.417 -0.7955 -1.0230 -1.1413
 1154SOL    HW215099   1.387   4.357  17.491 -0.8027  0.5712  0.7643
 1155SOL     OW15100   1.914   1.507   7.495  0.0136  0.1395 -0.4696
 1155SOL    HW115101   1.855   1.432   7.502  1.5043 -0.8119  1.8322
 1155SOL    HW215102   1.851   1.574   7.469 -0.2447  1.0018  2.4348
 1156SOL     OW15103   2.845   2.775   3.585  0.1089  0.0281  0.5985
 1156SOL    HW115104   2.775   2.772   3.520  0.9439 -0.9369 -0.2620
 1156SOL    HW215105   2.818   2.769   3.676  0.7004 -1.1018  0.6977
 1157SOL     OW15106   1.805   3.380   7.412  0.1164  0.3448  0.0043
 1157SOL    HW115107   1.746   3.330   7.355  0.0616 -0.6271  0.9174
 1157SOL    HW215108   1.886   3.395   7.362  1.0304 -3.0638  0.4061
 1158SOL     OW15109   2.297   2.154   2.776 -0.0282  0.3206 -0.2265
 1158SOL    HW115110   2.261   2.225   2.829 -0.4360  0.4077 -0.6232
 1158SOL    HW215111   2.312   2.088   2.843  0.6704  1.5870  0.8580
 1159SOL     OW15112   0.839   0.819   8.683 -0.6029 -0.3835  0.1005
 1159SOL    HW115113   0.862   0.750   8.622 -0.2693 -0.7737  0.6647
 1159SOL    HW215114   0.925   0.860   8.686 -1.3750  1.4757 -3.9876
 1160SOL     OW15115   2.831   3.411   7.815  0.5559  0.3627 -0.4025
 1160SOL    HW115116   2.754   3.359   7.792 -1.2223  3.0604 -0.5664
 1160SOL    HW215117   2.812   3.438   7.905 -0.1855 -0.4108 -0.3271
 1161SOL     OW15118   1.426   2.122  15.544  0.2645 -0.2480  0.2500
 1161SOL    HW115119   1.390   2.195  15.595  1.9014  0.3905  0.5065
 1161SOL    HW215120   1.350   2.101  15.490  0.4091  2.2546 -0.9456
 1162SOL     OW15121   2.788   0.327  12.912  0.2170 -0.3775 -0.3394
 1162SOL    HW115122   2.869   0.302  12.867  1.0722  0.0142  0.9653
 1162SOL    HW215123   2.761   0.245  12.955 -0.8605  0.4746  0.5947
 1163SOL     OW15124   1.559   1.620  12.873 -0.0436 -0.2686 -0.0146
 1163SOL    HW115125   1.536   1.703  12.914  2.9031 -0.0686  1.2607
 1163SOL    HW215126   1.635   1.603  12.928 -0.3272 -2.0097 -0.1724
 1164SOL     OW15127   3.357   0.293   7.687 -0.2705 -0.4983 -0.0057
 1164SOL    HW115128   3.301   0.260   7.758  0.3262 -1.1502  0.1656
 1164SOL    HW215129   3.443   0.288   7.729 -1.2152  1.8869  2.2108
 1165SOL     OW15130   1.727   3.987  10.856 -0.4692 -0.7089  0.2997
 1165SOL    HW115131   1.690   3.965  10.942 -1.9647  2.4328  0.4392
 1165SOL    HW215132   1.816   3.952  10.862 -0.0066  0.2579 -1.0441
 1166SOL     OW15133   0.046   0.791   0.747 -0.2865 -0.0343  0.3879
 1166SOL    HW115134   0.128   0.742   0.741 -0.6753 -0.7003  0.5455
 1166SOL    HW215135   4.730   0.732   0.802  1.9322  0.0863  2.6771
 1167SOL     OW15136   3.495   4.384   5.318 -0.0970 -0.6080  0.8065
 1167SOL    HW115137   3.442   4.339   5.383  1.3071 -1.3213  1.4684
 1167SOL    HW215138   3.463   4.473   5.325 -2.0821 -0.8514 -4.6849
 1168SOL     OW15139   0.382   4.257   9.196 -0.4476  0.6597  0.0968
 1168SOL    HW115140   0.400   4.281   9.287 -0.1371 -0.1593  0.2463
 1168SOL    HW215141   0.358   4.341   9.157 -3.2543 -0.2576 -0.1597
 1169SOL     OW15142   0.673   1.763  15.149 -0.6988  0.1415  0.0005
 1169SOL    HW115143   0.606   1.745  15.215  1.7571  0.9719  2.6839
 1169SOL    HW215144   0.699   1.674  15.127  0.3545  0.2261  0.9373
 1170SOL     OW15145   1.593   2.674   5.564 -0.4418  0.6670  0.0308
 1170SOL    HW115146   1.621   2.605   5.624 -2.4484 -0.4182 -0.2830
 1170SOL    HW215147   1.612   2.751   5.618 -3.6250  1.6896 -0.3290
 1171SOL     OW15148   1.470   2.297  13.391  0.1306 -0.4731 -0.3858
 1171SOL    HW115149   1.548   2.253  13.425 -0.3606  0.1343  1.5263
 1171SOL    HW215150   1.415   2.295  13.469 -1.4407 -0.8153 -1.5168
 1172SOL     OW15151   1.795   0.167  12.735  0.3937 -0.1757  0.1983
 1172SOL    HW115152   1.879   0.123  12.749  0.3873  0.3585  1.9061
 1172SOL    HW215153   1.741   0.088  12.734  0.7989 -0.4224 -2.2761
 1173SOL     OW15154   2.453   1.152   5.456 -0.5732  0.2883 -0.0699
 1173SOL    HW115155   2.447   1.186   5.546 -0.3108 -1.7457  0.7210
 1173SOL    HW215156   2.373   1.101   5.447 -0.5763  0.2124  0.3590
 1174SOL     OW15157   4.243   3.034   8.011 -0.4793 -0.6309 -0.4648
 1174SOL    HW115158   4.171   3.064   7.955 -1.4286  0.1202  1.1379
 1174SOL    HW215159   4.313   3.098   8.000 -1.6530  0.1321 -3.5027
 1175SOL     OW15160   4.328   1.671   7.971 -0.0925 -0.2218  0.0548
 1175SOL    HW115161   4.320   1.713   7.885 -2.4787 -0.5215  0.1314
 1175SOL    HW215162   4.386   1.598   7.949  0.8596  0.8414 -0.9944
 1176SOL     OW15163   2.993   4.133   2.214 -0.5690 -0.2066  0.0716
 1176SOL    HW115164   2.901   4.152   2.193  0.0521  0.8638 -1.7191
 1176SOL    HW215165   3.022   4.224   2.225  1.2375 -0.8067  0.1796
 1177SOL     OW15166   3.091   4.614   5.847  0.5603  0.7088  0.1101
 1177SOL    HW115167   3.160   4.549   5.860  0.1574  0.0017 -1.3155
 1177SOL    HW215168   3.139   4.683   5.801  2.5043 -1.6503 -1.4156
 1178SOL     OW15169   2.885   0.864   6.430 -0.3355 -0.1779  0.1307
 1178SOL    HW115170   2.896   0.872   6.336  1.6446 -1.0640  0.2942
 1178SOL    HW215171   2.948   0.931   6.457 -1.1781  1.1822 -1.2895
 1179SOL     OW15172   1.198   3.400   7.322  0.4016 -0.3391 -0.0351
 1179SOL    HW115173   1.187   3.370   7.232 -0.2022  1.6963 -0.6395
 1179SOL    HW215174   1.200   3.495   7.321 -2.5236 -0.2770 -0.2885
 1180SOL     OW15175   4.355   1.354   5.825  0.1911  0.1541 -0.2783
 1180SOL    HW115176   4.428   1.386   5.772 -1.2243  3.2002 -0.4041
 1180SOL    HW215177   4.379   1.262   5.815 -1.1736 -0.6054  3.4236
 1181SOL     OW15178   3.707   0.563   4.172  0.7067 -0.0040 -0.1893
 1181SOL    HW115179   3.765   0.584   4.099  0.3744  1.5578 -0.0055
 1181SOL    HW215180   3.642   0.518   4.118  0.2109 -1.2657  1.4266
 1182SOL     OW15181   3.058   3.351   1.844  0.4094 -0.3819  0.0472
 1182SOL    HW115182   2.966   3.328   1.831  0.3817  0.3414 -1.0722
 1182SOL    HW215183   3.054   3.444   1.869 -2.2404 -0.3611 -0.3960
 1183SOL     OW15184   1.189   4.005   8.557 -0.0012 -0.4656 -0.5142
 1183SOL    HW115185   1.259   3.949   8.523  0.1208  1.3745 -3.3059
 1183SOL    HW215186   1.119   3.941   8.559 -0.6061  0.1511 -1.7180
 1184SOL     OW15187   1.168   3.491   5.602  1.0441  0.1812  0.5197
 1184SOL    HW115188   1.172   3.466   5.510 -0.5921 -0.3322  0.5873
 1184SOL    HW215189   1.220   3.571   5.610  0.7785  0.6645 -2.5782
 1185SOL     OW15190   3.375   2.592   7.849  0.4301  0.2635 -0.4027
 1185SOL    HW115191   3.316   2.614   7.778 -0.3050  0.3889  0.2506
 1185SOL    HW215192   3.325   2.521   7.890  1.1662  0.7523  1.3361
 1186SOL     OW15193   3.658   0.759  17.728 -0.7118  0.1587 -0.7461
 1186SOL    HW115194   3.605   0.710  17.665 -0.9332  2.4316 -2.3196
 1186SOL    HW215195   3.723   0.804  17.675 -1.0380  1.1679 -0.2869
 1187SOL     OW15196   1.383   0.065  14.152  0.3354  0.8676  0.1387
 1187SOL    HW115197   1.405   0.054  14.244  2.1336  0.3812 -0.3453
 1187SOL    HW215198   1.309   0.125  14.158 -0.9627 -0.8203  0.6778
 1188SOL     OW15199   1.804   2.898   8.483  0.2569  0.0340  0.3964
 1188SOL    HW115200   1.815   2.930   8.394 -0.9662 -0.4058  0.0807
 1188SOL    HW215201   1.864   2.823   8.478 -0.0074 -0.1459 -0.0787
 1189SOL     OW15202   0.300   0.705   5.629 -0.1057  0.1184  0.2834
 1189SOL    HW115203   0.360   0.778   5.639 -0.1463  0.2740 -0.6425
 1189SOL    HW215204   0.340   0.647   5.694  2.6549 -0.4134 -1.9091
 1190SOL     OW15205   1.917   1.769   5.169  0.0605 -0.0980 -0.1619
 1190SOL    HW115206   1.824   1.777   5.190 -0.1835 -1.4323 -0.7410
 1190SOL    HW215207   1.969   1.769   5.249 -1.0526 -0.8764  0.5541
 1191SOL     OW15208   4.280   3.393   6.707 -0.1035  0.2075 -0.1373
 1191SOL    HW115209   4.249   3.399   6.797  2.1523 -0.6862  0.6851
 1191SOL    HW215210   4.232   3.313   6.684 -1.2487  1.2616 -1.3721
 1192SOL     OW15211   1.570   2.360   8.566 -0.0474 -0.1944 -0.0558
 1192SOL    HW115212   1.526   2.418   8.628 -1.4889 -2.1275  0.7438
 1192SOL    HW215213   1.613   2.299   8.626 -0.7569 -0.0058  0.6502
 1193SOL     OW15214   1.326   1.144  13.799  0.5575 -0.0196 -0.2978
 1193SOL    HW115215   1.339   1.060  13.754  2.5334 -0.2826  0.7997
 1193SOL    HW215216   1.366   1.208  13.740  2.1810 -0.7962 -0.0327
 1194SOL     OW15217   3.968   2.120   9.583  0.3266 -0.5552  0.7551
 1194SOL    HW115218   3.917   2.180   9.530 -1.2440 -0.8352  1.9460
 1194SOL    HW215219   3.934   2.036   9.552  0.2781  0.7038 -2.5976
 1195SOL     OW15220   4.172   1.758   3.231  0.4798  0.4103  0.2963
 1195SOL    HW115221   4.177   1.686   3.168  0.2193 -0.1505  0.9329
 1195SOL    HW215222   4.144   1.708   3.307  0.5777 -0.0693  0.0141
 1196SOL     OW15223   0.054   0.982   7.188 -0.4826  0.1105  0.1051
 1196SOL    HW115224   0.083   1.070   7.210 -0.4811 -0.2871  1.6532
 1196SOL    HW215225   0.024   0.990   7.097  1.0633  2.0536 -0.2188
 1197SOL     OW15226   2.261   0.487   3.408 -0.0847 -0.0248 -0.3144
 1197SOL    HW115227   2.302   0.508   3.492  0.1864 -1.4419 -0.0964
 1197SOL    HW215228   2.318   0.412   3.387 -1.0968 -0.6320 -0.8802
 1198SOL     OW15229   4.043   1.600  13.321 -0.2754 -1.1046  0.4363
 1198SOL    HW115230   4.006   1.639  13.400  0.1275 -0.9856  0.5670
 1198SOL    HW215231   4.056   1.675  13.264 -0.2918 -0.9688  0.6132
 1199SOL     OW15232   2.203   1.340  16.242  0.2529  0.1886  0.5628
 1199SOL    HW115233   2.226   1.305  16.328  0.2443 -0.9732  0.0929
 1199SOL    HW215234   2.285   1.314  16.200 -1.6732 -1.2170 -2.3586
 1200SOL     OW15235   0.925   2.876   9.870 -0.4699 -0.1220 -0.1959
 1200SOL    HW115236   1.010   2.834   9.852 -0.5718 -0.8570  1.0226
 1200SOL    HW215237   0.878   2.845   9.793 -1.2673  0.4293  0.0702
 1201SOL     OW15238   4.582   1.103  11.361 -0.4458  0.2330 -0.3406
 1201SOL    HW115239   4.535   1.045  11.301 -1.8465  1.7676 -0.6964
 1201SOL    HW215240   4.609   1.041  11.429 -2.0643  0.5885  0.6152
 1202SOL     OW15241   3.734   2.533  11.421 -0.0201  0.3545 -0.4022
 1202SOL    HW115242   3.739   2.629  11.421  0.2593  0.3373 -1.7053
 1202SOL    HW215243   3.821   2.504  11.396  0.3420 -0.7167  2.1199
 1203SOL     OW15244   0.851   0.652   8.118  0.6912 -0.9037 -0.0061
 1203SOL    HW115245   0.815   0.587   8.179 -0.6054  0.2797  0.4688
 1203SOL    HW215246   0.795   0.648   8.041 -0.2414  2.0288  0.5163
 1204SOL     OW15247   3.859   3.953  14.128  0.6900  0.0649 -0.3523
 1204SOL    HW115248   3.846   4.018  14.059 -2.0657 -0.2505 -0.1230
 1204SOL    HW215249   3.906   3.885  14.080  0.4835  0.9645 -1.8046
 1205SOL     OW15250   0.228   0.267   3.651  0.0396 -0.3127  0.0678
 1205SOL    HW115251   0.298   0.247   3.713  0.8632  2.1228 -0.1001
 1205SOL    HW215252   0.266   0.337   3.598  0.7864 -0.5647  0.2744
 1206SOL     OW15253   2.282   0.003   8.525 -0.2317 -0.2889  0.4406
 1206SOL    HW115254   2.266   4.646   8.541 -0.7306  0.1580  2.4659
 1206SOL    HW215255   2.209   0.026   8.468  1.1364 -2.3215 -2.1368
 1207SOL     OW15256   4.610   0.679   2.438 -0.1508  0.6699  0.3774
 1207SOL    HW115257   4.558   0.751   2.474  0.0905  1.3469 -0.6496
 1207SOL    HW215258   4.537   0.617   2.430 -0.2018  0.4698  2.4675
 1208SOL     OW15259   0.547   3.136   0.645 -0.2462  0.3237 -0.7400
 1208SOL    HW115260   0.503   3.098   0.721 -0.9791  2.3983 -0.1307
 1208SOL    HW215261   0.548   3.063   0.583 -0.1019  0.3339 -0.7505
 1209SOL     OW15262   1.430   0.169  16.733  0.8511  0.5048 -0.0133
 1209SOL    HW115263   1.453   0.142  16.822 -1.8932  3.1025  1.4786
 1209SOL    HW215264   1.478   0.251  16.735 -2.4641  2.4504 -1.2912
 1210SOL     OW15265   4.352   3.741   3.288  0.0490  0.2686 -0.2519
 1210SOL    HW115266   4.417   3.782   3.345 -0.3909  0.8179 -0.1436
 1210SOL    HW215267   4.365   3.779   3.201  0.6594  2.6009  0.8702
 1211SOL     OW15268   4.599   2.066   6.826  0.0497 -0.9555  0.5537
 1211SOL    HW115269   4.533   2.056   6.757 -0.6848 -0.2944  1.1628
 1211SOL    HW215270   4.672   2.102   6.775  0.7531 -1.6602  1.0812
 1212SOL     OW15271   2.744   4.661   2.502 -0.0962  0.5970 -0.2325
 1212SOL    HW115272   2.732   4.730   2.437 -1.6346 -0.5484 -1.1902
 1212SOL    HW215273   2.823   4.696   2.543 -0.9798  1.8354  0.4111
 1213SOL     OW15274   3.461   4.666   2.414  0.4367 -0.1248 -0.1992
 1213SOL    HW115275   3.542   4.652   2.364  1.0924  1.1466  0.5028
 1213SOL    HW215276   3.481   0.017   2.451 -0.4597  0.8722 -2.0628
 1214SOL     OW15277   4.195   1.266   5.322 -0.3120  0.1828  0.2582
 1214SOL    HW115278   4.128   1.217   5.274  1.5031 -3.7591  1.7628
 1214SOL    HW215279   4.267   1.263   5.258 -2.0550 -1.4258 -1.6376
 1215SOL     OW15280   2.516   2.939  17.638 -0.6516  0.3111 -1.0123
 1215SOL    HW115281   2.582   2.960  17.571 -0.2494  0.4267 -0.5798
 1215SOL    HW215282   2.561   2.874  17.692  0.0662  0.8179 -1.0003
 1216SOL     OW15283   2.083   1.244   8.828  0.1919 -0.0671 -0.0295
 1216SOL    HW115284   2.122   1.203   8.751 -0.2254 -4.2073  1.9430
 1216SOL    HW215285   2.100   1.336   8.808  3.0238 -0.5403  0.2845
 1217SOL     OW15286   2.000   0.337   3.241 -0.0188 -0.1787 -0.4321
 1217SOL    HW115287   2.024   0.422   3.204 -0.4745  1.0954  2.2141
 1217SOL    HW215288   1.979   0.280   3.168 -1.6082 -1.5295  1.0917
 1218SOL     OW15289   1.612   0.238   2.505  0.3118  0.0156  0.2906
 1218SOL    HW115290   1.641   0.316   2.458  1.0446  0.4011  1.3600
 1218SOL    HW215291   1.597   0.177   2.434 -1.1661 -1.6631  2.0414
 1219SOL     OW15292   2.626   0.116   7.893 -0.0899 -0.1073 -0.2820
 1219SOL    HW115293   2.696   0.061   7.927 -0.9278  1.0061  3.2001
 1219SOL    HW215294   2.570   0.055   7.845 -1.6201 -0.2629  1.6894
 1220SOL     OW15295   2.318   0.312   3.980 -0.3891 -0.0105 -0.5500
 1220SOL    HW115296   2.381   0.265   3.926  1.2057  1.2134  0.2231
 1220SOL    HW215297   2.319   0.267   4.064  1.9431  2.4960  0.8019
 1221SOL     OW15298   0.390   3.743  15.945 -0.4049  0.0259 -0.7391
 1221SOL    HW115299   0.477   3.779  15.958 -0.1710 -0.9958  0.5535
 1221SOL    HW215300   0.331   3.818  15.949  0.5450  0.5402  3.0268
 1222SOL     OW15301   0.310   3.170  10.401 -0.2685  0.1264  0.6191
 1222SOL    HW115302   0.384   3.228  10.418 -0.2831  1.1595 -2.9186
 1222SOL    HW215303   0.362   3.095  10.370 -0.6088 -0.2286  0.8979
 1223SOL     OW15304   0.223   2.106   4.724  0.1648  1.0001  0.4105
 1223SOL    HW115305   0.244   2.061   4.641  0.4862 -1.2707  1.7278
 1223SOL    HW215306   0.295   2.168   4.729  0.9944  0.1911 -1.2816
 1224SOL     OW15307   2.238   4.562   3.146  0.6874 -0.6102 -0.3969
 1224SOL    HW115308   2.317   4.517   3.177  2.8680  1.8974 -2.3119
 1224SOL    HW215309   2.269   4.644   3.107 -0.2588  0.5939  1.4017
 1225SOL     OW15310   0.001   2.950  11.735 -0.3730 -1.0248  0.8323
 1225SOL    HW115311   4.707   2.973  11.824  0.5606  4.1335 -0.2007
 1225SOL    HW215312   0.071   3.015  11.729 -1.2650 -0.2694 -1.4319
 1226SOL     OW15313   3.354   1.756   3.754  0.0919  0.4421 -0.3450
 1226SOL    HW115314   3.273   1.780   3.709 -2.0197 -0.4944  2.9509
 1226SOL    HW215315   3.377   1.679   3.701 -1.9882  1.4831 -2.7836
 1227SOL     OW15316   0.516   4.444   5.907 -0.4703 -0.3830 -0.9477
 1227SOL    HW115317   0.547   4.491   5.984 -0.4796 -0.4147 -0.9246
 1227SOL    HW215318   0.595   4.454   5.856 -1.6231  4.9721 -1.6534
 1228SOL     OW15319   0.064   4.585   4.173 -0.1061 -0.1301 -0.1401
 1228SOL    HW115320   0.036   4.526   4.243  3.2459 -1.7596 -0.1654
 1228SOL    HW215321   0.156   4.561   4.172 -0.8103 -2.7198 -2.7881
 1229SOL     OW15322   1.579   1.672   9.828 -0.1077 -0.4275  0.2440
 1229SOL    HW115323   1.649   1.606   9.827  0.5007  0.2199  0.5171
 1229SOL    HW215324   1.540   1.645   9.911  0.4546  1.2044  1.0364
 1230SOL     OW15325   4.531   4.434  12.889  0.4496 -0.4880 -0.2726
 1230SOL    HW115326   4.516   4.340  12.890  0.0641 -0.4324 -1.0753
 1230SOL    HW215327   4.615   4.441  12.936  1.4370  1.3202 -2.2882
 1231SOL     OW15328   0.339   4.395  17.287 -0.8884  0.2882  0.0294
 1231SOL    HW115329   0.280   4.407  17.212  1.1464 -2.1895 -1.9727
 1231SOL    HW215330   0.356   4.301  17.284  0.4482  0.4825  1.5143
 1232SOL     OW15331   3.029   1.481  14.679  0.3642 -0.0568  0.0284
 1232SOL    HW115332   3.020   1.398  14.633 -0.6604 -0.7148  1.3904
 1232SOL    HW215333   3.069   1.541  14.616 -0.0080  0.7330  0.5372
 1233SOL     OW15334   1.497   1.229   5.972  0.8463  0.7094 -0.0957
 1233SOL    HW115335   1.525   1.227   5.880  0.9639  2.1827 -0.0834
 1233SOL    HW215336   1.518   1.322   5.984 -1.7871  1.0617  1.7001
 1234SOL     OW15337   2.682   0.096   6.079 -0.3940  0.4719  0.1000
 1234SOL    HW115338   2.756   0.085   6.020  0.1515  0.8605  0.7156
 1234SOL    HW215339   2.678   0.191   6.075 -1.9288  0.3979 -0.1894
 1235SOL     OW15340   3.364   2.095  15.116 -0.2607 -0.1742  0.0618
 1235SOL    HW115341   3.324   2.148  15.047 -0.4206 -0.6300 -0.2006
 1235SOL    HW215342   3.430   2.047  15.067  0.5540 -0.1659  1.1497
 1236SOL     OW15343   2.211   3.637   7.331 -0.3664 -0.2928  0.4496
 1236SOL    HW115344   2.252   3.717   7.298  1.7130 -0.6785  2.0496
 1236SOL    HW215345   2.269   3.609   7.402  0.0389 -0.2115  0.1473
 1237SOL     OW15346   0.544   4.000   2.108 -0.3127  0.4607  0.1619
 1237SOL    HW115347   0.557   4.040   2.022  0.2374  0.8812  0.4399
 1237SOL    HW215348   0.622   4.023   2.159 -1.7811 -0.1587  2.6877
 1238SOL     OW15349   1.094   2.013   5.591  0.0237  0.3045 -0.0021
 1238SOL    HW115350   1.130   2.098   5.616 -0.9434  0.6433  0.2242
 1238SOL    HW215351   1.003   2.033   5.568 -0.5972 -0.6881  1.5831
 1239SOL     OW15352   1.719   0.453  10.786 -0.1871  0.3404  0.6865
 1239SOL    HW115353   1.641   0.442  10.731 -1.4041  0.0430  2.4528
 1239SOL    HW215354   1.766   0.416  10.712 -0.4970 -0.0556  0.6858
 1240SOL     OW15355   2.375   3.460   3.289  0.6768  0.4127  0.3136
 1240SOL    HW115356   2.371   3.546   3.332 -2.1554  1.3487 -1.8373
 1240SOL    HW215357   2.305   3.462   3.225  1.0012  1.6314 -0.0144
 1241SOL     OW15358   1.316   1.052  17.121  0.1689 -0.1452  0.0285
 1241SOL    HW115359   1.383   0.984  17.126  1.6294  1.3274  0.7723
 1241SOL    HW215360   1.245   0.990  17.135 -0.2778 -0.2430 -2.8466
 1242SOL     OW15361   1.920   2.576   8.879 -0.4455  1.1209 -0.2557
 1242SOL    HW115362   1.883   2.506   8.932 -0.2502 -1.2727 -3.2898
 1242SOL    HW215363   1.883   2.563   8.792  0.3965 -1.8134 -0.1782
 1243SOL     OW15364   3.529   1.875  13.348  0.5717  0.1524  0.3047
 1243SOL    HW115365   3.536   1.886  13.443  1.1831  1.0435  0.1608
 1243SOL    HW215366   3.509   1.961  13.312 -0.4767 -0.3187 -0.2358
 1244SOL     OW15367   1.847   3.791   4.210  0.7263  0.2827 -0.7325
 1244SOL    HW115368   1.888   3.876   4.193  0.0444  0.5807 -0.8863
 1244SOL    HW215369   1.758   3.818   4.186 -0.7985 -1.6345  2.7190
 1245SOL     OW15370   2.122   2.132   7.602 -0.0938 -0.3532  0.4209
 1245SOL    HW115371   2.161   2.148   7.516 -1.2179  0.6468  0.1021
 1245SOL    HW215372   2.056   2.064   7.590  0.9250 -1.1518 -0.7189
 1246SOL     OW15373   1.247   4.713  16.654 -0.1176  0.6122 -0.0702
 1246SOL    HW115374   1.201   0.032  16.590  0.0336  0.0482 -0.6554
 1246SOL    HW215375   1.302   0.044  16.695  0.6045 -0.6499  1.0176
 1247SOL     OW15376   0.432   3.188  14.868  0.2769 -0.2542  0.3560
 1247SOL    HW115377   0.350   3.213  14.826  0.9781  0.9110 -0.3257
 1247SOL    HW215378   0.403   3.155  14.952 -0.1119 -1.9723 -0.4442
 1248SOL     OW15379   3.391   2.936   4.436 -0.2674 -0.3055  0.2859
 1248SOL    HW115380   3.424   3.015   4.392  0.8779 -0.7326  0.3742
 1248SOL    HW215381   3.459   2.910   4.498 -1.4543 -1.3402  1.1534
 1249SOL     OW15382   0.170   0.708   9.972 -0.0025 -0.0371  0.5071
 1249SOL    HW115383   0.093   0.737   9.924  2.7890 -0.0699 -3.9657
 1249SOL    HW215384   0.149   0.615   9.982 -1.3005  0.3606  1.4855
 1250SOL     OW15385   1.588   0.685   9.650 -0.1908  0.6443 -0.2627
 1250SOL    HW115386   1.540   0.751   9.701 -2.2588  0.6137 -2.1507
 1250SOL    HW215387   1.515   0.637   9.611  0.9448 -0.1432 -1.3873
 1251SOL     OW15388   3.723   0.031   2.008  0.7031  0.1195 -0.0167
 1251SOL    HW115389   3.817   0.044   1.991  0.4542  3.5373  1.1559
 1251SOL    HW215390   3.680   0.116   2.005 -1.4834 -0.8743  3.3515
 1252SOL     OW15391   2.927   2.652   5.083 -0.1655 -0.1255 -0.6086
 1252SOL    HW115392   2.844   2.699   5.088 -1.0190 -1.6738 -0.3658
 1252SOL    HW215393   2.941   2.629   5.174  2.3119  1.6066 -0.5372
 1253SOL     OW15394   4.305   2.812  10.009 -0.0033 -0.5440  0.1390
 1253SOL    HW115395   4.222   2.788   9.968  0.0980 -1.3201  0.4014
 1253SOL    HW215396   4.292   2.780  10.098  0.3169 -0.4865  0.2066
 1254SOL     OW15397   1.184   0.542   6.949  0.0743 -0.0493  0.0084
 1254SOL    HW115398   1.134   0.471   6.908 -0.8067  0.6905 -0.2063
 1254SOL    HW215399   1.229   0.495   7.019 -0.0842  1.3652  1.0678
 1255SOL     OW15400   3.589   3.120   7.303 -1.0269  0.2145  0.2009
 1255SOL    HW115401   3.546   3.189   7.355 -0.0229  2.0429 -1.3955
 1255SOL    HW215402   3.585   3.051   7.370 -0.9910  0.6582  0.6649
 1256SOL     OW15403   1.104   0.935   7.234  0.2666 -0.0945  0.4510
 1256SOL    HW115404   1.016   0.921   7.268 -1.0149 -1.4850 -3.3651
 1256SOL    HW215405   1.101   0.881   7.154 -0.7297  0.8638 -0.1607
 1257SOL     OW15406   3.455   4.338   1.185 -0.8005  0.0886  0.0136
 1257SOL    HW115407   3.407   4.320   1.104 -0.8365 -3.7111  0.8975
 1257SOL    HW215408   3.539   4.356   1.143 -1.2757  1.4301 -0.3792
 1258SOL     OW15409   0.734   3.125   5.918  0.2217  0.0978  0.2709
 1258SOL    HW115410   0.661   3.186   5.921 -0.1707 -0.1355 -4.5600
 1258SOL    HW215411   0.787   3.151   5.994  0.9189 -1.0017  0.1663
 1259SOL     OW15412   1.208   2.631  10.624  0.2149 -0.0115  0.4788
 1259SOL    HW115413   1.239   2.541  10.624 -1.6175 -0.6360  0.3058
 1259SOL    HW215414   1.116   2.611  10.641 -0.4918  0.4131 -2.8096
 1260SOL     OW15415   3.142   1.771   6.589 -0.7358 -0.1968 -0.1940
 1260SOL    HW115416   3.063   1.823   6.605 -0.3129  0.3338  0.1546
 1260SOL    HW215417   3.201   1.798   6.660 -1.6168  1.6805 -0.1643
 1261SOL     OW15418   4.504   1.619   6.777  0.1860  0.4375  0.4651
 1261SOL    HW115419   4.579   1.575   6.737 -2.0505 -0.3112 -3.0060
 1261SOL    HW215420   4.548   1.692   6.820 -3.2348  2.1720  0.9934
 1262SOL     OW15421   2.198   0.596   4.531 -0.1709 -0.2220 -0.0101
 1262SOL    HW115422   2.181   0.681   4.490  0.5794 -0.1614 -0.1888
 1262SOL    HW215423   2.110   0.560   4.521 -0.3034  0.2245 -0.4401
 1263SOL     OW15424   2.251   3.966   4.386 -0.4988 -0.0431  0.2970
 1263SOL    HW115425   2.306   4.037   4.421 -1.4062  0.8443 -0.0523
 1263SOL    HW215426   2.195   4.023   4.333 -2.2799 -1.3807  0.7437
 1264SOL     OW15427   2.313   2.867   4.673 -1.2956 -0.0514  0.0745
 1264SOL    HW115428   2.224   2.895   4.695 -0.2895  0.7481  3.2271
 1264SOL    HW215429   2.299   2.776   4.698  1.3489 -0.5283 -0.1966
 1265SOL     OW15430   0.472   2.348  10.016 -0.0277  0.3915  0.9994
 1265SOL    HW115431   0.473   2.341  10.111 -0.5133  0.4506  1.0064
 1265SOL    HW215432   0.558   2.319   9.984 -0.4834  0.9409 -0.7137
 1266SOL     OW15433   2.085   4.394   8.280 -0.6135  0.1748  0.3580
 1266SOL    HW115434   2.066   4.476   8.324  0.1173  0.9159 -0.7158
 1266SOL    HW215435   1.999   4.370   8.245  0.2767 -1.5481 -0.6539
 1267SOL     OW15436   0.803   3.225   3.991 -0.6912  0.2135  0.5953
 1267SOL    HW115437   0.898   3.233   3.981 -0.8222  0.0621 -0.7537
 1267SOL    HW215438   0.791   3.153   4.054 -0.6498 -0.6517 -0.3755
 1268SOL     OW15439   2.763   1.912   7.050 -0.0056  0.1179  0.0324
 1268SOL    HW115440   2.790   2.004   7.051  0.7702 -0.0969 -0.9626
 1268SOL    HW215441   2.835   1.867   7.005  0.2847  1.3514 -0.7240
 1269SOL     OW15442   0.778   0.575  15.739 -0.2463 -0.1230 -0.0917
 1269SOL    HW115443   0.693   0.607  15.770  0.3498  0.4444  0.9268
 1269SOL    HW215444   0.820   0.658  15.719  1.2301 -0.7577  0.4066
 1270SOL     OW15445   2.840   4.409   7.008 -0.3991 -0.2765  0.0828
 1270SOL    HW115446   2.834   4.495   6.968 -1.3232  0.2817  1.4331
 1270SOL    HW215447   2.748   4.391   7.025 -0.4586  1.3606  1.4843
 1271SOL     OW15448   3.500   1.096   7.908  0.1588 -0.0723 -0.0628
 1271SOL    HW115449   3.572   1.100   7.970 -0.3522 -1.5086  0.6138
 1271SOL    HW215450   3.439   1.165   7.933 -0.2822 -0.1210 -0.9907
 1272SOL     OW15451   3.725   4.085   4.752  0.2666 -0.4402  0.1244
 1272SOL    HW115452   3.673   4.162   4.777 -0.7262 -1.2107  0.4330
 1272SOL    HW215453   3.815   4.119   4.751 -0.2574  1.0148  1.3693
 1273SOL     OW15454   3.600   4.083   1.230 -0.2141  0.2216 -0.0046
 1273SOL    HW115455   3.562   4.146   1.291  0.2973  0.1910  0.3454
 1273SOL    HW215456   3.602   4.134   1.149  2.1017 -1.3467 -0.9519
 1274SOL     OW15457   0.998   3.698   6.798  0.1863  0.1985  0.0988
 1274SOL    HW115458   1.080   3.653   6.817  0.4329  1.3899  1.8572
 1274SOL    HW215459   1.021   3.790   6.809 -0.8604  0.4813 -0.0583
 1275SOL     OW15460   4.627   0.901  10.631  0.0164  0.5743 -0.1905
 1275SOL    HW115461   4.638   0.822  10.578  0.3716 -1.0401  2.3023
 1275SOL    HW215462   4.549   0.874  10.679  1.6921 -3.0252  0.5521
 1276SOL     OW15463   0.770   1.211   8.842 -0.6838  0.1192 -0.4995
 1276SOL    HW115464   0.844   1.211   8.781  0.2192  1.3667  0.5884
 1276SOL    HW215465   0.814   1.261   8.911 -0.5970  1.0786 -1.2552
 1277SOL     OW15466   0.622   4.191   3.723 -0.3056 -0.5824  0.5476
 1277SOL    HW115467   0.700   4.138   3.742  1.3762  1.6016 -0.2438
 1277SOL    HW215468   0.583   4.145   3.649  0.1653  0.7548 -0.5218
 1278SOL     OW15469   4.128   3.890   4.221 -0.3220 -0.0254 -0.6869
 1278SOL    HW115470   4.166   3.881   4.308 -1.1293 -0.6821 -0.4002
 1278SOL    HW215471   4.044   3.935   4.232 -0.7931 -1.3078  0.9280
 1279SOL     OW15472   3.592   2.925   1.102 -0.3561  0.3219 -0.1997
 1279SOL    HW115473   3.505   2.961   1.083 -0.2001 -1.0162 -3.5565
 1279SOL    HW215474   3.645   3.004   1.094  0.0397  0.0426 -0.3791
 1280SOL     OW15475   4.423   2.425   6.895  0.1158  0.1707  0.4588
 1280SOL    HW115476   4.388   2.341   6.867 -0.0137  0.5784 -0.6227
 1280SOL    HW215477   4.496   2.428   6.833 -1.6112 -0.5763 -1.5959
 1281SOL     OW15478   2.604   3.720   5.526 -0.2733  0.2849  0.2895
 1281SOL    HW115479   2.629   3.807   5.494  0.1633  0.3871  0.9183
 1281SOL    HW215480   2.552   3.745   5.602 -0.8853  1.2327 -0.4399
 1282SOL     OW15481   2.251   2.767   5.545 -0.0012 -0.4847 -0.7193
 1282SOL    HW115482   2.292   2.854   5.544 -0.2616 -0.3530 -0.0766
 1282SOL    HW215483   2.224   2.774   5.637  0.5947  2.5381 -0.7485
 1283SOL     OW15484   4.408   2.995   1.437 -0.3106  0.3274 -0.8249
 1283SOL    HW115485   4.347   2.973   1.508  0.0402 -1.7283 -1.1611
 1283SOL    HW215486   4.400   3.088   1.456 -3.0760 -0.5804  2.6864
 1284SOL     OW15487   2.696   0.240   5.468  0.0473  0.2882 -0.7872
 1284SOL    HW115488   2.723   0.161   5.514 -0.7919  0.9370  0.8325
 1284SOL    HW215489   2.773   0.293   5.450  0.3929 -0.1943 -0.7089
 1285SOL     OW15490   0.710   0.846   2.682 -0.2937 -0.3712  0.2896
 1285SOL    HW115491   0.749   0.826   2.767  0.9277 -0.6348 -0.3329
 1285SOL    HW215492   0.648   0.918   2.689 -1.1689 -0.8486 -2.4201
 1286SOL     OW15493   0.850   0.471   7.831 -0.7425  0.1878 -0.3510
 1286SOL    HW115494   0.840   0.419   7.751 -3.5463  2.5993 -1.5693
 1286SOL    HW215495   0.759   0.500   7.836 -0.6412  0.6501 -1.2624
 1287SOL     OW15496   1.453   1.298   3.321  0.3065 -0.1165  0.5865
 1287SOL    HW115497   1.396   1.347   3.381  4.2731  2.4837  2.2200
 1287SOL    HW215498   1.396   1.288   3.244 -2.2787 -1.1654  2.6186
 1288SOL     OW15499   1.675   4.521   8.284  0.7238  0.2882  0.7253
 1288SOL    HW115500   1.590   4.517   8.329  0.9463 -0.3035  1.0929
 1288SOL    HW215501   1.734   4.494   8.354 -0.2710 -0.1618  1.3922
 1289SOL     OW15502   2.904   3.233   2.131 -0.0822 -0.3007 -0.6569
 1289SOL    HW115503   2.865   3.160   2.179  0.6849 -0.0914  0.2843
 1289SOL    HW215504   2.953   3.178   2.071 -0.2423  0.0246 -1.0854
 1290SOL     OW15505   3.926   2.570   5.313  0.0456 -0.3217 -0.3720
 1290SOL    HW115506   3.956   2.509   5.245  2.2951 -1.3274  1.5200
 1290SOL    HW215507   3.883   2.635   5.257  0.3161  1.6219  1.6700
 1291SOL     OW15508   3.712   1.518  15.250  0.3086 -0.1887  0.2155
 1291SOL    HW115509   3.745   1.587  15.308 -0.1318  0.5169 -0.3665
 1291SOL    HW215510   3.744   1.558  15.169  0.4584 -0.8407 -0.0483
 1292SOL     OW15511   4.622   3.286   8.279 -0.6839 -0.4200  0.0800
 1292SOL    HW115512   4.642   3.344   8.352  1.8391 -1.6740  0.3885
 1292SOL    HW215513   4.707   3.253   8.251  0.0711 -0.5968  2.6272
 1293SOL     OW15514   4.378   2.271   0.620 -0.3139 -0.6513 -0.7162
 1293SOL    HW115515   4.313   2.245   0.555 -0.5993 -1.8170  0.0462
 1293SOL    HW215516   4.416   2.185   0.640 -1.1218 -0.2854  2.3814
 1294SOL     OW15517   1.820   2.624   8.638  0.2454 -0.0058  0.3474
 1294SOL    HW115518   1.781   2.592   8.557 -0.8018 -1.0829  1.2798
 1294SOL    HW215519   1.912   2.620   8.612  0.2359  0.6057  0.2045
 1295SOL     OW15520   3.764   0.021   9.160  0.2466 -0.5966 -0.4292
 1295SOL    HW115521   3.716   4.721   9.235  1.1623  0.1109  0.4869
 1295SOL    HW215522   3.709   0.092   9.127  0.6742 -0.1139 -0.0916
 1296SOL     OW15523   0.845   0.377   5.728  0.3691  0.8343  0.0348
 1296SOL    HW115524   0.929   0.373   5.775  0.8272 -4.4798 -1.1940
 1296SOL    HW215525   0.803   0.453   5.768  1.2185  0.7582  1.0686
 1297SOL     OW15526   3.888   3.683   2.707 -0.0721 -0.9175 -0.1246
 1297SOL    HW115527   3.982   3.683   2.686  0.2038 -1.5084  1.1152
 1297SOL    HW215528   3.863   3.767   2.669  0.3674 -0.6572  0.1651
 1298SOL     OW15529   3.670   3.224   1.082 -0.0514  0.4401  0.8172
 1298SOL    HW115530   3.586   3.270   1.073 -0.0522  0.6317  1.7757
 1298SOL    HW215531   3.685   3.196   0.992 -0.3703  2.3436  0.1693
 1299SOL     OW15532   4.053   0.921   7.017  0.3763 -0.3308 -0.4293
 1299SOL    HW115533   3.986   0.986   7.037 -0.6654 -0.8645 -2.2775
 1299SOL    HW215534   4.039   0.859   7.089 -0.2499 -1.8064 -1.8315
 1300SOL     OW15535   3.975   3.820  17.729  0.0036 -0.1838 -0.9024
 1300SOL    HW115536   3.915   3.780   0.049  0.8417 -0.6914 -0.4206
 1300SOL    HW215537   3.936   3.907  17.721 -0.5290 -0.3118  0.3644
 1301SOL     OW15538   0.156   1.862   7.892 -0.0723 -0.3822  0.4323
 1301SOL    HW115539   0.070   1.897   7.867 -0.5129 -0.5897  1.6426
 1301SOL    HW215540   0.178   1.914   7.969  0.8873 -2.2731  1.4538
 1302SOL     OW15541   2.246   4.491  11.407  0.1349  0.2914 -0.7079
 1302SOL    HW115542   2.244   4.586  11.394 -0.6186  0.2688 -0.7528
 1302SOL    HW215543   2.222   4.486  11.499  0.1770  2.0549 -0.6081
 1303SOL     OW15544   0.899   0.492  13.431  0.5532  0.2950  0.4348
 1303SOL    HW115545   0.911   0.408  13.475 -0.7082 -0.1009  0.0505
 1303SOL    HW215546   0.983   0.536  13.434  0.0682  1.3748 -1.7343
 1304SOL     OW15547   1.011   0.728   1.780  0.0987 -0.3314  0.4024
 1304SOL    HW115548   0.995   0.822   1.769 -1.4670 -0.5861  0.5170
 1304SOL    HW215549   0.955   0.693   1.711 -0.2009 -0.8288  0.9002
 1305SOL     OW15550   1.152   0.816   7.550 -0.2497 -0.2745 -0.0010
 1305SOL    HW115551   1.189   0.896   7.589 -1.0616  0.3043 -0.4098
 1305SOL    HW215552   1.105   0.793   7.630 -0.1844 -2.8063 -0.7120
 1306SOL     OW15553   0.650   4.126   2.377 -0.1382 -0.2222 -0.5115
 1306SOL    HW115554   0.729   4.114   2.324  0.4601  0.1650  0.3034
 1306SOL    HW215555   0.680   4.191   2.440  0.8018  0.4259 -1.6068
 1307SOL     OW15556   4.006   3.023   5.501  0.0231  0.2260  0.5272
 1307SOL    HW115557   4.085   3.056   5.544  0.8485 -0.9927 -0.0398
 1307SOL    HW215558   3.952   3.094   5.533 -0.4778  0.8306 -1.6500
 1308SOL     OW15559   3.857   1.402   5.866  0.2313  0.5049 -0.0072
 1308SOL    HW115560   3.840   1.331   5.928 -1.4123  1.7255  0.9389
 1308SOL    HW215561   3.868   1.364   5.779 -1.4131 -0.8571  0.3732
 1309SOL     OW15562   3.175   0.134   1.786 -0.1066  0.3308 -0.5134
 1309SOL    HW115563   3.127   0.127   1.703  0.3937 -0.7041 -0.7090
 1309SOL    HW215564   3.103   0.120   1.847  0.2328  1.3710  0.1214
 1310SOL     OW15565   1.110   1.802  11.650 -0.1016 -0.9049 -0.0873
 1310SOL    HW115566   1.144   1.857  11.579  0.5739  0.9617  1.6930
 1310SOL    HW215567   1.041   1.858  11.685  2.2995  0.7959  1.8515
 1311SOL     OW15568   4.714   4.276   6.708  0.0063  0.4629 -0.2862
 1311SOL    HW115569   0.005   4.307   6.794  3.0261 -0.8195 -0.7601
 1311SOL    HW215570   0.047   4.305   6.648 -0.2634  1.4347 -0.1234
 1312SOL     OW15571   0.117   2.521  16.297 -0.1501  0.1519 -0.2672
 1312SOL    HW115572   0.190   2.473  16.335 -0.2525 -0.2938 -0.6356
 1312SOL    HW215573   0.100   2.585  16.367  1.0043 -1.3772  1.3978
 1313SOL     OW15574   1.823   1.774  13.343 -0.3799  0.0637  0.3900
 1313SOL    HW115575   1.782   1.854  13.309  0.1332 -0.0753 -0.5463
 1313SOL    HW215576   1.765   1.701  13.322 -0.8477  0.5405  0.0077
 1314SOL     OW15577   2.792   0.780   7.954 -0.2743  0.3464  0.0385
 1314SOL    HW115578   2.886   0.778   7.973  0.0002 -0.5801 -1.4107
 1314SOL    HW215579   2.793   0.858   7.898  0.7235  1.0344  1.0095
 1315SOL     OW15580   4.378   1.085   4.356  0.4593  0.0403 -0.1561
 1315SOL    HW115581   4.470   1.065   4.377  0.3636 -1.0081 -0.7192
 1315SOL    HW215582   4.344   1.007   4.311  2.8115 -0.5974 -0.8256
 1316SOL     OW15583   4.345   4.027   3.062  0.4247 -0.1468  0.2174
 1316SOL    HW115584   4.430   4.024   3.017 -0.4891  0.1234 -1.5144
 1316SOL    HW215585   4.327   4.120   3.047  1.2204 -0.4344 -2.3945
 1317SOL     OW15586   3.958   2.375   9.732 -0.6173  0.0428 -0.2465
 1317SOL    HW115587   3.966   2.376   9.828 -0.8855 -1.9153 -0.2119
 1317SOL    HW215588   3.878   2.324   9.724 -0.2806 -0.2024 -1.8965
 1318SOL     OW15589   1.350   1.181   1.603  0.0302 -0.1436 -0.5353
 1318SOL    HW115590   1.404   1.194   1.525 -0.5522  1.5587 -0.6470
 1318SOL    HW215591   1.263   1.203   1.571 -0.3141 -1.6695 -0.6420
 1319SOL     OW15592   4.152   0.889   8.371  0.9807 -0.0955  0.0718
 1319SOL    HW115593   4.211   0.839   8.315 -0.6161 -0.8411 -0.9467
 1319SOL    HW215594   4.068   0.851   8.346  1.0005 -0.3634  0.4175
 1320SOL     OW15595   1.774   3.747   5.320 -0.7896  0.0781  0.0001
 1320SOL    HW115596   1.704   3.712   5.265  0.8038 -0.0433 -1.9274
 1320SOL    HW215597   1.830   3.766   5.245  0.1377  0.8873  0.8884
 1321SOL     OW15598   3.404   4.167   5.958  0.0198 -0.9745  0.4226
 1321SOL    HW115599   3.447   4.249   5.982  0.1956 -1.1442  0.6882
 1321SOL    HW215600   3.436   4.154   5.869  2.1203 -1.8656  1.3134
 1322SOL     OW15601   3.734   2.322   3.303 -0.0526 -0.0193  0.0814
 1322SOL    HW115602   3.698   2.411   3.302  2.8776  1.2085  1.4929
 1322SOL    HW215603   3.810   2.331   3.245  0.5327  0.1606  0.8719
 1323SOL     OW15604   3.307   3.064  15.099 -1.0545 -0.5752 -0.3274
 1323SOL    HW115605   3.368   3.103  15.162 -1.3629  0.9738 -0.9844
 1323SOL    HW215606   3.308   2.969  15.112 -0.7949 -0.5111  0.1516
 1324SOL     OW15607   4.714   1.789   2.233  0.3469 -0.1037  0.3477
 1324SOL    HW115608   0.065   1.752   2.216  0.1184  0.4476 -2.0032
 1324SOL    HW215609   4.666   1.714   2.270 -0.8531  1.5541  2.1305
 1325SOL     OW15610   4.557   0.140   5.900  0.5331 -0.3993  1.4264
 1325SOL    HW115611   4.515   0.190   5.830 -1.3337  2.0464  4.3077
 1325SOL    HW215612   4.481   0.095   5.937 -0.2659 -0.7782 -0.6419
 1326SOL     OW15613   4.385   3.046  16.606  0.4169 -0.0841  0.7885
 1326SOL    HW115614   4.306   3.085  16.567  0.5364  1.7039  2.3198
 1326SOL    HW215615   4.365   2.956  16.581 -0.5955  0.0644  1.0413
 1327SOL     OW15616   2.547   1.831   6.571 -0.7229 -0.3397 -0.8898
 1327SOL    HW115617   2.586   1.794   6.491  0.7129  0.2379 -0.4627
 1327SOL    HW215618   2.513   1.746   6.600 -0.9616  0.2034  0.4064
 1328SOL     OW15619   4.648   3.628  13.224 -0.2403  0.2793 -0.0620
 1328SOL    HW115620   4.686   3.674  13.149 -0.9915 -2.4206 -2.1056
 1328SOL    HW215621   4.636   3.547  13.175 -3.7078  2.1368 -2.2757
 1329SOL     OW15622   3.024   1.431   7.281  0.2727 -0.1232 -0.3243
 1329SOL    HW115623   3.084   1.357   7.270 -0.7613 -0.6613 -2.3866
 1329SOL    HW215624   2.953   1.395   7.334 -0.8410  1.4304 -0.7678
 1330SOL     OW15625   0.898   4.631   8.634 -0.0273  0.4448 -0.1976
 1330SOL    HW115626   0.900   4.548   8.682 -1.2004  0.7856  0.4442
 1330SOL    HW215627   0.893   4.599   8.544 -0.4077 -0.6819  0.2328
 1331SOL     OW15628   4.094   3.176   1.459 -0.1054 -1.0349  0.1680
 1331SOL    HW115629   4.121   3.101   1.513 -0.0596 -0.3697  1.0847
 1331SOL    HW215630   4.113   3.145   1.371  0.3028  0.7540 -0.3655
 1332SOL     OW15631   2.151   3.352   1.943 -0.4347  0.2457  0.1081
 1332SOL    HW115632   2.161   3.313   1.856  0.6136  2.1159 -0.6197
 1332SOL    HW215633   2.064   3.392   1.944  0.1951  1.7099 -1.6320
 1333SOL     OW15634   2.837   3.560  16.321 -0.5712 -0.4439 -0.0728
 1333SOL    HW115635   2.768   3.579  16.385  0.7935  1.3984  0.8655
 1333SOL    HW215636   2.798   3.601  16.244 -0.8245  0.1422  0.3709
 1334SOL     OW15637   4.621   1.102   3.751  0.0101  0.1742 -0.3307
 1334SOL    HW115638   4.644   1.185   3.709 -0.1970  0.2713 -0.2517
 1334SOL    HW215639   4.604   1.071   3.662 -0.4002  2.3928 -1.0276
 1335SOL     OW15640   3.058   2.852   9.130  0.6477  0.6637  0.4895
 1335SOL    HW115641   3.055   2.928   9.072 -0.4278 -1.3271 -2.0665
 1335SOL    HW215642   3.152   2.856   9.143  0.7900  1.1766 -0.7412
 1336SOL     OW15643   0.321   4.578   4.215  0.5897  0.0926  0.1469
 1336SOL    HW115644   0.320   4.483   4.222  2.5459  0.0507 -0.1224
 1336SOL    HW215645   0.388   4.586   4.147 -0.2749  0.2608 -0.6912
 1337SOL     OW15646   1.858   4.395   6.435 -0.1316  0.1661 -0.2055
 1337SOL    HW115647   1.806   4.473   6.455  2.6268  1.5486  1.5708
 1337SOL    HW215648   1.892   4.417   6.348 -0.9001  0.7096 -0.3639
 1338SOL     OW15649   1.551   4.383  17.376  0.1150 -0.4122  0.1732
 1338SOL    HW115650   1.622   4.409  17.435 -1.0229  0.4857  1.1362
 1338SOL    HW215651   1.593   4.315  17.323 -3.5096 -0.6236 -2.4152
 1339SOL     OW15652   0.997   2.810   8.164 -0.0543  0.5083  0.3648
 1339SOL    HW115653   1.054   2.753   8.112 -0.5685  0.2194  0.1252
 1339SOL    HW215654   0.926   2.752   8.192  1.1269 -1.8231 -1.4580
 1340SOL     OW15655   1.664   1.427   2.252  0.4198  0.1901 -0.2401
 1340SOL    HW115656   1.583   1.455   2.295  1.8522  1.5571  1.5458
 1340SOL    HW215657   1.703   1.515   2.258  2.3429 -0.7294  0.8974
 1341SOL     OW15658   1.164   3.894   5.770 -0.2875  0.2163  0.2690
 1341SOL    HW115659   1.202   3.878   5.683  1.8695  0.5543  1.1558
 1341SOL    HW215660   1.110   3.815   5.776  2.4117 -1.5351  1.3594
 1342SOL     OW15661   3.992   3.961   1.730 -0.4449 -0.2216 -0.3284
 1342SOL    HW115662   4.017   4.051   1.707 -0.5172 -0.0288  0.3684
 1342SOL    HW215663   3.898   3.972   1.747 -0.8035  1.3169 -3.2615
 1343SOL     OW15664   1.921   0.149  12.122  0.0719  0.1324 -0.1994
 1343SOL    HW115665   1.897   0.088  12.052 -1.0938  0.0312  0.2979
 1343SOL    HW215666   2.014   0.168  12.106 -0.0682  0.3376 -0.7965
 1344SOL     OW15667   4.134   3.805   6.288  0.2131 -0.4854  0.0184
 1344SOL    HW115668   4.152   3.711   6.300  1.1251 -0.2193  0.7234
 1344SOL    HW215669   4.038   3.805   6.285  0.2255 -0.9024 -0.4436
 1345SOL     OW15670   3.440   2.128   1.862  0.2079  0.0013 -0.9203
 1345SOL    HW115671   3.460   2.045   1.820 -2.7332 -1.7083  1.1009
 1345SOL    HW215672   3.430   2.106   1.955  0.4494  1.0609 -0.6448
 1346SOL     OW15673   0.891   0.404   7.343 -0.2553  0.8842  0.0864
 1346SOL    HW115674   0.949   0.476   7.319  1.2853 -0.5758 -0.5517
 1346SOL    HW215675   0.906   0.365   7.256 -1.3096  1.6904 -0.4648
 1347SOL     OW15676   0.552   3.346   1.697  0.9477 -0.5370 -0.5043
 1347SOL    HW115677   0.480   3.368   1.638 -1.7084  0.2009  3.0000
 1347SOL    HW215678   0.513   3.287   1.761  0.6789 -1.0254 -1.1218
 1348SOL     OW15679   1.963   1.000   7.419  0.2331 -0.1199  0.1598
 1348SOL    HW115680   1.915   0.934   7.369  1.1323 -1.0709  0.5560
 1348SOL    HW215681   2.052   0.987   7.387  0.2675 -1.3556  0.7731
 1349SOL     OW15682   1.174   2.493   3.058  0.8879  0.6178  0.3156
 1349SOL    HW115683   1.253   2.521   3.104  1.6122  1.6818 -1.5915
 1349SOL    HW215684   1.189   2.545   2.980  1.0681  0.6521  0.3727
 1350SOL     OW15685   4.589   1.662   7.173 -0.3081  0.0914 -0.3839
 1350SOL    HW115686   4.496   1.665   7.148 -0.3151 -1.1270 -0.5329
 1350SOL    HW215687   4.629   1.702   7.096  1.3139 -2.6965 -0.9987
 1351SOL     OW15688   0.431   0.376   6.936 -0.3321  0.3207 -0.0297
 1351SOL    HW115689   0.479   0.362   7.018  0.3626 -2.2196 -0.9010
 1351SOL    HW215690   0.347   0.335   6.959  0.6493 -1.2382  0.7335
 1352SOL     OW15691   1.059   4.093   3.605 -0.2396 -0.0931  0.5175
 1352SOL    HW115692   1.008   4.073   3.684  2.1080  1.4753  2.4188
 1352SOL    HW215693   0.990   4.080   3.539  1.1726 -0.3013 -0.9068
 1353SOL     OW15694   0.008   2.818   5.799 -0.5346 -0.2872 -0.5033
 1353SOL    HW115695   0.039   2.845   5.886 -0.4918  2.2964 -1.3225
 1353SOL    HW215696   0.071   2.871   5.749 -0.8933  0.9441  0.3330
 1354SOL     OW15697   4.105   4.534  10.202  0.2384  0.6088  0.3490
 1354SOL    HW115698   4.040   4.603  10.217 -0.4503  0.7556 -3.3329
 1354SOL    HW215699   4.162   4.540  10.279  1.8980 -1.2966 -0.7549
 1355SOL     OW15700   0.768   2.679   0.150  0.5060  0.8253 -0.1022
 1355SOL    HW115701   0.859   2.682   0.179  0.0510 -0.7766  1.4752
 1355SOL    HW215702   0.746   2.591   0.182  0.2510  0.3650 -1.5430
 1356SOL     OW15703   2.524   3.718   5.046  0.6747 -0.2428 -0.2648
 1356SOL    HW115704   2.443   3.734   4.996  0.4543 -1.8504 -0.4274
 1356SOL    HW215705   2.578   3.671   4.982 -0.2525  0.3641 -1.5051
 1357SOL     OW15706   2.977   0.887   3.849  0.8951 -0.2110 -0.1550
 1357SOL    HW115707   2.913   0.904   3.919  1.1892  1.9951 -0.4199
 1357SOL    HW215708   3.008   0.799   3.870 -1.9446 -1.0902  0.3900
 1358SOL     OW15709   3.135   0.473  12.419  0.1912 -0.5491  0.4495
 1358SOL    HW115710   3.142   0.448  12.327  1.5645  1.7653 -0.0863
 1358SOL    HW215711   3.055   0.428  12.446 -0.7563  0.3665 -0.8171
 1359SOL     OW15712   3.133   2.859   4.988 -0.1577  0.3233 -0.1452
 1359SOL    HW115713   3.099   2.921   4.922 -0.9298  1.2662  1.1358
 1359SOL    HW215714   3.052   2.811   5.004  1.7903 -1.8227  3.0784
 1360SOL     OW15715   3.335   0.374   5.897 -0.4780  0.4587  0.0266
 1360SOL    HW115716   3.351   0.280   5.910 -0.2710  0.5657  0.5312
 1360SOL    HW215717   3.302   0.400   5.983  0.8319 -0.4163  0.8143
 1361SOL     OW15718   4.112   1.568   1.895 -0.5750  0.1476  0.3874
 1361SOL    HW115719   4.137   1.651   1.855 -0.5764  0.1164  0.3209
 1361SOL    HW215720   4.137   1.585   1.986 -1.2612  0.4468  0.5120
 1362SOL     OW15721   3.585   4.110   5.709 -0.2846  0.6204 -0.3816
 1362SOL    HW115722   3.546   4.045   5.651 -1.1013  0.0731  0.7820
 1362SOL    HW215723   3.644   4.162   5.654 -0.9012  1.7008 -0.0251
 1363SOL     OW15724   1.049   1.264   8.764 -0.0057  0.6541  0.1564
 1363SOL    HW115725   1.054   1.174   8.732  0.4256  1.7051 -2.7454
 1363SOL    HW215726   1.121   1.272   8.827 -0.5782  1.4328  0.7080
 1364SOL     OW15727   0.936   1.766   9.866  0.4715 -0.4606  0.3040
 1364SOL    HW115728   0.870   1.820   9.823  0.7118  1.5103  2.4298
 1364SOL    HW215729   0.901   1.749   9.954 -1.9478 -0.5576 -0.6639
 1365SOL     OW15730   2.138   0.916   5.148 -0.5780 -0.0257  0.0648
 1365SOL    HW115731   2.151   0.978   5.219 -0.1765 -1.7060  1.4566
 1365SOL    HW215732   2.190   0.958   5.079  2.6028 -2.3114  1.0219
 1366SOL     OW15733   1.877   1.770   7.225  0.3413  0.1223 -0.2394
 1366SOL    HW115734   1.833   1.690   7.197  1.5062 -0.9757  1.0653
 1366SOL    HW215735   1.967   1.738   7.215  0.1917 -0.7882  1.2618
 1367SOL     OW15736   1.764   1.214   2.601 -0.0637  0.3082 -0.6345
 1367SOL    HW115737   1.680   1.242   2.639  0.3745  0.1483  0.4434
 1367SOL    HW215738   1.799   1.294   2.563  1.5108 -1.0454 -2.0392
 1368SOL     OW15739   3.362   2.622   7.197  0.2453 -0.3083  0.3565
 1368SOL    HW115740   3.329   2.670   7.121  0.8095  0.5544  0.6596
 1368SOL    HW215741   3.436   2.574   7.160 -0.0482 -0.7568  0.3526
 1369SOL     OW15742   4.232   1.582   6.005 -0.2415 -0.1962 -0.7275
 1369SOL    HW115743   4.213   1.620   5.920 -0.7496  0.0515 -0.5047
 1369SOL    HW215744   4.301   1.518   5.985  0.5473  0.2880  0.4535
 1370SOL     OW15745   2.561   0.316  14.814  0.4984  0.1307 -0.2249
 1370SOL    HW115746   2.523   0.231  14.790  1.2484  0.4330 -2.4552
 1370SOL    HW215747   2.615   0.320  14.735  0.4718  0.3273 -0.2329
 1371SOL     OW15748   0.362   2.966   3.067  0.2045 -0.0024 -0.1757
 1371SOL    HW115749   0.275   2.997   3.091  0.1487  0.5418 -1.1102
 1371SOL    HW215750   0.364   2.885   3.117  1.9232  0.8662  1.1887
 1372SOL     OW15751   2.001   2.392   7.846  0.2423 -0.4486 -0.1879
 1372SOL    HW115752   1.924   2.449   7.855  0.5811 -0.1748  0.9326
 1372SOL    HW215753   2.040   2.431   7.767 -1.3422 -0.0754 -0.7864
 1373SOL     OW15754   2.230   3.559   6.053 -0.2469 -0.4317  0.0569
 1373SOL    HW115755   2.238   3.548   5.959 -2.4532  1.2104 -0.3269
 1373SOL    HW215756   2.149   3.607   6.070  0.3204  0.2926  0.7079
 1374SOL     OW15757   1.445   0.351  12.726  0.3793 -0.4650  0.1663
 1374SOL    HW115758   1.487   0.271  12.755 -4.2401 -3.3950 -1.2277
 1374SOL    HW215759   1.416   0.320  12.640  1.5444  1.7354 -1.0314
 1375SOL     OW15760   3.106   2.275  15.225  0.6935 -0.2021  0.0672
 1375SOL    HW115761   3.039   2.207  15.214  0.4050  0.3058 -1.2842
 1375SOL    HW215762   3.179   2.238  15.175  0.1054 -0.2601 -0.7471
 1376SOL     OW15763   0.557   1.197   6.875 -0.2741 -0.6410  0.5436
 1376SOL    HW115764   0.592   1.226   6.960 -0.7172 -0.3588  0.6296
 1376SOL    HW215765   0.464   1.186   6.897 -0.0021 -2.7445  0.6359
 1377SOL     OW15766   1.680   2.511   7.013  0.0429 -0.4661  0.0794
 1377SOL    HW115767   1.623   2.441   7.042 -2.2955  1.0006 -0.9983
 1377SOL    HW215768   1.635   2.592   7.039  0.8330  0.3558 -1.0708
 1378SOL     OW15769   2.390   0.115  17.412 -0.2648  0.1733  0.0645
 1378SOL    HW115770   2.335   0.047  17.452  1.1420 -0.3829  1.0908
 1378SOL    HW215771   2.338   0.175  17.359 -0.5795 -1.3979 -1.4045
 1379SOL     OW15772   1.347   2.407   0.615  0.2136 -0.0952 -0.0822
 1379SOL    HW115773   1.335   2.385   0.523 -0.1539  0.6220 -0.2057
 1379SOL    HW215774   1.323   2.500   0.618  0.2747 -0.0685 -0.4405
 1380SOL     OW15775   3.480   2.056   4.150  0.5232  0.3341 -0.5832
 1380SOL    HW115776   3.435   1.972   4.139  1.9805 -0.2596 -2.0674
 1380SOL    HW215777   3.443   2.091   4.231 -0.2851  0.6055 -1.0672
 1381SOL     OW15778   2.956   2.043  14.492 -0.0135 -0.1637 -0.1372
 1381SOL    HW115779   3.050   2.044  14.479 -0.0633 -1.0901 -0.5529
 1381SOL    HW215780   2.936   2.135  14.477  1.5798 -0.1682 -2.2347
 1382SOL     OW15781   0.628   1.583   2.556  0.3101  0.3415 -0.0111
 1382SOL    HW115782   0.711   1.630   2.551  1.1782 -1.3403 -1.2889
 1382SOL    HW215783   0.569   1.654   2.531 -0.8704 -1.1175 -1.3013
 1383SOL     OW15784   4.292   0.896   8.605  0.2589 -0.4837  0.4220
 1383SOL    HW115785   4.216   0.905   8.547 -1.2036 -0.2857  2.3835
 1383SOL    HW215786   4.251   0.930   8.685  1.4257  1.9962 -0.0137
 1384SOL     OW15787   0.567   3.850   8.934 -0.3128  0.0319 -0.2812
 1384SOL    HW115788   0.535   3.872   8.847 -1.8754  0.5338  0.4350
 1384SOL    HW215789   0.586   3.936   8.971  2.3845  0.2350 -2.1055
 1385SOL     OW15790   4.683   2.528   4.288  0.6656 -0.0739 -0.4198
 1385SOL    HW115791   0.008   2.482   4.346  1.9803  0.8468 -1.1017
 1385SOL    HW215792   4.675   2.458   4.223 -1.4280 -0.6427  0.4440
 1386SOL     OW15793   1.896   3.412   5.258 -0.5872  0.1783 -0.2160
 1386SOL    HW115794   1.894   3.336   5.316 -2.0943  0.1269 -0.3257
 1386SOL    HW215795   1.885   3.480   5.324 -0.6834 -1.5336  1.5298
 1387SOL     OW15796   4.641   3.092   2.550 -0.1302  0.8213 -0.5115
 1387SOL    HW115797   4.559   3.094   2.600  0.7635  0.6896  0.9695
 1387SOL    HW215798   4.705   3.064   2.615  0.1463 -0.9448 -1.5562
 1388SOL     OW15799   4.122   1.642   0.390 -0.2656 -0.2299  0.4273
 1388SOL    HW115800   4.074   1.627   0.308 -3.7585  1.6750  2.1615
 1388SOL    HW215801   4.154   1.731   0.375  1.3220 -0.7815  0.5206
 1389SOL     OW15802   2.575   4.613   8.418  0.1636  0.7621 -0.0435
 1389SOL    HW115803   2.551   4.531   8.375 -0.2060  2.5987 -3.2919
 1389SOL    HW215804   2.496   4.631   8.470 -0.8146  2.1099 -1.9960
 1390SOL     OW15805   4.481   1.759   3.400 -0.1488  0.2213 -0.5410
 1390SOL    HW115806   4.419   1.699   3.359 -0.6963  0.6777 -0.3945
 1390SOL    HW215807   4.445   1.848   3.405 -0.9973 -0.2585  2.0492
 1391SOL     OW15808   1.513   4.320   3.997 -0.0438 -0.0107 -0.0489
 1391SOL    HW115809   1.517   4.357   4.085 -2.3039  2.5741 -1.0314
 1391SOL    HW215810   1.567   4.374   3.941  0.8907 -2.6996 -1.7559
 1392SOL     OW15811   0.036   2.080   2.467  0.2013 -0.0669  1.2421
 1392SOL    HW115812   0.060   2.128   2.388 -0.0571  0.6361  1.5897
 1392SOL    HW215813   0.090   2.001   2.458  0.3338 -0.1515  2.8132
 1393SOL     OW15814   2.215   4.652   2.666 -0.6702 -0.1833 -0.3312
 1393SOL    HW115815   2.148   4.586   2.685 -0.7755 -0.2971 -1.0951
 1393SOL    HW215816   2.226   4.650   2.571 -1.0594  1.7282 -0.4229
 1394SOL     OW15817   1.001   2.519   1.298 -0.1749  0.3667 -0.2870
 1394SOL    HW115818   0.962   2.565   1.224 -0.7808 -0.3727 -0.4267
 1394SOL    HW215819   0.970   2.429   1.288 -3.0270  1.3368 -0.2743
 1395SOL     OW15820   0.772   4.186   5.630 -0.0095  0.3280 -0.1882
 1395SOL    HW115821   0.705   4.167   5.696 -1.0564  2.8125 -0.5494
 1395SOL    HW215822   0.845   4.172   5.690  0.0420  0.2797 -0.2615
 1396SOL     OW15823   3.685   3.589   9.213  0.1228 -0.2969 -0.1906
 1396SOL    HW115824   3.611   3.623   9.162 -0.7350  1.1439  1.9766
 1396SOL    HW215825   3.769   3.606   9.171  0.3508 -1.4304 -0.1975
 1397SOL     OW15826   0.420   1.730  10.233  0.2139  0.0975  0.1207
 1397SOL    HW115827   0.439   1.672  10.307  3.3656  0.0912 -0.6784
 1397SOL    HW215828   0.352   1.782  10.276 -0.9085 -1.0735 -0.2557
 1398SOL     OW15829   3.564   0.690   3.364  0.2594  0.3163  0.0018
 1398SOL    HW115830   3.552   0.690   3.459  0.9321  1.5735  0.0797
 1398SOL    HW215831   3.617   0.767   3.347 -0.6217  0.7799 -0.6768
 1399SOL     OW15832   1.317   1.193  17.405  0.0163 -0.0410  0.6592
 1399SOL    HW115833   1.303   1.281  17.370 -1.5166 -0.5920 -0.0945
 1399SOL    HW215834   1.254   1.142  17.354 -1.0077  0.0164  1.8463
 1400SOL     OW15835   4.435   3.478   7.662  0.4990  0.0301  0.0664
 1400SOL    HW115836   4.417   3.571   7.681 -0.8399 -0.5579  1.6834
 1400SOL    HW215837   4.359   3.457   7.608  1.1032 -0.3548 -0.6362
 1401SOL     OW15838   2.599   3.049   7.914 -0.4202  0.5498  0.4144
 1401SOL    HW115839   2.618   3.125   7.858  2.0290  1.0502  1.8936
 1401SOL    HW215840   2.512   3.064   7.952 -0.0079  1.1022  1.1573
 1402SOL     OW15841   3.261   0.246   1.433  0.5167  0.2509  0.1562
 1402SOL    HW115842   3.192   0.212   1.375 -0.0909  1.1044  0.3910
 1402SOL    HW215843   3.334   0.185   1.424 -0.2567 -0.5901 -0.5689
 1403SOL     OW15844   0.951   0.690   4.019 -0.4357 -0.1894  0.2797
 1403SOL    HW115845   0.944   0.784   4.001  0.2420 -0.3708 -0.9395
 1403SOL    HW215846   0.877   0.684   4.080  1.3213  1.2674  2.5459
 1404SOL     OW15847   0.851   0.782   1.209 -0.6663 -0.1375 -0.2193
 1404SOL    HW115848   0.860   0.878   1.214 -2.0871 -0.0411  0.4140
 1404SOL    HW215849   0.936   0.754   1.243 -0.4331  0.8652  0.0423
 1405SOL     OW15850   1.248   0.645   9.180  0.6938 -0.4404 -0.2530
 1405SOL    HW115851   1.321   0.648   9.118 -1.2919  2.3267 -2.4625
 1405SOL    HW215852   1.196   0.588   9.122  1.0720 -0.5784 -0.4620
 1406SOL     OW15853   4.353   4.495   4.943  0.1246 -0.2052  0.3849
 1406SOL    HW115854   4.409   4.499   4.865 -2.0439  1.0453 -1.1083
 1406SOL    HW215855   4.313   4.581   4.954  0.6789 -0.0881  1.4201
 1407SOL     OW15856   2.478   0.328   3.391  0.0810  0.2868  0.3811
 1407SOL    HW115857   2.462   0.263   3.460 -1.2399 -0.3655 -0.5317
 1407SOL    HW215858   2.527   0.276   3.328 -1.2917 -1.8426  1.0470
 1408SOL     OW15859   4.332   4.025  13.435 -0.2940 -0.4847  0.2750
 1408SOL    HW115860   4.384   4.079  13.493  1.1227 -1.1076 -0.4031
 1408SOL    HW215861   4.401   4.000  13.373  0.9296 -1.4717  2.0573
 1409SOL     OW15862   1.833   1.622   0.460  0.1092  0.5337  0.3302
 1409SOL    HW115863   1.913   1.626   0.513  0.0496  1.5544  0.3286
 1409SOL    HW215864   1.866   1.635   0.372 -0.0139 -1.1676  0.0213
 1410SOL     OW15865   0.854   0.678  15.485 -0.2527  0.1272 -0.3655
 1410SOL    HW115866   0.814   0.763  15.504 -1.6169 -0.7822  0.8276
 1410SOL    HW215867   0.946   0.689  15.508  0.0227  0.5170 -1.6372
 1411SOL     OW15868   0.520   1.691   7.634  0.3727 -0.0288  0.5905
 1411SOL    HW115869   0.489   1.674   7.723 -0.3905 -2.2659 -0.1136
 1411SOL    HW215870   0.615   1.680   7.644  0.7734  2.4111 -0.6124
 1412SOL     OW15871   4.187   0.046   4.203  0.0152  0.0612 -0.0944
 1412SOL    HW115872   4.233   0.074   4.282  0.3911  0.4698 -0.4539
 1412SOL    HW215873   4.184   4.687   4.212 -0.0300 -0.0623 -1.4001
 1413SOL     OW15874   2.107   3.085   4.160  0.8519  0.2279  0.3339
 1413SOL    HW115875   2.094   3.121   4.248  1.6822 -1.5482  1.1874
 1413SOL    HW215876   2.165   3.012   4.183 -0.3638 -0.1356  2.1877
 1414SOL     OW15877   0.684   0.102  12.101 -0.1264  0.5215  0.1330
 1414SOL    HW115878   0.734   0.104  12.183  0.6766 -0.3165 -0.3416
 1414SOL    HW215879   0.649   0.191  12.094  0.8778  1.0011  1.1591
 1415SOL     OW15880   3.232   3.899   8.426 -0.1881 -0.3665  0.0121
 1415SOL    HW115881   3.204   3.808   8.414 -0.5767  0.0025 -1.9610
 1415SOL    HW215882   3.233   3.902   8.522 -1.5444 -0.2063  0.0267
 1416SOL     OW15883   4.620   4.105   9.342 -0.2223 -0.5840 -0.3073
 1416SOL    HW115884   4.659   4.019   9.358  2.1246  0.2456 -1.6319
 1416SOL    HW215885   4.586   4.114   9.431 -0.3559  0.1859 -0.4424
 1417SOL     OW15886   2.062   4.516   4.343  0.2634  0.4652  0.2630
 1417SOL    HW115887   1.971   4.503   4.372  0.3240 -0.8718 -0.1161
 1417SOL    HW215888   2.059   4.599   4.296 -0.5283 -0.2928 -1.0373
 1418SOL     OW15889   0.749   1.477  14.101  0.3770  0.0091  0.4625
 1418SOL    HW115890   0.685   1.486  14.031  1.3533  1.5494 -0.2326
 1418SOL    HW215891   0.703   1.420  14.162 -0.5413 -0.2369 -0.4617
 1419SOL     OW15892   3.240   3.215   4.104 -0.1095 -1.0960  0.0445
 1419SOL    HW115893   3.148   3.195   4.125  0.1104 -1.9242  0.2233
 1419SOL    HW215894   3.255   3.150   4.035  0.5831  0.0142 -0.8358
 1420SOL     OW15895   1.633   1.363   8.344  0.2864 -0.0860  0.0550
 1420SOL    HW115896   1.570   1.361   8.272  2.6854  1.2651 -2.0900
 1420SOL    HW215897   1.584   1.324   8.416 -1.2356 -1.3114 -1.6439
 1421SOL     OW15898   2.971   4.711   2.679 -0.1623  0.6609 -0.4102
 1421SOL    HW115899   2.937   0.063   2.662 -0.0645  1.4291  3.3492
 1421SOL    HW215900   2.991   4.717   2.772 -3.2447  0.0187  0.2887
 1422SOL     OW15901   4.525   3.580  12.856  0.7142 -0.0303  0.1516
 1422SOL    HW115902   4.457   3.646  12.844 -0.2793 -1.0093  0.4354
 1422SOL    HW215903   4.597   3.637  12.880  0.1283  0.2144  1.3144
 1423SOL     OW15904   0.678   3.699   8.254  0.7107  0.1883  0.1629
 1423SOL    HW115905   0.743   3.732   8.192 -0.2005 -0.9661 -1.4020
 1423SOL    HW215906   0.720   3.624   8.297  0.2749  0.1023  0.4408
 1424SOL     OW15907   2.683   0.077   3.504 -0.3442 -0.1516 -0.0535
 1424SOL    HW115908   2.757   0.016   3.495  0.9480  1.0776  2.1613
 1424SOL    HW215909   2.739   0.154   3.510  1.4219 -1.4304 -0.0475
 1425SOL     OW15910   0.710   2.118  15.361  0.1493  0.3420 -0.0938
 1425SOL    HW115911   0.761   2.191  15.395  0.4760 -0.5070  1.2498
 1425SOL    HW215912   0.740   2.116  15.271 -1.2106 -0.6669 -0.5280
 1426SOL     OW15913   0.931   3.024   7.243 -0.1423 -0.4369 -0.4060
 1426SOL    HW115914   0.956   2.958   7.308  1.1194  1.1179  0.6698
 1426SOL    HW215915   0.916   3.100   7.299 -3.0071 -0.7482 -0.7336
 1427SOL     OW15916   0.787   0.482  13.186 -0.6863 -0.0039  0.0928
 1427SOL    HW115917   0.773   0.392  13.216  0.5550 -1.2424 -3.0305
 1427SOL    HW215918   0.806   0.519  13.272 -1.7570  0.1337  0.2598
 1428SOL     OW15919   2.946   0.699   9.015 -0.5110  0.1469 -0.2235
 1428SOL    HW115920   2.930   0.607   9.040 -1.3112  0.7526  1.4911
 1428SOL    HW215921   2.911   0.711   8.927  2.1399  1.3342 -1.1014
 1429SOL     OW15922   4.232   2.467   3.275  0.0175  0.3576  0.0757
 1429SOL    HW115923   4.163   2.410   3.310 -1.1590  1.5384 -0.3396
 1429SOL    HW215924   4.312   2.426   3.310 -1.6857 -0.0624  3.5308
 1430SOL     OW15925   2.775   3.625   1.150 -0.3694 -0.2302  0.1602
 1430SOL    HW115926   2.739   3.536   1.154  2.2172 -1.2211  1.6696
 1430SOL    HW215927   2.818   3.636   1.234 -1.6290 -0.4470  0.8312
 1431SOL     OW15928   2.487   1.446   8.710  0.3043 -0.0048  0.3159
 1431SOL    HW115929   2.456   1.377   8.652 -0.5042 -0.3556  1.1688
 1431SOL    HW215930   2.480   1.412   8.799  1.5392  0.3169  0.5382
 1432SOL     OW15931   0.285   4.144   8.433  0.1615 -0.4066  0.2533
 1432SOL    HW115932   0.280   4.153   8.528  0.9527 -0.1215  0.2732
 1432SOL    HW215933   0.217   4.078   8.419 -0.5251  0.7261 -1.7095
 1433SOL     OW15934   2.400   4.430   2.830 -0.0206 -0.5281 -0.2237
 1433SOL    HW115935   2.489   4.455   2.805 -1.0590  1.7964 -1.5507
 1433SOL    HW215936   2.343   4.492   2.786  1.4771  2.0576  1.4836
 1434SOL     OW15937   1.609   2.808  17.149  0.0158 -0.4702 -0.5233
 1434SOL    HW115938   1.661   2.856  17.084 -0.8817  0.6243 -0.4284
 1434SOL    HW215939   1.597   2.725  17.102  0.8154 -0.9763  0.1693
 1435SOL     OW15940   3.370   3.187  11.237  0.1393  0.0455  0.3374
 1435SOL    HW115941   3.288   3.140  11.254 -0.2858  1.1731  1.3868
 1435SOL    HW215942   3.331   3.275  11.240  0.8422  0.3544  0.3249
 1436SOL     OW15943   0.882   0.500   8.801 -0.4321  0.0774  0.2200
 1436SOL    HW115944   0.941   0.515   8.727 -0.3850 -0.4068  0.1563
 1436SOL    HW215945   0.849   0.587   8.823 -2.9753 -0.9444  0.4309
 1437SOL     OW15946   2.194   0.634   1.137  0.0413 -0.6538 -0.2044
 1437SOL    HW115947   2.238   0.553   1.162  1.3504  0.5774  1.4425
 1437SOL    HW215948   2.180   0.674   1.223 -1.4608  3.2568 -2.2345
 1438SOL     OW15949   2.881   3.501  17.742  0.0305  0.0468  0.1490
 1438SOL    HW115950   2.910   3.431   0.057  0.1724  0.5401  0.6792
 1438SOL    HW215951   2.845   3.463  17.663  0.0852 -2.1849  1.2042
 1439SOL     OW15952   1.889   4.243   5.737 -0.6329 -0.0681  0.1196
 1439SOL    HW115953   1.800   4.274   5.721  0.1027  0.6690 -2.5926
 1439SOL    HW215954   1.905   4.263   5.829  1.9636 -1.9404  0.0867
 1440SOL     OW15955   2.713   1.324   2.394 -0.6140  0.2258  0.0872
 1440SOL    HW115956   2.727   1.292   2.483 -0.7644 -1.9444 -0.6457
 1440SOL    HW215957   2.798   1.366   2.380 -0.6084  0.3617  0.5368
 1441SOL     OW15958   0.629   4.504  12.413 -0.5531 -0.6873 -0.3719
 1441SOL    HW115959   0.698   4.437  12.416 -0.2784 -0.3643  0.4737
 1441SOL    HW215960   0.675   4.587  12.422 -0.6559 -0.7262  0.5075
 1442SOL     OW15961   3.784   1.401  12.796 -0.3413 -0.0032  0.0702
 1442SOL    HW115962   3.806   1.307  12.792  2.1855  0.6001 -0.3511
 1442SOL    HW215963   3.859   1.431  12.746 -0.2608  1.7287  1.2416
 1443SOL     OW15964   2.130   4.661   2.394 -0.1523 -0.6110 -0.3272
 1443SOL    HW115965   2.164   4.577   2.362  1.6881 -0.3666  0.9426
 1443SOL    HW215966   2.104   4.704   2.313  0.1202  0.7174  0.2828
 1444SOL     OW15967   2.785   3.279   1.604  0.3399 -0.1330 -0.1216
 1444SOL    HW115968   2.792   3.294   1.699  0.0679  1.5161 -0.3681
 1444SOL    HW215969   2.771   3.184   1.608  4.9046 -0.8521 -1.4571
 1445SOL     OW15970   3.457   4.332   2.110 -0.0188 -0.0226  0.2353
 1445SOL    HW115971   3.408   4.373   2.181  1.3111  0.4401  0.8934
 1445SOL    HW215972   3.488   4.409   2.061 -1.4326 -0.4567 -1.3502
 1446SOL     OW15973   0.661   3.304   7.241  0.0301  0.0745 -0.3545
 1446SOL    HW115974   0.581   3.254   7.253 -0.5256  0.9608 -0.3080
 1446SOL    HW215975   0.630   3.393   7.257  2.4327  1.0417 -0.9883
 1447SOL     OW15976   1.000   3.451   3.806 -0.1898 -0.0207  0.4012
 1447SOL    HW115977   0.995   3.358   3.782  2.1640 -0.0768  0.1083
 1447SOL    HW215978   1.033   3.445   3.896 -0.5014 -1.6163  0.4072
 1448SOL     OW15979   2.145   3.586  13.978 -0.2106  0.4010  0.4043
 1448SOL    HW115980   2.197   3.514  14.015  1.5651  0.7077 -1.4791
 1448SOL    HW215981   2.167   3.666  14.027 -0.5405  1.8025 -1.7747
 1449SOL     OW15982   4.515   3.387  15.278 -0.4369 -0.3164 -0.2767
 1449SOL    HW115983   4.504   3.440  15.199 -0.2544  0.1738  0.0325
 1449SOL    HW215984   4.457   3.441  15.332  0.6610  0.5678  0.0128
 1450SOL     OW15985   4.224   3.678  11.140  0.6105 -0.4316  0.2830
 1450SOL    HW115986   4.197   3.641  11.056 -0.8742 -0.4452  0.7748
 1450SOL    HW215987   4.217   3.600  11.195 -2.5199 -0.4291 -0.1092
 1451SOL     OW15988   3.451   0.050   1.380  0.0268  0.6349 -0.1378
 1451SOL    HW115989   3.533   0.037   1.332 -0.2273 -1.3949 -0.0405
 1451SOL    HW215990   3.401   4.705   1.366  0.9485 -0.0317  0.3968
 1452SOL     OW15991   2.317   2.748   3.501 -0.1328  0.1584 -0.0214
 1452SOL    HW115992   2.224   2.731   3.484 -0.2214 -0.5644  1.1679
 1452SOL    HW215993   2.304   2.837   3.533 -0.2196  0.1705 -0.0913
 1453SOL     OW15994   0.985   0.975  15.151  0.3687  0.3270 -0.5429
 1453SOL    HW115995   0.965   1.061  15.190  2.2657 -0.4981  2.2718
 1453SOL    HW215996   1.080   0.987  15.154  0.5487 -0.6538 -2.4606
 1454SOL     OW15997   1.263   1.958   9.604 -0.6164  0.1709 -0.3710
 1454SOL    HW115998   1.350   1.935   9.571 -0.6639 -1.8266  0.9134
 1454SOL    HW215999   1.261   2.053   9.588  1.4580  0.2051 -0.4677
 1455SOL     OW16000   3.018   3.398   3.804  0.0416 -0.0359 -0.4374
 1455SOL    HW116001   2.969   3.345   3.866  2.5852  0.7631  2.2285
 1455SOL    HW216002   3.066   3.328   3.758 -1.0024 -0.5081 -0.8174
 1456SOL     OW16003   3.862   3.576   5.606 -0.4803  0.0829 -0.3265
 1456SOL    HW116004   3.938   3.519   5.617 -1.0642 -0.4367  1.0964
 1456SOL    HW216005   3.890   3.644   5.546  1.2258 -0.0390  0.3275
 1457SOL     OW16006   1.647   2.844   0.327 -0.1906  0.0389 -0.0677
 1457SOL    HW116007   1.655   2.809   0.238 -1.9621  1.3278 -0.7364
 1457SOL    HW216008   1.589   2.920   0.317 -1.5087 -1.1532 -1.4053
 1458SOL     OW16009   1.676   1.201   9.446 -0.4105  0.4847 -0.3113
 1458SOL    HW116010   1.666   1.247   9.362 -0.8608 -0.3257 -0.6993
 1458SOL    HW216011   1.593   1.157   9.465 -0.7997  2.7877  3.3460
 1459SOL     OW16012   4.365   0.942   6.463  0.4769 -0.4751  0.0192
 1459SOL    HW116013   4.392   0.998   6.535  0.8485 -1.9903  1.0558
 1459SOL    HW216014   4.441   0.954   6.405 -0.5732 -3.2940 -1.9774
 1460SOL     OW16015   4.201   0.523   8.449  0.9295 -0.6654 -0.0470
 1460SOL    HW116016   4.116   0.545   8.488  0.3559 -2.5473 -0.2610
 1460SOL    HW216017   4.196   0.428   8.441 -0.6302 -0.4862 -1.1843
 1461SOL     OW16018   2.210   4.729   7.640  0.6951  0.0749 -0.1771
 1461SOL    HW116019   2.165   0.041   7.709  3.1082  0.4565  1.1227
 1461SOL    HW216020   2.140   4.686   7.591  1.2422  0.4175 -1.2660
 1462SOL     OW16021   2.590   2.479   8.499 -0.5869  0.3707 -0.0693
 1462SOL    HW116022   2.560   2.468   8.589  2.1018  1.7361  0.9883
 1462SOL    HW216023   2.635   2.564   8.496  0.0356  0.0334 -0.2837
 1463SOL     OW16024   3.119   0.755   7.588  0.0103 -0.4463 -0.2140
 1463SOL    HW116025   3.144   0.662   7.582  2.8625  0.2735  0.8296
 1463SOL    HW216026   3.160   0.784   7.507 -0.5630  0.4983 -0.1647
 1464SOL     OW16027   3.216   0.448   5.676  0.0012  0.2337  0.4937
 1464SOL    HW116028   3.259   0.422   5.757  2.7956 -0.3672 -1.1823
 1464SOL    HW216029   3.255   0.381   5.620 -0.4713 -0.6620  1.2437
 1465SOL     OW16030   1.525   3.002   2.730  0.0856  0.2341 -0.2926
 1465SOL    HW116031   1.450   3.059   2.713  1.1328  1.1883 -1.7260
 1465SOL    HW216032   1.585   3.053   2.675  1.8595 -1.7844 -0.2251
 1466SOL     OW16033   1.890   1.527   2.858  0.9120 -0.4027 -0.5135
 1466SOL    HW116034   1.935   1.563   2.935 -0.0278  0.5966 -0.4312
 1466SOL    HW216035   1.959   1.525   2.791  1.2001 -1.4282 -0.1809
 1467SOL     OW16036   2.373   1.338   1.941  0.2073 -0.6314  0.4228
 1467SOL    HW116037   2.457   1.378   1.965  0.3945 -0.3967 -0.6125
 1467SOL    HW216038   2.396   1.248   1.918 -0.8153 -0.6809 -0.4376
 1468SOL     OW16039   3.485   1.371   8.865  0.0353  0.0978  0.0576
 1468SOL    HW116040   3.432   1.434   8.816 -0.4563  0.0829  0.5642
 1468SOL    HW216041   3.429   1.295   8.882 -0.9146  1.0633  1.2214
 1469SOL     OW16042   0.350   1.548   6.058  0.6044  0.0397  1.0619
 1469SOL    HW116043   0.298   1.617   6.100 -0.0933 -0.6175  1.2769
 1469SOL    HW216044   0.436   1.586   6.077  1.2317 -0.9105  0.0865
 1470SOL     OW16045   3.182   2.395  13.659  0.0645 -0.2061  0.1407
 1470SOL    HW116046   3.145   2.435  13.580  0.8584  2.1955  0.9799
 1470SOL    HW216047   3.189   2.464  13.724  0.4027  0.7312 -0.8850
 1471SOL     OW16048   1.368   3.841   8.463 -0.3458 -0.0515 -0.6206
 1471SOL    HW116049   1.446   3.867   8.513 -0.3008  0.2488 -0.8516
 1471SOL    HW216050   1.381   3.748   8.444 -0.4647  0.0463 -1.1729
 1472SOL     OW16051   1.146   4.559   6.605 -0.3318 -0.0787  0.5833
 1472SOL    HW116052   1.219   4.497   6.608 -1.7218 -1.5400  3.4578
 1472SOL    HW216053   1.103   4.549   6.689  0.1533  1.4110  1.0008
 1473SOL     OW16054   3.791   0.836  13.671 -0.1405 -0.0739 -0.3234
 1473SOL    HW116055   3.761   0.749  13.696  3.2016 -0.9679  0.4902
 1473SOL    HW216056   3.712   0.879  13.639 -0.8281 -2.1626 -1.4419
 1474SOL     OW16057   4.425   2.108   4.018  0.0721 -0.1219 -0.1797
 1474SOL    HW116058   4.439   2.020   3.981  0.1503 -0.3045  0.2882
 1474SOL    HW216059   4.330   2.110   4.013  0.0801 -2.2887 -1.2914
 1475SOL     OW16060   4.674   1.159   1.994  0.0467  0.6135 -0.1565
 1475SOL    HW116061   4.665   1.238   1.941  2.7513 -0.5853 -2.4128
 1475SOL    HW216062   4.721   1.192   2.070  0.0117 -1.8662  0.9464
 1476SOL     OW16063   3.033   0.757   8.011  0.4646 -0.3753  0.1809
 1476SOL    HW116064   3.120   0.793   8.028  0.5134 -1.0187  1.2916
 1476SOL    HW216065   3.048   0.663   8.006 -0.8028 -0.6522  1.4842
 1477SOL     OW16066   1.868   3.528   2.889 -0.4204 -0.3384 -0.1519
 1477SOL    HW116067   1.932   3.476   2.937  0.6225 -1.8452 -3.1549
 1477SOL    HW216068   1.845   3.472   2.815 -3.4201 -1.1349  1.3841
 1478SOL     OW16069   2.539   1.876   2.899  0.0982  0.4818  0.0007
 1478SOL    HW116070   2.625   1.883   2.940  0.1475  0.8618 -0.1655
 1478SOL    HW216071   2.549   1.793   2.853 -0.2202  1.0173 -1.0368
 1479SOL     OW16072   4.081   1.980   3.309  0.6631 -0.3471 -0.1780
 1479SOL    HW116073   4.146   1.996   3.377  1.3845  0.8190 -1.1601
 1479SOL    HW216074   4.114   1.899   3.271  0.8101 -0.6805  0.6560
 1480SOL     OW16075   0.798   2.363   1.851 -0.3188 -0.5191  0.1531
 1480SOL    HW116076   0.805   2.451   1.816  0.2086 -0.1300  1.2508
 1480SOL    HW216077   0.754   2.325   1.775 -2.0464 -0.3979  1.1004
 1481SOL     OW16078   0.477   2.888   8.663 -0.3246 -0.3097 -0.9057
 1481SOL    HW116079   0.443   2.860   8.748 -1.6092 -1.7030 -1.8806
 1481SOL    HW216080   0.448   2.979   8.659 -0.1238 -0.2250 -0.4113
 1482SOL     OW16081   1.213   1.347  12.291  0.2902 -0.2232 -0.2451
 1482SOL    HW116082   1.194   1.393  12.209  0.5459  0.8377  0.2941
 1482SOL    HW216083   1.219   1.432  12.334 -3.2837  1.7219 -3.5347
 1483SOL     OW16084   3.404   3.338  12.398  0.4393 -0.0267  0.3442
 1483SOL    HW116085   3.345   3.407  12.428  1.3559  1.0800 -0.3862
 1483SOL    HW216086   3.411   3.281  12.475 -1.3403 -1.1721 -0.3340
 1484SOL     OW16087   3.680   0.578   3.614 -0.1919 -0.1648 -0.3992
 1484SOL    HW116088   3.773   0.584   3.594 -0.2633 -0.1738 -0.7424
 1484SOL    HW216089   3.656   0.491   3.583  0.7034 -0.2420 -0.8621
 1485SOL     OW16090   0.286   1.433   7.993  0.3602  0.1045  0.0176
 1485SOL    HW116091   0.379   1.455   7.999  0.5344 -0.5838 -0.1523
 1485SOL    HW216092   0.244   1.500   8.047  0.8325  1.9715 -1.9417
 1486SOL     OW16093   2.028   1.791   1.920 -0.1050  0.2905 -0.0212
 1486SOL    HW116094   1.965   1.782   1.848 -1.1907  0.2993  0.9232
 1486SOL    HW216095   2.068   1.875   1.898  1.2399  0.3748  2.7213
 1487SOL     OW16096   3.464   3.249   9.846  0.6415  0.3612 -0.2459
 1487SOL    HW116097   3.539   3.309   9.851  1.2983 -0.4110 -0.8347
 1487SOL    HW216098   3.497   3.164   9.817 -0.3559 -0.3097  0.6273
 1488SOL     OW16099   1.210   1.541   9.651 -0.3144 -0.2226  0.4295
 1488SOL    HW116100   1.298   1.519   9.619 -1.0907 -1.4810 -0.8782
 1488SOL    HW216101   1.219   1.620   9.703 -3.4062  0.5311 -0.1687
 1489SOL     OW16102   0.543   1.762  12.338  0.9435 -0.0218 -0.2701
 1489SOL    HW116103   0.575   1.678  12.371 -0.8619  0.2422  2.1658
 1489SOL    HW216104   0.565   1.813  12.416 -0.7993  0.1318  0.1227
 1490SOL     OW16105   0.175   2.685  13.291 -0.4593 -0.6947  0.2016
 1490SOL    HW116106   0.218   2.771  13.296  1.1484 -1.3752 -1.6086
 1490SOL    HW216107   0.155   2.676  13.384  1.8788  1.2083  0.8984
 1491SOL     OW16108   1.877   3.634   8.526  0.1039 -0.0130  0.5976
 1491SOL    HW116109   1.881   3.683   8.444 -2.2917  0.1587  0.5765
 1491SOL    HW216110   1.942   3.565   8.510  0.4442  0.4993 -0.2370
 1492SOL     OW16111   4.019   4.069   2.459  0.0717  0.0122 -0.4709
 1492SOL    HW116112   3.998   4.156   2.426  3.0905  0.9498  0.0491
 1492SOL    HW216113   3.985   4.019   2.385 -1.4689  0.1128  0.1801
 1493SOL     OW16114   1.867   2.987   3.254  0.4651 -0.5375 -0.1298
 1493SOL    HW116115   1.807   2.940   3.311 -1.0033  0.4303 -0.8749
 1493SOL    HW216116   1.827   3.074   3.264  1.6287 -0.0324  0.1984
 1494SOL     OW16117   3.200   2.540   4.838 -0.1204  0.3173  0.2355
 1494SOL    HW116118   3.218   2.521   4.746  1.0848  0.2672  0.4801
 1494SOL    HW216119   3.105   2.528   4.841 -0.3227  2.2821  1.3275
 1495SOL     OW16120   4.344   3.651   1.806 -0.4678 -0.3271 -0.0659
 1495SOL    HW116121   4.267   3.702   1.832 -0.0231 -0.5390  1.7033
 1495SOL    HW216122   4.383   3.678   1.889 -1.7807 -0.3691  0.5784
 1496SOL     OW16123   1.101   3.316   6.568  0.2009  0.3009 -0.5389
 1496SOL    HW116124   1.115   3.404   6.533  1.0204  0.3722 -0.0319
 1496SOL    HW216125   1.011   3.338   6.593 -0.2420 -0.9039 -1.1066
 1497SOL     OW16126   0.204   0.173   9.923 -0.5211  0.5225 -0.0527
 1497SOL    HW116127   0.272   0.239   9.915 -0.0937  0.0926  0.0713
 1497SOL    HW216128   0.233   0.137  10.007 -1.7543 -1.3609 -0.4308
 1498SOL     OW16129   3.747   2.458   8.638 -0.1894 -0.1493  0.1814
 1498SOL    HW116130   3.693   2.415   8.704 -0.6672  1.8970  1.1221
 1498SOL    HW216131   3.708   2.545   8.633  0.5454  0.1520 -0.2097
 1499SOL     OW16132   2.782   1.402   2.897  0.0773  0.2415  0.2014
 1499SOL    HW116133   2.829   1.443   2.969  0.8466  2.7597 -1.7345
 1499SOL    HW216134   2.732   1.337   2.946  0.3801 -0.2020 -0.0829
 1500SOL     OW16135   1.220   1.781   4.532 -0.1668  0.5515  0.2895
 1500SOL    HW116136   1.129   1.807   4.528 -0.0125  0.9539 -0.5286
 1500SOL    HW216137   1.250   1.824   4.612  0.7206 -0.7454  0.6650
 1501SOL     OW16138   0.864   2.602  12.672  0.6491  0.2702  0.2329
 1501SOL    HW116139   0.853   2.634  12.583  3.4008 -1.7984 -0.8605
 1501SOL    HW216140   0.899   2.515  12.654  0.5504  0.2208  0.2828
 1502SOL     OW16141   2.849   0.553   3.367 -0.3075  0.2386  0.2886
 1502SOL    HW116142   2.757   0.562   3.392 -0.6265  0.7780 -1.1001
 1502SOL    HW216143   2.885   0.619   3.427 -2.3993  0.5853  1.1678
 1503SOL     OW16144   3.028   4.592   4.601  0.0917  0.4850 -0.6750
 1503SOL    HW116145   3.026   4.497   4.600  0.3217  0.4624  2.6171
 1503SOL    HW216146   3.113   4.603   4.642 -1.4863  2.2313  2.1704
 1504SOL     OW16147   0.548   0.175   9.434  0.2701 -0.2067 -0.1343
 1504SOL    HW116148   0.497   0.182   9.515  0.2743 -2.1952  0.0585
 1504SOL    HW216149   0.582   0.088   9.456 -1.1914 -1.0604 -1.2871
 1505SOL     OW16150   2.853   1.363  11.777  0.3444  0.1927  0.1235
 1505SOL    HW116151   2.918   1.294  11.788  1.0126  1.3680  3.4986
 1505SOL    HW216152   2.909   1.433  11.744 -1.3937  2.2782  1.5904
 1506SOL     OW16153   1.087   0.994   2.706  0.0719 -0.1086 -0.0641
 1506SOL    HW116154   1.056   0.987   2.796  1.5854  2.2720  0.6345
 1506SOL    HW216155   1.029   1.054   2.659 -0.0867  0.9356  1.4848
 1507SOL     OW16156   3.330   1.145   8.772  0.1192 -0.1169  0.1940
 1507SOL    HW116157   3.418   1.155   8.737  0.3675 -0.5735  0.6969
 1507SOL    HW216158   3.341   1.078   8.839  2.5563 -1.9535 -2.0374
 1508SOL     OW16159   1.132   2.146   8.212  0.3190  0.6569 -0.1819
 1508SOL    HW116160   1.200   2.099   8.164  1.2115 -0.3008  2.0223
 1508SOL    HW216161   1.106   2.081   8.278 -2.1753 -0.7762 -2.5904
 1509SOL     OW16162   4.193   3.495   2.802 -0.1155 -0.4540 -0.0860
 1509SOL    HW116163   4.135   3.443   2.745 -1.9928  2.3615 -0.7229
 1509SOL    HW216164   4.122   3.515   2.864  0.4468  0.3187  0.3036
 1510SOL     OW16165   1.827   2.265   5.976 -0.6078  0.1061  0.3662
 1510SOL    HW116166   1.789   2.311   6.051 -2.0221 -0.9788  0.3119
 1510SOL    HW216167   1.801   2.324   5.905 -0.4990  0.9468  1.0332
 1511SOL     OW16168   1.176   3.311  12.210  0.1283  0.1752  0.1475
 1511SOL    HW116169   1.082   3.290  12.209 -0.6266  3.5812 -1.3335
 1511SOL    HW216170   1.195   3.371  12.138  0.1269  0.5268  0.4365
 1512SOL     OW16171   1.173   4.058   5.994  0.0752  0.4183  0.0245
 1512SOL    HW116172   1.170   3.991   5.925 -0.9289 -0.6365  1.0912
 1512SOL    HW216173   1.197   4.011   6.074 -1.0144 -1.5698 -0.8069
 1513SOL     OW16174   4.037   1.861  15.043  0.0107 -0.3903 -0.0776
 1513SOL    HW116175   4.113   1.917  15.062 -0.5870  0.0497  1.0321
 1513SOL    HW216176   4.074   1.778  15.013  0.8824 -1.2796  3.4868
 1514SOL     OW16177   1.569   0.551   3.177  0.1591  0.7322 -0.5574
 1514SOL    HW116178   1.568   0.529   3.084 -4.7490 -4.3798  0.6954
 1514SOL    HW216179   1.616   0.472   3.204 -2.1010  0.6071  3.1380
 1515SOL     OW16180   4.283   2.630   2.299 -0.3212  0.2204  0.5260
 1515SOL    HW116181   4.302   2.556   2.357 -1.2152  0.8493  1.6047
 1515SOL    HW216182   4.194   2.641   2.331 -0.2712  2.4078 -0.0734
 1516SOL     OW16183   3.679   4.347   7.244 -0.2174 -0.1150 -0.2955
 1516SOL    HW116184   3.741   4.389   7.304 -1.1931 -0.7664  1.1697
 1516SOL    HW216185   3.668   4.266   7.295  0.8737 -0.9783 -1.4036
 1517SOL     OW16186   0.517   0.647   4.774  0.2514  0.3709 -0.2905
 1517SOL    HW116187   0.571   0.711   4.726 -0.4237  0.1459 -1.3552
 1517SOL    HW216188   0.448   0.630   4.710  0.3497  1.9976 -0.8228
 1518SOL     OW16189   0.423   3.504  15.814  0.7130 -0.4077  0.1314
 1518SOL    HW116190   0.399   3.566  15.884  2.0998 -1.6750  1.7439
 1518SOL    HW216191   0.376   3.543  15.741  0.7236 -0.4727  0.0902
 1519SOL     OW16192   2.890   3.276  16.040  0.3188  0.3828  0.5154
 1519SOL    HW116193   2.868   3.184  16.060  2.3569 -0.1905  0.0619
 1519SOL    HW216194   2.865   3.281  15.948 -1.7026 -1.5388  0.9514
 1520SOL     OW16195   3.551   4.217  17.287 -0.4273 -0.0341 -0.1119
 1520SOL    HW116196   3.541   4.227  17.382  0.8907  0.7900 -0.0523
 1520SOL    HW216197   3.542   4.123  17.273 -0.3629 -0.0859  0.2030
 1521SOL     OW16198   3.942   0.814  15.984  0.0253 -0.1617  0.3131
 1521SOL    HW116199   4.027   0.858  15.975 -0.5683  0.6392 -1.4001
 1521SOL    HW216200   3.896   0.896  15.998  0.0634 -0.0974  0.0630
 1522SOL     OW16201   0.851   3.111   9.209  0.4252 -0.3872  0.4083
 1522SOL    HW116202   0.774   3.119   9.265  0.7697  0.3306  0.7757
 1522SOL    HW216203   0.914   3.075   9.272  1.5258  1.8762  0.5913
 1523SOL     OW16204   1.856   3.182   4.011  0.1325 -0.6016  0.1664
 1523SOL    HW116205   1.819   3.142   4.089 -2.0898  2.7858  0.8030
 1523SOL    HW216206   1.946   3.206   4.033 -0.1201 -0.2884  0.8281
 1524SOL     OW16207   3.327   3.494  13.863 -0.0493 -0.2282 -0.1515
 1524SOL    HW116208   3.417   3.525  13.859 -0.5232  1.3710  1.5895
 1524SOL    HW216209   3.336   3.399  13.857 -2.6231 -0.5562  0.8396
 1525SOL     OW16210   0.386   1.762   0.925 -0.2599  0.1495  0.6205
 1525SOL    HW116211   0.396   1.671   0.898 -0.4010  1.0378 -2.3493
 1525SOL    HW216212   0.473   1.786   0.954 -0.6136  2.6986 -0.4645
 1526SOL     OW16213   4.575   4.153  12.984 -0.2941  0.1165  0.3965
 1526SOL    HW116214   4.549   4.198  13.065 -0.2092 -1.6190  1.3744
 1526SOL    HW216215   4.666   4.185  12.978 -0.8377  1.7498  0.9178
 1527SOL     OW16216   0.784   0.676   4.238  0.6559 -0.0493 -0.4973
 1527SOL    HW116217   0.811   0.610   4.302  0.1639  2.2750  2.1079
 1527SOL    HW216218   0.690   0.681   4.254  0.9684 -0.9426  1.6064
 1528SOL     OW16219   2.316   1.841   3.964 -0.6031 -0.2369 -0.5235
 1528SOL    HW116220   2.238   1.789   3.940  1.7092 -3.9235 -0.0832
 1528SOL    HW216221   2.378   1.824   3.894 -0.2553 -0.8631 -0.0625
 1529SOL     OW16222   2.772   1.130  16.685  0.3118 -0.9319 -0.2088
 1529SOL    HW116223   2.827   1.062  16.646 -0.2144 -1.0705 -0.7304
 1529SOL    HW216224   2.733   1.081  16.757 -0.3317  0.6115  0.4947
 1530SOL     OW16225   4.609   2.880   7.902  0.5692 -0.0799 -0.1108
 1530SOL    HW116226   4.578   2.905   7.989 -1.1882 -0.5193 -0.6095
 1530SOL    HW216227   4.702   2.899   7.906  0.4024  0.4831  1.3434
 1531SOL     OW16228   0.013   4.062   9.860  0.2029 -0.1362  0.3035
 1531SOL    HW116229   4.689   4.053   9.786  0.0626 -0.9545  0.5232
 1531SOL    HW216230   0.093   4.084   9.813  0.5202  2.4316  2.0275
 1532SOL     OW16231   2.361   3.277   2.228  0.9720  0.2378 -0.3996
 1532SOL    HW116232   2.338   3.189   2.199  0.9728  0.0960  0.0328
 1532SOL    HW216233   2.412   3.265   2.308  0.0787  1.5027  0.3729
 1533SOL     OW16234   0.867   3.703   6.431 -0.1354  0.0525  0.4073
 1533SOL    HW116235   0.868   3.683   6.524 -1.2303 -0.7385  0.2568
 1533SOL    HW216236   0.893   3.795   6.434  1.0095 -0.2978  0.9583
 1534SOL     OW16237   0.816   2.245   6.949 -0.2225  0.1230  0.0510
 1534SOL    HW116238   0.846   2.242   6.858 -2.5380 -1.0080 -0.6772
 1534SOL    HW216239   0.832   2.154   6.972  0.2324  0.4293  0.9240
 1535SOL     OW16240   4.124   2.386   9.453  0.1608 -0.5047  0.5281
 1535SOL    HW116241   4.134   2.482   9.457 -1.1252 -0.2996 -1.3609
 1535SOL    HW216242   4.088   2.377   9.541 -1.1583 -1.4987 -0.1302
 1536SOL     OW16243   0.440   1.183   0.886 -0.1085 -0.1963  0.4462
 1536SOL    HW116244   0.377   1.113   0.866  0.0575 -0.7187  1.7446
 1536SOL    HW216245   0.514   1.151   0.834 -0.7331  1.0820 -1.2265
 1537SOL     OW16246   0.889   1.601   7.967  0.1475 -0.6881 -0.2450
 1537SOL    HW116247   0.891   1.693   7.993  1.4968 -1.0211  0.8101
 1537SOL    HW216248   0.950   1.559   8.027  0.9901  1.6554  0.5373
 1538SOL     OW16249   0.725   4.613  11.882 -0.4602  0.4720  0.2982
 1538SOL    HW116250   0.791   4.592  11.948 -0.5064 -0.1281  0.1560
 1538SOL    HW216251   0.676   4.679  11.931  2.0771  1.7480  1.1070
 1539SOL     OW16252   0.653   1.330   1.214 -0.5382  0.7421 -0.2714
 1539SOL    HW116253   0.645   1.245   1.171  1.1309 -0.4040  1.6808
 1539SOL    HW216254   0.740   1.362   1.187 -0.1143 -0.7678 -0.7000
 1540SOL     OW16255   2.137   0.042   2.136 -0.0007 -0.8947 -0.3050
 1540SOL    HW116256   2.203   0.041   2.066  1.0633 -0.6477  0.6927
 1540SOL    HW216257   2.138   0.135   2.158  1.2751 -0.7958 -0.7526
 1541SOL     OW16258   1.909   4.001   0.882  0.3952 -0.3779  0.1187
 1541SOL    HW116259   1.908   3.941   0.807  0.1635 -0.2002 -0.0194
 1541SOL    HW216260   1.847   3.959   0.941  0.3376 -0.4816 -0.0156
 1542SOL     OW16261   1.151   2.459   7.165  0.0765  0.0017  0.3901
 1542SOL    HW116262   1.213   2.501   7.224 -0.0391  0.8999 -0.1242
 1542SOL    HW216263   1.085   2.439   7.232  0.1922 -1.6069  0.0195
 1543SOL     OW16264   4.473   4.226   3.735 -0.4004  0.3063 -0.0874
 1543SOL    HW116265   4.396   4.281   3.725 -0.1471  0.9267  1.4055
 1543SOL    HW216266   4.541   4.287   3.704 -1.0998  1.0464 -0.1541
 1544SOL     OW16267   4.494   2.570  15.967 -0.4308 -0.3614 -0.0109
 1544SOL    HW116268   4.543   2.508  15.913 -0.8494  2.1778 -3.2547
 1544SOL    HW216269   4.566   2.601  16.022 -0.3500 -2.6051  1.1600
 1545SOL     OW16270   1.488   4.437   4.535 -0.3698  0.0039  0.2929
 1545SOL    HW116271   1.513   4.435   4.628 -2.3933 -2.2247  0.8065
 1545SOL    HW216272   1.434   4.514   4.523  0.9355  0.9887  0.6987
 1546SOL     OW16273   2.175   0.552   1.934  0.5554  0.0944  0.3197
 1546SOL    HW116274   2.235   0.575   1.863 -0.3015 -0.2576 -0.5153
 1546SOL    HW216275   2.105   0.615   1.914  0.2600  0.9045  3.8238
 1547SOL     OW16276   3.864   1.213   8.489  0.4538  0.8691 -0.7088
 1547SOL    HW116277   3.952   1.234   8.458  0.8575 -1.0218 -0.8541
 1547SOL    HW216278   3.897   1.169   8.567  0.8459  0.1654 -1.2667
 1548SOL     OW16279   3.674   3.650   7.832  0.0078  0.2503 -0.0823
 1548SOL    HW116280   3.741   3.714   7.857 -0.1491  0.2043  0.4644
 1548SOL    HW216281   3.607   3.707   7.794 -0.1015 -0.3084 -0.7103
 1549SOL     OW16282   4.123   3.167   6.648  0.0029  0.0875  0.1128
 1549SOL    HW116283   4.156   3.120   6.572  1.4686 -1.0184  1.4201
 1549SOL    HW216284   4.137   3.101   6.717  1.1442  1.2042  0.9499
 1550SOL     OW16285   0.590   0.167  17.549  0.5072 -0.0621 -0.3488
 1550SOL    HW116286   0.673   0.214  17.543  1.6585 -1.9795  0.5136
 1550SOL    HW216287   0.526   0.236  17.535  1.7724  1.3194  0.6739
 1551SOL     OW16288   1.233   1.195   9.654  0.2388 -0.1563  0.0187
 1551SOL    HW116289   1.161   1.254   9.630 -0.3241 -1.6805 -1.9961
 1551SOL    HW216290   1.275   1.252   9.719  0.6461 -0.5536  0.1001
 1552SOL     OW16291   3.995   4.061  17.522  0.1883  0.0992 -0.4250
 1552SOL    HW116292   3.930   4.129  17.540 -0.0596 -0.3723  0.4517
 1552SOL    HW216293   3.944   3.990  17.483 -0.1054  0.8194 -1.3602
 1553SOL     OW16294   4.078   2.422   3.955 -1.2604 -0.0869 -0.2101
 1553SOL    HW116295   4.025   2.431   4.034 -0.1647  0.4911  0.4570
 1553SOL    HW216296   4.137   2.498   3.956 -0.6114 -0.6304  2.5362
 1554SOL     OW16297   0.916   2.613   2.299 -0.7224 -0.5055  0.3199
 1554SOL    HW116298   0.937   2.703   2.324 -1.3188 -0.8194  1.9323
 1554SOL    HW216299   0.920   2.629   2.205 -0.8984 -0.9560  0.2341
 1555SOL     OW16300   1.327   4.517   3.608  0.1709 -0.1254  0.0499
 1555SOL    HW116301   1.253   4.461   3.632  1.0560 -2.4198 -2.6112
 1555SOL    HW216302   1.396   4.454   3.588  1.0982  0.6175  0.9557
 1556SOL     OW16303   2.215   3.087   3.165  0.3576 -0.1109  0.5520
 1556SOL    HW116304   2.297   3.127   3.194  0.4076  0.3529 -0.1966
 1556SOL    HW216305   2.233   3.032   3.089  2.0935  0.7594  0.3223
 1557SOL     OW16306   1.279   0.498   5.016  0.1008  0.0722 -0.7116
 1557SOL    HW116307   1.372   0.491   4.994  1.1035  2.5167  2.8941
 1557SOL    HW216308   1.267   0.593   5.014 -1.0516 -0.0640 -0.1055
 1558SOL     OW16309   2.927   2.428   7.015  0.0552  0.1031  0.4873
 1558SOL    HW116310   2.942   2.474   6.933 -2.3346 -2.1177 -1.1896
 1558SOL    HW216311   2.970   2.485   7.079  0.0038  1.0282 -0.3159
 1559SOL     OW16312   0.854   0.733  12.936 -0.7842 -0.0361 -0.4645
 1559SOL    HW116313   0.788   0.784  12.890  0.5896  0.2965 -2.0511
 1559SOL    HW216314   0.797   0.681  12.992 -2.9414  0.9592 -1.7262
 1560SOL     OW16315   4.363   3.916   6.106 -0.7241 -0.0224  0.0200
 1560SOL    HW116316   4.293   3.867   6.148 -0.2992 -0.7928 -0.1706
 1560SOL    HW216317   4.380   3.858   6.032  0.3893 -0.2114  0.4211
 1561SOL     OW16318   1.476   3.106   8.585 -0.2440  0.2807 -0.6046
 1561SOL    HW116319   1.427   3.188   8.579  0.8199  1.0253  0.8835
 1561SOL    HW216320   1.504   3.105   8.494  2.5236 -0.3552  0.2517
 1562SOL     OW16321   0.769   3.457   2.831 -0.5289  0.0797  0.0322
 1562SOL    HW116322   0.856   3.416   2.830 -0.9979 -0.8545 -1.5554
 1562SOL    HW216323   0.781   3.518   2.904  0.7725 -2.2187  1.7166
 1563SOL     OW16324   2.559   3.327  15.498  0.1198  0.0684 -0.2484
 1563SOL    HW116325   2.634   3.360  15.547  1.6236 -0.3097 -2.3001
 1563SOL    HW216326   2.604   3.274  15.432  0.1168  2.2186 -1.9891
 1564SOL     OW16327   3.276   1.494   3.619 -0.2804  0.2841 -0.2618
 1564SOL    HW116328   3.280   1.545   3.538  1.1730 -2.1684 -1.7419
 1564SOL    HW216329   3.276   1.405   3.583  1.9170  1.1849 -2.4570
 1565SOL     OW16330   3.731   2.734   4.531  0.0844  0.2518 -0.4621
 1565SOL    HW116331   3.675   2.659   4.511  0.7572 -0.2649 -0.4126
 1565SOL    HW216332   3.779   2.738   4.448  0.0848 -0.9491 -0.5245
 1566SOL     OW16333   4.194   3.156   2.805 -0.1657 -0.2912 -0.3928
 1566SOL    HW116334   4.181   3.137   2.712 -0.8826 -2.8984  0.2576
 1566SOL    HW216335   4.280   3.197   2.794 -0.3360 -0.3700 -1.9244
 1567SOL     OW16336   1.254   2.203   1.989 -0.6275 -0.2313 -0.8054
 1567SOL    HW116337   1.345   2.197   2.017 -1.5575 -2.5868  1.6858
 1567SOL    HW216338   1.215   2.226   2.073 -1.6636  1.4931 -1.7473
 1568SOL     OW16339   4.329   4.338   3.086 -0.0773  0.0079  0.0603
 1568SOL    HW116340   4.278   4.387   3.022 -0.3738 -1.0234 -0.4916
 1568SOL    HW216341   4.394   4.404   3.113  0.3874  0.3682 -1.9006
 1569SOL     OW16342   2.140   0.718   3.920 -0.3428  0.2598 -0.4184
 1569SOL    HW116343   2.170   0.665   3.993  1.0841  0.9544 -0.4987
 1569SOL    HW216344   2.141   0.662   3.842  1.8237  1.8738 -1.5766
 1570SOL     OW16345   0.097   4.680   6.626  0.3226 -0.5481 -0.0694
 1570SOL    HW116346   0.078   0.029   6.586 -0.0486 -0.5394  0.1235
 1570SOL    HW216347   0.042   4.694   6.704 -0.0488 -0.1956 -0.3952
 1571SOL     OW16348   2.049   4.111  10.736 -0.7147 -0.3510 -0.5731
 1571SOL    HW116349   2.041   4.059  10.656  2.8273  1.7381 -2.2917
 1571SOL    HW216350   2.038   4.040  10.798  0.3623  0.5348  0.6321
 1572SOL     OW16351   3.876   2.954   5.925  0.3000  0.1369 -0.0032
 1572SOL    HW116352   3.929   2.942   6.003 -0.4039  0.0083  0.4579
 1572SOL    HW216353   3.947   2.956   5.861  0.3305 -0.7620 -0.0031
 1573SOL     OW16354   0.343   0.520   7.375 -0.3312  0.3804 -1.2858
 1573SOL    HW116355   0.354   0.497   7.467  0.9854  1.4281 -1.1667
 1573SOL    HW216356   0.344   0.616   7.380 -0.0689  0.3514 -0.8038
 1574SOL     OW16357   0.141   4.044   6.551 -0.0865  0.5354  0.9981
 1574SOL    HW116358   0.094   4.076   6.475 -0.2008 -2.1585 -0.0550
 1574SOL    HW216359   0.235   4.052   6.531 -0.0229  0.9063  1.4254
 1575SOL     OW16360   2.387   1.938  16.748 -0.2005  0.2463 -0.1394
 1575SOL    HW116361   2.439   1.989  16.810  0.7057 -2.1549  1.0825
 1575SOL    HW216362   2.329   1.896  16.812 -0.8901  2.3356  0.6013
 1576SOL     OW16363   4.206   0.478   6.345  0.8105  0.8568 -0.3345
 1576SOL    HW116364   4.226   0.553   6.401 -0.6690  2.0839 -1.4273
 1576SOL    HW216365   4.212   0.407   6.409 -0.8775  1.6946  0.7326
 1577SOL     OW16366   1.669   1.528  11.856 -0.3707  0.2834 -0.3649
 1577SOL    HW116367   1.675   1.480  11.939 -1.1516  0.1197 -0.4017
 1577SOL    HW216368   1.639   1.609  11.897 -1.3461 -0.2425 -0.0316
 1578SOL     OW16369   2.621   3.570   9.323 -0.1210 -0.5072 -0.4560
 1578SOL    HW116370   2.546   3.587   9.380  1.7630  2.7550  0.9898
 1578SOL    HW216371   2.681   3.516   9.374 -1.8880 -2.5661 -0.5411
 1579SOL     OW16372   0.312   0.479   6.710 -0.3028  0.3016 -0.3889
 1579SOL    HW116373   0.403   0.492   6.681 -0.1615 -0.1590 -0.1413
 1579SOL    HW216374   0.321   0.538   6.785 -0.3509  1.2562 -1.1323
 1580SOL     OW16375   0.851   0.534   2.805 -0.1233 -0.5041 -0.2741
 1580SOL    HW116376   0.916   0.507   2.870  0.5602 -0.0278 -0.7648
 1580SOL    HW216377   0.814   0.614   2.841  2.2235  0.3631  0.2102
 1581SOL     OW16378   4.717   3.201   5.824  0.3735 -0.0451 -0.1507
 1581SOL    HW116379   4.623   3.204   5.803  0.4735  2.5351 -0.2021
 1581SOL    HW216380   0.016   3.279   5.781  0.1547 -0.3011 -0.7963
 1582SOL     OW16381   2.225   0.650  15.727 -0.1527 -0.4728  0.0053
 1582SOL    HW116382   2.258   0.723  15.676 -0.4980 -0.5993 -0.3984
 1582SOL    HW216383   2.262   0.569  15.691  0.0243 -0.5867  0.4380
 1583SOL     OW16384   2.529   4.601   3.794 -0.8013  0.1031 -0.1966
 1583SOL    HW116385   2.527   4.508   3.816  1.4792  0.7861  2.8441
 1583SOL    HW216386   2.482   4.606   3.710  0.5751  0.6254 -0.9276
 1584SOL     OW16387   2.272   0.024   6.594 -0.3210  0.3453  0.7668
 1584SOL    HW116388   2.259   0.013   6.500  0.8845  0.2383  0.6205
 1584SOL    HW216389   2.339   4.694   6.609  2.6125  3.2449  0.5475
 1585SOL     OW16390   1.911   4.285   3.337 -0.5351  0.1927 -0.2112
 1585SOL    HW116391   1.980   4.298   3.403 -0.0236  2.4784 -1.2090
 1585SOL    HW216392   1.953   4.313   3.256 -0.2616 -1.1959 -0.5434
 1586SOL     OW16393   1.648   2.835   8.746 -0.0753 -0.4952 -0.0282
 1586SOL    HW116394   1.564   2.850   8.703 -1.0286 -1.4803  1.4890
 1586SOL    HW216395   1.691   2.782   8.680 -1.8306 -2.4146  0.3634
 1587SOL     OW16396   1.519   3.685   5.453 -0.0819  0.2926  1.0421
 1587SOL    HW116397   1.550   3.630   5.381 -1.4227 -0.9355  1.4035
 1587SOL    HW216398   1.594   3.696   5.511 -1.2586 -1.1489  2.8260
 1588SOL     OW16399   3.354   0.727   8.695 -0.2024 -0.4295 -0.1577
 1588SOL    HW116400   3.391   0.727   8.784 -1.2673 -0.9589  0.2851
 1588SOL    HW216401   3.426   0.748   8.635 -0.9219  1.4948 -0.3647
 1589SOL     OW16402   4.201   2.743   1.179 -1.0133  0.0014 -0.1012
 1589SOL    HW116403   4.171   2.652   1.185  0.1542 -0.3907 -0.2153
 1589SOL    HW216404   4.173   2.776   1.094  0.8765 -2.2379 -1.6048
 1590SOL     OW16405   0.374   4.487  13.163  0.0617  0.2455  0.6306
 1590SOL    HW116406   0.419   4.416  13.209 -0.5690 -0.5144  0.0680
 1590SOL    HW216407   0.289   4.488  13.206 -0.5573 -1.7700 -0.5195
 1591SOL     OW16408   2.499   1.804   7.383  0.0451  0.1586  0.3714
 1591SOL    HW116409   2.530   1.887   7.348 -1.0299 -0.1298 -1.2949
 1591SOL    HW216410   2.488   1.825   7.476 -0.0976 -0.2846  0.4546
 1592SOL     OW16411   2.065   3.116   0.889  0.2000 -0.5020 -0.0130
 1592SOL    HW116412   1.991   3.057   0.907 -2.5285  2.2029 -2.3472
 1592SOL    HW216413   2.053   3.166   0.969 -3.3859 -0.7589 -0.4023
 1593SOL     OW16414   2.838   3.350   4.033 -0.2692 -0.5496  0.0253
 1593SOL    HW116415   2.768   3.361   4.098 -0.5046 -0.8440 -0.1804
 1593SOL    HW216416   2.811   3.268   3.992  0.6561 -1.0304  0.3977
 1594SOL     OW16417   1.596   1.514  13.975  0.2103 -0.0024 -0.4601
 1594SOL    HW116418   1.685   1.547  13.965  1.4559 -3.0955  0.4260
 1594SOL    HW216419   1.609   1.419  13.986 -1.0640 -0.1969 -0.6044
 1595SOL     OW16420   2.416   0.565   5.378  0.2449  0.4504 -0.2397
 1595SOL    HW116421   2.433   0.488   5.324  0.3929  0.4606 -0.2070
 1595SOL    HW216422   2.426   0.640   5.320 -1.5633  0.2707 -0.7848
 1596SOL     OW16423   0.385   1.829   5.802  0.1025  0.5640  0.4959
 1596SOL    HW116424   0.474   1.806   5.774  0.2770 -0.8851  2.2222
 1596SOL    HW216425   0.345   1.859   5.721  1.6113  0.3273 -0.3399
 1597SOL     OW16426   1.268   2.684   0.574 -0.5363  0.0765 -0.0066
 1597SOL    HW116427   1.288   2.732   0.654 -1.9118  1.3130 -0.4046
 1597SOL    HW216428   1.174   2.667   0.585  0.1811 -2.7058  1.8496
 1598SOL     OW16429   0.804   3.201   8.209 -0.0290  0.2885 -0.4180
 1598SOL    HW116430   0.874   3.145   8.243  1.2145  2.2113  0.1371
 1598SOL    HW216431   0.856   3.273   8.173 -0.1207 -0.8188 -2.7987
 1599SOL     OW16432   3.449   1.052   3.990 -0.4298  0.2204 -0.7664
 1599SOL    HW116433   3.500   1.118   4.037  0.9613 -0.3589 -1.4629
 1599SOL    HW216434   3.373   1.109   3.974 -0.9455 -0.5153 -0.9051
 1600SOL     OW16435   0.984   0.390  15.799 -0.3779 -0.0867 -0.1043
 1600SOL    HW116436   1.070   0.428  15.779  0.4872 -1.3565  1.1418
 1600SOL    HW216437   0.923   0.455  15.764  0.0686  0.4146  0.0330
 1601SOL     OW16438   3.026   4.366   3.805 -0.1041  0.3164  0.8527
 1601SOL    HW116439   3.009   4.374   3.712  0.1880  1.4297  0.9053
 1601SOL    HW216440   3.101   4.306   3.812 -0.5616 -0.3238  0.2484
 1602SOL     OW16441   4.524   0.599   0.298  0.7799  0.0082  0.2336
 1602SOL    HW116442   4.582   0.675   0.291  0.5622 -0.0240 -1.8918
 1602SOL    HW216443   4.574   0.533   0.250 -1.6406  0.0411 -2.3428
 1603SOL     OW16444   4.189   4.735   7.740  0.4068 -0.2504  0.2047
 1603SOL    HW116445   4.122   4.674   7.769 -0.9324  0.1911 -1.9939
 1603SOL    HW216446   4.273   4.689   7.740  1.6839  2.0554  1.8407
 1604SOL     OW16447   0.033   1.881   8.326  0.1588 -0.0250 -0.7500
 1604SOL    HW116448   4.711   1.927   8.265  0.1949  1.8440  0.6417
 1604SOL    HW216449   4.711   1.812   8.359 -3.0689  2.9147 -0.3318
 1605SOL     OW16450   0.861   1.189  14.438 -0.0161  0.0997  0.1517
 1605SOL    HW116451   0.788   1.230  14.484  1.9793  2.4878  1.2379
 1605SOL    HW216452   0.826   1.166  14.352  0.3383 -2.8124  0.7899
 1606SOL     OW16453   1.139   0.572   6.379 -0.1332 -0.1511  0.3190
 1606SOL    HW116454   1.218   0.621   6.357  0.0693 -0.0573  1.2804
 1606SOL    HW216455   1.065   0.632   6.366 -0.0695 -0.1082  0.1545
 1607SOL     OW16456   1.390   0.203   5.451  0.7365  0.8412 -0.1645
 1607SOL    HW116457   1.330   0.135   5.421  1.5740  0.2711 -0.5250
 1607SOL    HW216458   1.437   0.234   5.373 -0.1162  0.4317 -0.8472
 1608SOL     OW16459   0.832   4.698   2.849 -0.2241  0.1501  0.2339
 1608SOL    HW116460   0.753   0.001   2.887 -1.3255 -0.5733 -1.3026
 1608SOL    HW216461   0.853   0.037   2.793  1.5532 -1.7320 -1.6072
 1609SOL     OW16462   0.420   1.450   1.136  0.0760 -0.1060  0.1092
 1609SOL    HW116463   0.417   1.458   1.041  2.8791 -0.6968 -0.0480
 1609SOL    HW216464   0.512   1.428   1.153  0.1826 -0.4167 -0.8616
 1610SOL     OW16465   3.033   4.607   9.572 -0.0439 -0.3356 -0.1989
 1610SOL    HW116466   3.022   4.607   9.477 -1.6876 -3.0541  0.0075
 1610SOL    HW216467   3.072   4.523   9.597  1.5343  0.1606 -0.9904
 1611SOL     OW16468   2.899   1.671   3.506  0.2441 -0.0170 -0.0808
 1611SOL    HW116469   2.980   1.656   3.456 -0.3071 -0.3995 -0.8617
 1611SOL    HW216470   2.904   1.606   3.576 -0.7317 -0.3196 -0.2881
 1612SOL     OW16471   4.618   0.223  16.884 -0.3419  0.0338 -0.2634
 1612SOL    HW116472   4.548   0.164  16.854  0.0812  0.7490 -2.6847
 1612SOL    HW216473   4.675   0.232  16.807  0.0726 -0.3982 -0.0091
 1613SOL     OW16474   2.704   3.605   0.173  0.1835  0.3934 -0.0083
 1613SOL    HW116475   2.674   3.677   0.117 -1.7670 -0.4613 -0.0415
 1613SOL    HW216476   2.765   3.558   0.116  0.8325 -0.6443  1.5409
 1614SOL     OW16477   1.878   4.344   8.065 -0.4702  0.5597 -0.6449
 1614SOL    HW116478   1.883   4.315   7.974  1.2766 -0.1994 -0.2888
 1614SOL    HW216479   1.848   4.435   8.054 -0.8127  0.6275  0.9370
 1615SOL     OW16480   4.507   0.305   5.684 -0.4367  0.2031 -0.2070
 1615SOL    HW116481   4.524   0.358   5.606 -2.6649 -1.4547 -1.8111
 1615SOL    HW216482   4.470   0.226   5.645 -2.3036  0.3423  1.2732
 1616SOL     OW16483   0.712   1.314   9.577  0.6721  0.2223 -0.0740
 1616SOL    HW116484   0.716   1.405   9.603  3.1489 -0.6023  2.3231
 1616SOL    HW216485   0.804   1.294   9.564  0.3474 -2.4003  1.5798
 1617SOL     OW16486   3.758   2.970   2.720  0.0966 -0.3358 -0.4330
 1617SOL    HW116487   3.772   2.889   2.769  4.5279 -0.4281 -1.7723
 1617SOL    HW216488   3.667   2.997   2.728  0.1715  0.4995 -2.3470
 1618SOL     OW16489   3.793   2.403   2.679  0.3421 -0.3461 -0.0990
 1618SOL    HW116490   3.749   2.458   2.743  4.9630  1.4075  1.5911
 1618SOL    HW216491   3.780   2.314   2.711  0.1324 -0.7728 -1.3656
 1619SOL     OW16492   0.105   0.340   5.171  0.0289  0.1982 -0.1102
 1619SOL    HW116493   0.110   0.410   5.106  0.9437 -0.6856 -0.9855
 1619SOL    HW216494   0.124   0.387   5.252  1.8886 -1.4125  0.3706
 1620SOL     OW16495   4.469   3.003   2.296  0.4344  0.3734 -0.5095
 1620SOL    HW116496   4.524   3.080   2.280  0.7303  0.4106  0.6862
 1620SOL    HW216497   4.524   2.957   2.359 -1.7194  1.5482  2.1867
 1621SOL     OW16498   4.010   2.855  15.973 -0.4516  0.1367 -0.2314
 1621SOL    HW116499   3.951   2.780  15.984 -1.8417  0.7980 -3.1818
 1621SOL    HW216500   4.054   2.818  15.897 -0.4306  1.3638 -0.8092
 1622SOL     OW16501   2.267   3.982  13.009 -0.1040  0.0070 -0.1434
 1622SOL    HW116502   2.238   4.057  13.062  0.2100  1.2494 -1.7506
 1622SOL    HW216503   2.348   4.008  12.965 -0.4650 -1.4560 -1.6469
 1623SOL     OW16504   1.802   1.775   4.899  0.2311 -0.0169  0.2504
 1623SOL    HW116505   1.813   1.740   4.987 -0.6740  2.6755  1.4313
 1623SOL    HW216506   1.720   1.732   4.873 -0.1030 -1.1837  3.3086
 1624SOL     OW16507   1.461   4.229   3.729  0.4569 -0.3310 -0.5534
 1624SOL    HW116508   1.551   4.250   3.753  1.9659 -4.2250 -2.8106
 1624SOL    HW216509   1.478   4.149   3.679  2.2243 -0.6704  0.5977
 1625SOL     OW16510   3.024   4.128  15.465 -0.4149  0.0269 -0.0594
 1625SOL    HW116511   3.092   4.171  15.412 -0.4906  0.2470  0.0231
 1625SOL    HW216512   3.066   4.056  15.512 -1.3343  0.1459  0.9254
 1626SOL     OW16513   2.855   3.949   7.385 -0.1468 -0.2649 -0.0256
 1626SOL    HW116514   2.858   4.025   7.443 -3.2102  0.2175 -0.4785
 1626SOL    HW216515   2.948   3.925   7.380  0.2854  1.4690 -0.2942
 1627SOL     OW16516   0.238   3.257   2.178 -0.0160 -0.5183  0.3964
 1627SOL    HW116517   0.244   3.349   2.150 -0.9371 -0.1920  1.2767
 1627SOL    HW216518   0.183   3.259   2.256  0.7235  1.8363  0.8734
 1628SOL     OW16519   1.574   3.454   5.673 -0.3723  0.3387  0.0451
 1628SOL    HW116520   1.511   3.395   5.633  0.8997 -0.4365 -0.7833
 1628SOL    HW216521   1.603   3.505   5.598 -1.3327  0.4397 -0.2489
 1629SOL     OW16522   1.926   3.676   4.454  0.5103 -0.1242  0.3726
 1629SOL    HW116523   1.950   3.757   4.498 -2.2430  1.2935 -0.7995
 1629SOL    HW216524   1.920   3.703   4.362 -1.6388  1.3012  0.9301
 1630SOL     OW16525   4.155   1.786  12.187 -0.3908  0.1542 -0.1833
 1630SOL    HW116526   4.160   1.710  12.245 -2.8927 -0.7311 -1.1064
 1630SOL    HW216527   4.229   1.764  12.131 -0.7417  2.1286 -1.4108
 1631SOL     OW16528   2.843   4.725  14.884 -0.5638  0.5413 -0.5293
 1631SOL    HW116529   2.806   4.728  14.973  0.0307  0.2399 -0.2691
 1631SOL    HW216530   2.879   0.077  14.879 -0.5548  0.5705  0.0510
 1632SOL     OW16531   3.265   1.539   7.359 -0.3090  0.3459 -0.0558
 1632SOL    HW116532   3.178   1.513   7.327 -1.0391 -1.1832  3.1638
 1632SOL    HW216533   3.280   1.598   7.286 -2.5024  0.6383 -0.2819
 1633SOL     OW16534   4.481   3.280   4.277 -0.2945  0.2585 -0.6288
 1633SOL    HW116535   4.471   3.335   4.199  1.6956  1.1722 -0.2415
 1633SOL    HW216536   4.503   3.348   4.340 -0.4194  0.2803 -0.6090
 1634SOL     OW16537   3.023   4.311   4.601 -0.5647  0.1372 -0.3158
 1634SOL    HW116538   2.945   4.270   4.639  0.5413 -0.8189  0.8981
 1634SOL    HW216539   3.096   4.262   4.639 -0.5086 -1.0193 -1.8828
 1635SOL     OW16540   2.333   2.375   4.329 -0.1594  0.7717  0.1928
 1635SOL    HW116541   2.323   2.387   4.234 -2.8210  2.1619  0.6556
 1635SOL    HW216542   2.267   2.310   4.357 -2.8906  2.6131 -1.9142
 1636SOL     OW16543   4.163   2.236   7.965  0.2857  0.3936  0.0452
 1636SOL    HW116544   4.118   2.293   8.028  1.8605  1.4769  0.1905
 1636SOL    HW216545   4.151   2.268   7.876 -1.9848 -0.0086  0.2024
 1637SOL     OW16546   1.215   0.698   3.837 -0.1739  0.0624 -0.5366
 1637SOL    HW116547   1.141   0.680   3.896 -0.1324  0.5292 -0.3412
 1637SOL    HW216548   1.281   0.639   3.874 -0.3033 -0.4280 -1.0869
 1638SOL     OW16549   3.271   4.241   3.662 -0.1729 -0.0316  0.2272
 1638SOL    HW116550   3.232   4.176   3.721  0.1507  1.0717  1.6460
 1638SOL    HW216551   3.194   4.249   3.606  1.1256  0.5237 -1.5084
 1639SOL     OW16552   3.629   3.699   3.519  0.1155  0.3786 -0.2030
 1639SOL    HW116553   3.662   3.640   3.587  0.3680 -2.1407 -2.4964
 1639SOL    HW216554   3.587   3.755   3.583 -0.7496 -0.5093  0.0031
 1640SOL     OW16555   3.156   4.301   2.567  0.0409 -0.6749  0.2641
 1640SOL    HW116556   3.102   4.223   2.582 -2.4754  1.0226  0.2382
 1640SOL    HW216557   3.238   4.260   2.542 -1.1714 -1.2659 -2.6632
 1641SOL     OW16558   1.733   1.275   9.189  0.1824  0.7098  0.6844
 1641SOL    HW116559   1.708   1.214   9.120  1.8821  1.3966 -0.5443
 1641SOL    HW216560   1.823   1.242   9.195 -0.1794 -0.0951  1.7260
 1642SOL     OW16561   1.566   4.106   4.788 -0.3682  0.0473  0.3934
 1642SOL    HW116562   1.582   4.200   4.783  1.4305 -0.2290  1.0168
 1642SOL    HW216563   1.507   4.093   4.862 -1.5759 -0.0657 -0.5788
 1643SOL     OW16564   3.996   0.449   5.957 -0.2858 -0.4853 -0.3936
 1643SOL    HW116565   3.947   0.456   5.875  0.2735  1.0084 -0.6022
 1643SOL    HW216566   3.918   0.450   6.013 -0.4895 -1.1371 -0.6659
 1644SOL     OW16567   0.312   0.803   7.586  0.1635 -0.7585 -0.0646
 1644SOL    HW116568   0.245   0.845   7.640 -0.8769 -1.6607 -0.6542
 1644SOL    HW216569   0.375   0.771   7.651  0.9293  1.9399  0.5192
 1645SOL     OW16570   2.919   0.134   3.884 -0.6278  0.6220 -0.8615
 1645SOL    HW116571   2.966   0.070   3.831  0.9358  0.2080  1.0445
 1645SOL    HW216572   2.890   0.066   3.945  0.9085 -0.7381 -1.6627
 1646SOL     OW16573   2.896   0.074   9.712 -0.3122  0.1628 -0.5797
 1646SOL    HW116574   2.856   0.000   9.758  0.4451 -0.6221 -1.1878
 1646SOL    HW216575   2.951   0.023   9.652  0.7437 -0.3581  0.8351
 1647SOL     OW16576   4.674   4.420   2.084 -0.3161  0.0714 -0.1480
 1647SOL    HW116577   4.593   4.427   2.134 -0.6935  0.9190 -0.8783
 1647SOL    HW216578   4.690   4.328   2.106 -1.7476 -0.1167  0.0792
 1648SOL     OW16579   1.421   0.190   4.373 -0.1461 -0.2023  0.1512
 1648SOL    HW116580   1.452   0.277   4.399  0.8367 -0.4789 -0.0658
 1648SOL    HW216581   1.508   0.157   4.348 -1.5117 -3.2734 -0.4524
 1649SOL     OW16582   3.279   2.844  13.221  0.1293 -0.1755 -0.2208
 1649SOL    HW116583   3.187   2.855  13.245 -0.6770  1.2502 -3.9074
 1649SOL    HW216584   3.321   2.884  13.297  1.7730 -0.6341 -0.8837
 1650SOL     OW16585   1.412   4.459   8.397  0.1152  0.3769  0.2148
 1650SOL    HW116586   1.346   4.476   8.464 -1.1302 -0.7925 -0.7364
 1650SOL    HW216587   1.416   4.364   8.409  0.2147  0.3583  0.0341
 1651SOL     OW16588   0.471   3.404   6.304  0.0209 -0.0386  0.1824
 1651SOL    HW116589   0.561   3.432   6.320  0.5738 -1.4145 -0.4600
 1651SOL    HW216590   0.413   3.479   6.312 -0.5920 -0.3251 -1.4805
 1652SOL     OW16591   2.012   1.594  16.226 -0.5022 -0.1748 -0.1839
 1652SOL    HW116592   2.051   1.514  16.191  0.3426  0.2260 -0.1558
 1652SOL    HW216593   2.067   1.668  16.201 -0.9478  0.3150  0.2696
 1653SOL     OW16594   1.541   4.098   5.646 -0.5698 -0.0998 -0.2219
 1653SOL    HW116595   1.563   4.036   5.716  1.7224  2.3532  1.1958
 1653SOL    HW216596   1.519   4.040   5.573 -0.4150 -1.0378  0.4701
 1654SOL     OW16597   0.025   1.676   4.396  0.3113 -0.5235 -0.4164
 1654SOL    HW116598   0.048   1.653   4.306  0.5642  0.0580 -0.5012
 1654SOL    HW216599   4.728   1.765   4.384  0.7118 -0.3001  0.1545
 1655SOL     OW16600   3.544   3.582  17.087 -0.2502 -0.5735  0.2198
 1655SOL    HW116601   3.579   3.669  17.067  1.3897 -1.4202 -0.5917
 1655SOL    HW216602   3.453   3.579  17.058 -0.0086  1.5461 -0.7678
 1656SOL     OW16603   0.219   3.009   6.806  0.2945 -0.1875  0.0876
 1656SOL    HW116604   0.293   2.974   6.856 -1.3985  1.5169  3.8210
 1656SOL    HW216605   0.178   3.061   6.875  0.8212  1.8511 -1.1283
 1657SOL     OW16606   1.572   1.328  13.111 -0.8232  0.5427 -0.1675
 1657SOL    HW116607   1.540   1.242  13.140  0.2045 -0.5900 -2.3644
 1657SOL    HW216608   1.520   1.334  13.031 -1.2457  1.8635  0.2148
 1658SOL     OW16609   0.726   0.912  10.335 -0.0365  0.2276 -0.8495
 1658SOL    HW116610   0.722   1.008  10.331 -0.9081  0.1798 -1.0414
 1658SOL    HW216611   0.689   0.893  10.249 -0.2770 -2.9398 -0.0239
 1659SOL     OW16612   1.984   1.194   9.226  0.3596  0.2834 -0.2894
 1659SOL    HW116613   2.070   1.165   9.195  0.1362  0.2664 -0.8967
 1659SOL    HW216614   1.963   1.156   9.311  2.9278 -0.6571 -0.0869
 1660SOL     OW16615   2.036   4.626  13.198 -0.0668  0.2346  0.4332
 1660SOL    HW116616   1.998   4.713  13.193 -0.4083  0.0361 -0.4029
 1660SOL    HW216617   2.021   4.611  13.291 -0.1977  0.7305  0.4920
 1661SOL     OW16618   2.599   3.868   6.687 -0.3390 -0.0319 -0.2504
 1661SOL    HW116619   2.660   3.909   6.626  0.7155 -0.1267  0.7565
 1661SOL    HW216620   2.595   3.783   6.643 -1.3165 -0.0130 -0.2014
 1662SOL     OW16621   0.529   2.353   2.506  0.0203 -0.1265 -0.6305
 1662SOL    HW116622   0.592   2.328   2.438  0.1527  1.9622 -1.2670
 1662SOL    HW216623   0.556   2.444   2.520 -1.0017 -0.0437  0.7072
 1663SOL     OW16624   0.334   1.679   9.210 -0.0646 -0.4661  0.5398
 1663SOL    HW116625   0.312   1.684   9.303  0.4252 -3.2420  0.7904
 1663SOL    HW216626   0.429   1.685   9.216  0.0843 -2.1277 -0.1867
 1664SOL     OW16627   3.476   4.041   7.263  0.4898 -0.0870  0.0701
 1664SOL    HW116628   3.564   4.051   7.225 -0.1443  0.3954 -1.2618
 1664SOL    HW216629   3.436   3.967   7.217  3.9521 -1.9205 -0.0116
 1665SOL     OW16630   2.528   3.848  15.964  0.5296 -0.4130 -0.5968
 1665SOL    HW116631   2.503   3.940  15.955 -0.8021 -0.6058  0.9936
 1665SOL    HW216632   2.521   3.814  15.875 -1.0022 -0.1175 -0.5830
 1666SOL     OW16633   1.501   0.903   7.609 -0.6643 -0.0930  0.1598
 1666SOL    HW116634   1.520   0.858   7.526 -0.7339  1.0974 -0.5077
 1666SOL    HW216635   1.579   0.884   7.660  0.6586  5.3251  0.1668
 1667SOL     OW16636   2.570   4.608  14.073 -0.0373 -0.2493  0.1011
 1667SOL    HW116637   2.585   4.698  14.045 -0.0070 -0.5176 -0.7649
 1667SOL    HW216638   2.632   4.560  14.018  1.0426 -0.3649  1.4134
 1668SOL     OW16639   0.640   1.904   7.170 -0.5138  0.4821 -0.8641
 1668SOL    HW116640   0.634   1.976   7.232  1.0040 -0.5569  0.4814
 1668SOL    HW216641   0.725   1.867   7.194 -0.3151 -0.3776 -2.9160
 1669SOL     OW16642   1.293   0.917   9.184  0.1736 -0.4180 -0.3526
 1669SOL    HW116643   1.275   0.941   9.275  0.8945 -0.7962 -0.1030
 1669SOL    HW216644   1.284   0.823   9.199  2.5922 -0.9104 -1.9311
 1670SOL     OW16645   4.503   3.725   2.005 -0.4289 -0.0894 -0.3510
 1670SOL    HW116646   4.549   3.719   2.089 -0.2717 -5.1092 -0.7615
 1670SOL    HW216647   4.575   3.743   1.945  0.2308 -1.2206  0.0850
 1671SOL     OW16648   4.121   3.737   2.559 -0.0675 -0.1017  0.3242
 1671SOL    HW116649   4.204   3.690   2.567 -0.2539 -0.5609 -0.4351
 1671SOL    HW216650   4.142   3.799   2.489 -0.9017 -0.7495 -0.4996
 1672SOL     OW16651   1.904   1.582   2.058 -0.0685  0.4720 -0.8278
 1672SOL    HW116652   1.976   1.637   2.028 -0.7067  1.4520 -0.5689
 1672SOL    HW216653   1.875   1.629   2.137  0.3704 -0.1521 -0.2927
 1673SOL     OW16654   1.521   4.030   0.047 -0.1310 -0.2697  0.3190
 1673SOL    HW116655   1.528   3.945   0.091  2.3645 -0.9573 -1.3912
 1673SOL    HW216656   1.440   4.030  17.739 -0.8005 -0.4389  1.4011
 1674SOL     OW16657   3.963   3.425   2.661  0.1735  0.0830 -0.1072
 1674SOL    HW116658   3.955   3.501   2.604 -0.2748 -0.7492 -1.1497
 1674SOL    HW216659   3.923   3.350   2.616  2.3323 -0.8126 -0.5469
 1675SOL     OW16660   1.971   3.376   7.037 -0.3322  0.4921  0.2572
 1675SOL    HW116661   1.945   3.454   7.086 -1.1981  0.0315  0.5241
 1675SOL    HW216662   2.055   3.407   7.002 -0.5921  1.9836  0.9595
 1676SOL     OW16663   1.789   3.946  12.701 -0.1297  0.1148  0.2935
 1676SOL    HW116664   1.841   4.024  12.682 -0.6150  0.8919  2.1400
 1676SOL    HW216665   1.856   3.891  12.742 -0.3571 -1.8367 -2.0051
 1677SOL     OW16666   3.866   1.691   7.112 -0.4165  0.8361 -0.1952
 1677SOL    HW116667   3.825   1.731   7.035  1.2874  0.0848 -1.4769
 1677SOL    HW216668   3.945   1.656   7.070 -1.2611  0.6790 -1.6591
 1678SOL     OW16669   0.387   2.481   9.608  0.1928 -0.9414 -0.5150
 1678SOL    HW116670   0.446   2.456   9.537  1.1581  1.2072 -0.4756
 1678SOL    HW216671   0.305   2.457   9.564 -0.1870 -0.8114  0.1290
 1679SOL     OW16672   2.519   2.068   0.920 -0.3755 -0.2977 -0.2545
 1679SOL    HW116673   2.575   1.991   0.909  0.3633 -0.2235  2.7584
 1679SOL    HW216674   2.507   2.111   0.836 -3.4475  0.2732  0.4432
 1680SOL     OW16675   0.016   2.360  11.511  0.1380  0.1221  0.7526
 1680SOL    HW116676   0.024   2.284  11.568 -0.7594 -1.0820 -0.7342
 1680SOL    HW216677   0.073   2.429  11.546 -0.5029  2.0368 -2.0017
 1681SOL     OW16678   4.451   2.823   6.928  0.3149  0.4106 -0.1954
 1681SOL    HW116679   4.365   2.788   6.952  0.3757 -0.8768 -1.8344
 1681SOL    HW216680   4.473   2.772   6.850 -0.2027  0.4795 -0.3854
 1682SOL     OW16681   2.299   0.817   4.357  0.1155  0.2386  0.1827
 1682SOL    HW116682   2.338   0.898   4.325  4.2612 -2.5000 -1.7942
 1682SOL    HW216683   2.381   0.768   4.346 -1.9199 -2.6795 -1.9869
 1683SOL     OW16684   3.112   3.476  11.660 -0.4677  0.0892 -0.3071
 1683SOL    HW116685   3.191   3.518  11.694 -0.5873  1.1355 -1.3246
 1683SOL    HW216686   3.115   3.515  11.573 -0.1075 -2.6463 -1.5164
 1684SOL     OW16687   3.316   3.494   4.060  0.6280 -0.3858 -0.1870
 1684SOL    HW116688   3.329   3.402   4.037  1.9670 -0.5277  1.1418
 1684SOL    HW216689   3.223   3.506   4.080 -0.0216 -1.7468 -2.3036
 1685SOL     OW16690   1.230   0.207   1.246 -0.6542  0.1486 -0.1448
 1685SOL    HW116691   1.281   0.126   1.249 -0.8918  0.0280  0.6895
 1685SOL    HW216692   1.299   0.273   1.239  0.1193 -0.7215 -0.8260
 1686SOL     OW16693   2.612   3.933   2.796  0.4179 -0.0239 -0.2553
 1686SOL    HW116694   2.649   3.979   2.871  1.6624  0.5240 -1.1989
 1686SOL    HW216695   2.595   4.005   2.734  0.3256  0.5118  0.3932
 1687SOL     OW16696   2.247   2.564   6.504  0.3743  0.4542 -0.8031
 1687SOL    HW116697   2.243   2.472   6.530 -1.0144  1.0597  1.1327
 1687SOL    HW216698   2.153   2.575   6.518  0.7909  3.0456 -0.0983
 1688SOL     OW16699   3.599   1.993   0.559  0.0090 -0.0669 -0.0214
 1688SOL    HW116700   3.595   2.077   0.514 -0.7171 -0.7769 -1.2714
 1688SOL    HW216701   3.580   1.926   0.494 -2.6560  0.3951  0.2908
 1689SOL     OW16702   4.625   1.037   9.305 -0.0086 -0.1588  0.3183
 1689SOL    HW116703   4.664   0.951   9.292 -2.1412 -1.0784  0.0310
 1689SOL    HW216704   4.642   1.057   9.397  1.5101  1.6856 -0.3445
 1690SOL     OW16705   0.559   0.700  15.588  0.0165  0.3368 -0.0633
 1690SOL    HW116706   0.627   0.729  15.527 -0.6238  1.1364 -0.3875
 1690SOL    HW216707   0.564   0.763  15.660  2.6967 -0.8211  0.7511
 1691SOL     OW16708   3.362   3.681   7.992  0.2244 -0.3652 -0.5514
 1691SOL    HW116709   3.423   3.611   8.017 -1.2940 -0.9243  1.5909
 1691SOL    HW216710   3.281   3.630   8.002  0.0509 -0.2711 -1.5186
 1692SOL     OW16711   3.702   3.498   4.440 -0.2452  0.1612 -0.1402
 1692SOL    HW116712   3.641   3.502   4.367 -0.4124 -1.2482 -0.0771
 1692SOL    HW216713   3.786   3.482   4.396 -1.7650 -1.3016 -2.5120
 1693SOL     OW16714   3.860   2.209  15.793  0.1895 -0.8038 -1.0045
 1693SOL    HW116715   3.898   2.205  15.705  3.4033  0.0854  0.3215
 1693SOL    HW216716   3.892   2.297  15.816 -0.0465 -0.3935 -2.2512
 1694SOL     OW16717   1.066   2.156   7.792 -0.1441  0.1837  0.4129
 1694SOL    HW116718   0.998   2.175   7.726  0.1436 -1.9863 -0.5042
 1694SOL    HW216719   1.099   2.070   7.764  1.3619  1.4214 -1.6159
 1695SOL     OW16720   0.873   1.999  11.705  0.1464  0.2747 -0.1421
 1695SOL    HW116721   0.846   2.003  11.797 -0.3506 -0.5221 -0.2575
 1695SOL    HW216722   0.914   2.084  11.688  0.1803  0.2001 -0.4367
 1696SOL     OW16723   0.912   3.640   9.444  0.8295 -0.0386 -0.0863
 1696SOL    HW116724   0.849   3.643   9.373  1.2106 -1.3065 -0.4802
 1696SOL    HW216725   0.851   3.604   9.508  1.8028  1.5843  1.8117
 1697SOL     OW16726   0.907   1.767  14.774  0.3454  0.5871 -0.1721
 1697SOL    HW116727   0.879   1.685  14.817  1.8376  0.2512  0.1824
 1697SOL    HW216728   1.002   1.762  14.788  0.2076  3.7494  1.7762
 1698SOL     OW16729   3.481   3.889   0.037  0.3229 -0.1731 -0.1483
 1698SOL    HW116730   3.543   3.817   0.048 -0.9917 -1.3055 -0.2242
 1698SOL    HW216731   3.490   3.935   0.121  0.0411  2.0117 -1.2946
 1699SOL     OW16732   4.521   4.193   8.665 -0.3591  0.2802  0.0683
 1699SOL    HW116733   4.462   4.244   8.608 -0.3992  0.3938  0.2108
 1699SOL    HW216734   4.466   4.201   8.743 -0.5116 -0.2726  0.0128
 1700SOL     OW16735   0.767   3.122   2.515 -0.3815  0.1966 -0.1479
 1700SOL    HW116736   0.749   3.213   2.539 -0.3686 -0.0086  0.6422
 1700SOL    HW216737   0.721   3.088   2.592  1.6922 -0.5216  0.7670
 1701SOL     OW16738   3.887   4.383   8.644 -0.8448 -0.2753  0.4377
 1701SOL    HW116739   3.925   4.386   8.556 -1.6500  2.2585  0.1798
 1701SOL    HW216740   3.975   4.383   8.681 -0.2583 -1.1085 -0.9388
 1702SOL     OW16741   2.626   0.696  16.345  0.2503 -0.0213 -0.8350
 1702SOL    HW116742   2.582   0.774  16.313  0.5479 -0.0416 -1.2865
 1702SOL    HW216743   2.582   0.628  16.293  2.7220 -1.8360 -0.5905
 1703SOL     OW16744   2.215   3.598   8.264  0.4185 -0.2142 -0.1827
 1703SOL    HW116745   2.206   3.542   8.341 -0.9652 -2.3711 -1.9503
 1703SOL    HW216746   2.140   3.655   8.275  0.4670 -0.4036  1.0884
 1704SOL     OW16747   2.116   0.011   8.068  0.3381  0.0018  0.2024
 1704SOL    HW116748   2.030   4.706   8.058  0.0596  0.8490 -0.8386
 1704SOL    HW216749   2.124   0.070   7.993 -2.7216 -2.1518 -1.8166
 1705SOL     OW16750   1.579   1.883   8.747 -0.5832  0.0996 -0.0573
 1705SOL    HW116751   1.666   1.857   8.777  0.1564  0.9912 -1.5026
 1705SOL    HW216752   1.585   1.892   8.652 -1.9160 -0.2821 -0.1738
 1706SOL     OW16753   0.982   0.491  14.488  0.1891 -0.1506 -0.2455
 1706SOL    HW116754   1.056   0.493  14.550 -0.9803 -0.4682  1.1511
 1706SOL    HW216755   0.907   0.513  14.544  0.0274  1.2393 -1.0022
 1707SOL     OW16756   3.378   0.826   3.174  0.0398 -0.1612  0.2810
 1707SOL    HW116757   3.303   0.798   3.227 -0.3213 -0.1699 -0.2397
 1707SOL    HW216758   3.451   0.789   3.223 -1.1491 -2.1522  0.5329
 1708SOL     OW16759   4.066   0.822  16.802  0.7107 -0.7709 -0.0142
 1708SOL    HW116760   4.108   0.893  16.852 -1.1706 -0.5447  1.2320
 1708SOL    HW216761   3.982   0.864  16.785  0.3727 -1.2414  0.5184
 1709SOL     OW16762   0.127   1.980   2.816  0.0554 -0.1282  0.0104
 1709SOL    HW116763   0.127   2.062   2.766  2.4645  0.2492  0.6044
 1709SOL    HW216764   0.060   1.926   2.775 -0.5928  0.2896  0.5219
 1710SOL     OW16765   1.496   3.786   0.198  0.2465  0.0573 -0.1586
 1710SOL    HW116766   1.409   3.785   0.240  0.1285  0.5174 -0.3860
 1710SOL    HW216767   1.544   3.796   0.280  0.5059  0.7049 -0.3918
 1711SOL     OW16768   4.239   4.723  10.063 -0.2015  0.7306  1.0823
 1711SOL    HW116769   4.198   4.657  10.119  1.5043 -1.8054 -0.6599
 1711SOL    HW216770   4.215   0.063  10.116 -2.0771  0.2069  1.0059
 1712SOL     OW16771   2.080   1.152   6.461  0.1574 -0.3061 -0.0601
 1712SOL    HW116772   1.985   1.157   6.471  0.3317  1.7230  0.4512
 1712SOL    HW216773   2.103   1.064   6.493  0.6968 -0.4332 -0.8117
 1713SOL     OW16774   3.790   1.469   2.760  0.2609  0.2913  0.0447
 1713SOL    HW116775   3.817   1.419   2.837 -0.0208 -0.3926 -0.2961
 1713SOL    HW216776   3.695   1.483   2.768  0.0667 -0.2764 -1.1769
 1714SOL     OW16777   0.153   3.802  17.261 -0.4404 -0.5906 -0.1570
 1714SOL    HW116778   0.179   3.729  17.204  1.5840 -0.1081  0.1611
 1714SOL    HW216779   0.104   3.853  17.196  1.4960  3.1065  1.3403
 1715SOL     OW16780   1.751   3.042   3.601  0.5878  0.0392  0.4789
 1715SOL    HW116781   1.669   2.992   3.595  0.5931 -0.0615  1.2006
 1715SOL    HW216782   1.729   3.135   3.606  0.1291 -0.1230  1.5159
 1716SOL     OW16783   1.009   4.643   8.355 -0.0800  0.3732  0.2844
 1716SOL    HW116784   0.955   4.712   8.317  0.2957  0.6212  0.2022
 1716SOL    HW216785   1.074   4.615   8.291  1.7090  0.7487  1.9162
 1717SOL     OW16786   0.866   2.594   3.715 -0.4232  0.4446 -0.3439
 1717SOL    HW116787   0.818   2.512   3.722 -1.4179  1.2211  1.9898
 1717SOL    HW216788   0.919   2.581   3.637  1.8563  3.2866  0.7315
 1718SOL     OW16789   4.595   4.434   2.720  0.1316  0.3789 -0.3996
 1718SOL    HW116790   4.558   4.502   2.776 -1.2508  0.1040 -0.9909
 1718SOL    HW216791   4.524   4.370   2.729 -0.2603  1.0931  1.4701
 1719SOL     OW16792   4.327   0.742   7.149 -0.3493 -0.4355  0.9209
 1719SOL    HW116793   4.328   0.833   7.178 -1.5694 -0.2566  0.3908
 1719SOL    HW216794   4.408   0.723   7.196  0.4073  2.6981  0.8806
 1720SOL     OW16795   2.894   3.491   5.900  0.0542 -0.4177  0.0168
 1720SOL    HW116796   2.976   3.442   5.897 -1.3006 -2.5472 -1.8377
 1720SOL    HW216797   2.847   3.417   5.939  1.2101 -0.9762  0.3372
 1721SOL     OW16798   1.578   3.631   5.891 -0.0764  0.1655 -0.4398
 1721SOL    HW116799   1.600   3.567   5.824  0.0845  1.5573 -1.7372
 1721SOL    HW216800   1.600   3.586   5.972  1.4032  0.0428 -0.9028
 1722SOL     OW16801   1.587   4.521   6.234  0.7226  0.4207 -0.7666
 1722SOL    HW116802   1.578   4.597   6.177 -0.7757  0.5086 -0.4033
 1722SOL    HW216803   1.654   4.549   6.296 -0.4028  0.1595  0.5710
 1723SOL     OW16804   2.471   2.972  10.483  0.5773  0.0122 -0.5677
 1723SOL    HW116805   2.471   3.023  10.564 -1.3471 -1.7489  0.5515
 1723SOL    HW216806   2.376   2.974  10.478  0.4902  0.6466  1.3503
 1724SOL     OW16807   0.091   2.236   8.124 -0.4252 -0.3309  0.2016
 1724SOL    HW116808   0.071   2.169   8.058 -2.9919 -1.3660  2.0431
 1724SOL    HW216809   4.734   2.243   8.148 -0.5495  0.2228 -0.4169
 1725SOL     OW16810   2.721   1.868   3.656 -0.4875  0.0432 -0.2120
 1725SOL    HW116811   2.782   1.802   3.624 -1.3738  0.0187 -1.8561
 1725SOL    HW216812   2.771   1.938   3.697 -0.5916 -1.3290  2.2725
 1726SOL     OW16813   2.290   1.845   6.449  0.2413 -0.1643  0.0762
 1726SOL    HW116814   2.365   1.785   6.454  1.1111  0.8789 -0.2793
 1726SOL    HW216815   2.240   1.821   6.526  0.8646  2.0109  1.1343
 1727SOL     OW16816   4.078   0.483   4.738 -0.4467  0.3458  0.2860
 1727SOL    HW116817   3.991   0.442   4.746 -0.6477  0.7683  0.2671
 1727SOL    HW216818   4.064   0.566   4.693 -0.7463  0.2245  0.1466
 1728SOL     OW16819   4.584   0.293   6.376  0.5738 -0.5498  0.2463
 1728SOL    HW116820   4.501   0.311   6.333  0.5618 -0.4612  0.3044
 1728SOL    HW216821   4.635   0.374   6.370 -1.7632  0.9006 -0.0587
 1729SOL     OW16822   0.976   2.899   3.211  0.9021  0.0667 -0.7848
 1729SOL    HW116823   1.023   2.980   3.195 -0.6548  1.7876  3.3109
 1729SOL    HW216824   0.926   2.910   3.292 -0.3012  0.5014 -1.5875
 1730SOL     OW16825   2.577   4.449   2.403  0.0240  0.0492  0.1346
 1730SOL    HW116826   2.615   4.373   2.446 -2.5754  0.5311  3.2423
 1730SOL    HW216827   2.642   4.516   2.426  0.4918 -0.9594  1.7691
 1731SOL     OW16828   1.697   1.440   4.805 -0.1151 -0.5310  0.0176
 1731SOL    HW116829   1.788   1.419   4.783  0.0626  1.3554 -1.0555
 1731SOL    HW216830   1.655   1.442   4.720  0.7706  2.1075 -0.3652
 1732SOL     OW16831   1.961   3.206   8.271 -0.5931  0.2207  0.7141
 1732SOL    HW116832   1.980   3.178   8.182 -1.6863 -0.7945  0.7904
 1732SOL    HW216833   1.921   3.292   8.263 -0.2052  0.5394  2.1872
 1733SOL     OW16834   2.132   2.339   4.593 -0.2279 -1.1048  0.2093
 1733SOL    HW116835   2.145   2.257   4.545 -0.9925 -1.1722  0.1160
 1733SOL    HW216836   2.037   2.345   4.602 -0.1803  0.7077 -0.4053
 1734SOL     OW16837   4.240   4.592   6.756  0.0521  0.0784  0.2977
 1734SOL    HW116838   4.214   4.502   6.733 -0.1330 -0.4480  2.4941
 1734SOL    HW216839   4.206   4.608   6.844  1.1950 -0.4611  0.8341
 1735SOL     OW16840   1.650   3.148   1.125 -0.7620 -0.4445  0.2156
 1735SOL    HW116841   1.627   3.101   1.205  1.4066  1.6693  2.0958
 1735SOL    HW216842   1.740   3.121   1.105 -0.6856 -0.2150  0.2471
 1736SOL     OW16843   4.403   0.804   1.890  0.1958 -0.0566 -0.4502
 1736SOL    HW116844   4.388   0.866   1.819  1.4034 -1.0212 -1.5638
 1736SOL    HW216845   4.345   0.845   1.955  0.9358 -2.3732  1.6892
 1737SOL     OW16846   2.676   3.766   2.083 -0.0418 -0.3737 -0.6755
 1737SOL    HW116847   2.700   3.825   2.011 -0.3997  0.3681 -0.1932
 1737SOL    HW216848   2.736   3.789   2.154 -0.2951 -0.8062 -0.3178
 1738SOL     OW16849   1.563   4.600   8.895 -0.0177  0.0255  0.5474
 1738SOL    HW116850   1.546   4.690   8.921 -1.3374 -0.0349 -0.1362
 1738SOL    HW216851   1.583   4.552   8.976  1.1215  0.8123  0.7416
 1739SOL     OW16852   2.282   2.493  12.435 -0.2311 -0.0372 -0.2079
 1739SOL    HW116853   2.260   2.452  12.518 -2.1603  3.8146  1.1858
 1739SOL    HW216854   2.376   2.493  12.455  0.1697 -2.4417 -2.0880
 1740SOL     OW16855   1.059   3.644   8.732  0.1908  0.0377 -0.1175
 1740SOL    HW116856   1.029   3.665   8.820 -1.3439  0.5634 -0.7641
 1740SOL    HW216857   1.119   3.572   8.751 -0.3195  0.1537  1.9725
 1741SOL     OW16858   0.849   0.851  10.059 -0.1740  0.0368 -0.0289
 1741SOL    HW116859   0.899   0.897   9.992 -0.3212 -0.4854 -0.4922
 1741SOL    HW216860   0.875   0.761  10.038 -1.5838  0.1640 -2.2362
 1742SOL     OW16861   2.143   1.994   9.534 -0.4584  0.1581  0.3093
 1742SOL    HW116862   2.158   1.910   9.490 -0.7539  1.2706 -1.9436
 1742SOL    HW216863   2.187   1.979   9.617  0.3380  1.4534  0.1348
 1743SOL     OW16864   1.897   3.748   3.582  0.2345 -0.4804  0.0338
 1743SOL    HW116865   1.956   3.719   3.651  1.6303 -1.1521 -1.4344
 1743SOL    HW216866   1.954   3.728   3.507  0.0926  1.4223 -0.5915
 1744SOL     OW16867   2.455   1.520  17.153 -0.2067 -0.1827  0.0399
 1744SOL    HW116868   2.487   1.431  17.164  2.4883  0.9592  1.4176
 1744SOL    HW216869   2.486   1.564  17.232  3.2973 -0.1778 -1.3381
 1745SOL     OW16870   3.000   1.694   5.992  0.1455 -0.6748  0.1467
 1745SOL    HW116871   3.003   1.600   5.971 -0.9670 -0.6025 -0.3037
 1745SOL    HW216872   3.088   1.704   6.028 -0.6101  3.5095  0.7791
 1746SOL     OW16873   0.202   4.663   4.693  0.6056 -0.3285  0.9371
 1746SOL    HW116874   0.267   4.614   4.744 -0.9974 -2.3728  1.0020
 1746SOL    HW216875   0.251   4.663   4.611 -1.1419  2.2539 -0.1264
 1747SOL     OW16876   1.501   2.307   8.306 -0.1213 -0.3386  0.0525
 1747SOL    HW116877   1.528   2.322   8.396  4.9211  0.0825 -1.5264
 1747SOL    HW216878   1.414   2.346   8.295  0.1169  0.7749  2.2174
 1748SOL     OW16879   1.027   2.857   9.065 -0.4011 -0.1830 -0.2612
 1748SOL    HW116880   0.948   2.865   9.117  0.6046  0.2676  1.1964
 1748SOL    HW216881   1.075   2.793   9.117 -0.0241 -0.4557 -0.9322
 1749SOL     OW16882   1.793   0.275  11.031 -0.2621 -0.1834 -0.1995
 1749SOL    HW116883   1.868   0.292  10.974  0.4534 -0.6409  0.6160
 1749SOL    HW216884   1.789   0.179  11.032  0.5014 -0.1740  2.0119
 1750SOL     OW16885   2.550   2.180  12.153 -0.0449 -0.9704  0.0071
 1750SOL    HW116886   2.498   2.109  12.115 -3.2788  0.5400  1.5489
 1750SOL    HW216887   2.516   2.180  12.243  0.0199  1.0097  0.0271
 1751SOL     OW16888   2.280   2.694   9.798 -0.1936  0.9176  0.1301
 1751SOL    HW116889   2.362   2.668   9.756 -0.2661  0.3875  0.3128
 1751SOL    HW216890   2.223   2.721   9.727 -0.2788  0.2578 -0.0469
 1752SOL     OW16891   1.504   3.450   0.806 -0.4437  0.6554  0.6611
 1752SOL    HW116892   1.449   3.516   0.848 -2.4918 -0.3172 -0.4836
 1752SOL    HW216893   1.436   3.397   0.764 -0.6663  2.0345 -0.7496
 1753SOL     OW16894   2.404   0.588   1.449  0.0895 -0.2167 -0.4685
 1753SOL    HW116895   2.445   0.654   1.393  1.3919 -1.2081 -0.6758
 1753SOL    HW216896   2.372   0.529   1.381 -1.2417 -0.5171  0.4220
 1754SOL     OW16897   1.708   2.542   3.229  0.6796  0.0897 -0.6706
 1754SOL    HW116898   1.764   2.596   3.172 -0.9816  0.7844 -1.6502
 1754SOL    HW216899   1.628   2.536   3.178  0.0801  0.3063  0.2515
 1755SOL     OW16900   1.592   1.073   6.636  0.3973  0.0916 -0.7373
 1755SOL    HW116901   1.527   1.020   6.683  2.2778 -0.6121  1.0973
 1755SOL    HW216902   1.681   1.049   6.663 -0.1119  0.2565  1.1312
 1756SOL     OW16903   4.638   3.840   3.212 -0.7129 -0.2649  0.0379
 1756SOL    HW116904   4.598   3.909   3.265 -0.4712 -1.6036  1.9823
 1756SOL    HW216905   4.687   3.785   3.274 -1.4547 -1.5058 -0.4852
 1757SOL     OW16906   3.132   4.681   7.124  0.1881 -0.0635  0.0500
 1757SOL    HW116907   3.130   4.594   7.164 -1.8232  1.0048  2.2350
 1757SOL    HW216908   3.223   4.684   7.094  0.9932 -1.5119  2.2966
 1758SOL     OW16909   2.417   1.365  14.612  0.1041  0.7251 -0.0242
 1758SOL    HW116910   2.480   1.437  14.612  0.5211  0.3672 -1.5149
 1758SOL    HW216911   2.462   1.312  14.678 -1.0255  1.3205  1.2145
 1759SOL     OW16912   3.764   0.600  13.763 -0.1080 -0.7844 -0.1747
 1759SOL    HW116913   3.788   0.571  13.851  0.0820  0.9667  0.3322
 1759SOL    HW216914   3.813   0.539  13.707 -0.8055 -1.1263 -0.4130
 1760SOL     OW16915   1.122   3.162   4.354 -0.1819 -0.3245  0.7233
 1760SOL    HW116916   1.069   3.235   4.384  2.0819  0.7670  2.1284
 1760SOL    HW216917   1.166   3.207   4.282  0.5678 -3.2003 -0.6402
 1761SOL     OW16918   4.251   2.888   2.183  0.2005 -0.1537  0.1776
 1761SOL    HW116919   4.334   2.918   2.219  0.2007 -0.5249  0.4885
 1761SOL    HW216920   4.245   2.806   2.233  0.2283  1.3083  2.5601
 1762SOL     OW16921   4.398   0.721   3.229  0.3405  0.4234  0.0233
 1762SOL    HW116922   4.494   0.724   3.234  0.3543  2.1647 -1.3445
 1762SOL    HW216923   4.391   0.752   3.139  0.2019  0.0475 -0.0928
 1763SOL     OW16924   3.782   0.765  12.380  0.4513 -0.0218 -0.2140
 1763SOL    HW116925   3.855   0.748  12.321  2.1947  2.1290  1.2998
 1763SOL    HW216926   3.720   0.699  12.351  2.2215 -1.3007 -1.0900
 1764SOL     OW16927   2.788   1.480   7.781  0.0649  0.2349 -0.7475
 1764SOL    HW116928   2.738   1.548   7.828 -3.2094 -1.5921 -1.5881
 1764SOL    HW216929   2.760   1.400   7.825 -2.7088  1.1860 -0.7293
 1765SOL     OW16930   4.413   1.897   4.680 -0.4869 -0.4315 -0.0737
 1765SOL    HW116931   4.450   1.985   4.687 -1.3272  0.0824 -1.9017
 1765SOL    HW216932   4.471   1.835   4.725 -0.4479 -0.4269 -0.1175
 1766SOL     OW16933   4.220   0.255   8.518  0.0318 -0.7214 -0.4146
 1766SOL    HW116934   4.275   0.293   8.587 -0.1211  0.6151 -1.0123
 1766SOL    HW216935   4.135   0.269   8.560  0.2135  0.0482 -0.2972
 1767SOL     OW16936   0.633   3.038  15.211 -0.6421 -0.3995  0.3439
 1767SOL    HW116937   0.559   3.096  15.197 -0.7262 -0.4980  0.3823
 1767SOL    HW216938   0.647   3.057  15.304 -1.1962  0.1472  0.3110
 1768SOL     OW16939   1.102   4.091   9.796  0.4672  0.3721 -0.0476
 1768SOL    HW116940   1.113   3.996   9.800  1.9419  0.5337 -0.5986
 1768SOL    HW216941   1.007   4.103   9.790  0.3076 -0.7942  0.3041
 1769SOL     OW16942   0.924   3.095   5.381  0.8659  0.5608  0.6199
 1769SOL    HW116943   0.884   3.182   5.387  1.7180  0.7861  3.0983
 1769SOL    HW216944   0.952   3.110   5.291 -1.7822 -1.5265 -0.5221
 1770SOL     OW16945   2.624   3.168   7.207  0.1480  0.8194  0.2553
 1770SOL    HW116946   2.650   3.254   7.173  0.3037  0.2777 -1.0122
 1770SOL    HW216947   2.569   3.192   7.281 -1.0553 -0.6054 -0.1974
 1771SOL     OW16948   3.176   0.417  10.341 -0.3358 -0.2435 -0.3392
 1771SOL    HW116949   3.113   0.387  10.275  1.9262 -0.0412 -2.5605
 1771SOL    HW216950   3.150   0.509  10.347 -3.6751 -1.2098  0.2618
 1772SOL     OW16951   1.249   4.133   8.800  0.1462  0.9850  0.1870
 1772SOL    HW116952   1.260   4.086   8.717  0.1696  0.6690  0.3686
 1772SOL    HW216953   1.261   4.064   8.865 -1.3301  0.8264  0.2900
 1773SOL     OW16954   2.421   0.856   5.999 -0.3041  0.2615  0.0913
 1773SOL    HW116955   2.447   0.845   5.907  0.2189 -1.3247  0.4190
 1773SOL    HW216956   2.358   0.927   6.003  0.4933  1.0624 -1.4830
 1774SOL     OW16957   0.445   2.944   2.437 -0.2999 -0.3338  0.3201
 1774SOL    HW116958   0.497   2.883   2.490  2.2949  0.4016 -1.3783
 1774SOL    HW216959   0.508   2.986   2.379  0.5788 -0.0645  1.4627
 1775SOL     OW16960   1.460   1.575   4.951 -0.3621 -0.1279 -0.1337
 1775SOL    HW116961   1.442   1.653   4.898  0.1841  0.3398  0.3613
 1775SOL    HW216962   1.538   1.551   4.902 -0.0762 -0.6104  0.5526
 1776SOL     OW16963   0.680   3.881   7.370 -0.4167  0.0914 -0.7724
 1776SOL    HW116964   0.617   3.943   7.407 -0.8468 -1.0993  0.4754
 1776SOL    HW216965   0.658   3.808   7.428  1.8578 -0.2313 -0.3187
 1777SOL     OW16966   3.008   1.228  16.520  0.4956 -0.3834 -0.7421
 1777SOL    HW116967   3.101   1.229  16.541 -0.2065 -0.2897  2.4181
 1777SOL    HW216968   3.012   1.175  16.441  1.5181 -1.6965  0.1937
 1778SOL     OW16969   3.174   4.057   5.124 -0.2303  0.3239  0.0390
 1778SOL    HW116970   3.260   4.027   5.152 -0.1657 -0.9993 -1.5713
 1778SOL    HW216971   3.166   3.991   5.056 -1.8291 -0.1328  0.6771
 1779SOL     OW16972   2.848   0.285  16.701  0.6092  0.3867  0.3089
 1779SOL    HW116973   2.779   0.317  16.643 -0.3979 -0.4629  1.0510
 1779SOL    HW216974   2.931   0.298  16.655  0.9273  2.5730  1.5359
 1780SOL     OW16975   2.179   4.603   0.213 -0.4125  0.0197  0.2474
 1780SOL    HW116976   2.196   4.531   0.151 -0.1830 -1.5193  2.1039
 1780SOL    HW216977   2.234   4.667   0.168  1.1979 -1.3013  0.3492
 1781SOL     OW16978   0.141   3.948  16.664 -0.3931  0.3421  0.3802
 1781SOL    HW116979   0.083   3.915  16.595 -0.4417  1.8586 -0.3202
 1781SOL    HW216980   0.083   3.987  16.729 -0.2278 -0.8634  1.2502
 1782SOL     OW16981   2.591   2.518   7.034 -0.3721  0.4758  0.0963
 1782SOL    HW116982   2.685   2.507   7.016 -0.0748  1.0856  1.2391
 1782SOL    HW216983   2.595   2.585   7.103 -0.5025  2.1974 -1.5873
 1783SOL     OW16984   4.651   0.485  13.514 -0.0412  0.1674 -0.1346
 1783SOL    HW116985   4.729   0.529  13.479  0.6061  0.3995  1.6129
 1783SOL    HW216986   4.648   0.506  13.608 -0.0500  0.2901 -0.1620
 1784SOL     OW16987   1.230   2.404   5.948  0.2200  0.0987  0.1514
 1784SOL    HW116988   1.201   2.479   5.896 -2.7703 -0.8509  0.4521
 1784SOL    HW216989   1.180   2.332   5.909 -0.3836  0.6795 -0.1483
 1785SOL     OW16990   2.452   1.396  13.958 -0.1799 -0.1492 -0.4926
 1785SOL    HW116991   2.383   1.398  13.891  1.2041 -1.2008 -1.9496
 1785SOL    HW216992   2.526   1.441  13.915 -1.0123  0.4241 -1.3240
 1786SOL     OW16993   3.006   2.743   5.893  0.5237  0.4515  0.1502
 1786SOL    HW116994   3.055   2.812   5.939  2.3924 -0.6634 -0.1875
 1786SOL    HW216995   2.931   2.735   5.951 -1.2606 -1.3956 -2.4664
 1787SOL     OW16996   4.186   0.058  17.488 -0.1219 -0.4046 -0.4590
 1787SOL    HW116997   4.227   0.053  17.402  0.2166  0.0787 -0.3305
 1787SOL    HW216998   4.104   0.013  17.470  0.2373 -2.0340  2.0086
 1788SOL     OW16999   0.288   0.738   6.821 -0.3713  0.3255  0.1614
 1788SOL    HW117000   0.330   0.760   6.904  0.3261  3.0782 -0.9198
 1788SOL    HW217001   0.216   0.800   6.834  1.3862  2.0443  1.7472
 1789SOL     OW17002   3.624   0.333   7.423 -0.2556  0.2940  0.0587
 1789SOL    HW117003   3.657   0.337   7.513  0.3003  1.2463 -0.1869
 1789SOL    HW217004   3.665   0.249   7.399  0.8816  0.1790  2.3067
 1790SOL     OW17005   4.045   0.234   4.431  0.0694 -0.2265 -0.3336
 1790SOL    HW117006   4.129   0.277   4.449  0.2324 -0.1999 -1.1596
 1790SOL    HW217007   4.013   0.292   4.362  1.7717 -0.8701 -1.6573
 1791SOL     OW17008   2.263   2.563   7.785 -0.0516  0.2347  0.0706
 1791SOL    HW117009   2.279   2.472   7.809 -3.3169 -0.5612 -0.7194
 1791SOL    HW217010   2.183   2.559   7.732  1.3348  1.3018 -2.1415
 1792SOL     OW17011   2.869   1.438   7.527 -0.1654 -0.1136  0.2285
 1792SOL    HW117012   2.777   1.443   7.501  0.1285 -0.4505 -0.8295
 1792SOL    HW217013   2.856   1.459   7.620  0.9239 -1.2011  0.6183
 1793SOL     OW17014   0.795   1.158   2.796  0.0962 -0.0023 -0.0238
 1793SOL    HW117015   0.772   1.129   2.707 -0.7024  1.4915 -0.2946
 1793SOL    HW217016   0.837   1.241   2.775 -2.5804  1.5074  0.7004
 1794SOL     OW17017   2.944   1.777   6.900 -0.1765 -0.7387 -0.7196
 1794SOL    HW117018   2.948   1.706   6.836 -1.5738 -1.2270 -0.2620
 1794SOL    HW217019   2.922   1.725   6.977  2.4810  0.5611  0.9145
 1795SOL     OW17020   2.378   3.067   3.832 -0.4559 -0.0437 -0.3597
 1795SOL    HW117021   2.409   3.004   3.898  1.4753  0.7194 -0.5649
 1795SOL    HW217022   2.445   3.061   3.765 -0.3356 -0.6407 -0.1891
 1796SOL     OW17023   0.121   3.408   8.700 -0.1036 -0.8127  0.1670
 1796SOL    HW117024   0.082   3.396   8.787  0.9340 -1.3199  0.5527
 1796SOL    HW217025   0.164   3.491   8.718 -2.9761  0.4741  1.1261
 1797SOL     OW17026   3.488   1.546   8.438  0.5158 -0.3568 -0.1550
 1797SOL    HW117027   3.453   1.628   8.473  0.6564 -0.4954  0.3113
 1797SOL    HW217028   3.512   1.502   8.520 -1.2512  0.1752  0.6565
 1798SOL     OW17029   4.269   0.653   1.477 -0.2458 -0.3989  0.2164
 1798SOL    HW117030   4.316   0.633   1.558  1.9612 -1.1457 -1.2825
 1798SOL    HW217031   4.318   0.593   1.421 -1.3564 -0.6223 -0.5258
 1799SOL     OW17032   4.007   3.945   2.210  0.3446 -0.0298  0.3723
 1799SOL    HW117033   3.949   4.015   2.180 -0.5167 -0.8017  0.2685
 1799SOL    HW217034   3.980   3.870   2.158 -0.0737  1.0491 -0.9316
 1800SOL     OW17035   3.917   4.152   6.555  0.1959  0.6455 -0.1300
 1800SOL    HW117036   3.916   4.191   6.467 -1.4386 -0.8971 -0.7870
 1800SOL    HW217037   3.992   4.093   6.555  0.6239  1.2026 -1.8785
 1801SOL     OW17038   0.966   1.484   5.849 -0.4990 -0.2082  0.0780
 1801SOL    HW117039   0.999   1.521   5.931  0.5780  2.6005 -1.6476
 1801SOL    HW217040   0.905   1.550   5.816  1.3317  3.2014  3.5361
 1802SOL     OW17041   1.991   4.166  11.750  1.1317  0.6961  0.6000
 1802SOL    HW117042   1.990   4.198  11.660 -0.4500 -1.1310 -0.0010
 1802SOL    HW217043   2.007   4.252  11.791  0.1906 -0.4494  3.3351
 1803SOL     OW17044   0.966   0.969   0.474 -0.2473  0.5699 -0.2746
 1803SOL    HW117045   0.921   0.961   0.390 -2.2912 -1.3332  0.9945
 1803SOL    HW217046   0.942   1.059   0.497  2.9091  1.0459  1.1867
 1804SOL     OW17047   0.811   4.050   3.456  0.7897 -0.1198 -0.6324
 1804SOL    HW117048   0.728   4.016   3.422  0.3544  1.1698 -0.8775
 1804SOL    HW217049   0.804   4.145   3.455  1.9706 -0.0117  1.2932
 1805SOL     OW17050   4.510   2.292   3.821 -0.5637 -0.3357  0.1360
 1805SOL    HW117051   4.436   2.274   3.880 -0.5476 -0.3844  0.1413
 1805SOL    HW217052   4.475   2.379   3.802 -0.1413  0.0126  0.9217
 1806SOL     OW17053   2.746   4.672   2.961  0.3148  0.1568 -0.2925
 1806SOL    HW117054   2.722   0.014   2.911 -2.9646 -1.3148 -1.0022
 1806SOL    HW217055   2.804   4.703   3.030  2.8927 -1.8588 -1.5495
 1807SOL     OW17056   0.757   0.621   0.573  0.5402 -0.1445 -0.3050
 1807SOL    HW117057   0.713   0.543   0.541  0.6646 -1.0064  1.6464
 1807SOL    HW217058   0.848   0.606   0.551 -0.3213 -2.4284 -2.2418
 1808SOL     OW17059   1.684   0.515   9.868  0.4290 -0.1644  0.0033
 1808SOL    HW117060   1.603   0.523   9.920 -0.3313  1.5461 -1.4630
 1808SOL    HW217061   1.665   0.558   9.785  1.8133  0.0247 -0.2107
 1809SOL     OW17062   4.056   3.304   4.531 -0.3907 -0.7981 -0.2830
 1809SOL    HW117063   3.968   3.272   4.510 -1.1194  0.8466  0.2326
 1809SOL    HW217064   4.103   3.223   4.513 -0.6608 -0.9448 -0.3253
 1810SOL     OW17065   4.555   0.872   0.408 -0.1272  0.0377  0.6504
 1810SOL    HW117066   4.496   0.852   0.479  0.3765 -0.2308  0.9922
 1810SOL    HW217067   4.641   0.870   0.450  0.7362 -0.1821 -1.0965
 1811SOL     OW17068   2.198   3.783   6.262 -0.1827  0.1152  0.6667
 1811SOL    HW117069   2.293   3.777   6.266 -0.2668  0.0504  2.3228
 1811SOL    HW217070   2.174   3.849   6.327 -0.1477  1.0254 -0.2450
 1812SOL     OW17071   1.049   4.417   7.433  0.0287  0.1980  0.5420
 1812SOL    HW117072   1.099   4.473   7.373 -2.3493 -0.1815 -1.8150
 1812SOL    HW217073   1.082   4.441   7.520  2.3682 -0.3492 -0.1859
 1813SOL     OW17074   4.654   1.625   8.281 -0.1013 -0.3395  0.2753
 1813SOL    HW117075   4.612   1.546   8.249 -2.9469  1.7972 -1.2146
 1813SOL    HW217076   4.608   1.636   8.365 -0.1510 -0.7167  0.2953
 1814SOL     OW17077   4.164   2.142   3.927  0.5107 -0.1605  0.1508
 1814SOL    HW117078   4.183   2.135   3.834  2.5078 -0.8776  0.6172
 1814SOL    HW217079   4.143   2.236   3.929  1.8594  0.1345  1.3002
 1815SOL     OW17080   3.021   0.114   2.011 -0.0649 -0.2805 -0.2247
 1815SOL    HW117081   3.075   0.138   2.086 -1.8546  0.1980  0.9241
 1815SOL    HW217082   2.932   0.110   2.047  0.4580  1.0569  1.2177
 1816SOL     OW17083   1.992   1.534   5.062 -0.2522 -0.3482 -0.1186
 1816SOL    HW117084   1.960   1.609   5.112 -1.2797 -0.0062 -1.2838
 1816SOL    HW217085   1.930   1.467   5.093  1.9042 -2.4953 -0.4496
 1817SOL     OW17086   4.065   4.147  12.802  0.1356 -0.1511  0.3013
 1817SOL    HW117087   4.130   4.214  12.824 -0.6403  0.7123 -0.0435
 1817SOL    HW217088   4.018   4.174  12.723  1.4807  2.0522  0.2409
 1818SOL     OW17089   0.989   2.426   4.005  0.2244  0.3618  0.0981
 1818SOL    HW117090   0.918   2.487   3.989  0.0255  0.0655 -0.1369
 1818SOL    HW217091   0.964   2.394   4.092 -0.4143  0.7665  0.0602
 1819SOL     OW17092   2.396   2.298  15.239 -1.0364  0.2239 -0.3960
 1819SOL    HW117093   2.396   2.298  15.335 -3.9300 -1.4474 -0.4103
 1819SOL    HW217094   2.305   2.323  15.227 -1.3537 -0.6131  0.2771
 1820SOL     OW17095   2.002   3.892  17.073  0.2787  0.2878 -0.6141
 1820SOL    HW117096   1.999   3.831  16.999 -2.6239 -1.6205  1.0486
 1820SOL    HW217097   2.054   3.839  17.133  1.5867 -1.0479 -2.8879
 1821SOL     OW17098   1.910   4.087   4.168  0.5604 -0.3566  0.9348
 1821SOL    HW117099   1.826   4.101   4.212 -0.1653 -1.5793 -0.0649
 1821SOL    HW217100   1.976   4.138   4.216 -0.3761  1.3865  0.3780
 1822SOL     OW17101   2.757   1.488  15.535 -0.1601 -0.3755  0.7898
 1822SOL    HW117102   2.846   1.476  15.568  0.4299  0.8292 -0.3366
 1822SOL    HW217103   2.739   1.407  15.487 -1.7313 -1.2223  2.8231
 1823SOL     OW17104   4.275   4.254   4.832 -0.4348 -0.5158  0.2845
 1823SOL    HW117105   4.302   4.330   4.885  0.6165  0.4182 -1.5942
 1823SOL    HW217106   4.236   4.198   4.899  0.5291  2.0412  2.9893
 1824SOL     OW17107   0.768   0.425  15.519 -0.2742 -0.6871  0.3193
 1824SOL    HW117108   0.791   0.516  15.497  1.3390 -0.6792  2.0046
 1824SOL    HW217109   0.758   0.430  15.614 -0.2346 -0.5231  0.3148
 1825SOL     OW17110   0.154   2.523   8.197  0.0450 -0.5870 -0.2373
 1825SOL    HW117111   0.142   2.434   8.164  0.0053 -1.0240  0.9717
 1825SOL    HW217112   0.101   2.520   8.277  1.6727  1.9006  0.9403
 1826SOL     OW17113   1.239   0.308   9.274  0.2631  0.0287 -0.3814
 1826SOL    HW117114   1.298   0.379   9.301  1.3528 -0.6515 -0.9701
 1826SOL    HW217115   1.215   0.330   9.185 -0.3346  0.0951 -0.2070
 1827SOL     OW17116   2.894   0.306   7.105 -0.2014 -0.2777 -0.1782
 1827SOL    HW117117   2.812   0.274   7.141 -0.7247 -0.2139 -1.3197
 1827SOL    HW217118   2.864   0.286   7.016  1.0576 -0.0324 -0.6663
 1828SOL     OW17119   1.134   2.018   2.851 -0.0318 -0.1474 -0.4721
 1828SOL    HW117120   1.188   2.097   2.839 -0.3335  0.0591 -0.4705
 1828SOL    HW217121   1.102   2.027   2.941 -1.9015  0.1311 -1.1753
 1829SOL     OW17122   3.954   1.301   5.161 -0.4907  0.2676 -0.2425
 1829SOL    HW117123   3.884   1.235   5.159  1.3273 -1.6869  0.7620
 1829SOL    HW217124   4.004   1.272   5.085 -0.3710  0.3227 -0.1845
 1830SOL     OW17125   2.014   0.629   2.333 -0.5092 -0.2791  0.2246
 1830SOL    HW117126   1.987   0.677   2.255  1.8113 -2.6207 -1.9783
 1830SOL    HW217127   1.959   0.658   2.406 -0.0665  0.1704  0.3833
 1831SOL     OW17128   1.155   0.387  13.548  0.4037 -0.7823 -0.2452
 1831SOL    HW117129   1.193   0.371  13.462  0.3147 -1.1642 -0.2150
 1831SOL    HW217130   1.217   0.451  13.583 -0.2843 -0.1828 -0.1301
 1832SOL     OW17131   3.495   2.213   6.071  0.7206  0.1821 -0.0522
 1832SOL    HW117132   3.493   2.162   5.990 -0.4393 -2.3512  1.5890
 1832SOL    HW217133   3.475   2.302   6.040 -0.4471  0.3249  1.1165
 1833SOL     OW17134   1.669   1.311   3.511 -0.1318 -0.2110 -0.4830
 1833SOL    HW117135   1.724   1.235   3.530 -0.2573  0.5619  2.8543
 1833SOL    HW217136   1.590   1.291   3.461  0.1991  0.5554 -1.3155
 1834SOL     OW17137   3.656   4.390  11.580  0.3445 -0.4143 -0.0175
 1834SOL    HW117138   3.604   4.405  11.501  1.9007  0.3809 -0.8919
 1834SOL    HW217139   3.600   4.332  11.631  0.1565  0.9075  1.2670
 1835SOL     OW17140   2.975   3.042   1.370 -0.2623  0.0998 -0.0154
 1835SOL    HW117141   2.995   2.978   1.302  0.2258  0.1423  0.0944
 1835SOL    HW217142   3.040   3.021   1.437 -2.4068 -0.5894  1.8510
 1836SOL     OW17143   0.654   4.649   6.086  0.1603  0.1104 -0.6576
 1836SOL    HW117144   0.748   4.651   6.067 -0.0423 -0.1906 -1.6635
 1836SOL    HW217145   0.665   4.654   6.181  1.2270 -2.3559 -0.6519
 1837SOL     OW17146   4.228   3.096   4.450  0.4596 -0.0118 -0.4883
 1837SOL    HW117147   4.313   3.134   4.427  1.2193 -1.8311 -0.6852
 1837SOL    HW217148   4.247   3.006   4.477  2.2583  0.8002  0.9689
 1838SOL     OW17149   4.564   2.302   8.923 -0.3782  0.2411 -0.0722
 1838SOL    HW117150   4.541   2.225   8.975  2.5868 -0.2992  0.4442
 1838SOL    HW217151   4.593   2.356   8.996 -0.1778  0.6491 -0.4594
 1839SOL     OW17152   3.478   1.704   7.044  0.4440  0.5768 -0.0951
 1839SOL    HW117153   3.389   1.681   7.073  0.6837  2.2330  1.9152
 1839SOL    HW217154   3.507   1.781   7.092 -0.5087  0.3052  0.9344
 1840SOL     OW17155   4.445   3.654   2.498  0.4607  0.4235 -0.8555
 1840SOL    HW117156   4.444   3.567   2.457 -0.1377 -0.1329  0.3227
 1840SOL    HW217157   4.452   3.623   2.589 -0.5187  0.5415 -0.7344
 1841SOL     OW17158   3.444   3.112   0.405  0.0962  0.2527  0.0934
 1841SOL    HW117159   3.398   3.032   0.380  1.8180 -0.8106  0.3682
 1841SOL    HW217160   3.403   3.129   0.490 -0.8909  0.5664 -0.4399
 1842SOL     OW17161   2.036   4.500   0.471 -0.3414  0.7066  0.0228
 1842SOL    HW117162   1.987   4.432   0.425  0.6448  0.2624 -0.3681
 1842SOL    HW217163   2.083   4.545   0.401  1.6880 -0.0324  0.9074
 1843SOL     OW17164   0.483   3.222   5.880 -0.0949 -0.2051 -0.1869
 1843SOL    HW117165   0.421   3.240   5.950 -0.6488 -0.7746 -0.5309
 1843SOL    HW217166   0.439   3.274   5.812 -0.0214  1.1709  0.8159
 1844SOL     OW17167   1.279   1.030  11.889  0.2566  0.1802 -0.2102
 1844SOL    HW117168   1.265   0.948  11.841  3.5928 -1.6437  1.9131
 1844SOL    HW217169   1.369   1.046  11.861 -0.1024 -1.9164 -2.5820
 1845SOL     OW17170   0.244   2.042   9.763  0.1272  0.4006 -0.2578
 1845SOL    HW117171   0.279   2.100   9.830 -2.0945  0.3074  0.9916
 1845SOL    HW217172   0.320   1.993   9.733  0.1701 -0.3793  1.1219
 1846SOL     OW17173   3.083   3.716   4.405 -0.2373 -0.0739  0.4369
 1846SOL    HW117174   3.112   3.753   4.322 -1.7182 -1.3911 -0.6609
 1846SOL    HW217175   3.046   3.792   4.451  2.9833  0.4594  2.0771
 1847SOL     OW17176   1.091   2.589   9.182 -0.4625  0.2611  0.2848
 1847SOL    HW117177   0.997   2.600   9.173 -0.4134  0.2840 -0.1739
 1847SOL    HW217178   1.093   2.494   9.190  2.7804  0.4084  1.5339
 1848SOL     OW17179   4.511   3.944   1.175  0.2430  0.5260 -0.0560
 1848SOL    HW117180   4.478   3.936   1.264  0.2173 -0.0700 -0.1230
 1848SOL    HW217181   4.573   3.872   1.161  1.6747  1.7482 -0.0398
 1849SOL     OW17182   3.341   3.286  14.361  0.0766 -0.4029  0.2418
 1849SOL    HW117183   3.291   3.339  14.299 -2.6370 -2.5643  0.5965
 1849SOL    HW217184   3.366   3.350  14.428 -0.2620  0.4826 -0.4712
 1850SOL     OW17185   1.536   4.226   3.070 -0.2596 -0.4736  0.1025
 1850SOL    HW117186   1.496   4.174   3.001  0.8687  0.6029 -1.3540
 1850SOL    HW217187   1.521   4.171   3.147 -0.1681  1.7714  1.7245
 1851SOL     OW17188   1.100   3.119   2.201 -0.4490  0.7171 -0.5050
 1851SOL    HW117189   1.111   3.199   2.253  1.2325  1.6360 -2.2679
 1851SOL    HW217190   1.008   3.112   2.227  0.6642  0.8719  3.4250
 1852SOL     OW17191   1.225   0.219   2.313 -0.2988  0.3013 -0.3841
 1852SOL    HW117192   1.188   0.131   2.324 -0.5132  0.5898  1.2114
 1852SOL    HW217193   1.187   0.247   2.230 -1.2719 -2.0953 -0.7383
 1853SOL     OW17194   2.901   1.046   2.369 -1.0095  0.6950  0.3133
 1853SOL    HW117195   2.881   1.064   2.277 -0.0127 -0.6652 -0.1612
 1853SOL    HW217196   2.988   1.010   2.353 -1.3880  0.5528 -1.3550
 1854SOL     OW17197   4.426   0.663   8.550 -0.2294 -0.4751  0.0740
 1854SOL    HW117198   4.377   0.745   8.559 -0.0060 -0.6439  2.8239
 1854SOL    HW217199   4.355   0.601   8.533 -1.0235  0.1986  0.9661
 1855SOL     OW17200   4.672   1.788   6.946  0.1192 -0.1974  0.2530
 1855SOL    HW117201   0.002   1.834   6.999  0.9048  0.4140 -1.2720
 1855SOL    HW217202   4.688   1.839   6.867 -1.3558  0.2414  0.2408
 1856SOL     OW17203   2.329   2.715   5.297  0.0434  0.3754  0.4323
 1856SOL    HW117204   2.317   2.710   5.391 -1.6212  0.9360  0.2706
 1856SOL    HW217205   2.248   2.765   5.283  0.0719  0.1875 -0.4048
 1857SOL     OW17206   3.288   3.363   5.171 -0.0943 -0.0479  0.0690
 1857SOL    HW117207   3.346   3.311   5.116 -0.5987  1.1904 -1.6224
 1857SOL    HW217208   3.283   3.300   5.243  0.7029 -2.5118 -2.0416
 1858SOL     OW17209   2.111   4.700   5.468 -0.5482 -0.1309  0.0309
 1858SOL    HW117210   2.168   0.039   5.487 -1.1970 -0.3899  3.0279
 1858SOL    HW217211   2.163   4.636   5.517  1.0991 -0.4293 -2.1380
 1859SOL     OW17212   3.126   2.406   4.105 -0.0249  0.0918 -0.4599
 1859SOL    HW117213   3.112   2.484   4.160 -1.7280 -0.3153 -0.3227
 1859SOL    HW217214   3.203   2.369   4.147 -0.4346  0.5996  0.7456
 1860SOL     OW17215   2.079   2.265   9.266  0.3282  0.1115 -0.2564
 1860SOL    HW117216   2.010   2.318   9.305  2.0538  1.6690  0.6586
 1860SOL    HW217217   2.147   2.260   9.333 -1.8717 -0.7912  1.9017
 1861SOL     OW17218   1.373   4.345  15.609  0.2871  0.0341  0.6689
 1861SOL    HW117219   1.441   4.291  15.569 -0.3965 -1.2555  1.2693
 1861SOL    HW217220   1.429   4.413  15.647  1.7668  0.3347 -2.0227
 1862SOL     OW17221   2.407   3.421   6.185  0.0841  0.2689 -0.0345
 1862SOL    HW117222   2.346   3.486   6.149 -0.4542 -0.5970 -0.6659
 1862SOL    HW217223   2.487   3.426   6.133  0.7102  0.6880  0.9575
 1863SOL     OW17224   2.869   1.408   5.104  0.1547  0.2128  0.2228
 1863SOL    HW117225   2.915   1.327   5.128  1.6066  1.1802  0.7064
 1863SOL    HW217226   2.922   1.446   5.034 -1.1295 -1.9374 -1.9128
 1864SOL     OW17227   0.797   1.729   4.264  0.0132 -0.3685  0.3197
 1864SOL    HW117228   0.716   1.768   4.296  1.4556  3.5273 -0.6934
 1864SOL    HW217229   0.761   1.655   4.215  0.1793 -1.1007  1.3264
 1865SOL     OW17230   1.242   0.762   4.942 -0.8907 -0.8223 -0.0661
 1865SOL    HW117231   1.227   0.849   4.905 -0.2544 -1.5986 -2.1804
 1865SOL    HW217232   1.246   0.710   4.861  0.9771 -0.5071 -0.1745
 1866SOL     OW17233   1.606   3.582   3.636  0.6004 -0.1376 -0.4597
 1866SOL    HW117234   1.663   3.585   3.559  0.8483  2.6109 -0.1609
 1866SOL    HW217235   1.516   3.580   3.603  0.7115 -1.3925 -0.7107
 1867SOL     OW17236   3.000   3.966   2.777 -0.1502  0.2243 -0.2190
 1867SOL    HW117237   3.043   3.909   2.841  1.1921  0.4821 -0.9067
 1867SOL    HW217238   2.977   4.037   2.838 -0.9912  1.8127 -2.3699
 1868SOL     OW17239   3.070   3.780   3.262 -0.4069  0.2930 -0.4008
 1868SOL    HW117240   3.128   3.729   3.318 -1.7408  0.5448  1.2044
 1868SOL    HW217241   3.004   3.713   3.244 -1.2892  1.4398 -1.4548
 1869SOL     OW17242   2.059   1.893   5.386 -0.4448  0.3910  0.2440
 1869SOL    HW117243   2.154   1.886   5.385 -0.5470 -1.0287  0.8855
 1869SOL    HW217244   2.032   1.850   5.467  0.9463  2.2052  1.6741
 1870SOL     OW17245   2.780   2.346   3.661  0.4601 -0.3930 -0.1549
 1870SOL    HW117246   2.857   2.327   3.714  0.2334 -0.0909  0.2846
 1870SOL    HW217247   2.712   2.324   3.724  0.1828  0.8387 -0.0189
 1871SOL     OW17248   0.719   4.394   2.250  0.8606 -0.1069  0.2076
 1871SOL    HW117249   0.760   4.398   2.336  1.8073  0.5433 -0.2750
 1871SOL    HW217250   0.780   4.348   2.193  2.0737  0.0899  1.3641
 1872SOL     OW17251   1.486   0.813   3.192 -0.0389 -0.0030 -0.4697
 1872SOL    HW117252   1.507   0.721   3.178  1.6598  0.2243  0.4942
 1872SOL    HW217253   1.459   0.830   3.101  1.1322  1.6939 -0.5243
 1873SOL     OW17254   2.162   1.202   4.095  0.3595  0.7637  0.0501
 1873SOL    HW117255   2.199   1.195   4.007  2.0548  0.1654  0.8021
 1873SOL    HW217256   2.075   1.163   4.090  0.1860  1.1044  0.4384
 1874SOL     OW17257   1.410   0.242  10.228  0.2586 -0.1611  0.6283
 1874SOL    HW117258   1.436   0.188  10.303  1.3466  0.0608  0.4214
 1874SOL    HW217259   1.490   0.294  10.237 -0.1385  0.4616  0.5246
 1875SOL     OW17260   3.338   4.528   1.370  0.1237  0.4855  0.2499
 1875SOL    HW117261   3.395   4.471   1.319 -1.6201 -0.9239 -0.1093
 1875SOL    HW217262   3.299   4.473   1.437  1.3095  1.2951  1.6048
 1876SOL     OW17263   0.104   4.437   7.385 -0.1868  0.2800  0.1660
 1876SOL    HW117264   0.093   4.532   7.379 -0.7707  0.2121  0.2179
 1876SOL    HW217265   0.029   4.396   7.342  0.1517  1.4665 -1.5646
 1877SOL     OW17266   1.168   4.367  15.783 -0.0159 -0.7488 -0.0429
 1877SOL    HW117267   1.104   4.373  15.713 -0.5912 -0.3214  0.5174
 1877SOL    HW217268   1.247   4.331  15.743  0.6780  0.9019 -0.1936
 1878SOL     OW17269   1.730   2.381   9.003  0.0498  0.4828 -0.2858
 1878SOL    HW117270   1.662   2.334   9.051 -1.0021  1.0987 -1.1535
 1878SOL    HW217271   1.678   2.445   8.954 -0.9366  0.2784  0.4932
 1879SOL     OW17272   2.230   2.056   9.145  0.1874 -0.3760  0.0822
 1879SOL    HW117273   2.309   2.089   9.187  0.5293  0.3971 -1.1792
 1879SOL    HW217274   2.164   2.122   9.166 -1.3324 -1.7870 -0.2905
 1880SOL     OW17275   1.822   3.542  16.387 -0.0264  0.1906  0.0147
 1880SOL    HW117276   1.738   3.544  16.432 -0.7035 -1.6528 -1.1996
 1880SOL    HW217277   1.835   3.450  16.367 -3.1539  0.2318 -2.1749
 1881SOL     OW17278   2.627   0.569   7.763  0.5153 -0.3810  0.2738
 1881SOL    HW117279   2.692   0.614   7.816 -0.7696  0.7665  0.8775
 1881SOL    HW217280   2.642   0.612   7.679 -2.4414  1.1874  0.5415
 1882SOL     OW17281   3.600   2.713   7.822  0.0229  0.2203  0.4650
 1882SOL    HW117282   3.520   2.664   7.842  0.6296 -0.3589  1.4424
 1882SOL    HW217283   3.601   2.768   7.901  0.0897  0.0110  0.6075
 1883SOL     OW17284   1.299   1.615   7.085 -0.0401  0.3125  0.4940
 1883SOL    HW117285   1.367   1.640   7.022 -1.7929 -0.8834 -1.8665
 1883SOL    HW217286   1.259   1.551   7.027  0.5876  1.0852 -0.7880
 1884SOL     OW17287   1.548   1.855   3.273  0.4095 -0.1312  0.1791
 1884SOL    HW117288   1.574   1.935   3.318  0.5406 -0.7535  1.1969
 1884SOL    HW217289   1.606   1.856   3.196 -0.2025 -2.3334 -0.3091
 1885SOL     OW17290   3.547   3.473   8.070  0.4798  0.3281  0.1253
 1885SOL    HW117291   3.514   3.401   8.016  1.4001  0.6427 -0.8512
 1885SOL    HW217292   3.621   3.510   8.022  1.3198 -0.9939  0.3931
 1886SOL     OW17293   1.842   1.297  13.083 -0.1119  0.0036  0.0372
 1886SOL    HW117294   1.750   1.311  13.105 -0.4028 -1.2146 -0.4075
 1886SOL    HW217295   1.882   1.326  13.165  0.1621 -1.0987  0.2904
 1887SOL     OW17296   1.872   3.003   2.583 -0.2199 -0.1430 -0.3548
 1887SOL    HW117297   1.806   3.064   2.550 -0.1526 -1.7756 -3.5725
 1887SOL    HW217298   1.819   2.951   2.643 -0.2049  0.5824  0.2962
 1888SOL     OW17299   3.876   3.766   1.053 -0.0409  0.2588  0.6036
 1888SOL    HW117300   3.908   3.760   1.143  1.3019 -0.5764  0.0745
 1888SOL    HW217301   3.946   3.814   1.010 -2.4318  2.2041 -1.0812
 1889SOL     OW17302   0.415   1.203   3.465  0.7728 -0.2055  0.1978
 1889SOL    HW117303   0.393   1.120   3.507  2.3493 -0.1450  1.1516
 1889SOL    HW217304   0.352   1.210   3.394  1.3989  2.8837 -0.0435
 1890SOL     OW17305   0.436   1.218   4.767  0.1324 -0.0449  0.4458
 1890SOL    HW117306   0.494   1.163   4.819 -0.0818  0.3757  1.1333
 1890SOL    HW217307   0.351   1.191   4.803 -0.0670  1.6974  1.2778
 1891SOL     OW17308   3.039   0.479   0.628  0.6738  0.2234 -0.0738
 1891SOL    HW117309   3.084   0.408   0.673 -2.0274 -1.8739 -0.6623
 1891SOL    HW217310   2.960   0.434   0.598  0.3605  2.5882 -2.8571
 1892SOL     OW17311   3.895   1.754  14.021  0.5473 -0.2153 -0.4273
 1892SOL    HW117312   3.953   1.680  14.005  1.2094 -0.0867  1.3989
 1892SOL    HW217313   3.900   1.772  14.115  1.3137  1.2710 -0.7690
 1893SOL     OW17314   2.666   0.639   7.068 -0.0638  0.8313  0.2247
 1893SOL    HW117315   2.758   0.625   7.045 -0.5894  1.8332 -2.5261
 1893SOL    HW217316   2.659   0.620   7.162 -2.2045  0.7341  0.0343
 1894SOL     OW17317   0.574   0.150   7.969 -0.2527 -0.7343 -0.2286
 1894SOL    HW117318   0.581   0.242   7.995 -2.4193 -0.5992 -0.1101
 1894SOL    HW217319   0.512   0.120   8.035 -0.9002  0.6318 -0.2104
 1895SOL     OW17320   4.605   0.450  11.933 -0.8004  0.2174  0.0550
 1895SOL    HW117321   4.630   0.362  11.961  0.8665  1.0278  1.0851
 1895SOL    HW217322   4.596   0.429  11.840  0.3277 -0.8631  0.1853
 1896SOL     OW17323   0.960   1.603   2.541 -0.2565 -0.6393  0.2010
 1896SOL    HW117324   1.049   1.636   2.552 -1.3097  2.6073 -0.8944
 1896SOL    HW217325   0.952   1.571   2.451 -0.9495 -0.4901  0.2055
 1897SOL     OW17326   3.972   3.697   8.359 -0.0856 -0.4055 -0.0144
 1897SOL    HW117327   3.887   3.652   8.364 -0.7151  0.8000  0.1005
 1897SOL    HW217328   3.936   3.772   8.405  3.2025  1.1758 -0.0371
 1898SOL     OW17329   2.975   3.331  15.765 -0.1156 -0.6629  0.9203
 1898SOL    HW117330   3.059   3.377  15.762 -0.9800  0.8650  0.4016
 1898SOL    HW217331   3.009   3.241  15.759  1.6642  0.1715 -1.2968
 1899SOL     OW17332   0.835   1.955  16.431  0.0247  0.3523  0.0324
 1899SOL    HW117333   0.863   1.986  16.345 -0.9337 -1.0856 -0.8056
 1899SOL    HW217334   0.917   1.928  16.472  1.0653  2.8291 -0.4048
 1900SOL     OW17335   2.957   2.033   3.711 -0.3806 -0.4557 -0.2697
 1900SOL    HW117336   2.979   1.953   3.758  2.5209  0.1942 -0.5150
 1900SOL    HW217337   2.964   2.086   3.791 -0.1322 -0.2161 -0.4459
 1901SOL     OW17338   4.006   2.820   2.055  0.1131  0.2319 -0.3324
 1901SOL    HW117339   4.093   2.838   2.091 -0.3109  0.6647  0.4795
 1901SOL    HW217340   3.965   2.758   2.116  1.5843  0.6413  1.0659
 1902SOL     OW17341   1.942   3.495  11.313  0.8599 -0.5646 -0.2875
 1902SOL    HW117342   2.008   3.488  11.382  0.1087  1.9334  0.6684
 1902SOL    HW217343   1.894   3.412  11.310 -0.4290  0.1986 -0.6187
 1903SOL     OW17344   4.293   0.141   5.779 -0.1375  0.7166  0.2048
 1903SOL    HW117345   4.308   0.083   5.704 -1.4869  1.3741 -0.5617
 1903SOL    HW217346   4.200   0.139   5.800  0.0656 -0.5503  1.0229
 1904SOL     OW17347   1.292   3.779  13.840  0.3266  0.1538  1.1667
 1904SOL    HW117348   1.273   3.872  13.843 -1.3215 -0.0976 -1.4730
 1904SOL    HW217349   1.258   3.770  13.751  1.8940  1.4907  0.4539
 1905SOL     OW17350   3.035   3.086   0.422 -0.1761 -0.1479  0.2320
 1905SOL    HW117351   3.123   3.119   0.440 -0.5583  0.2077  1.4496
 1905SOL    HW217352   3.050   2.994   0.403  1.5965 -0.1757  1.7963
 1906SOL     OW17353   2.890   3.375   6.542 -0.2751  0.3760 -0.0483
 1906SOL    HW117354   2.906   3.282   6.529 -0.3773  0.4920 -1.0201
 1906SOL    HW217355   2.910   3.410   6.455  1.1448 -1.5563 -0.4829
 1907SOL     OW17356   2.128   4.191  17.332  0.4154 -0.0801  0.5388
 1907SOL    HW117357   2.082   4.111  17.304  0.3207  1.6946 -4.3065
 1907SOL    HW217358   2.216   4.172  17.301 -0.8131 -4.7490 -0.1099
 1908SOL     OW17359   1.786   2.723   3.629 -0.0193  0.3984 -0.0812
 1908SOL    HW117360   1.710   2.767   3.666  0.1385 -1.5498  2.6046
 1908SOL    HW217361   1.856   2.788   3.636  0.2342  0.0534  0.5522
 1909SOL     OW17362   1.395   2.285   1.446  0.6134  0.9111 -0.4130
 1909SOL    HW117363   1.382   2.272   1.540  0.2148  0.2933 -0.5569
 1909SOL    HW217364   1.337   2.359   1.429  1.1044  0.8850 -2.1879
 1910SOL     OW17365   2.875   0.487   6.247 -0.0415  0.1388  0.2881
 1910SOL    HW117366   2.961   0.526   6.266  1.7977 -3.4878 -0.6132
 1910SOL    HW217367   2.883   0.401   6.288 -2.6366  0.0618  0.6495
 1911SOL     OW17368   4.052   2.779   5.613 -0.4923  1.0254  0.6592
 1911SOL    HW117369   4.097   2.818   5.688  1.1528  1.4389 -0.5608
 1911SOL    HW217370   4.041   2.857   5.560 -0.5838 -1.1387 -2.5428
 1912SOL     OW17371   0.087   4.635   2.212  0.0054  0.0858 -0.0872
 1912SOL    HW117372   0.164   4.583   2.233  0.5572  0.2975 -1.6025
 1912SOL    HW217373   0.038   4.573   2.158 -1.0776  1.4233 -0.6308
 1913SOL     OW17374   2.409   3.444   4.916  0.4082 -0.3762 -0.2121
 1913SOL    HW117375   2.498   3.444   4.951  0.5991 -2.7450 -0.7110
 1913SOL    HW217376   2.363   3.443   5.001 -0.4794 -1.6032 -0.7030
 1914SOL     OW17377   2.284   1.174   2.932  0.3034  0.2753  0.4306
 1914SOL    HW117378   2.329   1.090   2.943 -3.1036 -1.4888  0.9548
 1914SOL    HW217379   2.338   1.243   2.971  1.5563 -1.6500  2.0672
 1915SOL     OW17380   1.367   4.386   7.142  0.7704  0.7550  0.1632
 1915SOL    HW117381   1.305   4.317   7.168  1.1257  0.6860  0.8108
 1915SOL    HW217382   1.407   4.333   7.073 -2.3634 -1.6142  0.1561
 1916SOL     OW17383   2.335   0.486   6.760 -0.6764  0.1616  0.4092
 1916SOL    HW117384   2.428   0.467   6.770 -0.9776 -0.6945  1.6292
 1916SOL    HW217385   2.310   0.401   6.723 -0.1272 -0.2880  1.0736
 1917SOL     OW17386   4.141   0.579  16.644 -0.1719  0.0542 -0.2287
 1917SOL    HW117387   4.095   0.631  16.710 -0.5542  0.6023 -0.9302
 1917SOL    HW217388   4.203   0.529  16.697  0.3627  1.7954  0.7721
 1918SOL     OW17389   0.283   0.465   2.467  0.4308  0.0583 -0.0322
 1918SOL    HW117390   0.327   0.544   2.433  0.9114  0.7175  2.1108
 1918SOL    HW217391   0.206   0.458   2.410  1.4055  2.7718 -1.7338
 1919SOL     OW17392   0.895   2.021   7.059 -0.0366  0.3933 -0.7567
 1919SOL    HW117393   0.981   1.985   7.037 -0.3394 -0.3227 -0.7609
 1919SOL    HW217394   0.880   1.968   7.137  0.3488  0.6053 -0.5343
 1920SOL     OW17395   1.928   3.342   5.552 -0.3512 -0.3266 -0.0798
 1920SOL    HW117396   1.879   3.350   5.633 -1.5758  1.5325 -1.0008
 1920SOL    HW217397   1.969   3.428   5.540 -0.6632 -0.1948 -0.1883
 1921SOL     OW17398   4.499   0.873   6.225 -0.1058  0.6074 -0.2354
 1921SOL    HW117399   4.557   0.941   6.191  1.1681 -0.7025 -0.6676
 1921SOL    HW217400   4.451   0.859   6.143  1.5955 -0.4731 -1.0586
 1922SOL     OW17401   0.224   1.018  13.676  0.8196  0.3169 -0.3288
 1922SOL    HW117402   0.170   1.066  13.738 -0.6158 -1.3600 -0.2662
 1922SOL    HW217403   0.188   0.933  13.703 -0.6741  1.0845  0.0765
 1923SOL     OW17404   1.574   2.804   1.777 -0.3390 -0.7494 -0.8087
 1923SOL    HW117405   1.584   2.859   1.855 -1.0003 -1.6431 -0.1022
 1923SOL    HW217406   1.493   2.758   1.800 -0.6775  1.0099  1.5910
 1924SOL     OW17407   4.153   2.903  16.790  0.0630 -0.0146 -0.0280
 1924SOL    HW117408   4.190   2.820  16.820  3.5264  2.0995  1.5060
 1924SOL    HW217409   4.084   2.877  16.729  1.4196  0.4448 -1.7374
 1925SOL     OW17410   0.295   0.989   8.197 -0.1647 -0.1597 -0.0054
 1925SOL    HW117411   0.275   1.059   8.261  0.6037  1.8153 -1.9246
 1925SOL    HW217412   0.345   1.034   8.129  0.3527  0.3750  0.7249
 1926SOL     OW17413   2.286   3.291   3.469  0.4472 -0.2351 -0.5576
 1926SOL    HW117414   2.335   3.356   3.420  1.3506 -1.8586 -1.8076
 1926SOL    HW217415   2.285   3.324   3.559  1.8339 -0.9333 -0.2810
 1927SOL     OW17416   3.982   3.675   3.853  0.2324 -0.1193  0.0004
 1927SOL    HW117417   4.031   3.743   3.806 -0.2447  0.7523  0.7639
 1927SOL    HW217418   3.945   3.633   3.775 -0.8363 -1.1108  1.0515
 1928SOL     OW17419   1.354   2.137   8.561 -0.0062 -0.1048 -0.0064
 1928SOL    HW117420   1.343   2.117   8.654 -0.5121 -1.0943 -0.2803
 1928SOL    HW217421   1.368   2.230   8.582 -2.5712 -0.3662  2.9455
 1929SOL     OW17422   1.563   3.167   8.880  0.1235 -0.2512 -0.3050
 1929SOL    HW117423   1.488   3.116   8.851 -0.0147 -0.1482 -0.1279
 1929SOL    HW217424   1.628   3.097   8.892  0.8119 -0.1444 -3.5527
 1930SOL     OW17425   1.095   0.983   8.728 -0.6813 -0.2743  0.5048
 1930SOL    HW117426   1.108   0.917   8.796  1.1651  0.7561  1.1652
 1930SOL    HW217427   1.167   0.968   8.666 -1.6978 -0.3932 -0.6389
 1931SOL     OW17428   1.695   1.237  13.990 -0.1159 -0.2232  0.2474
 1931SOL    HW117429   1.683   1.246  14.084 -1.0038 -0.4254  0.1550
 1931SOL    HW217430   1.669   1.145  13.986  0.0677 -0.1882 -2.0670
 1932SOL     OW17431   4.127   3.497   5.638  0.2639  0.1308 -0.1278
 1932SOL    HW117432   4.202   3.452   5.598 -0.0753  0.8282 -1.5205
 1932SOL    HW217433   4.160   3.586   5.649 -3.8240  1.5560  0.5008
 1933SOL     OW17434   1.098   0.357   6.540 -0.0363 -0.6114 -0.7679
 1933SOL    HW117435   1.116   0.435   6.488 -1.5501  1.5119  1.8666
 1933SOL    HW217436   1.079   0.292   6.473 -1.0935  0.5738 -1.6261
 1934SOL     OW17437   3.379   0.515   4.286  0.3716  0.0664 -0.8209
 1934SOL    HW117438   3.293   0.552   4.305 -0.0198 -0.8127 -0.8912
 1934SOL    HW217439   3.360   0.422   4.300 -1.5486  0.5763 -0.0628
 1935SOL     OW17440   2.665   4.521   2.763  0.0756  0.5881 -0.0551
 1935SOL    HW117441   2.705   4.564   2.687  0.9130 -1.3448 -0.7259
 1935SOL    HW217442   2.684   4.577   2.838 -1.2493  0.4194  0.4049
 1936SOL     OW17443   2.903   0.922   6.116  0.7282 -0.3964 -0.1282
 1936SOL    HW117444   2.866   1.003   6.152  0.6618 -1.0186  1.2221
 1936SOL    HW217445   2.997   0.936   6.105  0.3368  1.8856 -0.5374
 1937SOL     OW17446   2.698   2.435   5.946  0.4887  0.1629  0.0526
 1937SOL    HW117447   2.788   2.417   5.918  0.2478  0.0936 -0.6673
 1937SOL    HW217448   2.697   2.411   6.039  0.4889  2.8969  0.7562
 1938SOL     OW17449   0.382   3.200  15.140  0.0815  0.0864 -0.4645
 1938SOL    HW117450   0.401   3.232  15.228 -1.2505  0.0560 -0.1697
 1938SOL    HW217451   0.330   3.270  15.102 -2.8140 -0.5590  2.3115
 1939SOL     OW17452   4.502   3.716  15.976 -0.3386  0.1047 -0.2504
 1939SOL    HW117453   4.567   3.775  15.939  0.3040 -0.3656  0.1254
 1939SOL    HW217454   4.424   3.744  15.928 -1.4376 -1.0030  0.8874
 1940SOL     OW17455   3.377   3.619   3.811  0.2121  0.2523  0.7959
 1940SOL    HW117456   3.384   3.595   3.904 -2.3490  2.0509  1.4523
 1940SOL    HW217457   3.360   3.535   3.769  0.1228  0.3297  0.6765
 1941SOL     OW17458   0.067   1.307   9.780  0.1896 -0.2351  0.2855
 1941SOL    HW117459   0.006   1.326   9.851  0.2722 -0.1376  0.3297
 1941SOL    HW217460   0.052   1.213   9.774  1.0128 -0.4089  0.9927
 1942SOL     OW17461   1.033   3.417  17.606 -0.1700 -1.0138 -0.2942
 1942SOL    HW117462   1.055   3.506  17.580 -1.6805 -0.7529 -0.7166
 1942SOL    HW217463   1.045   3.375  17.520  0.7532 -0.3255 -0.4995
 1943SOL     OW17464   0.163   3.959   0.936 -0.6031 -0.6941 -0.5857
 1943SOL    HW117465   0.233   4.015   0.902 -0.8612  1.4559  2.3745
 1943SOL    HW217466   0.178   3.963   1.031 -0.4800  0.1564 -0.6423
 1944SOL     OW17467   0.869   1.645  17.654  0.2906 -0.6459 -0.3336
 1944SOL    HW117468   0.960   1.639  17.681 -0.2763  0.1426  1.7551
 1944SOL    HW217469   0.851   1.556  17.623  2.5404 -0.1626 -2.9370
 1945SOL     OW17470   3.150   2.223  11.416 -0.2106  0.0493 -0.2132
 1945SOL    HW117471   3.180   2.259  11.332 -0.0656 -0.4241 -0.3659
 1945SOL    HW217472   3.232   2.201  11.458 -2.0264 -5.5747  0.3746
 1946SOL     OW17473   4.045   1.116   3.643  0.0352  0.7349  0.4792
 1946SOL    HW117474   4.128   1.070   3.654  0.8444  1.8646 -0.8323
 1946SOL    HW217475   3.983   1.045   3.628  0.8157 -0.1987  1.6819
 1947SOL     OW17476   3.058   2.486  15.391  0.5820  0.0323  0.2220
 1947SOL    HW117477   3.016   2.411  15.432 -1.5976  1.5464  0.7559
 1947SOL    HW217478   3.101   2.438  15.319 -0.0967  1.2363 -0.9787
 1948SOL     OW17479   4.351   0.803   2.950  0.0418 -0.2756 -0.1906
 1948SOL    HW117480   4.336   0.863   2.877 -0.1365 -0.6577 -0.4705
 1948SOL    HW217481   4.273   0.815   3.003  0.8593  0.9772  0.7109
 1949SOL     OW17482   1.061   4.150   0.861 -0.1601  0.2148 -1.0653
 1949SOL    HW117483   1.084   4.074   0.808 -0.5494 -0.0816 -0.8083
 1949SOL    HW217484   1.121   4.220   0.834  2.2324 -1.4660 -0.0709
 1950SOL     OW17485   1.746   1.553   8.206  0.1357  0.1598 -0.1046
 1950SOL    HW117486   1.706   1.624   8.256 -0.0516 -0.0520  0.0455
 1950SOL    HW217487   1.729   1.488   8.274  1.4833  1.1657  1.2129
 1951SOL     OW17488   0.328   1.546   0.538  0.1814  1.0473  0.0059
 1951SOL    HW117489   0.248   1.548   0.590  0.7224 -2.4166  0.9186
 1951SOL    HW217490   0.329   1.454   0.512  1.7337  1.0491  0.0444
 1952SOL     OW17491   0.669   1.466   4.880 -0.1273  0.3182 -0.3146
 1952SOL    HW117492   0.711   1.380   4.873 -1.1532 -0.2170  0.1441
 1952SOL    HW217493   0.587   1.436   4.921 -0.3828 -0.0342 -1.0881
 1953SOL     OW17494   1.821   2.573   7.942 -0.1610  0.0989 -0.1155
 1953SOL    HW117495   1.736   2.529   7.938 -0.0704 -0.0629 -0.2597
 1953SOL    HW217496   1.850   2.557   8.032  1.4319  0.2332 -0.6063
 1954SOL     OW17497   1.093   1.777   5.370  0.8464  0.0893 -0.4855
 1954SOL    HW117498   1.087   1.812   5.458  2.3418 -1.7612  0.3472
 1954SOL    HW217499   1.018   1.717   5.371  2.7009 -2.2625 -0.5607
 1955SOL     OW17500   4.715   1.500   4.701 -0.2573 -0.7683  0.2972
 1955SOL    HW117501   0.059   1.465   4.664  0.0800  1.9952 -1.6151
 1955SOL    HW217502   4.649   1.470   4.638  0.4024  0.7160 -1.1164
 1956SOL     OW17503   1.240   0.167   4.172 -0.1866 -0.2129  0.2191
 1956SOL    HW117504   1.297   0.191   4.245 -0.6307  0.8189  0.2324
 1956SOL    HW217505   1.301   0.153   4.100 -0.0560 -1.5480  0.5755
 1957SOL     OW17506   4.599   0.066  10.100 -1.2072  0.0087  0.2303
 1957SOL    HW117507   4.514   0.039  10.064 -1.0134  0.2221 -0.3863
 1957SOL    HW217508   4.614   0.006  10.174 -0.7331  1.2240  1.1174
 1958SOL     OW17509   0.719   2.034   1.770  0.4141  0.1671 -0.1331
 1958SOL    HW117510   0.764   1.963   1.725 -0.1172 -1.1606  1.4340
 1958SOL    HW217511   0.786   2.076   1.825  0.1514 -2.3985  2.1369
 1959SOL     OW17512   0.263   1.637   1.748  0.2622 -0.5098  0.1592
 1959SOL    HW117513   0.187   1.631   1.690  0.1769 -1.6619  0.3953
 1959SOL    HW217514   0.332   1.598   1.694  0.5055 -0.2485  0.2762
 1960SOL     OW17515   0.631   3.432   4.900  0.5382 -0.2097  0.0115
 1960SOL    HW117516   0.599   3.522   4.911 -0.6378 -0.6178 -0.1248
 1960SOL    HW217517   0.659   3.427   4.809 -0.3042  0.0017 -0.2513
 1961SOL     OW17518   2.289   4.099   6.015  0.0782 -0.2833 -0.9109
 1961SOL    HW117519   2.270   4.191   6.037 -1.4442 -0.2662 -2.2954
 1961SOL    HW217520   2.373   4.110   5.970  2.2856  1.4234  3.6445
 1962SOL     OW17521   4.296   3.639  13.620  0.0420 -0.3155 -0.3104
 1962SOL    HW117522   4.363   3.643  13.689 -0.0988  0.4676 -0.2142
 1962SOL    HW217523   4.357   3.640  13.546 -0.9319  0.6961 -1.1019
 1963SOL     OW17524   1.066   1.570   7.264  0.2467  0.2034  0.3839
 1963SOL    HW117525   1.074   1.652   7.216 -1.7832  0.4808  0.5142
 1963SOL    HW217526   1.159   1.546   7.264  0.4869  1.1307  1.2937
 1964SOL     OW17527   4.626   0.996   4.410  0.3001 -0.1389 -0.2050
 1964SOL    HW117528   4.625   0.909   4.371 -0.8294  0.4991 -1.6366
 1964SOL    HW217529   4.661   1.054   4.342 -1.1632  1.6843  0.5706
 1965SOL     OW17530   2.837   2.400  11.481  0.2695  0.1539  0.3847
 1965SOL    HW117531   2.870   2.344  11.552  0.5769  1.3373  1.1765
 1965SOL    HW217532   2.764   2.433  11.534  0.9005 -0.7480  1.8406
 1966SOL     OW17533   0.565   4.177   5.812  0.5187 -0.4229  0.1666
 1966SOL    HW117534   0.510   4.253   5.830 -0.0967 -1.1717  1.4097
 1966SOL    HW217535   0.515   4.095   5.815 -0.7430  0.3384 -0.3932
 1967SOL     OW17536   1.730   4.255   6.056 -0.0939 -0.0428 -0.5487
 1967SOL    HW117537   1.742   4.174   6.007  0.5536 -0.2135 -0.1139
 1967SOL    HW217538   1.634   4.252   6.051 -0.1382  0.6285 -0.0608
 1968SOL     OW17539   2.075   1.987  14.584 -0.2688  0.7216  0.0196
 1968SOL    HW117540   2.139   1.962  14.652  0.7514  2.6216 -0.2403
 1968SOL    HW217541   2.025   1.906  14.590  1.0411 -0.0362  0.9431
 1969SOL     OW17542   4.565   2.914   3.305  0.6395 -0.2790 -0.0375
 1969SOL    HW117543   4.517   2.944   3.227 -0.2196 -1.1561  0.1490
 1969SOL    HW217544   4.574   2.991   3.361  0.9488 -0.5841  0.3300
 1970SOL     OW17545   4.342   3.266   8.381  0.5708 -0.7726 -0.1937
 1970SOL    HW117546   4.286   3.343   8.376 -1.0378 -1.8952  0.3675
 1970SOL    HW217547   4.425   3.312   8.370 -0.2820  0.8440  0.2155
 1971SOL     OW17548   1.765   1.311   4.293  0.0961 -0.1117  0.0188
 1971SOL    HW117549   1.739   1.385   4.237 -1.8818 -1.7557 -1.1961
 1971SOL    HW217550   1.697   1.246   4.281 -1.5872  1.5803  0.3514
 1972SOL     OW17551   0.433   1.667   9.947  0.2576  0.8609  0.5733
 1972SOL    HW117552   0.392   1.712  10.021 -1.5319 -1.7492  1.1646
 1972SOL    HW217553   0.397   1.578   9.947 -1.2137  1.4542  0.7641
 1973SOL     OW17554   2.996   3.688   6.703 -0.2311  0.0736  0.3961
 1973SOL    HW117555   2.923   3.729   6.659  0.0891  1.4643  1.1706
 1973SOL    HW217556   3.043   3.668   6.622  0.3881 -1.0544  1.0211
 1974SOL     OW17557   2.255   4.495   8.891  0.4855 -0.0011 -0.2080
 1974SOL    HW117558   2.178   4.550   8.879 -1.3625 -2.5532  0.0318
 1974SOL    HW217559   2.328   4.557   8.889 -0.7213  1.3796 -1.0778
 1975SOL     OW17560   3.467   3.064  13.010 -0.6582 -0.0898 -0.1534
 1975SOL    HW117561   3.525   3.034  13.080  1.2061  2.8829 -0.4118
 1975SOL    HW217562   3.498   3.012  12.936 -2.4565 -0.1461 -0.8719
 1976SOL     OW17563   2.966   3.248  14.544  0.5411 -0.9141 -0.0138
 1976SOL    HW117564   2.990   3.334  14.509 -0.0963 -1.0413 -0.7628
 1976SOL    HW217565   3.038   3.241  14.607 -0.9782  1.8218  2.0153
 1977SOL     OW17566   1.498   1.268   5.476  0.0905  0.2387 -0.8125
 1977SOL    HW117567   1.523   1.218   5.554  2.2913  0.6289 -1.2706
 1977SOL    HW217568   1.404   1.250   5.475 -0.1948  1.6155 -0.2055
 1978SOL     OW17569   3.267   2.729  10.742 -0.1389  0.1275  0.1245
 1978SOL    HW117570   3.288   2.819  10.716  0.4209  0.0014  0.1466
 1978SOL    HW217571   3.345   2.689  10.703 -0.4637  1.0203 -1.4824
 1979SOL     OW17572   4.377   3.068  14.697  0.1299 -0.3261 -0.1916
 1979SOL    HW117573   4.422   3.018  14.629 -0.1231 -0.0875 -0.5318
 1979SOL    HW217574   4.429   3.040  14.773  1.6217 -3.3282 -2.3417
 1980SOL     OW17575   0.922   3.623   0.053 -0.8927  0.1510  0.1141
 1980SOL    HW117576   0.929   3.564   0.128  1.0649 -1.1221 -1.0578
 1980SOL    HW217577   0.918   3.553  17.730  1.4059  0.4375 -0.3381
 1981SOL     OW17578   2.970   3.954   4.532  0.0206 -0.2939 -0.4468
 1981SOL    HW117579   2.927   4.030   4.572 -1.8490 -0.4273 -2.1904
 1981SOL    HW217580   2.979   3.986   4.443  0.1726 -0.6832 -0.5731
 1982SOL     OW17581   0.351   0.872   6.573  0.1927  0.0954  0.1533
 1982SOL    HW117582   0.345   0.823   6.655 -1.6753  0.4058  0.1958
 1982SOL    HW217583   0.328   0.798   6.516  1.1406  1.3003 -1.7689
 1983SOL     OW17584   3.271   3.048   7.287 -0.2827  0.4945 -0.6291
 1983SOL    HW117585   3.330   2.973   7.298 -0.5782  0.1960 -1.0815
 1983SOL    HW217586   3.273   3.067   7.194  3.7580 -0.5911 -0.7952
 1984SOL     OW17587   3.683   3.004  10.483 -0.3807 -0.4835 -0.3165
 1984SOL    HW117588   3.618   2.996  10.413 -0.9401 -1.1860  0.2858
 1984SOL    HW217589   3.758   3.011  10.423 -0.9450  3.9362 -0.5398
 1985SOL     OW17590   2.273   3.991   2.327  0.4695 -0.5734 -0.1824
 1985SOL    HW117591   2.195   3.993   2.381 -0.4994  1.0417 -1.6202
 1985SOL    HW217592   2.261   3.938   2.248  0.9113 -2.7184  1.2237
 1986SOL     OW17593   1.310   0.792   3.593  0.0247 -0.4291  0.1532
 1986SOL    HW117594   1.258   0.753   3.663 -1.8539  0.5173 -0.7424
 1986SOL    HW217595   1.388   0.811   3.645  0.8841  0.1076 -1.3348
 1987SOL     OW17596   4.639   0.452   6.939 -0.2799  0.1133  0.0457
 1987SOL    HW117597   4.691   0.435   6.860 -1.0546  2.3387 -0.9326
 1987SOL    HW217598   4.589   0.371   6.945 -0.5391  0.3441  0.9923
 1988SOL     OW17599   3.524   3.233  15.784 -0.3749 -0.1408  0.8737
 1988SOL    HW117600   3.557   3.282  15.860  0.0474 -3.5595  2.8691
 1988SOL    HW217601   3.539   3.294  15.712 -0.9110 -3.4554 -2.0176
 1989SOL     OW17602   2.984   4.329   3.544 -0.4337 -0.2278 -0.3271
 1989SOL    HW117603   2.965   4.388   3.471 -1.2558 -1.1667 -0.8644
 1989SOL    HW217604   2.938   4.248   3.522  2.2123 -2.1338  1.1418
 1990SOL     OW17605   4.291   1.303  13.169  0.2110  0.5251  0.1707
 1990SOL    HW117606   4.358   1.284  13.103  0.3800  0.9874  0.2069
 1990SOL    HW217607   4.215   1.283  13.115 -0.0224 -0.3354  0.8128
 1991SOL     OW17608   3.245   2.663   9.459  0.0103 -0.0620 -0.0857
 1991SOL    HW117609   3.321   2.609   9.438  0.3542  0.6210 -0.5960
 1991SOL    HW217610   3.274   2.754   9.459  1.3132 -0.4758  0.6110
 1992SOL     OW17611   3.048   0.236   0.294  0.3154 -0.0342  0.1788
 1992SOL    HW117612   3.011   0.158   0.335  0.5307  0.5066  1.3851
 1992SOL    HW217613   2.998   0.233   0.212 -0.1794 -2.1302  0.5450
 1993SOL     OW17614   2.088   2.096  14.246 -0.5895 -0.5931 -0.1444
 1993SOL    HW117615   2.152   2.025  14.252  0.1637 -0.0462 -1.6546
 1993SOL    HW217616   2.071   2.102  14.152 -0.6611 -1.0400 -0.1620
 1994SOL     OW17617   2.256   0.870   9.674 -0.7151 -0.2938 -0.3460
 1994SOL    HW117618   2.186   0.865   9.739 -0.6222  0.6119 -0.1761
 1994SOL    HW217619   2.328   0.830   9.723  1.1461  2.7876 -0.5733
 1995SOL     OW17620   3.546   1.921   3.281 -0.3226 -0.0301 -0.6620
 1995SOL    HW117621   3.623   1.875   3.315  0.8924  3.0165  0.7078
 1995SOL    HW217622   3.591   2.001   3.255  0.1574 -0.4296 -1.0661
 1996SOL     OW17623   1.275   2.500   3.934  0.2838 -0.0188 -0.0796
 1996SOL    HW117624   1.236   2.432   3.988 -0.6748  0.7199  0.1732
 1996SOL    HW217625   1.209   2.512   3.865  2.2058 -2.7524 -2.4078
 1997SOL     OW17626   4.008   1.124   4.926 -0.4250  0.0451  0.2104
 1997SOL    HW117627   3.948   1.183   4.879 -1.1236 -1.1308 -0.3904
 1997SOL    HW217628   3.994   1.050   4.867 -0.9567  0.3574 -0.0565
 1998SOL     OW17629   3.996   3.474   1.898  0.0560  0.1438  0.3099
 1998SOL    HW117630   4.088   3.468   1.925  0.7743  1.4423 -1.8711
 1998SOL    HW217631   3.947   3.456   1.978  0.8066 -1.9135  0.3004
 1999SOL     OW17632   3.680   0.494   5.841 -0.0858 -0.0543  0.8369
 1999SOL    HW117633   3.595   0.535   5.824  0.2699  0.7099  0.8692
 1999SOL    HW217634   3.730   0.576   5.848 -1.9543  1.2174 -0.5084
 2000SOL     OW17635   2.842   3.687   5.717 -0.3010  0.7845 -0.4706
 2000SOL    HW117636   2.748   3.684   5.704 -0.6076 -0.2459  1.9456
 2000SOL    HW217637   2.851   3.630   5.794 -2.2156  0.0856 -0.7778
 2001SOL     OW17638   1.020   2.813   6.738 -0.7049  0.0960  0.6716
 2001SOL    HW117639   1.020   2.889   6.680  0.0497  0.8616  1.6578
 2001SOL    HW217640   1.113   2.796   6.725 -0.8443  0.3855 -0.6851
 2002SOL     OW17641   1.823   0.140  17.334  0.3638  0.3169 -0.0261
 2002SOL    HW117642   1.791   0.058  17.369 -0.4332  1.2704  1.4505
 2002SOL    HW217643   1.750   0.196  17.360  1.4768  1.4937  0.6225
 2003SOL     OW17644   2.819   0.791   3.555 -0.2708  0.6884  0.0060
 2003SOL    HW117645   2.823   0.724   3.624 -1.7687 -1.9839 -2.4834
 2003SOL    HW217646   2.760   0.860   3.583 -0.4663 -0.5875  2.7699
 2004SOL     OW17647   2.167   1.103   4.641 -0.4596  0.1922  0.7804
 2004SOL    HW117648   2.217   1.172   4.597  1.3918 -0.8484  1.2352
 2004SOL    HW217649   2.208   1.101   4.728  0.0659  0.1737  0.5336
 2005SOL     OW17650   4.311   2.675   9.702 -0.2626  0.3073 -0.1959
 2005SOL    HW117651   4.349   2.588   9.685 -1.1394 -0.4115  1.5211
 2005SOL    HW217652   4.371   2.729   9.650  0.7605  0.1800  0.8616
 2006SOL     OW17653   1.625   3.200   4.553 -0.1397 -0.3350 -0.3105
 2006SOL    HW117654   1.675   3.281   4.562  0.1424 -0.3481 -1.7115
 2006SOL    HW217655   1.575   3.208   4.472 -1.0737  0.0291  0.3005
 2007SOL     OW17656   1.916   3.010   0.189 -0.4900  0.6660 -0.2658
 2007SOL    HW117657   1.853   2.946   0.155 -0.1605 -1.5628  3.2579
 2007SOL    HW217658   1.975   3.016   0.114 -0.8779 -1.6224 -0.7690
 2008SOL     OW17659   0.886   1.899   8.053  0.0448  0.0763 -0.3394
 2008SOL    HW117660   0.969   1.913   8.098  0.3908 -1.8965 -0.3996
 2008SOL    HW217661   0.840   1.851   8.122 -2.2237  1.2726 -1.0013
 2009SOL     OW17662   2.869   4.100  10.826  0.4385 -0.4650 -0.1077
 2009SOL    HW117663   2.815   4.037  10.777  0.8891 -0.2820 -0.8434
 2009SOL    HW217664   2.809   4.173  10.810  1.9864  0.6665 -0.7076
 2010SOL     OW17665   2.285   2.319   7.801 -0.1812  0.4207  0.0846
 2010SOL    HW117666   2.242   2.288   7.721  0.2579  2.2380 -0.8657
 2010SOL    HW217667   2.266   2.243   7.856 -2.0205  1.0036  0.2519
 2011SOL     OW17668   2.079   2.597   8.551 -0.0225 -0.3141  0.1632
 2011SOL    HW117669   2.123   2.532   8.606  0.2448  2.2093  2.9571
 2011SOL    HW217670   2.106   2.577   8.461 -0.6769  2.5950 -0.6846
 2012SOL     OW17671   0.189   4.068   5.472  0.4984  0.2972 -0.2275
 2012SOL    HW117672   0.128   4.136   5.442  1.1362  1.4757  1.0889
 2012SOL    HW217673   0.200   4.107   5.559  1.5469  1.2253 -0.7634
 2013SOL     OW17674   0.968   4.505  16.534  0.0667 -0.3331 -0.2136
 2013SOL    HW117675   0.995   4.524  16.624 -2.8187  0.2386  0.5574
 2013SOL    HW217676   1.053   4.501  16.490  0.3543  0.6686  0.2589
 2014SOL     OW17677   4.020   4.346  10.012 -0.1880  0.1773  0.3633
 2014SOL    HW117678   4.059   4.396  10.084 -0.3546  0.1832  0.4491
 2014SOL    HW217679   4.036   4.253  10.030 -0.4446 -0.3127 -1.9047
 2015SOL     OW17680   0.225   3.698   1.351  0.4344 -0.5166  0.3520
 2015SOL    HW117681   0.303   3.704   1.406 -0.5245  0.7672  1.5774
 2015SOL    HW217682   0.260   3.697   1.262 -3.1601 -2.1393 -1.0262
 2016SOL     OW17683   1.540   1.904   6.949  0.1896  0.0098  0.2067
 2016SOL    HW117684   1.496   1.937   7.027  0.8556  0.7785  0.2577
 2016SOL    HW217685   1.509   1.813   6.948  1.7155 -0.5096  0.1012
 2017SOL     OW17686   2.991   0.853   2.017  0.5023  0.0273  0.3183
 2017SOL    HW117687   2.976   0.758   2.016  1.8844 -0.2070  1.6676
 2017SOL    HW217688   3.087   0.855   2.014  0.4761  1.4779  0.2848
 2018SOL     OW17689   2.772   3.420   7.203 -0.3164 -1.1480 -0.7034
 2018SOL    HW117690   2.776   3.503   7.251 -1.1752 -0.8975 -1.0712
 2018SOL    HW217691   2.857   3.389   7.234 -0.1499 -0.4714 -0.4666
 2019SOL     OW17692   0.309   2.208   4.159 -0.4570  0.2014  0.2268
 2019SOL    HW117693   0.376   2.207   4.091 -1.5769 -0.3605 -0.8745
 2019SOL    HW217694   0.238   2.157   4.120  0.5152 -2.1947  1.5899
 2020SOL     OW17695   1.792   2.864  10.163  0.6351 -0.4057 -0.3347
 2020SOL    HW117696   1.846   2.904  10.095  0.2485 -0.5321 -0.7180
 2020SOL    HW217697   1.710   2.866  10.113  0.4484 -0.0602 -0.0115
 2021SOL     OW17698   3.873   2.816   9.332  0.6460  0.6335 -0.3509
 2021SOL    HW117699   3.851   2.833   9.241 -0.1742  1.3683 -0.0237
 2021SOL    HW217700   3.836   2.730   9.350  2.0631  0.1899  0.4175
 2022SOL     OW17701   0.818   3.708   4.096  0.3856 -0.1431  0.6209
 2022SOL    HW117702   0.907   3.702   4.131  0.0803 -0.4089  1.3397
 2022SOL    HW217703   0.797   3.800   4.082  0.3593 -0.0860  1.0351
 2023SOL     OW17704   0.099   0.241  11.392  0.6400  0.2169 -0.0380
 2023SOL    HW117705   0.111   0.147  11.404 -1.7101 -0.3807 -2.3768
 2023SOL    HW217706   0.073   0.279  11.476  0.2861  0.3745 -0.2191
 2024SOL     OW17707   0.667   2.912   2.207  0.7451  0.0732 -0.5005
 2024SOL    HW117708   0.593   2.972   2.200 -0.2921 -0.8901  2.1199
 2024SOL    HW217709   0.632   2.849   2.145 -0.0486  0.1906 -0.1728
 2025SOL     OW17710   4.529   2.473   0.951 -0.6341  0.0026 -0.0071
 2025SOL    HW117711   4.452   2.484   0.896 -1.8388 -1.0991  1.4428
 2025SOL    HW217712   4.488   2.402   1.001  1.2483 -0.8137  0.4006
 2026SOL     OW17713   0.478   3.475   7.325  0.2244  0.3685 -0.1082
 2026SOL    HW117714   0.490   3.549   7.385 -0.7290 -0.4751  1.1226
 2026SOL    HW217715   0.405   3.428   7.366  2.9574 -3.0573  0.7745
 2027SOL     OW17716   4.345   0.160   4.642  0.3892  0.1168  0.3851
 2027SOL    HW117717   4.382   0.229   4.587  1.0653 -1.0746 -0.6472
 2027SOL    HW217718   4.410   0.143   4.710  4.1202  2.0139 -2.7813
 2028SOL     OW17719   2.153   3.730   2.925 -0.2191 -0.0818  0.4102
 2028SOL    HW117720   2.241   3.755   2.895 -1.3266 -1.6774 -4.1592
 2028SOL    HW217721   2.159   3.636   2.910 -3.2416 -0.0275 -0.9769
 2029SOL     OW17722   1.403   1.781   0.382 -0.0452 -0.2300 -0.0350
 2029SOL    HW117723   1.400   1.794   0.287  0.2817 -0.6927 -0.1097
 2029SOL    HW217724   1.338   1.712   0.395  1.3378 -1.0171  2.5099
 2030SOL     OW17725   2.264   0.353   7.235  0.4593  0.3533  0.0241
 2030SOL    HW117726   2.236   0.444   7.224 -0.0185  0.5327  2.7066
 2030SOL    HW217727   2.196   0.320   7.294 -0.4231  1.9553 -0.0795
 2031SOL     OW17728   4.196   2.068   5.993  0.1006  0.4634  0.0916
 2031SOL    HW117729   4.234   2.125   6.060  1.1047  1.6933 -1.5153
 2031SOL    HW217730   4.273   2.012   5.982 -0.0546  0.0853  0.9043
 2032SOL     OW17731   0.899   0.149   0.561 -0.1195  0.2724  0.2511
 2032SOL    HW117732   0.971   0.093   0.534 -0.3289 -0.7368  1.7647
 2032SOL    HW217733   0.846   0.091   0.616  4.0766  0.8260  4.8615
 2033SOL     OW17734   1.009   4.405   6.246 -0.0519 -0.3522  0.1891
 2033SOL    HW117735   0.933   4.349   6.263  0.6181 -1.6403 -1.0603
 2033SOL    HW217736   1.081   4.344   6.265  0.3358  0.0865  0.1227
 2034SOL     OW17737   3.725   0.321   6.994  0.3400 -0.0406  0.0430
 2034SOL    HW117738   3.780   0.248   7.022  2.5856  1.5085 -0.3633
 2034SOL    HW217739   3.788   0.366   6.939 -0.4298  0.3481 -0.5274
 2035SOL     OW17740   0.408   3.748   2.981  0.6387 -0.3083 -0.3219
 2035SOL    HW117741   0.502   3.745   2.962  0.3716 -1.4269 -1.5067
 2035SOL    HW217742   0.404   3.657   3.012  1.5301 -0.3005 -0.1904
 2036SOL     OW17743   4.600   0.926   3.476 -0.0492 -0.2780 -0.0743
 2036SOL    HW117744   4.625   0.935   3.385 -3.5268  0.1589 -1.0049
 2036SOL    HW217745   4.509   0.896   3.466  0.1066 -0.7733  0.0073
 2037SOL     OW17746   0.449   3.932   6.690  0.5926  0.5326  0.1061
 2037SOL    HW117747   0.534   3.895   6.712 -0.0379 -0.7871  0.3038
 2037SOL    HW217748   0.407   3.896   6.768 -1.1550  2.4554  0.0568
 2038SOL     OW17749   3.015   1.872   8.770  0.3212 -0.1810  0.2376
 2038SOL    HW117750   3.061   1.822   8.703  0.4810  1.9540 -1.2267
 2038SOL    HW217751   2.924   1.857   8.746  0.0228  0.5104  0.9342
 2039SOL     OW17752   1.961   4.616   8.443  0.1268 -0.3635 -0.5496
 2039SOL    HW117753   2.010   4.693   8.413  0.1252  0.5272  1.7564
 2039SOL    HW217754   1.914   4.648   8.520 -0.3482 -0.9280 -0.6096
 2040SOL     OW17755   2.008   1.693  13.589 -0.0969  0.4855 -0.2804
 2040SOL    HW117756   2.069   1.629  13.552 -1.7808  0.5032 -3.0567
 2040SOL    HW217757   1.959   1.729  13.516 -0.3908  0.5490 -0.0513
 2041SOL     OW17758   0.137   0.673   3.463 -0.3857  0.1831 -0.5376
 2041SOL    HW117759   0.214   0.662   3.407  0.3752  4.1529 -0.3062
 2041SOL    HW217760   0.098   0.587   3.457 -1.4696  0.8777 -3.3560
 2042SOL     OW17761   3.102   2.249   2.982 -0.5161 -0.4135  0.6384
 2042SOL    HW117762   3.189   2.255   3.022  0.7819 -2.3366 -1.9640
 2042SOL    HW217763   3.061   2.180   3.034 -1.4176 -0.3371  0.0266
 2043SOL     OW17764   4.050   0.833   2.097 -0.2779 -0.1543 -0.3051
 2043SOL    HW117765   4.078   0.753   2.053  1.3077 -0.8662  1.9934
 2043SOL    HW217766   4.125   0.890   2.083 -0.9047  0.9159  0.6180
 2044SOL     OW17767   4.140   0.114   9.840 -0.4900 -0.4989 -0.3896
 2044SOL    HW117768   4.190   0.092   9.919 -0.6544  0.3749 -0.0481
 2044SOL    HW217769   4.121   0.022   9.822 -1.8658 -0.1908 -0.4567
 2045SOL     OW17770   1.231   4.340   2.012  0.4209 -0.5201 -0.1944
 2045SOL    HW117771   1.246   4.245   2.012 -0.9207 -0.7261 -1.0813
 2045SOL    HW217772   1.298   4.376   1.954 -0.7601  1.1318 -0.5191
 2046SOL     OW17773   4.057   3.902   9.080  0.0941  0.1807  0.5136
 2046SOL    HW117774   4.041   3.892   8.986 -1.0399 -1.3223  0.8562
 2046SOL    HW217775   3.999   3.973   9.107 -0.0207  0.3330 -0.1205
 2047SOL     OW17776   1.526   1.819   6.397 -0.1004  0.2999  0.2373
 2047SOL    HW117777   1.577   1.896   6.424  2.4506 -1.5520  0.6778
 2047SOL    HW217778   1.448   1.832   6.451 -1.2732 -1.4686 -1.0586
 2048SOL     OW17779   2.732   0.062  16.766  0.1782 -0.0562 -0.3956
 2048SOL    HW117780   2.789   0.139  16.761  0.4985 -0.3302 -0.9397
 2048SOL    HW217781   2.745   0.036  16.857  1.8035 -1.7565 -1.0963
 2049SOL     OW17782   2.140   0.952  17.579  0.6186 -0.4428  0.2757
 2049SOL    HW117783   2.229   0.946  17.611  1.3219 -2.3743 -1.9909
 2049SOL    HW217784   2.127   1.040  17.615 -0.9597 -0.1977 -0.8922
 2050SOL     OW17785   2.647   3.729   8.182  0.1700  0.4036 -0.3826
 2050SOL    HW117786   2.610   3.803   8.231  0.0915 -1.8791  2.9713
 2050SOL    HW217787   2.730   3.763   8.148  1.7032 -0.7138  2.2169
 2051SOL     OW17788   4.538   1.461   1.233 -0.1082 -0.1626 -0.5080
 2051SOL    HW117789   4.514   1.404   1.160  0.6661 -2.4186  0.9927
 2051SOL    HW217790   4.565   1.539   1.185  0.1541 -1.3608 -2.3043
 2052SOL     OW17791   4.291   2.108   2.371 -0.5233  0.4869 -0.0905
 2052SOL    HW117792   4.383   2.091   2.351 -0.7253  0.1797 -0.7544
 2052SOL    HW217793   4.259   2.029   2.329 -0.6474  0.3039  0.3492
 2053SOL     OW17794   3.865   1.666   4.653  0.1728 -0.1462 -0.3192
 2053SOL    HW117795   3.952   1.693   4.624 -0.9606  0.6174 -3.0108
 2053SOL    HW217796   3.879   1.571   4.653 -3.6531 -0.6982  1.0812
 2054SOL     OW17797   2.121   2.151   2.470  0.1495 -0.1957 -0.0959
 2054SOL    HW117798   2.160   2.233   2.498  0.0170 -0.2859  0.3611
 2054SOL    HW217799   2.201   2.104   2.448  0.7698  1.4839 -1.3843
 2055SOL     OW17800   2.118   0.420  14.841  0.5066 -0.0120 -0.4553
 2055SOL    HW117801   2.048   0.402  14.903  3.0932 -0.4374  2.3058
 2055SOL    HW217802   2.174   0.344  14.857  0.3408  0.0827  0.5705
 2056SOL     OW17803   2.751   3.963   4.855  0.0823  0.0056 -0.2015
 2056SOL    HW117804   2.780   4.032   4.915 -0.7486 -0.6540  0.9665
 2056SOL    HW217805   2.656   3.975   4.848  0.5792  2.3527 -2.7343
 2057SOL     OW17806   0.836   3.902   9.152 -0.1338 -0.1436  0.2899
 2057SOL    HW117807   0.789   3.839   9.207 -0.1401  0.0132  0.4671
 2057SOL    HW217808   0.772   3.971   9.134  0.6097  1.0663  2.2785
 2058SOL     OW17809   4.468   3.291   0.427 -0.0221  0.1237  0.3660
 2058SOL    HW117810   4.521   3.288   0.348 -3.2510  2.9377 -1.8752
 2058SOL    HW217811   4.453   3.197   0.435 -2.1031  0.3955 -0.3727
 2059SOL     OW17812   2.074   3.261   3.313  0.0197  0.2736  0.1061
 2059SOL    HW117813   2.145   3.268   3.377  2.1095  1.2491 -2.3181
 2059SOL    HW217814   2.110   3.191   3.258  0.7287  0.1638  0.6964
 2060SOL     OW17815   2.355   3.246   4.704  0.5562 -0.1253 -0.0140
 2060SOL    HW117816   2.278   3.216   4.753  0.6900 -1.3870 -0.5901
 2060SOL    HW217817   2.376   3.318   4.764 -2.1251  0.0910  0.6526
 2061SOL     OW17818   1.018   3.492   4.330 -0.2663  0.1700 -0.6621
 2061SOL    HW117819   0.934   3.459   4.299 -0.7223  0.2415  0.4842
 2061SOL    HW217820   1.021   3.586   4.312  1.1192  0.4643  1.0379
 2062SOL     OW17821   3.448   2.967   2.927 -0.2882  0.4139 -0.4413
 2062SOL    HW117822   3.482   3.015   2.852  1.8757  0.5244  0.6284
 2062SOL    HW217823   3.444   2.882   2.883 -0.5839  0.0012  0.3833
 2063SOL     OW17824   4.573   2.378   8.185 -0.2504 -0.7055  0.0002
 2063SOL    HW117825   4.492   2.398   8.233  0.0334 -1.1218  0.6450
 2063SOL    HW217826   4.552   2.404   8.095  1.4009  1.9468  0.3843
 2064SOL     OW17827   3.261   2.757   4.088 -0.1625  0.1687  0.0100
 2064SOL    HW117828   3.242   2.714   4.005 -0.7631 -1.1927  0.8445
 2064SOL    HW217829   3.232   2.846   4.073  0.8714  1.1178  3.5323
 2065SOL     OW17830   0.741   2.896  11.219  0.0617 -0.0597 -0.0476
 2065SOL    HW117831   0.679   2.942  11.276 -0.5464  0.5311 -1.1802
 2065SOL    HW217832   0.774   2.961  11.157  0.4155  0.2986  0.5204
 2066SOL     OW17833   2.523   1.728   0.506  0.9412  0.3339 -0.2258
 2066SOL    HW117834   2.561   1.722   0.594 -1.3832  1.4979  0.8427
 2066SOL    HW217835   2.431   1.733   0.530  1.3154 -0.2794  1.3425
 2067SOL     OW17836   4.421   4.610   2.844  0.7556  0.3619  0.3808
 2067SOL    HW117837   4.416   4.696   2.885  0.4857  0.6432 -0.2558
 2067SOL    HW217838   4.350   4.614   2.781  0.9308 -1.3714  0.0594
 2068SOL     OW17839   0.697   0.953   0.990 -0.1136  0.2422 -0.1235
 2068SOL    HW117840   0.698   0.958   0.894 -2.0752  0.9353 -0.1167
 2068SOL    HW217841   0.750   1.028   1.015  0.3758 -0.2056  0.1774
 2069SOL     OW17842   0.061   0.599  13.274  0.0952  0.0133  0.3208
 2069SOL    HW117843   4.718   0.649  13.295 -1.3848 -1.5579 -1.6142
 2069SOL    HW217844   0.127   0.669  13.271 -2.2918  2.1625 -2.4713
 2070SOL     OW17845   1.046   4.250   8.444  0.5609  0.2792 -0.6151
 2070SOL    HW117846   1.082   4.172   8.487 -1.2214 -0.0325  0.2907
 2070SOL    HW217847   0.955   4.224   8.451  0.9410 -0.8575  0.0927
 2071SOL     OW17848   1.407   0.743   4.437 -0.1947 -0.4059 -0.2454
 2071SOL    HW117849   1.376   0.814   4.381  1.1603 -0.0986 -0.6041
 2071SOL    HW217850   1.439   0.795   4.511 -0.8738  0.2408 -0.4108
 2072SOL     OW17851   1.852   2.193   7.427  0.6919 -0.8461  0.6378
 2072SOL    HW117852   1.831   2.157   7.341 -0.3511 -1.9792  1.3738
 2072SOL    HW217853   1.932   2.245   7.420  0.1629 -0.1035  0.2231
 2073SOL     OW17854   2.612   1.484   3.790  0.7581  0.4712 -0.3494
 2073SOL    HW117855   2.664   1.446   3.720 -0.4898 -1.1506 -0.4081
 2073SOL    HW217856   2.525   1.446   3.776  0.6256 -0.6045  3.2267
 2074SOL     OW17857   1.242   0.965   4.379  0.0300  0.5616 -0.7799
 2074SOL    HW117858   1.218   1.055   4.399 -1.6834 -0.3078  1.2252
 2074SOL    HW217859   1.179   0.919   4.435 -0.2233  2.2765  0.3256
 2075SOL     OW17860   3.775   1.684   5.890 -0.0195 -0.2421 -0.8768
 2075SOL    HW117861   3.810   1.595   5.897  1.9668  0.7858  2.6542
 2075SOL    HW217862   3.843   1.742   5.925 -1.0621  0.3022  0.2711
 2076SOL     OW17863   0.879   0.224   0.877 -0.7356 -0.1611 -0.3090
 2076SOL    HW117864   0.865   0.318   0.868  0.7613  0.3117  2.5511
 2076SOL    HW217865   0.958   0.217   0.929 -0.4715 -0.0158 -0.6890
 2077SOL     OW17866   4.527   1.624   9.587  0.2733 -0.0594  0.2707
 2077SOL    HW117867   4.569   1.595   9.668  2.1357 -1.0611 -1.0665
 2077SOL    HW217868   4.436   1.639   9.615  0.7380  2.4085  0.4276
 2078SOL     OW17869   0.991   0.768  10.273  0.0120  0.1044 -0.1565
 2078SOL    HW117870   0.910   0.785  10.226 -0.2030 -0.7982 -0.1105
 2078SOL    HW217871   0.960   0.768  10.363 -0.5464  1.4599 -0.3614
 2079SOL     OW17872   3.082   2.584   9.265 -0.4553  0.1209  0.1598
 2079SOL    HW117873   3.076   2.675   9.236  1.1393  0.7887  1.8595
 2079SOL    HW217874   3.127   2.596   9.349  1.7400  0.8740 -1.1198
 2080SOL     OW17875   1.937   2.161   1.378  0.5059  0.4230  0.8246
 2080SOL    HW117876   1.977   2.211   1.307 -1.2425  2.1706  1.0634
 2080SOL    HW217877   1.860   2.213   1.401 -0.1637 -0.1614 -0.0955
 2081SOL     OW17878   4.321   3.836   0.539  0.0990  0.3610  0.5867
 2081SOL    HW117879   4.364   3.921   0.544 -0.3976  0.5045  2.4856
 2081SOL    HW217880   4.309   3.826   0.445  3.3129 -2.0264  0.4265
 2082SOL     OW17881   1.925   2.137   2.275  0.0676 -0.3224 -0.4191
 2082SOL    HW117882   1.978   2.146   2.354  0.0782 -2.2438 -0.2063
 2082SOL    HW217883   1.994   2.164   2.214  0.0814 -1.7992 -1.0452
 2083SOL     OW17884   2.140   2.380  13.705 -0.5721  0.4590 -0.1315
 2083SOL    HW117885   2.058   2.357  13.662 -1.7749  1.5363  1.5776
 2083SOL    HW217886   2.200   2.317  13.666 -2.3351  1.0500 -3.7596
 2084SOL     OW17887   2.964   3.665  15.681  0.7352 -0.0865  0.1829
 2084SOL    HW117888   2.951   3.647  15.774  3.6988  2.6022  1.1034
 2084SOL    HW217889   3.053   3.629  15.676 -0.3445 -2.6520 -0.5719
 2085SOL     OW17890   3.581   1.080   5.152  0.5466  0.0073  0.2935
 2085SOL    HW117891   3.583   1.073   5.248 -1.7883  0.3649  0.3760
 2085SOL    HW217892   3.548   0.991   5.136  0.2546  0.2757 -0.5710
 2086SOL     OW17893   0.914   4.101  11.028 -0.3408 -0.8594 -0.5336
 2086SOL    HW117894   0.938   4.157  10.955  0.6118  0.5479  0.8459
 2086SOL    HW217895   0.970   4.151  11.088  0.0165 -2.7888  0.7453
 2087SOL     OW17896   4.658   2.147   9.221 -0.0929  0.0960 -0.1686
 2087SOL    HW117897   4.677   2.204   9.295  0.2420 -1.1040  0.6755
 2087SOL    HW217898   4.730   2.086   9.236  0.3059  0.5158 -0.3609
 2088SOL     OW17899   0.943   1.937   5.904 -0.5359 -0.4014  0.1931
 2088SOL    HW117900   1.005   2.011   5.905 -1.1954  0.1474 -0.0078
 2088SOL    HW217901   0.858   1.979   5.917 -0.0537  0.8565 -0.6557
 2089SOL     OW17902   0.513   1.332   6.051  0.3728 -0.4055 -0.2912
 2089SOL    HW117903   0.458   1.308   5.977  0.3306  1.3571 -0.8172
 2089SOL    HW217904   0.442   1.370   6.102  1.3394  0.0623  0.7247
 2090SOL     OW17905   1.741   3.818   6.845 -0.4831  0.0935  0.4179
 2090SOL    HW117906   1.795   3.741   6.826 -0.5494  0.6835 -2.1256
 2090SOL    HW217907   1.802   3.878   6.887  2.0375 -2.5138  0.4246
 2091SOL     OW17908   4.389   0.560   8.265 -0.8068  0.1212 -0.2455
 2091SOL    HW117909   4.319   0.556   8.330 -2.4124  2.1781 -1.8450
 2091SOL    HW217910   4.357   0.638   8.219 -0.9128  1.0366  1.4156
 2092SOL     OW17911   0.679   3.525  11.239  0.3330  0.3301  0.3618
 2092SOL    HW117912   0.735   3.489  11.170  0.5114  0.2940  0.5242
 2092SOL    HW217913   0.708   3.616  11.248 -1.0042  0.7967 -0.0260
 2093SOL     OW17914   4.483   4.057   0.589 -0.4191 -0.0353 -0.2702
 2093SOL    HW117915   4.494   4.087   0.499 -1.3322  0.9824 -0.0339
 2093SOL    HW217916   4.478   4.139   0.637 -2.4586 -1.2891  1.6570
 2094SOL     OW17917   2.766   1.690   2.834 -0.4686  0.2192  0.5564
 2094SOL    HW117918   2.733   1.602   2.852  0.3490  0.2101  2.0184
 2094SOL    HW217919   2.837   1.711   2.895 -1.4261 -1.5628  2.2833
 2095SOL     OW17920   4.606   2.086   5.657  0.1939  0.4459  0.5037
 2095SOL    HW117921   4.572   2.035   5.732  2.3305 -0.4580  0.8559
 2095SOL    HW217922   4.527   2.124   5.618  1.0985  2.5812  0.7986
 2096SOL     OW17923   1.378   0.758  16.472 -0.2004  0.3655 -0.7267
 2096SOL    HW117924   1.412   0.840  16.506 -0.0789 -0.0678  0.1953
 2096SOL    HW217925   1.286   0.782  16.472  0.4512  2.8365  0.4341
 2097SOL     OW17926   2.543   0.704   8.062 -0.0214 -0.2974  0.0347
 2097SOL    HW117927   2.632   0.731   8.038  0.0523  0.4795  1.1811
 2097SOL    HW217928   2.565   0.633   8.122 -1.5326 -0.4786  0.3599
 2098SOL     OW17929   3.462   0.029  10.932 -0.1427 -0.4395  0.5480
 2098SOL    HW117930   3.541   4.711  10.937  0.7179  0.8969  1.1046
 2098SOL    HW217931   3.415   0.009  10.851  1.4445 -2.0273  0.0233
 2099SOL     OW17932   3.283   1.331  12.987 -0.1178 -0.1718  0.0066
 2099SOL    HW117933   3.239   1.332  12.902 -1.4818  0.8896  0.7228
 2099SOL    HW217934   3.292   1.236  12.996 -0.3638 -0.1468  0.5176
 2100SOL     OW17935   4.376   4.283  11.610 -0.1659  0.0472 -0.3856
 2100SOL    HW117936   4.305   4.340  11.581  1.6039  0.7716 -3.3308
 2100SOL    HW217937   4.417   4.344  11.672 -1.0020 -1.0641  1.2504
 2101SOL     OW17938   2.834   3.877  11.974  0.1309  0.2097  0.1534
 2101SOL    HW117939   2.919   3.922  11.977 -1.4542  3.1738  0.2018
 2101SOL    HW217940   2.868   3.788  11.982 -2.4140 -0.8440 -0.7634
 2102SOL     OW17941   0.102   3.749   4.517 -0.1526 -0.1278 -0.4554
 2102SOL    HW117942   0.107   3.689   4.442  0.7274  1.6611 -1.8378
 2102SOL    HW217943   0.193   3.762   4.541 -0.2224  1.9988 -1.3302
 2103SOL     OW17944   0.805   0.444   3.921 -0.2777  0.1052  0.5602
 2103SOL    HW117945   0.870   0.512   3.904  0.5402 -1.1157 -1.2766
 2103SOL    HW217946   0.836   0.404   4.002 -1.4674 -0.0825  0.9355
 2104SOL     OW17947   0.757   1.682   5.860  0.0902  0.0286 -0.1295
 2104SOL    HW117948   0.798   1.768   5.851  1.6646 -0.6095  0.9536
 2104SOL    HW217949   0.723   1.682   5.949 -0.4813 -1.8951 -0.3426
 2105SOL     OW17950   3.898   2.724   4.317  0.3551  0.1396 -0.0814
 2105SOL    HW117951   3.947   2.670   4.379 -0.4151 -0.8145 -0.3173
 2105SOL    HW217952   3.943   2.809   4.317 -1.9928  1.3859 -1.3488
 2106SOL     OW17953   3.581   0.571   8.336  0.0353 -0.4822  0.3199
 2106SOL    HW117954   3.501   0.555   8.286  0.5368  0.4170 -0.7631
 2106SOL    HW217955   3.652   0.576   8.272  0.4994 -0.5775  0.8258
 2107SOL     OW17956   2.467   1.746  12.237  0.0078 -0.4305 -0.2162
 2107SOL    HW117957   2.543   1.697  12.267  1.2879  0.8194 -1.4004
 2107SOL    HW217958   2.502   1.827  12.275 -1.4233 -0.5211  1.2471
 2108SOL     OW17959   4.148   1.480   3.670 -0.2886  0.3305  0.1632
 2108SOL    HW117960   4.097   1.404   3.698  1.0007 -1.3542 -2.0624
 2108SOL    HW217961   4.145   1.535   3.748  0.1802  0.7477 -0.1087
 2109SOL     OW17962   3.257   3.064   6.379  0.3839  0.4679 -0.2840
 2109SOL    HW117963   3.280   2.974   6.359  0.2324 -0.3883  3.3962
 2109SOL    HW217964   3.235   3.047   6.471 -0.5242  0.5202 -0.4900
 2110SOL     OW17965   1.663   1.046   3.622  0.3773 -0.2215 -0.3704
 2110SOL    HW117966   1.576   1.084   3.633 -0.3093 -1.5206 -1.2317
 2110SOL    HW217967   1.644   0.953   3.611 -0.7771 -0.0805  0.3722
 2111SOL     OW17968   3.731   3.583   8.427 -0.0683 -0.4914 -0.2470
 2111SOL    HW117969   3.759   3.491   8.425  0.0802 -0.4576  0.6577
 2111SOL    HW217970   3.768   3.606   8.512 -0.8215 -0.1756 -0.0022
 2112SOL     OW17971   0.286   0.496  11.138 -0.2635 -0.0869 -0.3600
 2112SOL    HW117972   0.348   0.549  11.188 -0.6619  0.6844 -0.6648
 2112SOL    HW217973   0.330   0.483  11.055  2.3401  0.4593  0.9562
 2113SOL     OW17974   0.891   0.476  11.074 -0.1211  0.0352 -0.2430
 2113SOL    HW117975   0.954   0.547  11.090 -0.0631  0.1911 -1.1702
 2113SOL    HW217976   0.886   0.437  11.161 -1.7823  0.0339 -0.3313
 2114SOL     OW17977   1.263   3.750   5.523  0.7383 -0.4337  0.5443
 2114SOL    HW117978   1.216   3.723   5.444  0.5723 -2.2206  1.2597
 2114SOL    HW217979   1.352   3.718   5.511 -0.1769 -2.8190  0.0962
 2115SOL     OW17980   3.984   1.081   2.580 -0.6134  0.0297 -0.3551
 2115SOL    HW117981   4.028   1.052   2.500 -0.0845 -0.3501  0.0707
 2115SOL    HW217982   3.929   1.149   2.544 -0.3072  0.2521 -0.4032
 2116SOL     OW17983   1.163   1.901   4.786 -0.2071  0.8476 -0.2667
 2116SOL    HW117984   1.146   1.810   4.813  3.6236 -0.2069 -1.3172
 2116SOL    HW217985   1.100   1.952   4.836  0.4238  0.7026  0.6876
 2117SOL     OW17986   0.174   0.354   8.784 -1.1268 -0.3712  0.2398
 2117SOL    HW117987   0.160   0.448   8.796  1.6642  0.1776 -0.8767
 2117SOL    HW217988   0.197   0.337   8.875  0.0487 -3.0901 -0.5932
 2118SOL     OW17989   3.852   4.088   9.781  0.9661 -0.0014  0.1542
 2118SOL    HW117990   3.912   4.014   9.793  0.0738 -0.8439 -0.6383
 2118SOL    HW217991   3.786   4.045   9.727  0.3455  1.7453 -0.4716
 2119SOL     OW17992   0.497   3.567   2.268 -0.2880 -0.3000  0.0349
 2119SOL    HW117993   0.495   3.632   2.338  0.3121  0.1925 -0.4061
 2119SOL    HW217994   0.406   3.578   2.241 -0.6494 -3.2756  0.0148
 2120SOL     OW17995   0.800   1.470  15.153 -0.1761  0.3679  0.3231
 2120SOL    HW117996   0.724   1.448  15.207  0.6662 -0.5122  1.1444
 2120SOL    HW217997   0.863   1.508  15.214 -1.1928 -0.6126  2.0000
 2121SOL     OW17998   4.269   1.523   4.669 -0.3552 -0.2387 -0.2916
 2121SOL    HW117999   4.206   1.592   4.650  0.2822 -0.2198 -2.3803
 2121SOL    HW218000   4.343   1.571   4.631 -0.2064 -2.2853 -2.6280
 2122SOL     OW18001   2.781   0.853  15.956 -0.4227 -0.0181 -0.5261
 2122SOL    HW118002   2.805   0.907  15.880  1.0734 -0.2378 -0.2210
 2122SOL    HW218003   2.835   0.894  16.023 -1.4309  2.6982 -1.3809
 2123SOL     OW18004   0.942   1.218   6.733 -0.9840 -0.1303 -1.0589
 2123SOL    HW118005   0.916   1.296   6.782  0.5230  0.4084 -1.1199
 2123SOL    HW218006   1.038   1.225   6.734 -0.9567 -0.5626 -0.5564
 2124SOL     OW18007   3.629   3.890  17.292  0.4709  0.1120 -0.1028
 2124SOL    HW118008   3.585   3.923  17.370 -1.1143 -0.2060 -0.8541
 2124SOL    HW218009   3.721   3.886  17.316  0.0948 -0.0762  1.3000
 2125SOL     OW18010   3.923   4.124   8.778  0.2148  0.2070  0.4679
 2125SOL    HW118011   3.860   4.190   8.750  2.7165  1.8808 -1.2086
 2125SOL    HW218012   3.995   4.183   8.799  0.8236 -0.3478 -0.0732
 2126SOL     OW18013   4.344   0.820   8.179  0.2158  0.2364 -0.0146
 2126SOL    HW118014   4.362   0.854   8.091 -2.4034 -0.1701 -0.7142
 2126SOL    HW218015   4.400   0.876   8.233  1.3286  0.9223 -1.8768
 2127SOL     OW18016   0.562   1.227   1.455 -0.1376  0.1449  0.1772
 2127SOL    HW118017   0.568   1.243   1.361  1.1575  3.5891  0.8404
 2127SOL    HW218018   0.587   1.135   1.459  0.5192  0.2825 -0.8019
 2128SOL     OW18019   2.860   4.449   5.820 -0.3249  0.3433 -0.2261
 2128SOL    HW118020   2.934   4.509   5.831  1.1214 -1.6161  0.6851
 2128SOL    HW218021   2.846   4.459   5.726 -1.0403  0.0391 -0.1524
 2129SOL     OW18022   1.021   1.111  12.867 -0.4244 -0.0005  0.9542
 2129SOL    HW118023   1.113   1.135  12.860 -0.7222  0.9558  0.2513
 2129SOL    HW218024   0.982   1.162  12.938  1.7512  1.9781  0.7407
 2130SOL     OW18025   1.701   1.684   6.276 -0.5975 -0.2101 -0.7309
 2130SOL    HW118026   1.628   1.721   6.327  1.1467  1.3211  0.6526
 2130SOL    HW218027   1.710   1.758   6.216 -1.3112  0.0979 -0.4644
 2131SOL     OW18028   0.885   3.481   6.639 -0.0524  0.3347 -0.3859
 2131SOL    HW118029   0.804   3.487   6.689  0.8784 -0.1642  1.1683
 2131SOL    HW218030   0.938   3.547   6.683 -0.6732  0.0329  0.7993
 2132SOL     OW18031   2.841   2.634  13.373  0.5529 -0.2182  0.2787
 2132SOL    HW118032   2.827   2.711  13.318 -1.0281 -0.2743  0.6079
 2132SOL    HW218033   2.879   2.680  13.448  1.0903  0.3788 -0.3578
 2133SOL     OW18034   1.006   1.392   9.373  0.2627 -0.5047 -0.6679
 2133SOL    HW118035   0.976   1.482   9.363  0.6483 -0.2412  0.5149
 2133SOL    HW218036   1.099   1.401   9.352  0.3573 -1.3712 -0.6264
 2134SOL     OW18037   0.794   1.605   3.182  0.2296  0.1756 -0.1863
 2134SOL    HW118038   0.838   1.684   3.151 -0.2230  0.1306 -0.9477
 2134SOL    HW218039   0.866   1.542   3.186 -1.6788 -1.9073  1.1432
 2135SOL     OW18040   3.333   4.249   7.366  0.1703  0.0928  0.2678
 2135SOL    HW118041   3.339   4.333   7.320 -1.0712 -0.7974 -1.5158
 2135SOL    HW218042   3.350   4.176   7.306 -3.0911 -0.2655 -0.2216
 2136SOL     OW18043   3.108   0.679   4.200 -0.7959  0.3224  0.0058
 2136SOL    HW118044   3.096   0.643   4.112  2.1584 -1.7587  0.4384
 2136SOL    HW218045   3.123   0.770   4.173  1.2698  0.0375  0.1901
 2137SOL     OW18046   0.851   4.725   4.367 -0.3905 -0.2149 -0.1839
 2137SOL    HW118047   0.790   4.698   4.436  1.3573 -1.8171  0.7118
 2137SOL    HW218048   0.839   0.083   4.374 -2.3034 -0.6328  2.1608
 2138SOL     OW18049   3.375   3.116  16.338  0.3784 -0.8584 -0.5662
 2138SOL    HW118050   3.324   3.042  16.304  0.3121 -0.3838 -1.4970
 2138SOL    HW218051   3.424   3.069  16.406  0.4150 -1.5966 -1.1029
 2139SOL     OW18052   1.073   2.489   3.516  0.3038 -0.0281 -0.4520
 2139SOL    HW118053   1.050   2.527   3.431  0.4218 -0.4665 -0.6752
 2139SOL    HW218054   1.168   2.495   3.528  0.2280  0.9499 -0.2893
 2140SOL     OW18055   1.697   1.854   6.049  0.0719 -0.3343 -0.0486
 2140SOL    HW118056   1.616   1.898   6.075  2.6794  2.3790  3.5387
 2140SOL    HW218057   1.675   1.839   5.958 -2.5876 -0.3370  0.5945
 2141SOL     OW18058   3.272   0.330   9.104 -0.2464 -0.4846 -0.3851
 2141SOL    HW118059   3.225   0.395   9.157  1.9779 -0.2689  1.2785
 2141SOL    HW218060   3.262   0.385   9.026 -2.8028 -1.6337 -0.8628
 2142SOL     OW18061   4.582   2.474   1.894 -0.5068 -0.1273 -0.0294
 2142SOL    HW118062   4.515   2.468   1.963  0.9779  0.2004  1.4470
 2142SOL    HW218063   4.625   2.552   1.930  2.3680 -0.3832 -2.9715
 2143SOL     OW18064   0.840   4.067   2.175  0.6322  0.1593 -0.2012
 2143SOL    HW118065   0.875   4.051   2.087  0.2138 -0.7910 -0.2057
 2143SOL    HW218066   0.876   4.001   2.234 -0.0735 -0.5945 -0.6087
 2144SOL     OW18067   0.480   2.599   1.791 -0.0992 -0.2314 -0.3909
 2144SOL    HW118068   0.469   2.545   1.713 -0.5392 -0.9388  0.1629
 2144SOL    HW218069   0.450   2.539   1.860 -1.3584  0.3478 -0.4296
 2145SOL     OW18070   4.230   4.504  13.932 -0.0466 -0.0901  0.2964
 2145SOL    HW118071   4.240   4.522  13.839 -1.0344  0.3499  0.2811
 2145SOL    HW218072   4.136   4.516  13.940 -0.2868 -2.2706  0.6311
 2146SOL     OW18073   2.146   0.085   4.543  0.0879  0.2860  0.4855
 2146SOL    HW118074   2.232   0.071   4.581 -1.0931  0.3098  3.1900
 2146SOL    HW218075   2.086   0.045   4.606 -0.2594 -1.6116 -1.0267
 2147SOL     OW18076   0.774   3.152   9.607 -0.5252 -0.7908 -0.4835
 2147SOL    HW118077   0.707   3.190   9.550  0.5072  0.2083 -1.0394
 2147SOL    HW218078   0.743   3.177   9.694  1.3020 -3.6109  0.9622
 2148SOL     OW18079   0.165   2.195   3.490 -0.5992  0.2648  0.0732
 2148SOL    HW118080   0.107   2.126   3.456 -2.2067  1.4163  0.4355
 2148SOL    HW218081   0.248   2.179   3.445 -0.3380 -1.5625  1.2414
 2149SOL     OW18082   3.955   4.258   4.739  0.6311 -0.3519 -0.2095
 2149SOL    HW118083   3.928   4.318   4.669  1.3984  0.5581  0.2699
 2149SOL    HW218084   3.999   4.311   4.805  2.0152  0.0589 -1.4533
 2150SOL     OW18085   1.705   2.785   3.360 -0.0307  0.1026 -0.0955
 2150SOL    HW118086   1.731   2.765   3.449 -1.0068 -1.0476 -0.0679
 2150SOL    HW218087   1.710   2.701   3.313 -1.8778 -0.3374  0.4770
 2151SOL     OW18088   1.881   3.799   0.710 -0.1616 -0.3673  0.2337
 2151SOL    HW118089   1.813   3.750   0.755  0.0484 -0.1871  0.7382
 2151SOL    HW218090   1.942   3.734   0.675  1.2398  1.4496 -0.7046
 2152SOL     OW18091   1.110   2.423  10.184 -0.0696  0.0556 -0.1843
 2152SOL    HW118092   1.159   2.406  10.103 -2.0673 -1.0365 -1.1500
 2152SOL    HW218093   1.089   2.516  10.179 -1.4524 -0.1621  1.6503
 2153SOL     OW18094   0.619   3.910  17.095  0.2704  0.3030 -0.0582
 2153SOL    HW118095   0.554   3.917  17.026  1.6078 -4.0531 -1.7541
 2153SOL    HW218096   0.671   3.990  17.084 -0.4648  0.6967 -0.6354
 2154SOL     OW18097   1.289   2.761   6.692  0.1052  0.0184 -0.0087
 2154SOL    HW118098   1.378   2.784   6.720 -0.2318  0.0219  1.0326
 2154SOL    HW218099   1.299   2.734   6.601 -3.3085 -3.6670  0.7149
 2155SOL     OW18100   0.065   3.758   3.850 -0.6321  0.0377  0.3266
 2155SOL    HW118101   0.046   3.848   3.824 -1.5576 -0.3673 -0.3804
 2155SOL    HW218102   4.716   3.720   3.870  0.2580 -3.2833 -2.2707
 2156SOL     OW18103   3.693   2.315   8.206 -0.3160  0.2264 -0.1694
 2156SOL    HW118104   3.706   2.231   8.161  1.9746 -0.1343  1.1439
 2156SOL    HW218105   3.666   2.277   8.290 -0.0343 -0.6938 -0.4955
 2157SOL     OW18106   3.534   3.569  16.144 -0.3773 -0.4960 -0.4782
 2157SOL    HW118107   3.486   3.645  16.110  0.6998  0.7499  0.7915
 2157SOL    HW218108   3.582   3.609  16.217 -1.8478  4.4944 -2.2261
 2158SOL     OW18109   4.427   3.353  16.966 -0.0155 -0.1908 -0.2103
 2158SOL    HW118110   4.417   3.261  16.943 -1.5290 -0.4085  1.3485
 2158SOL    HW218111   4.433   3.354  17.061 -1.5780  3.3179 -0.1419
 2159SOL     OW18112   3.750   3.979   8.089 -0.2857  0.0231  0.3295
 2159SOL    HW118113   3.707   3.895   8.106 -2.7938  1.8684  2.9444
 2159SOL    HW218114   3.760   4.015   8.177  2.2057 -2.9234  1.2854
 2160SOL     OW18115   3.516   3.816  12.192 -0.5445  0.6788 -0.3010
 2160SOL    HW118116   3.609   3.832  12.175 -0.3182 -0.8388 -0.5203
 2160SOL    HW218117   3.515   3.828  12.287  0.4112 -2.0987  0.0501
 2161SOL     OW18118   4.076   2.595   9.149  0.6089  0.1771 -0.3789
 2161SOL    HW118119   4.168   2.573   9.133  0.5940 -0.3014  0.1834
 2161SOL    HW218120   4.084   2.630   9.238  1.5402  0.8536 -0.7370
 2162SOL     OW18121   1.028   1.541   2.854  0.1067 -0.2578  0.1086
 2162SOL    HW118122   1.111   1.543   2.901  0.7560  0.1440 -1.0915
 2162SOL    HW218123   1.032   1.471   2.789  0.9896 -0.5829  0.5177
 2163SOL     OW18124   2.040   3.581   0.634  0.0653 -0.6917 -0.1743
 2163SOL    HW118125   2.084   3.503   0.666  0.3205 -0.1132  0.8912
 2163SOL    HW218126   2.001   3.556   0.551  3.0433 -1.1251 -1.4379
 2164SOL     OW18127   1.634   3.594   9.073  0.2638 -0.1329  0.0829
 2164SOL    HW118128   1.651   3.534   9.146 -1.5583 -0.8312 -0.0803
 2164SOL    HW218129   1.581   3.538   9.017  0.3163 -0.9964  0.8881
 2165SOL     OW18130   0.236   0.936   5.907  0.2534  0.0441  0.2260
 2165SOL    HW118131   0.245   0.979   5.993  0.3441  0.2008  0.1393
 2165SOL    HW218132   0.316   0.966   5.863  1.4480 -2.2329  0.8681
 2166SOL     OW18133   0.210   4.254  15.243  0.4339  0.1787  0.0092
 2166SOL    HW118134   0.217   4.342  15.208 -0.5001 -0.2711 -1.2910
 2166SOL    HW218135   0.265   4.209  15.179 -1.2595  0.2591 -1.4815
 2167SOL     OW18136   2.648   3.246   7.717  0.6225  0.0650  0.2368
 2167SOL    HW118137   2.558   3.268   7.693  0.5057 -1.0880 -0.3583
 2167SOL    HW218138   2.659   3.187   7.643 -1.1030 -1.4096  1.1716
 2168SOL     OW18139   0.021   0.507   4.039  0.1451 -0.3000 -0.4141
 2168SOL    HW118140   4.694   0.551   3.982  1.4904  0.4948 -1.3074
 2168SOL    HW218141   0.002   0.414   4.034  1.1870 -0.4545 -1.5395
 2169SOL     OW18142   4.011   2.689   6.459  0.2518 -0.8087 -0.6815
 2169SOL    HW118143   3.982   2.773   6.493  1.4334 -1.0462  0.9076
 2169SOL    HW218144   4.038   2.649   6.541 -0.9835 -0.3679 -0.0626
 2170SOL     OW18145   2.015   1.623   0.200 -0.3838 -0.1621 -0.5444
 2170SOL    HW118146   2.005   1.663   0.113 -1.8804 -2.9646 -1.7122
 2170SOL    HW218147   2.103   1.654   0.217 -0.2251 -0.4953 -0.7401
 2171SOL     OW18148   0.487   2.948  12.094  0.4349 -0.0327 -0.1443
 2171SOL    HW118149   0.447   2.937  12.007 -2.0409  2.9802  0.5949
 2171SOL    HW218150   0.501   2.855  12.106  0.1154 -0.0725 -0.0816
 2172SOL     OW18151   4.705   2.948   0.917  0.0892  0.4956 -0.3211
 2172SOL    HW118152   0.057   2.980   0.935  0.0986 -1.0728  2.3723
 2172SOL    HW218153   4.669   2.918   1.000  1.3485 -1.0980 -0.3498
 2173SOL     OW18154   2.103   0.862  11.318 -0.1121  0.3250 -0.4147
 2173SOL    HW118155   2.141   0.931  11.264  1.9433  0.5474  1.2809
 2173SOL    HW218156   2.014   0.873  11.284  0.6719  1.1598 -2.2209
 2174SOL     OW18157   1.750   4.392  17.637  0.1585  0.0048 -0.6227
 2174SOL    HW118158   1.831   4.386  17.687  0.1999  0.0776 -0.6816
 2174SOL    HW218159   1.693   4.432  17.702 -0.6087 -0.7749 -0.8081
 2175SOL     OW18160   3.582   0.812  17.374  0.9873 -0.6937  0.3843
 2175SOL    HW118161   3.641   0.876  17.413  1.6725 -0.6854 -0.6505
 2175SOL    HW218162   3.616   0.731  17.410  1.0651 -0.9799 -0.3207
 2176SOL     OW18163   2.144   0.435   0.767  0.1472 -0.4004 -0.0443
 2176SOL    HW118164   2.205   0.459   0.698 -0.3510 -3.5733 -1.5650
 2176SOL    HW218165   2.125   0.525   0.794 -0.4717 -0.1896 -1.2177
 2177SOL     OW18166   3.960   3.081  16.130  0.0134 -0.2722  0.1962
 2177SOL    HW118167   3.970   3.033  16.212  0.4595  1.7329  1.3175
 2177SOL    HW218168   3.978   3.009  16.069 -0.5757 -1.1869  1.0948
 2178SOL     OW18169   2.926   0.029   3.150  0.1210 -0.0933  0.1695
 2178SOL    HW118170   3.022   0.036   3.156  0.1624 -0.1942 -0.4372
 2178SOL    HW218171   2.889   0.117   3.157  0.5314  0.2186 -1.6183
 2179SOL     OW18172   4.328   1.931  10.556  0.2523 -0.1411  0.0933
 2179SOL    HW118173   4.260   1.892  10.502  2.5222 -2.5523 -1.0470
 2179SOL    HW218174   4.402   1.903  10.502  0.6525  0.1009  0.5179
 2180SOL     OW18175   4.595   3.376   4.510  0.3749  0.3716 -0.5204
 2180SOL    HW118176   4.511   3.381   4.554  0.5297  0.5027 -0.2368
 2180SOL    HW218177   4.588   3.281   4.501 -0.6704  0.4388 -0.3265
 2181SOL     OW18178   2.685   0.104   6.630 -0.3486  0.4932  0.5356
 2181SOL    HW118179   2.644   0.018   6.636  0.2488  0.1716 -0.1132
 2181SOL    HW218180   2.633   0.146   6.562  0.5421 -2.0648 -1.7128
 2182SOL     OW18181   3.206   2.873   7.902 -0.2388 -0.6288  0.3570
 2182SOL    HW118182   3.195   2.838   7.814  0.0469  0.4661 -0.1178
 2182SOL    HW218183   3.160   2.812   7.960 -1.2826  0.8325  1.0605
 2183SOL     OW18184   1.051   4.531   5.594  0.2531 -0.1958  0.5142
 2183SOL    HW118185   0.996   4.601   5.630  1.7983  1.6277 -0.6544
 2183SOL    HW218186   0.982   4.472   5.562 -2.0230  1.7896  1.7253
 2184SOL     OW18187   4.233   1.140   8.992  0.3336 -0.4699  0.0380
 2184SOL    HW118188   4.322   1.176   8.996 -0.0739  0.0457  3.7857
 2184SOL    HW218189   4.211   1.140   9.085 -0.6767  0.3919 -0.2041
 2185SOL     OW18190   0.933   3.360   9.707  0.1680  0.0676  0.1539
 2185SOL    HW118191   0.940   3.270   9.674  1.4496  0.3109 -0.2380
 2185SOL    HW218192   0.937   3.334   9.799  0.2866  1.4502  0.5386
 2186SOL     OW18193   1.798   1.593   6.681 -0.1718 -0.0916  0.3161
 2186SOL    HW118194   1.813   1.557   6.768 -0.4083 -2.6800 -0.6872
 2186SOL    HW218195   1.846   1.528   6.629 -1.4460  1.0768 -2.3341
 2187SOL     OW18196   2.124   0.270   6.950  0.4942 -0.0522 -0.0190
 2187SOL    HW118197   2.132   0.348   7.003 -0.3139 -1.0583  1.5787
 2187SOL    HW218198   2.212   0.260   6.911  0.7709 -0.0268  0.6082
 2188SOL     OW18199   3.631   1.169   4.179  0.4549  0.1535  0.4938
 2188SOL    HW118200   3.690   1.149   4.252 -0.5993  0.6813  1.4868
 2188SOL    HW218201   3.623   1.264   4.179 -1.8382 -0.0442 -0.8591
 2189SOL     OW18202   2.267   0.756   9.305  0.7573  0.1653 -0.1984
 2189SOL    HW118203   2.310   0.672   9.285 -1.6743 -1.3601  0.9879
 2189SOL    HW218204   2.318   0.784   9.380  0.3248 -0.4096  0.3128
 2190SOL     OW18205   0.989   1.353   2.666  0.0306  0.1286  0.0236
 2190SOL    HW118206   0.966   1.438   2.628 -0.5723  0.6596  1.5785
 2190SOL    HW218207   1.011   1.312   2.582  0.9484  2.0544 -0.6641
 2191SOL     OW18208   1.813   4.560   7.040  0.4905  0.0819 -0.0730
 2191SOL    HW118209   1.823   4.576   6.946  1.0022  1.3265  0.1916
 2191SOL    HW218210   1.856   4.478   7.062 -0.7681 -0.5183  0.1289
 2192SOL     OW18211   1.821   4.322   6.764 -0.0176  0.0227  0.0363
 2192SOL    HW118212   1.887   4.289   6.704  0.6486  0.7728  0.3664
 2192SOL    HW218213   1.825   4.416   6.776 -1.6089  0.0198  0.6517
 2193SOL     OW18214   3.790   2.898   6.948 -0.3573 -0.2049 -0.5790
 2193SOL    HW118215   3.775   2.960   7.019 -1.6097 -1.0253 -0.1228
 2193SOL    HW218216   3.815   2.952   6.873  0.2798  1.2730  0.6973
 2194SOL     OW18217   4.221   1.509  12.593 -0.2969  0.6994 -0.9861
 2194SOL    HW118218   4.306   1.466  12.598 -0.1557  1.0194 -0.6153
 2194SOL    HW218219   4.215   1.562  12.672  0.3806 -2.2650  1.0270
 2195SOL     OW18220   2.131   0.339   2.161 -0.6176 -0.1693 -0.2505
 2195SOL    HW118221   2.192   0.332   2.087 -0.1002 -2.0556  0.3450
 2195SOL    HW218222   2.131   0.432   2.182 -1.0913  0.0374 -1.1758
 2196SOL     OW18223   2.597   2.967   5.719  0.1709 -0.0172  0.4759
 2196SOL    HW118224   2.606   2.879   5.680  1.4480  0.9100 -1.3381
 2196SOL    HW218225   2.504   2.984   5.710  0.3804  2.3241  2.8139
 2197SOL     OW18226   4.031   2.371   3.456  0.1101 -0.0873 -0.1142
 2197SOL    HW118227   3.965   2.348   3.389 -0.8359  1.2677  0.3564
 2197SOL    HW218228   3.991   2.455   3.478 -0.8419 -0.4893 -0.2937
 2198SOL     OW18229   0.546   2.222   0.360  0.0112  0.0897  0.5991
 2198SOL    HW118230   0.557   2.128   0.376 -0.8623 -0.5264 -2.4137
 2198SOL    HW218231   0.535   2.260   0.447 -0.8258  1.8169 -0.2586
 2199SOL     OW18232   2.122   1.905   1.192 -0.4554  0.1795 -0.2771
 2199SOL    HW118233   2.030   1.896   1.215 -0.7596 -0.5204 -1.7570
 2199SOL    HW218234   2.160   1.934   1.275 -1.0426 -0.7290  0.3027
 2200SOL     OW18235   3.057   2.139   2.498 -0.4068 -0.1306  0.5880
 2200SOL    HW118236   2.975   2.117   2.455 -0.2721 -1.4414  1.0052
 2200SOL    HW218237   3.024   2.176   2.579  0.9707  0.0332  1.0789
 2201SOL     OW18238   0.085   0.477  10.301 -0.2971 -0.6872 -0.1013
 2201SOL    HW118239   0.091   0.383  10.318  1.0534 -0.1763  2.1336
 2201SOL    HW218240   0.115   0.476  10.210  1.5989  2.2363  0.4825
 2202SOL     OW18241   4.150   0.597  16.953  0.4042  0.0832  0.3282
 2202SOL    HW118242   4.064   0.587  16.912 -0.3033 -0.0942  1.8754
 2202SOL    HW218243   4.144   0.692  16.954 -0.6078  0.0684 -2.7868
 2203SOL     OW18244   1.419   0.534  10.003  0.3844  0.6024 -0.0690
 2203SOL    HW118245   1.348   0.533   9.940  0.2673 -0.6642  0.0710
 2203SOL    HW218246   1.379   0.568  10.083  0.7322  2.6018 -0.7409
 2204SOL     OW18247   3.439   1.459  15.935  0.7019  0.0217  0.3076
 2204SOL    HW118248   3.526   1.421  15.937 -0.6857 -3.1669 -0.5293
 2204SOL    HW218249   3.461   1.552  15.942 -0.8847  0.2883  1.7175
 2205SOL     OW18250   3.554   3.825   4.121  0.2256  0.6351 -0.2721
 2205SOL    HW118251   3.590   3.840   4.034 -1.7465 -0.1427 -1.1952
 2205SOL    HW218252   3.633   3.801   4.170  0.2450  0.7513 -0.2457
 2206SOL     OW18253   3.293   1.178   2.784 -0.0459 -0.0968  0.1337
 2206SOL    HW118254   3.245   1.100   2.757  2.7922 -2.0703  0.7400
 2206SOL    HW218255   3.368   1.138   2.830 -0.7517 -0.1111  1.2816
 2207SOL     OW18256   3.426   4.208   3.889 -0.4323  0.3804  0.0424
 2207SOL    HW118257   3.381   4.290   3.911 -0.0414  0.1074  1.8609
 2207SOL    HW218258   3.401   4.207   3.796  0.7939  0.3668 -0.2816
 2208SOL     OW18259   2.466   2.214  12.420  0.0996 -0.3531 -0.0066
 2208SOL    HW118260   2.530   2.282  12.440 -0.0305 -0.0657 -0.5959
 2208SOL    HW218261   2.408   2.219  12.497  2.0237  1.6860  1.3297
 2209SOL     OW18262   0.360   1.488   3.692 -0.5460  0.1593  0.0839
 2209SOL    HW118263   0.366   1.547   3.616 -3.0911  1.0233  0.5472
 2209SOL    HW218264   0.276   1.448   3.670 -1.3153  1.6368  0.3490
 2210SOL     OW18265   0.410   4.606   2.398 -0.6372 -0.1116 -0.3032
 2210SOL    HW118266   0.347   4.675   2.416 -1.8192 -1.1790 -0.3504
 2210SOL    HW218267   0.354   4.543   2.352  1.7758 -1.1346 -1.8485
 2211SOL     OW18268   2.870   0.141   8.664  0.0733  0.3810  0.1902
 2211SOL    HW118269   2.830   0.111   8.745  1.2387  0.9732  0.9866
 2211SOL    HW218270   2.954   0.095   8.669 -0.5063 -0.9194 -2.0988
 2212SOL     OW18271   3.652   1.673   1.726 -0.5874  0.0158  0.4353
 2212SOL    HW118272   3.698   1.604   1.774 -1.0495 -2.1780 -2.2816
 2212SOL    HW218273   3.715   1.686   1.655 -0.2607 -0.3561  0.6530
 2213SOL     OW18274   1.090   4.173   8.167 -0.1588  0.0699  0.4172
 2213SOL    HW118275   1.031   4.239   8.132 -2.5460 -1.8089  0.9297
 2213SOL    HW218276   1.097   4.200   8.258 -0.8933  1.3285  0.0953
 2214SOL     OW18277   2.471   0.579   4.262  0.4202  0.0739 -0.1288
 2214SOL    HW118278   2.443   0.533   4.341 -1.7848  0.7259 -0.5105
 2214SOL    HW218279   2.526   0.513   4.222  0.9551  0.9322 -0.8128
 2215SOL     OW18280   1.785   3.440   1.517 -0.8222  0.2240  0.0088
 2215SOL    HW118281   1.844   3.456   1.591 -0.7194  0.2685 -0.0830
 2215SOL    HW218282   1.776   3.532   1.493  0.2254  0.6557  1.2623
 2216SOL     OW18283   0.034   2.355   0.000 -0.3813 -0.0052  0.1331
 2216SOL    HW118284   0.104   2.367   0.065 -0.5137  0.2597  0.2267
 2216SOL    HW218285   0.050   2.267  17.709 -1.9020 -0.7352  1.3307
 2217SOL     OW18286   0.669   3.061  16.482  0.4227  0.0342  0.8994
 2217SOL    HW118287   0.755   3.047  16.522  0.1548 -2.1980  0.6928
 2217SOL    HW218288   0.600   3.045  16.546 -2.0864  1.3572 -1.4421
 2218SOL     OW18289   4.428   4.431  11.836  0.4556 -0.7451 -0.4105
 2218SOL    HW118290   4.430   4.386  11.921 -1.6978  1.0683  0.6009
 2218SOL    HW218291   4.340   4.468  11.842  1.1773  0.9085  0.1923
 2219SOL     OW18292   0.258   3.606   7.669 -0.2866 -0.0494 -0.1100
 2219SOL    HW118293   0.321   3.534   7.664  0.3104  0.3197  1.8883
 2219SOL    HW218294   0.215   3.596   7.584  0.8337 -0.8061 -0.5782
 2220SOL     OW18295   0.547   4.238   7.019 -0.0311  0.5676  0.1415
 2220SOL    HW118296   0.517   4.312   7.072 -0.4129  1.6096 -1.5242
 2220SOL    HW218297   0.625   4.216   7.070  0.3619 -2.2024 -1.6920
 2221SOL     OW18298   1.089   1.348   7.725 -0.1328  0.3028  0.3435
 2221SOL    HW118299   1.044   1.270   7.692  0.8794 -0.7102  1.3654
 2221SOL    HW218300   1.075   1.414   7.657 -1.4836  0.0879  0.4149
 2222SOL     OW18301   2.723   0.148   2.796 -0.2214  0.1173 -0.1531
 2222SOL    HW118302   2.642   0.145   2.746 -0.1469  0.2007 -0.2773
 2222SOL    HW218303   2.736   0.242   2.803 -0.8139  0.2318 -0.6118
 2223SOL     OW18304   4.682   0.792   9.751  0.1504 -0.4399  0.0946
 2223SOL    HW118305   4.623   0.778   9.677  0.4404 -2.5708  0.2755
 2223SOL    HW218306   4.640   0.732   9.813 -3.3202  1.6498 -0.2017
 2224SOL     OW18307   4.541   4.595   8.417 -0.2202  0.0772  1.2145
 2224SOL    HW118308   4.559   4.680   8.457 -1.4573  1.3690 -0.9560
 2224SOL    HW218309   4.621   4.578   8.368 -1.2980  1.6665 -1.1079
 2225SOL     OW18310   4.635   1.373   3.813  0.5352  0.3882 -0.3509
 2225SOL    HW118311   4.611   1.450   3.865  1.7281  0.6412 -0.1815
 2225SOL    HW218312   4.606   1.299   3.866 -0.8351  0.4009 -1.0895
 2226SOL     OW18313   1.968   1.700  14.512  0.2776 -0.2860 -0.0813
 2226SOL    HW118314   1.947   1.620  14.560 -0.6769  1.3161  2.2041
 2226SOL    HW218315   1.890   1.714  14.458  1.1019 -1.2380 -1.5019
 2227SOL     OW18316   3.705   3.413   9.850 -0.5806 -0.7605 -0.7073
 2227SOL    HW118317   3.769   3.363   9.800  1.9799  2.5400 -0.7415
 2227SOL    HW218318   3.676   3.468   9.777  0.7411  1.2059  0.2405
 2228SOL     OW18319   0.412   2.262   8.073  0.1852 -0.2435  0.3273
 2228SOL    HW118320   0.324   2.225   8.079  0.6591 -1.9053 -2.4016
 2228SOL    HW218321   0.420   2.319   8.149 -0.6553 -2.7007  2.2828
 2229SOL     OW18322   0.391   0.744   8.246 -0.0007 -0.2215  0.1417
 2229SOL    HW118323   0.312   0.690   8.255 -0.0208 -0.2361 -0.1358
 2229SOL    HW218324   0.353   0.832   8.239  0.4295  0.1410  2.2399
 2230SOL     OW18325   4.374   2.024   3.413  0.3768 -0.1993 -0.1118
 2230SOL    HW118326   4.404   2.112   3.388  1.3699 -0.4169  0.3075
 2230SOL    HW218327   4.363   2.031   3.508  1.0872 -1.6111  0.0638
 2231SOL     OW18328   0.575   3.585  11.511  0.3136 -0.4238 -0.1910
 2231SOL    HW118329   0.494   3.626  11.483  1.5023  2.2956  0.3146
 2231SOL    HW218330   0.591   3.519  11.444 -0.8550  0.1742 -1.0419
 2232SOL     OW18331   3.049   2.735   2.622  0.1240 -0.0697 -0.2280
 2232SOL    HW118332   3.029   2.751   2.714 -1.3100 -0.2282 -0.5042
 2232SOL    HW218333   2.990   2.662   2.606  1.2684 -0.9629 -0.2969
 2233SOL     OW18334   3.781   0.899   1.989 -0.6114  0.4265  0.0811
 2233SOL    HW118335   3.778   0.973   2.050 -0.0616 -0.3132  1.0027
 2233SOL    HW218336   3.869   0.868   2.004 -0.5435  1.6724  2.2463
 2234SOL     OW18337   1.383   4.120   2.803 -0.3166 -0.1940 -0.0873
 2234SOL    HW118338   1.403   4.147   2.713 -1.7001  2.4066  0.4127
 2234SOL    HW218339   1.314   4.182   2.823  0.2036 -0.5473  2.7905
 2235SOL     OW18340   0.902   0.394   0.436 -0.0963  0.2911  0.3427
 2235SOL    HW118341   0.897   0.366   0.345  0.4282 -0.1750  0.4549
 2235SOL    HW218342   0.913   0.316   0.490 -0.9515 -0.4182 -0.5187
 2236SOL     OW18343   1.964   4.270   5.315 -0.6353  0.1162  0.1230
 2236SOL    HW118344   2.008   4.323   5.248 -2.4772  0.9018 -0.4386
 2236SOL    HW218345   1.872   4.276   5.292 -0.6967  0.5126  0.4824
 2237SOL     OW18346   0.936   4.316   3.363 -0.3169  0.4783  0.4486
 2237SOL    HW118347   0.937   4.360   3.278  3.5085  0.9154  0.6823
 2237SOL    HW218348   0.998   4.372   3.410  1.1193 -1.2907  0.6713
 2238SOL     OW18349   4.478   1.231  12.988 -0.0480 -0.1784  0.4972
 2238SOL    HW118350   4.408   1.186  12.940  1.1383 -1.1112 -0.3458
 2238SOL    HW218351   4.531   1.281  12.927  0.3493 -0.1962  0.8261
 2239SOL     OW18352   1.267   2.944   9.287  0.0488  0.0372 -0.3826
 2239SOL    HW118353   1.308   2.866   9.249 -0.8910 -0.4353 -0.4190
 2239SOL    HW218354   1.322   3.017   9.255 -1.0388  0.3367 -1.5803
 2240SOL     OW18355   3.066   1.392   7.983  0.4272  0.0049  0.6299
 2240SOL    HW118356   2.979   1.359   7.961  0.7571  0.0606 -0.7567
 2240SOL    HW218357   3.028   1.466   8.031 -1.1838 -0.3058 -0.1423
 2241SOL     OW18358   4.314   3.967   4.024  0.6033 -0.4201 -0.0015
 2241SOL    HW118359   4.268   3.948   4.106 -1.0985  1.3318 -0.5422
 2241SOL    HW218360   4.240   4.001   3.975  1.6243  2.2497  0.2619
 2242SOL     OW18361   4.545   1.052   8.623 -0.1605 -0.1089 -0.0349
 2242SOL    HW118362   4.497   0.979   8.663  0.3923  0.7401  2.2015
 2242SOL    HW218363   4.503   1.135   8.647  0.5331  0.5667 -1.1534
 2243SOL     OW18364   2.972   3.403  17.256  0.4302 -0.2004  0.8504
 2243SOL    HW118365   2.978   3.497  17.273 -3.4866  0.1969 -0.1393
 2243SOL    HW218366   3.055   3.387  17.210 -0.7337 -0.4216 -1.1665
 2244SOL     OW18367   1.286   2.310  10.607 -0.7105  0.0622 -0.1386
 2244SOL    HW118368   1.267   2.261  10.527  1.6122 -1.5904  0.3037
 2244SOL    HW218369   1.374   2.345  10.590 -0.8630  0.9065  0.7956
 2245SOL     OW18370   3.341   4.453   6.650 -0.3520 -0.1892  0.3418
 2245SOL    HW118371   3.247   4.440   6.659 -0.3704  0.0249  0.4683
 2245SOL    HW218372   3.355   4.548   6.652 -0.2914 -0.1973  0.2840
 2246SOL     OW18373   2.827   3.099   3.916 -0.4792 -0.0527  0.2470
 2246SOL    HW118374   2.800   3.073   4.004  0.7201 -0.4875  0.4752
 2246SOL    HW218375   2.869   3.024   3.875  0.5930  0.5804  0.2043
 2247SOL     OW18376   2.094   3.382   7.326 -0.0734  0.2681  0.5507
 2247SOL    HW118377   2.184   3.360   7.348  1.6064  4.4573 -2.1793
 2247SOL    HW218378   2.112   3.470   7.293 -2.3291  1.1155  1.5738
 2248SOL     OW18379   4.404   4.342   8.479 -0.1097  0.4413  0.4211
 2248SOL    HW118380   4.365   4.334   8.392 -0.7340  1.1235  0.6417
 2248SOL    HW218381   4.456   4.423   8.475 -3.4750  2.5353 -0.5673
 2249SOL     OW18382   0.765   0.126   7.356  0.0537 -0.1402 -0.4568
 2249SOL    HW118383   0.767   0.041   7.312  1.0797  0.4052 -1.4748
 2249SOL    HW218384   0.845   0.171   7.326  1.4438 -1.4755  1.2285
 2250SOL     OW18385   4.087   1.607   0.681  0.1494 -0.3908  0.2233
 2250SOL    HW118386   4.105   1.629   0.590  0.0560  1.6515  0.6885
 2250SOL    HW218387   4.021   1.669   0.713  1.6608  1.6114 -0.6070
 2251SOL     OW18388   4.272   2.334  13.004 -0.0654 -0.6642  0.5603
 2251SOL    HW118389   4.320   2.275  13.062 -3.0614 -2.1102  1.5970
 2251SOL    HW218390   4.295   2.287  12.924 -0.2965 -0.0282  0.1186
 2252SOL     OW18391   4.720   1.570   3.047  0.1040  0.3284  0.3517
 2252SOL    HW118392   4.636   1.526   3.036  0.4966  0.1210 -1.9082
 2252SOL    HW218393   4.694   1.653   3.086  0.0650  0.0363  0.9496
 2253SOL     OW18394   3.676   4.631   5.329 -0.6364  0.0611  0.2210
 2253SOL    HW118395   3.744   4.694   5.353 -0.0159  0.3289 -2.2028
 2253SOL    HW218396   3.677   4.567   5.400 -3.1261 -2.1802 -1.7552
 2254SOL     OW18397   4.542   2.895   6.398  0.4852 -0.0378 -0.2102
 2254SOL    HW118398   4.569   2.930   6.483 -0.4989 -3.1154  1.3890
 2254SOL    HW218399   4.629   2.873   6.364  0.6889 -1.4158  1.2114
 2255SOL     OW18400   2.552   0.843   4.251  0.2319  0.6212  0.4128
 2255SOL    HW118401   2.533   0.751   4.233  0.3379  0.5246  0.8089
 2255SOL    HW218402   2.498   0.891   4.188  1.3948  2.5099  0.8476
 2256SOL     OW18403   2.219   2.999  16.787 -0.3475 -0.6538 -0.2752
 2256SOL    HW118404   2.305   2.977  16.824 -0.4258 -1.8815 -0.7949
 2256SOL    HW218405   2.199   2.915  16.744 -0.8704  0.2418 -1.7700
 2257SOL     OW18406   3.094   3.427   8.760  0.4024 -0.4008  0.4162
 2257SOL    HW118407   3.159   3.423   8.689  1.0246 -2.0083  1.0840
 2257SOL    HW218408   3.020   3.378   8.727 -0.1682  0.8750 -0.2077
 2258SOL     OW18409   4.014   0.732   6.817 -0.7525 -0.2190  0.0924
 2258SOL    HW118410   3.994   0.823   6.838  2.4555  0.3984  0.4916
 2258SOL    HW218411   4.099   0.717   6.859 -0.4296  1.6917  0.1110
 2259SOL     OW18412   0.862   4.402   2.721  0.1683  0.2147  0.8199
 2259SOL    HW118413   0.834   4.453   2.797 -1.3603  0.0250  0.3860
 2259SOL    HW218414   0.924   4.464   2.680 -2.6451  2.9170  0.6440
 2260SOL     OW18415   3.788   0.939  11.529  0.4453  0.1749 -0.6005
 2260SOL    HW118416   3.768   0.884  11.452  2.2614 -0.3457 -0.6979
 2260SOL    HW218417   3.803   0.881  11.604  1.0861 -1.1908 -1.7636
 2261SOL     OW18418   1.902   0.652   9.274 -0.0200 -0.3275  0.3070
 2261SOL    HW118419   1.943   0.722   9.223  0.7152 -0.5247  0.6240
 2261SOL    HW218420   1.931   0.677   9.362 -0.0798  2.1083 -0.3417
 2262SOL     OW18421   0.282   0.661   1.698 -0.1755  0.0124 -0.1760
 2262SOL    HW118422   0.331   0.743   1.707  1.9760 -1.3846  0.8700
 2262SOL    HW218423   0.308   0.616   1.778  0.1066  0.6666  0.1100
 2263SOL     OW18424   4.184   2.788   7.010 -0.0331  0.0762 -0.8114
 2263SOL    HW118425   4.159   2.696   7.001  0.8123 -0.0523 -1.7641
 2263SOL    HW218426   4.158   2.817   7.098 -0.3920  1.0872 -1.2519
 2264SOL     OW18427   0.150   2.250   6.130 -0.1381  0.1205  0.1982
 2264SOL    HW118428   0.138   2.172   6.076  0.7631 -0.1948  0.4595
 2264SOL    HW218429   0.166   2.310   6.057  1.0446  1.3772  1.4899
 2265SOL     OW18430   3.618   0.329   4.026  0.4190 -0.2396  0.1660
 2265SOL    HW118431   3.678   0.281   4.083  0.1752 -0.9638 -0.1811
 2265SOL    HW218432   3.541   0.278   4.052 -0.3284  0.3040 -0.9934
 2266SOL     OW18433   3.644   2.745  17.426  0.0999 -0.2336  0.1344
 2266SOL    HW118434   3.670   2.732  17.334  2.5557 -1.4774  0.9871
 2266SOL    HW218435   3.684   2.830  17.444  1.6355 -0.6657 -1.1434
 2267SOL     OW18436   3.898   3.507   4.227  0.2343 -0.2151  0.2845
 2267SOL    HW118437   3.856   3.468   4.150 -0.3304  0.2991  0.3347
 2267SOL    HW218438   3.980   3.529   4.183 -0.8518  2.0782 -0.6325
 2268SOL     OW18439   1.537   1.020   8.269 -0.1496 -0.5833  0.1524
 2268SOL    HW118440   1.498   1.105   8.250  2.4007  0.9510  1.9058
 2268SOL    HW218441   1.584   0.996   8.189  0.0075 -1.5473  0.5264
 2269SOL     OW18442   2.495   1.584   2.830  0.1556  0.2882  0.0582
 2269SOL    HW118443   2.496   1.514   2.895 -1.2696  0.9946  0.8320
 2269SOL    HW218444   2.507   1.533   2.750 -0.9533  1.6325 -0.9771
 2270SOL     OW18445   4.494   2.389  10.604 -0.7353 -0.5268  0.2370
 2270SOL    HW118446   4.553   2.423  10.672  1.0780 -0.5329 -1.3208
 2270SOL    HW218447   4.457   2.311  10.646  1.7527 -1.1651  1.2422
 2271SOL     OW18448   0.184   4.228   7.860 -0.1658  0.1763 -0.3629
 2271SOL    HW118449   0.149   4.257   7.776 -2.1674 -3.3210 -0.7004
 2271SOL    HW218450   0.105   4.231   7.915 -0.3170 -0.1357 -0.5667
 2272SOL     OW18451   3.201   1.858   7.479  0.4679 -0.0446  0.0354
 2272SOL    HW118452   3.137   1.898   7.419 -0.2208  1.1026  1.5419
 2272SOL    HW218453   3.166   1.772   7.502 -0.8343 -0.0587 -1.9503
 2273SOL     OW18454   3.123   0.866   8.425 -0.1397  0.6316 -0.5868
 2273SOL    HW118455   3.080   0.942   8.466 -0.4874 -0.4648  1.0845
 2273SOL    HW218456   3.133   0.809   8.501 -0.2659  0.7840 -0.4555
 2274SOL     OW18457   1.939   4.371  17.313  0.5866 -0.2010  0.2830
 2274SOL    HW118458   1.989   4.438  17.266  1.6716 -0.5355  0.9640
 2274SOL    HW218459   2.003   4.300  17.316 -0.2144 -0.8489  2.1105
 2275SOL     OW18460   3.439   1.925   7.837  0.1082 -0.1063 -0.0705
 2275SOL    HW118461   3.531   1.951   7.846 -0.6168  2.1573  0.6136
 2275SOL    HW218462   3.454   1.865   7.763  1.4017  0.9693 -0.6784
 2276SOL     OW18463   2.408   0.378   8.848  0.5068  0.1097 -0.4984
 2276SOL    HW118464   2.454   0.418   8.921  2.3168 -2.4528 -0.2305
 2276SOL    HW218465   2.336   0.333   8.891  1.2919 -1.0287 -0.3856
 2277SOL     OW18466   1.687   3.122   7.274 -0.4675  0.0968  0.3665
 2277SOL    HW118467   1.711   3.083   7.358 -0.3908  0.0568  0.3261
 2277SOL    HW218468   1.724   3.062   7.209 -1.9056  0.5938 -0.9256
 2278SOL     OW18469   0.791   3.858   2.617 -0.0793  0.2665  0.8616
 2278SOL    HW118470   0.882   3.830   2.630 -0.7247 -2.5714 -0.7063
 2278SOL    HW218471   0.797   3.951   2.593 -0.9617  0.5902  1.8936
 2279SOL     OW18472   4.262   4.730   7.058  0.5683 -0.3623  0.0760
 2279SOL    HW118473   4.337   4.702   7.110 -0.1072  2.2687  2.4469
 2279SOL    HW218474   4.313   4.733   6.977  0.1953  0.2412 -0.1398
 2280SOL     OW18475   4.653   0.016   6.330  0.3837 -0.0296  0.5089
 2280SOL    HW118476   4.620   0.106   6.334 -0.7188 -0.3606 -1.2167
 2280SOL    HW218477   4.735   0.033   6.377  1.2347 -1.9274 -0.2938
 2281SOL     OW18478   3.351   3.383  15.171 -0.3615  0.1535  0.7390
 2281SOL    HW118479   3.414   3.317  15.199  0.8813  0.9739 -0.1302
 2281SOL    HW218480   3.299   3.341  15.103  0.9078  1.0226 -0.7576
 2282SOL     OW18481   1.843   3.612   7.177  0.6471 -0.8062 -0.0839
 2282SOL    HW118482   1.750   3.597   7.163  1.2929 -3.4625 -1.4582
 2282SOL    HW218483   1.869   3.701   7.154 -1.7071  0.5779  2.6110
 2283SOL     OW18484   0.284   1.730  12.272  0.3539 -0.3740  0.0172
 2283SOL    HW118485   0.247   1.730  12.360  1.8145 -1.2455  0.6350
 2283SOL    HW218486   0.375   1.757  12.283  0.1862  0.2193 -0.0669
 2284SOL     OW18487   4.000   1.205   9.757 -0.2270  0.5056  0.0784
 2284SOL    HW118488   4.035   1.250   9.679  1.8294  0.0975  0.7611
 2284SOL    HW218489   3.946   1.139   9.715  0.7563  0.8752 -1.7996
 2285SOL     OW18490   4.254   1.337   6.332  0.3116  0.0167 -0.0527
 2285SOL    HW118491   4.192   1.277   6.375 -1.2970  0.6174 -1.5083
 2285SOL    HW218492   4.332   1.333   6.387  0.4986  1.5273 -0.2140
 2286SOL     OW18493   3.173   0.362   4.766  0.6201  0.3717  0.3171
 2286SOL    HW118494   3.150   0.453   4.749 -1.1382 -0.4740 -2.0203
 2286SOL    HW218495   3.195   0.336   4.676  0.4510  0.5963  0.2113
 2287SOL     OW18496   3.870   1.386  13.334 -0.3923 -0.4340  0.3442
 2287SOL    HW118497   3.802   1.434  13.382  0.9179  2.5418 -0.7633
 2287SOL    HW218498   3.941   1.451  13.342 -2.7768  2.2174 -0.0491
 2288SOL     OW18499   4.448   2.902  14.276 -0.0743 -0.2356 -0.2890
 2288SOL    HW118500   4.497   2.965  14.224  0.1152  0.3812  0.6422
 2288SOL    HW218501   4.394   2.858  14.210 -0.3094  0.5464 -0.6143
 2289SOL     OW18502   0.338   2.570   5.088 -0.3751 -0.1896  0.4671
 2289SOL    HW118503   0.267   2.613   5.042  2.6177  2.1167 -1.9794
 2289SOL    HW218504   0.321   2.476   5.085 -1.9587  0.1348 -0.5813
 2290SOL     OW18505   0.779   3.702   7.797  0.4751 -0.0401  0.2145
 2290SOL    HW118506   0.852   3.742   7.750  1.7193 -1.7699  0.6805
 2290SOL    HW218507   0.704   3.760   7.782  1.0268  0.4723 -0.5395
 2291SOL     OW18508   2.508   0.511  16.143 -0.1004  0.4428  0.1711
 2291SOL    HW118509   2.437   0.540  16.085  0.3634 -2.3734 -1.8120
 2291SOL    HW218510   2.561   0.450  16.092  2.0831  1.8209  0.8316
 2292SOL     OW18511   4.153   1.099  12.641 -0.2349  0.6675 -0.1633
 2292SOL    HW118512   4.150   1.089  12.546  0.0792  1.5977 -0.2744
 2292SOL    HW218513   4.143   1.006  12.660 -1.2151  0.4956 -1.5458
 2293SOL     OW18514   4.549   2.398   2.262  0.2194 -0.2094 -0.0198
 2293SOL    HW118515   4.496   2.434   2.190  0.0021 -0.3313  0.0805
 2293SOL    HW218516   4.595   2.326   2.217 -0.2406 -1.9564  2.2986
 2294SOL     OW18517   1.161   0.717   5.442  0.7216  0.2965 -0.3846
 2294SOL    HW118518   1.243   0.676   5.416 -0.4248 -2.1577 -0.1638
 2294SOL    HW218519   1.198   0.796   5.483 -0.9358  0.9141 -0.0721
 2295SOL     OW18520   2.429   0.571   7.426 -0.1307  0.9674  0.2581
 2295SOL    HW118521   2.436   0.477   7.409  1.1040  0.7442  1.9751
 2295SOL    HW218522   2.475   0.586   7.509 -1.6506 -0.0416  1.3005
 2296SOL     OW18523   0.591   1.985  16.752  0.1049  0.4792  0.1715
 2296SOL    HW118524   0.668   2.040  16.740  0.8512 -0.9594 -1.6497
 2296SOL    HW218525   0.627   1.909  16.797 -1.8507 -1.0293 -0.7960
 2297SOL     OW18526   2.129   0.409   5.380 -0.3721 -0.5827  0.1743
 2297SOL    HW118527   2.095   0.343   5.320  1.0177 -0.1302 -1.1067
 2297SOL    HW218528   2.191   0.460   5.328  0.5548 -0.3726  1.4729
 2298SOL     OW18529   2.401   1.976  12.042  0.1942 -0.1042 -0.1366
 2298SOL    HW118530   2.442   1.892  12.024 -0.0446 -0.6077  1.7251
 2298SOL    HW218531   2.310   1.954  12.025  0.5007 -2.0090  0.8047
 2299SOL     OW18532   2.582   2.274   3.829  0.3785 -0.2359 -0.4077
 2299SOL    HW118533   2.639   2.212   3.874  0.0224  0.7471  1.3830
 2299SOL    HW218534   2.506   2.217   3.817 -0.0044  0.6626 -2.1480
 2300SOL     OW18535   0.350   3.176   9.422 -0.0576 -0.0527 -0.0977
 2300SOL    HW118536   0.384   3.100   9.375 -1.4655  1.3083 -3.3079
 2300SOL    HW218537   0.271   3.140   9.463  0.6401 -0.1409  1.1669
 2301SOL     OW18538   0.596   1.668   9.229  0.6921  0.4618  0.0368
 2301SOL    HW118539   0.678   1.716   9.238 -0.4528  2.5538 -0.8325
 2301SOL    HW218540   0.608   1.581   9.268  0.4435 -0.4302 -1.8396
 2302SOL     OW18541   3.834   3.125   4.797  0.4890 -0.2799 -0.2067
 2302SOL    HW118542   3.778   3.049   4.780 -0.0088 -0.4243  2.1163
 2302SOL    HW218543   3.784   3.189   4.748 -0.5190 -1.3749 -0.5980
 2303SOL     OW18544   0.626   0.257  12.378  0.1407  0.3138 -0.1842
 2303SOL    HW118545   0.627   0.163  12.397  2.9296  0.5528  0.8310
 2303SOL    HW218546   0.719   0.277  12.376  0.0672  0.5901 -0.8202
 2304SOL     OW18547   2.167   2.500   9.556  0.1181  0.1648  0.0562
 2304SOL    HW118548   2.249   2.549   9.556  0.0189  0.3266 -1.2696
 2304SOL    HW218549   2.204   2.414   9.535 -0.7414 -0.4717  1.1003
 2305SOL     OW18550   0.733   1.455   2.062  0.0912 -0.0767 -0.4122
 2305SOL    HW118551   0.664   1.397   2.094 -0.5806  0.1552 -1.4292
 2305SOL    HW218552   0.677   1.519   2.018 -1.7022 -1.9810 -0.8927
 2306SOL     OW18553   0.819   1.310   1.564  0.1795 -0.0034  0.0891
 2306SOL    HW118554   0.739   1.275   1.523 -0.1676 -0.2242  0.9532
 2306SOL    HW218555   0.812   1.302   1.659  1.5367  1.7322  0.3245
 2307SOL     OW18556   3.710   0.919   3.330 -0.1150 -0.0956  0.9685
 2307SOL    HW118557   3.663   0.997   3.362 -3.0397 -0.3309 -2.8157
 2307SOL    HW218558   3.784   0.919   3.391  0.9463 -1.3874 -0.3241
 2308SOL     OW18559   4.127   0.947   6.274  0.4957  0.5644 -0.6497
 2308SOL    HW118560   4.092   0.859   6.259 -1.7397  0.8961  2.4624
 2308SOL    HW218561   4.194   0.934   6.341 -2.0109 -1.5702  1.4422
 2309SOL     OW18562   1.193   4.702  13.559  0.1913 -0.3877  0.9174
 2309SOL    HW118563   1.143   0.005  13.630 -1.5391  0.0755 -0.5321
 2309SOL    HW218564   1.279   0.002  13.579  0.2337 -0.3790  0.7182
 2310SOL     OW18565   2.979   0.586   5.932  0.9321  0.6410  0.1362
 2310SOL    HW118566   3.046   0.560   5.995  0.8420 -0.9552 -0.4452
 2310SOL    HW218567   2.974   0.509   5.875  3.0646 -0.8358  1.9609
 2311SOL     OW18568   4.411   0.447   1.393  0.3389 -0.2463  0.0693
 2311SOL    HW118569   4.395   0.354   1.405  0.2534 -0.2683 -0.2019
 2311SOL    HW218570   4.472   0.468   1.464  0.6906  3.2787 -1.2448
 2312SOL     OW18571   2.441   2.042   2.566 -0.3890  0.0729 -0.7749
 2312SOL    HW118572   2.466   2.108   2.501 -2.5059  1.0413 -0.5787
 2312SOL    HW218573   2.412   2.100   2.636 -1.0462  0.7360 -1.6036
 2313SOL     OW18574   3.380   2.606   0.897  0.2058 -0.2688 -0.3808
 2313SOL    HW118575   3.353   2.692   0.866 -1.1011 -0.1374  1.1224
 2313SOL    HW218576   3.302   2.559   0.868 -0.2552 -1.3594  2.6135
 2314SOL     OW18577   3.509   3.852   3.734 -0.1157 -0.2569 -0.2192
 2314SOL    HW118578   3.482   3.772   3.780  0.4675  0.0207  0.5991
 2314SOL    HW218579   3.433   3.866   3.678 -0.7893 -2.3081  0.1659
 2315SOL     OW18580   3.156   0.244   0.750  0.3316 -0.0542  0.0988
 2315SOL    HW118581   3.226   0.308   0.755  0.4787  0.1522 -4.2935
 2315SOL    HW218582   3.200   0.175   0.700 -2.1807 -0.3708 -1.7063
 2316SOL     OW18583   1.314   0.942  12.425  0.2080 -0.4682 -0.3201
 2316SOL    HW118584   1.392   0.997  12.435 -0.8280  1.0525 -0.6195
 2316SOL    HW218585   1.253   0.984  12.486 -0.9917  1.0173 -2.5373
 2317SOL     OW18586   3.297   3.876  10.775  0.5064  0.0081 -0.0152
 2317SOL    HW118587   3.263   3.954  10.731  0.5571  0.1009  0.1086
 2317SOL    HW218588   3.295   3.895  10.869  3.8330 -0.3166  0.1119
 2318SOL     OW18589   0.562   0.121   4.828  0.0671  0.2273  0.4383
 2318SOL    HW118590   0.611   0.200   4.808  0.6736 -0.6382 -1.5118
 2318SOL    HW218591   0.595   0.097   4.915 -1.0426 -0.1189  0.7655
 2319SOL     OW18592   1.269   3.243   4.737  0.3391 -0.4274  0.0934
 2319SOL    HW118593   1.245   3.283   4.653  0.6785 -0.7311 -0.1470
 2319SOL    HW218594   1.268   3.151   4.711 -1.5497  0.3269 -2.5537
 2320SOL     OW18595   2.015   0.143   6.238  0.5293  0.4649 -0.1793
 2320SOL    HW118596   1.993   0.165   6.148  1.8502 -2.7746 -1.3068
 2320SOL    HW218597   2.007   0.224   6.288  1.4212  0.4487 -0.0028
 2321SOL     OW18598   2.528   1.477   5.781 -0.0077  0.1041 -0.0906
 2321SOL    HW118599   2.449   1.505   5.736  0.1358 -0.4073 -0.6625
 2321SOL    HW218600   2.580   1.558   5.780 -0.8347  0.6359 -0.0072
 2322SOL     OW18601   2.391   2.264   3.079  0.1858  0.4574  0.0493
 2322SOL    HW118602   2.467   2.246   3.134 -1.0644 -1.5752  1.1291
 2322SOL    HW218603   2.362   2.173   3.069 -0.8620  0.7415  0.4565
 2323SOL     OW18604   3.685   1.866   4.671 -0.2800  0.5971  0.4327
 2323SOL    HW118605   3.646   1.815   4.742 -0.2351 -0.7226 -0.4884
 2323SOL    HW218606   3.751   1.803   4.640 -0.8445 -0.5212  1.5022
 2324SOL     OW18607   2.843   3.150   7.429 -0.0597 -0.0077  0.7118
 2324SOL    HW118608   2.769   3.199   7.393 -0.5273 -2.1576 -1.2047
 2324SOL    HW218609   2.799   3.070   7.459 -0.1739 -0.6537 -1.2083
 2325SOL     OW18610   3.254   4.239   6.990  0.0623 -0.5346  0.0636
 2325SOL    HW118611   3.337   4.273   7.024 -0.6616  1.0883  0.2134
 2325SOL    HW218612   3.250   4.294   6.911 -0.1510  0.3585  0.6938
 2326SOL     OW18613   2.125   1.578   3.612  0.8657  0.1969 -0.0542
 2326SOL    HW118614   2.158   1.578   3.702  2.2783  0.7387 -0.5658
 2326SOL    HW218615   2.146   1.489   3.585 -1.6057 -0.3628 -0.1278
 2327SOL     OW18616   4.518   0.780  17.686  0.1851  0.0596  0.0082
 2327SOL    HW118617   4.460   0.706  17.705  2.2266 -1.3451  0.6695
 2327SOL    HW218618   4.598   0.730  17.698  1.9918  2.3841 -2.5979
 2328SOL     OW18619   2.342   1.813   9.177  0.3572  0.6240  0.0338
 2328SOL    HW118620   2.278   1.883   9.161  3.4518  3.4103 -0.1928
 2328SOL    HW218621   2.398   1.815   9.100  0.2298 -2.4103 -0.1311
 2329SOL     OW18622   1.953   2.525   9.376  0.3684  0.4352  0.3462
 2329SOL    HW118623   2.017   2.505   9.444 -1.7943 -0.6263  2.0496
 2329SOL    HW218624   1.996   2.603   9.339  0.0953  0.9914  1.1987
 2330SOL     OW18625   4.353   2.780  14.056  0.1458  0.5613  0.1917
 2330SOL    HW118626   4.298   2.708  14.027  0.9410 -0.4054  1.0702
 2330SOL    HW218627   4.311   2.850  14.005  0.8894  0.9527  0.1162
 2331SOL     OW18628   3.156   1.215   7.602 -0.0897 -0.1137 -0.0328
 2331SOL    HW118629   3.229   1.245   7.549  0.1027 -0.8764 -0.1966
 2331SOL    HW218630   3.084   1.199   7.541 -0.2387 -0.1668  0.1573
 2332SOL     OW18631   4.201   4.278   3.492  0.0148 -0.6253 -0.2545
 2332SOL    HW118632   4.236   4.321   3.570 -1.7515  1.2745 -0.5033
 2332SOL    HW218633   4.111   4.309   3.495 -0.7623 -3.1793  2.1946
 2333SOL     OW18634   2.520   0.874   8.497  0.5856 -0.0770  0.2083
 2333SOL    HW118635   2.557   0.787   8.478  0.4549  0.3297 -2.0040
 2333SOL    HW218636   2.514   0.869   8.592 -0.2448 -0.5079  0.1429
 2334SOL     OW18637   1.553   1.115   5.716 -0.3087 -0.0870  0.6566
 2334SOL    HW118638   1.514   1.028   5.708 -0.4570  0.2219 -1.9225
 2334SOL    HW218639   1.643   1.099   5.743  0.1728  0.5316 -0.5683
 2335SOL     OW18640   4.363   0.213   3.299  0.4144 -0.2301 -0.8070
 2335SOL    HW118641   4.377   0.148   3.231  0.2351 -0.7169 -0.3842
 2335SOL    HW218642   4.271   0.237   3.290  0.9358  1.6756 -0.9616
 2336SOL     OW18643   2.246   2.249   9.504  0.0065  0.6142  0.0553
 2336SOL    HW118644   2.338   2.253   9.529 -0.1674 -1.2497  1.0153
 2336SOL    HW218645   2.229   2.157   9.524  0.4697  0.4836 -0.1448
 2337SOL     OW18646   2.353   1.779   8.806 -0.5180  0.0981 -0.0470
 2337SOL    HW118647   2.353   1.687   8.830  0.9608  0.6561  1.9857
 2337SOL    HW218648   2.414   1.819   8.867  0.8279 -0.6790 -0.8965
 2338SOL     OW18649   0.458   3.836   9.488 -0.2834  0.2511  0.3071
 2338SOL    HW118650   0.550   3.846   9.509  0.1894 -0.3844 -1.3936
 2338SOL    HW218651   0.453   3.756   9.540  0.7667 -0.0341 -0.0407
 2339SOL     OW18652   1.798   4.518  17.074 -0.3689  0.1911  0.4409
 2339SOL    HW118653   1.718   4.553  17.113  0.7433  0.7576  2.2538
 2339SOL    HW218654   1.794   4.561  16.988 -0.3998 -0.6753  0.0177
 2340SOL     OW18655   2.070   0.678   8.679  0.3393 -0.0252  0.3947
 2340SOL    HW118656   2.017   0.748   8.717 -2.4757 -1.6366 -0.5384
 2340SOL    HW218657   2.122   0.729   8.617  1.8653 -1.5261  0.4590
 2341SOL     OW18658   4.661   1.033   7.451 -1.0766 -0.1872  0.6881
 2341SOL    HW118659   4.608   0.981   7.391  0.2866  0.8729 -1.4437
 2341SOL    HW218660   0.002   0.980   7.432  1.0920  3.2657 -0.1839
 2342SOL     OW18661   4.170   0.812  11.183 -0.0042 -0.0254 -0.1580
 2342SOL    HW118662   4.107   0.778  11.246 -0.8020  0.7892 -0.5247
 2342SOL    HW218663   4.157   0.904  11.206 -0.9260 -0.2229  0.0835
 2343SOL     OW18664   2.078   3.888   7.536 -0.6047 -0.2642  0.5548
 2343SOL    HW118665   2.104   3.890   7.443  0.3597  1.9429  0.8849
 2343SOL    HW218666   2.006   3.826   7.539 -1.4992  0.8202  1.3111
 2344SOL     OW18667   2.941   3.453   4.552 -0.0237  0.2118  0.0966
 2344SOL    HW118668   2.964   3.536   4.594 -3.0866  0.1085  1.9289
 2344SOL    HW218669   2.977   3.465   4.464  2.3605 -1.2048  0.8679
 2345SOL     OW18670   3.439   1.066   3.061  0.2910 -0.3957  0.3075
 2345SOL    HW118671   3.408   1.114   3.138  0.0283  0.7211 -0.4976
 2345SOL    HW218672   3.416   0.978   3.088 -0.5000 -1.0574 -2.4984
 2346SOL     OW18673   4.187   4.103  14.121  0.2632 -0.8691 -0.2820
 2346SOL    HW118674   4.172   4.085  14.214  0.2633  0.7377  0.0399
 2346SOL    HW218675   4.130   4.180  14.111 -0.8643 -1.5308  0.9827
 2347SOL     OW18676   1.874   4.375   7.523 -0.2214  0.4820 -0.3234
 2347SOL    HW118677   1.925   4.305   7.564 -0.8911 -1.3095 -2.5442
 2347SOL    HW218678   1.840   4.332   7.444 -0.5941 -0.8326  0.5404
 2348SOL     OW18679   3.538   2.448   7.073  0.9117 -0.5633 -0.0411
 2348SOL    HW118680   3.567   2.360   7.047 -0.4125 -1.4403  1.3696
 2348SOL    HW218681   3.556   2.497   6.994 -1.2137 -0.0130 -0.1778
 2349SOL     OW18682   0.537   4.673   8.865 -0.5807  0.7156  0.4460
 2349SOL    HW118683   0.615   4.640   8.909 -1.0420 -1.3615 -0.2688
 2349SOL    HW218684   0.509   0.005   8.926 -1.1149 -0.6106  1.7002
 2350SOL     OW18685   0.965   2.988  13.097  0.2157 -0.5415  0.1932
 2350SOL    HW118686   1.047   3.014  13.139  0.7594  0.6625 -1.6590
 2350SOL    HW218687   0.906   3.010  13.168 -1.9206 -0.3028 -1.6669
 2351SOL     OW18688   3.707   2.943   6.549 -0.4196  0.3090  0.0788
 2351SOL    HW118689   3.799   2.927   6.570  0.0484  2.8992  0.0098
 2351SOL    HW218690   3.716   3.028   6.505  2.4683  0.9179  1.8089
 2352SOL     OW18691   2.368   1.042  14.350  0.0595 -0.1317  0.0819
 2352SOL    HW118692   2.318   0.975  14.396  1.6562 -0.9278  0.6416
 2352SOL    HW218693   2.350   1.014  14.260 -2.0397 -0.0928  0.5033
 2353SOL     OW18694   2.015   2.302   5.651  0.1608  0.1238 -0.0397
 2353SOL    HW118695   1.924   2.308   5.622  0.1355  1.0207  0.2090
 2353SOL    HW218696   2.064   2.336   5.576 -0.8138 -1.7912 -1.5349
 2354SOL     OW18697   1.149   4.558  14.030  0.1387  0.9394  0.6676
 2354SOL    HW118698   1.146   4.553  14.125 -0.2553  0.0639  0.6119
 2354SOL    HW218699   1.134   4.466  14.007 -0.4617  1.4956 -1.2262
 2355SOL     OW18700   0.230   3.543   5.480  0.3969 -0.0135 -0.2447
 2355SOL    HW118701   0.177   3.506   5.410 -0.0877  2.0501 -0.9441
 2355SOL    HW218702   0.227   3.637   5.462  0.7554  0.2783  1.1856
 2356SOL     OW18703   2.510   2.845   6.030  0.3153 -0.6825  0.0945
 2356SOL    HW118704   2.452   2.775   6.058  0.2529 -1.2631 -1.4733
 2356SOL    HW218705   2.444   2.914   6.023  2.4681  1.3372 -0.5589
 2357SOL     OW18706   0.409   0.172   1.588  0.2275  0.1830  0.1717
 2357SOL    HW118707   0.448   0.184   1.502  1.3585  1.8453  0.8984
 2357SOL    HW218708   0.477   0.204   1.648  1.4107 -1.8201 -0.1006
 2358SOL     OW18709   4.022   2.379  15.966 -0.3248 -0.1493 -0.4104
 2358SOL    HW118710   3.978   2.455  16.003 -0.5724 -0.6849  0.4123
 2358SOL    HW218711   4.114   2.404  15.970 -0.3724 -0.2029  1.0457
 2359SOL     OW18712   2.351   0.433   3.731 -0.1394 -0.1908  0.1160
 2359SOL    HW118713   2.321   0.412   3.820 -1.5696 -0.3502 -0.3918
 2359SOL    HW218714   2.324   0.353   3.687  0.7951  0.6322 -1.9683
 2360SOL     OW18715   4.428   0.455   6.177  0.2418 -1.0787  0.6120
 2360SOL    HW118716   4.347   0.444   6.225  0.0544 -0.1864  0.4965
 2360SOL    HW218717   4.396   0.469   6.088 -0.0211  0.0887  0.8985
 2361SOL     OW18718   3.407   3.110  12.241  0.1175 -0.9165 -0.1182
 2361SOL    HW118719   3.486   3.069  12.276  0.0824  0.1194  1.1674
 2361SOL    HW218720   3.415   3.191  12.291  0.3172 -0.9890 -0.0336
 2362SOL     OW18721   3.652   3.498  10.655  0.6368 -0.1731 -0.2924
 2362SOL    HW118722   3.565   3.533  10.673  1.4041  1.3692  0.4546
 2362SOL    HW218723   3.632   3.406  10.673  0.7746 -0.4267 -1.4759
 2363SOL     OW18724   2.495   4.527   8.688  0.3159 -0.2393 -0.1577
 2363SOL    HW118725   2.539   4.443   8.679 -2.7989 -1.7202 -1.4861
 2363SOL    HW218726   2.409   4.501   8.653 -0.3950 -1.4595  2.5017
 2364SOL     OW18727   4.286   0.652   4.474  0.4774 -0.2130 -0.3287
 2364SOL    HW118728   4.369   0.695   4.457 -0.1780  1.9069  1.8882
 2364SOL    HW218729   4.237   0.722   4.517 -0.8516 -0.0897 -2.0599
 2365SOL     OW18730   1.199   1.839   7.963 -0.2964 -0.4032  0.0615
 2365SOL    HW118731   1.206   1.744   7.953  0.0306 -0.2391 -1.2451
 2365SOL    HW218732   1.188   1.860   7.870 -1.5491 -0.2595  0.2474
 2366SOL     OW18733   2.391   4.001   5.422 -0.5046 -0.2309  0.2855
 2366SOL    HW118734   2.309   3.972   5.382 -0.4311  1.0649 -0.8204
 2366SOL    HW218735   2.360   4.047   5.500 -0.2712 -0.1237  0.3143
 2367SOL     OW18736   2.992   4.225   6.830  0.4456 -0.2189  0.0307
 2367SOL    HW118737   3.003   4.139   6.871 -1.6406 -1.0939 -1.2324
 2367SOL    HW218738   2.915   4.266   6.871 -1.9044 -1.1915 -3.3949
 2368SOL     OW18739   2.932   0.283  10.524 -0.3256 -0.2757  0.1754
 2368SOL    HW118740   2.942   0.377  10.536  1.1229 -0.3904 -0.2061
 2368SOL    HW218741   2.924   0.288  10.429 -0.8696  0.5197  0.2611
 2369SOL     OW18742   4.694   0.406   0.129  0.2431 -0.0769 -0.8734
 2369SOL    HW118743   0.025   0.377   0.192 -1.2910  0.2416  0.9099
 2369SOL    HW218744   4.649   0.328   0.098  0.6366 -0.9913  0.8386
 2370SOL     OW18745   3.320   0.030   4.848  0.9542 -0.4310 -0.1548
 2370SOL    HW118746   3.308   4.692   4.789  1.8923 -1.8027  1.3810
 2370SOL    HW218747   3.235   0.064   4.876  1.8396 -1.4612  3.7574
 2371SOL     OW18748   0.954   3.581   4.901 -0.1003 -0.2151  0.4283
 2371SOL    HW118749   1.015   3.509   4.912 -0.8849 -0.8890  0.3885
 2371SOL    HW218750   0.885   3.557   4.839 -1.7176 -1.9817  2.9502
 2372SOL     OW18751   2.587   4.398   0.689 -0.2700 -0.6574  0.1734
 2372SOL    HW118752   2.669   4.446   0.701 -1.2605  0.5886  1.9925
 2372SOL    HW218753   2.533   4.468   0.728 -0.3335 -0.6224  0.0213
 2373SOL     OW18754   2.586   1.739   1.058  0.2762  0.2081 -0.4138
 2373SOL    HW118755   2.506   1.746   1.110  0.8157  1.9313  0.1886
 2373SOL    HW218756   2.633   1.806   1.107  0.8961 -1.0627  0.7274
 2374SOL     OW18757   1.971   3.168   9.477 -0.4124 -0.0181  0.3563
 2374SOL    HW118758   1.925   3.119   9.544 -0.7007 -1.8002 -1.1433
 2374SOL    HW218759   1.997   3.247   9.525 -1.6799  0.3589  0.4023
 2375SOL     OW18760   1.670   0.787   7.793  0.5326  0.1710 -0.6566
 2375SOL    HW118761   1.749   0.765   7.743  1.8555  1.8854  0.6854
 2375SOL    HW218762   1.682   0.753   7.882 -0.8118  2.4943  0.4246
 2376SOL     OW18763   0.173   1.879   1.867 -0.0015  0.3937  0.0791
 2376SOL    HW118764   0.214   1.833   1.794 -1.6631 -1.1195  0.0889
 2376SOL    HW218765   0.143   1.957   1.821  0.4844  0.0797 -0.7815
 2377SOL     OW18766   2.219   3.759   5.663 -0.1787 -0.1791  1.2024
 2377SOL    HW118767   2.270   3.809   5.727  0.4288 -1.3721  1.6638
 2377SOL    HW218768   2.238   3.669   5.691  0.1400 -0.8500 -1.1690
 2378SOL     OW18769   3.371   3.758  16.044 -0.0991 -0.3112  0.2536
 2378SOL    HW118770   3.277   3.741  16.049 -0.4019  1.4410  0.5974
 2378SOL    HW218771   3.392   3.821  16.112 -0.4909 -0.5436  0.5872
 2379SOL     OW18772   2.376   1.605   5.393  0.0520  0.3185  1.1002
 2379SOL    HW118773   2.459   1.573   5.358 -0.9582  0.7492 -1.6825
 2379SOL    HW218774   2.365   1.560   5.476  0.6112  0.2517  1.1398
 2380SOL     OW18775   4.368   2.477   2.066  0.1550  0.9315 -0.8415
 2380SOL    HW118776   4.322   2.546   2.112  0.4133  0.9479 -0.6116
 2380SOL    HW218777   4.301   2.409   2.054  0.8319  0.6167 -2.9920
 2381SOL     OW18778   1.592   1.235   4.933 -0.0781 -0.0427 -0.3466
 2381SOL    HW118779   1.602   1.307   4.871 -0.0538 -0.7975 -1.2203
 2381SOL    HW218780   1.618   1.277   5.015 -0.2915 -0.6496  0.0369
 2382SOL     OW18781   1.772   0.962   8.594 -0.2929 -0.2090  0.1398
 2382SOL    HW118782   1.811   0.917   8.670  2.0063  2.5438  0.5730
 2382SOL    HW218783   1.839   1.015   8.550 -1.3814  1.2693  0.2631
 2383SOL     OW18784   2.457   4.676   3.525  0.1474 -0.4306  0.4302
 2383SOL    HW118785   2.394   0.011   3.529 -0.3576 -0.9591  1.9110
 2383SOL    HW218786   2.537   4.723   3.501  0.4674 -0.5023  1.3632
 2384SOL     OW18787   1.619   2.942   9.229  0.1284  0.6370 -0.1552
 2384SOL    HW118788   1.687   2.980   9.174 -0.1865  0.9707 -0.3074
 2384SOL    HW218789   1.676   2.889   9.285  0.6429  0.6432 -0.6710
 2385SOL     OW18790   3.056   2.458  13.417 -0.4136 -0.0566 -0.3747
 2385SOL    HW118791   2.986   2.524  13.415  0.4096  0.7922 -0.8340
 2385SOL    HW218792   3.038   2.418  13.332 -0.5087 -1.2697  0.2161
 2386SOL     OW18793   4.291   3.020   6.480  0.1943 -0.0486  0.5167
 2386SOL    HW118794   4.322   2.938   6.441  1.3158 -0.1823  1.6832
 2386SOL    HW218795   4.265   3.077   6.407 -0.7164 -0.1588  0.7503
 2387SOL     OW18796   3.075   2.616   1.691  0.3164 -0.1068 -0.4017
 2387SOL    HW118797   3.004   2.552   1.697  0.2928  0.0716  1.3761
 2387SOL    HW218798   3.011   2.686   1.675  2.2588  2.1950  1.8361
 2388SOL     OW18799   3.353   3.469  10.941  0.7118 -0.2453 -0.0569
 2388SOL    HW118800   3.401   3.481  10.859  1.9313  1.1972  0.8720
 2388SOL    HW218801   3.357   3.564  10.955  0.3398 -0.2004 -0.2593
 2389SOL     OW18802   0.788   3.126  10.473  0.1483  0.2178 -0.1826
 2389SOL    HW118803   0.710   3.077  10.498  1.0783 -2.2458 -2.0419
 2389SOL    HW218804   0.764   3.166  10.390  0.5561 -0.1091 -0.4576
 2390SOL     OW18805   0.625   0.402   9.763 -0.3208 -0.1716 -0.2476
 2390SOL    HW118806   0.610   0.445   9.679  0.5927  2.3373  0.8674
 2390SOL    HW218807   0.696   0.345   9.733 -0.4841 -1.0973  1.0866
 2391SOL     OW18808   2.818   1.272   7.970  0.0610  0.0071  0.5562
 2391SOL    HW118809   2.748   1.246   8.030 -0.6863 -1.8414 -1.1091
 2391SOL    HW218810   2.851   1.186   7.944  0.7395 -0.8646  4.3870
 2392SOL     OW18811   0.882   3.909   2.995 -0.6596  0.3157 -0.5266
 2392SOL    HW118812   0.872   3.994   3.036 -1.9797  1.0550 -2.3901
 2392SOL    HW218813   0.955   3.925   2.935  0.0027 -2.0371 -0.3614
 2393SOL     OW18814   0.623   2.782   7.344  0.0099 -0.6661  0.2173
 2393SOL    HW118815   0.648   2.772   7.252 -1.2503 -3.3089  0.1572
 2393SOL    HW218816   0.649   2.871   7.367  0.9336 -1.0968  0.8816
 2394SOL     OW18817   3.563   3.482   4.185 -0.0469  0.1489  0.3826
 2394SOL    HW118818   3.602   3.526   4.110  1.3350 -0.3890  0.7830
 2394SOL    HW218819   3.470   3.493   4.167 -0.1467  1.4716  1.7145
 2395SOL     OW18820   3.260   1.457   4.573 -0.4747  0.0891 -0.1245
 2395SOL    HW118821   3.265   1.363   4.556 -2.6020 -0.2337  1.0647
 2395SOL    HW218822   3.333   1.475   4.632 -1.5589 -0.8292  1.4835
 2396SOL     OW18823   3.670   2.914   4.735  0.6669 -0.2875  0.6804
 2396SOL    HW118824   3.581   2.879   4.738  0.1993  0.8899  0.5896
 2396SOL    HW218825   3.710   2.848   4.678 -0.5113 -0.6043  0.2107
 2397SOL     OW18826   4.088   4.056   3.852 -0.1895 -0.1607 -0.3665
 2397SOL    HW118827   4.081   4.008   3.770  2.8154  2.1128 -1.9241
 2397SOL    HW218828   4.000   4.036   3.883 -0.7749  2.3046 -0.4576
 2398SOL     OW18829   1.488   0.253   7.517  0.1544  0.0644 -0.0032
 2398SOL    HW118830   1.477   0.183   7.453 -3.7784  0.0547  0.6952
 2398SOL    HW218831   1.562   0.211   7.562  0.1820 -2.5154 -2.4958
 2399SOL     OW18832   4.252   4.578   2.381  0.3197  0.0534 -0.0470
 2399SOL    HW118833   4.264   4.673   2.375  0.0413  0.1770  1.4447
 2399SOL    HW218834   4.329   4.543   2.337 -1.1856 -0.4067 -2.3040
 2400SOL     OW18835   3.942   0.602   3.259  0.2930  0.1088  0.6287
 2400SOL    HW118836   4.006   0.578   3.191 -1.2645 -1.6421 -0.2275
 2400SOL    HW218837   3.860   0.617   3.212 -0.1122 -1.4555  0.8271
 2401SOL     OW18838   0.529   3.272   3.923  0.0343  0.0400  0.0561
 2401SOL    HW118839   0.512   3.366   3.935  0.2995  0.4423 -2.7088
 2401SOL    HW218840   0.624   3.278   3.923  0.0315  0.1849 -0.7534
 2402SOL     OW18841   3.812   2.751  17.664 -0.3480 -0.1112  0.0437
 2402SOL    HW118842   3.765   2.830  17.692  0.2619  0.7266 -1.3582
 2402SOL    HW218843   3.776   2.732  17.578 -1.2443  0.5350  0.2787
 2403SOL     OW18844   3.529   3.884   2.382  0.7680 -0.2208  0.4349
 2403SOL    HW118845   3.542   3.954   2.317 -1.3055  0.5290  0.8388
 2403SOL    HW218846   3.434   3.873   2.380  0.6862  0.7141 -0.9919
 2404SOL     OW18847   4.290   2.736   3.752 -0.1513  0.0131 -0.0931
 2404SOL    HW118848   4.236   2.791   3.695  1.8743  1.1372 -0.9458
 2404SOL    HW218849   4.234   2.735   3.829  0.1636 -1.7991  0.1190
 2405SOL     OW18850   4.026   1.014  13.726  0.0926  0.2652 -0.4058
 2405SOL    HW118851   3.981   0.984  13.647 -0.1552  0.8610 -0.4975
 2405SOL    HW218852   4.072   0.936  13.755 -2.3890 -0.7823  0.7293
 2406SOL     OW18853   3.464   2.377  15.291 -0.2706 -0.4216  0.0011
 2406SOL    HW118854   3.410   2.441  15.338  0.0530 -0.5479  0.5391
 2406SOL    HW218855   3.415   2.295  15.300 -0.2209 -0.5752 -1.0990
 2407SOL     OW18856   3.226   1.987   5.113 -0.0163 -0.4484  0.0347
 2407SOL    HW118857   3.180   2.060   5.155  0.0185  0.5274 -1.6165
 2407SOL    HW218858   3.157   1.921   5.117  0.3777 -0.8550  0.0347
 2408SOL     OW18859   4.335   4.189  12.693  0.1160 -0.1349  0.0748
 2408SOL    HW118860   4.285   4.108  12.679  0.7626 -0.7377  1.2173
 2408SOL    HW218861   4.423   4.173  12.660  0.0793  1.0138 -0.5819
 2409SOL     OW18862   4.241   0.169   0.848  0.1280  0.7402 -0.4907
 2409SOL    HW118863   4.149   0.184   0.824 -0.3013  0.5419  1.0381
 2409SOL    HW218864   4.275   0.130   0.767 -3.1646  1.9244 -2.4610
 2410SOL     OW18865   4.206   0.585   9.765 -0.9394  0.5538  0.2493
 2410SOL    HW118866   4.125   0.563   9.720 -0.6950  2.5036 -1.1400
 2410SOL    HW218867   4.170   0.648   9.828  1.2781  1.4264  0.6473
 2411SOL     OW18868   0.577   2.229  13.924  0.3005 -0.0247 -0.0196
 2411SOL    HW118869   0.605   2.300  13.980  1.2783 -0.6879  0.3315
 2411SOL    HW218870   0.489   2.214  13.959  1.5178  0.0671  3.0435
 2412SOL     OW18871   4.402   1.842   2.612  0.1943  0.4299  0.6654
 2412SOL    HW118872   4.392   1.934   2.587  0.3285  0.5248  0.9720
 2412SOL    HW218873   4.315   1.802   2.607  1.7490 -2.4944 -3.3686
 2413SOL     OW18874   3.142   0.487   7.947 -0.8414 -0.4189  0.3298
 2413SOL    HW118875   3.132   0.461   7.855  1.1418 -0.4264  0.1194
 2413SOL    HW218876   3.233   0.511   7.933 -1.2700  1.5752  0.9001
 2414SOL     OW18877   4.095   4.463   1.424 -0.1839 -0.1449 -0.2511
 2414SOL    HW118878   4.125   4.552   1.439 -1.1965  0.6048 -2.7681
 2414SOL    HW218879   4.159   4.411   1.473 -0.4142  0.2104  0.4277
 2415SOL     OW18880   3.196   1.536   7.799  0.1763  0.5814 -0.1802
 2415SOL    HW118881   3.173   1.605   7.861  3.2946  1.0525  0.4419
 2415SOL    HW218882   3.141   1.467   7.836  1.2069 -0.5990 -0.8548
 2416SOL     OW18883   3.952   2.411   5.020  0.3845 -0.6594  0.0924
 2416SOL    HW118884   3.905   2.449   4.946  1.2127 -2.1469 -1.1866
 2416SOL    HW218885   3.950   2.317   5.001 -2.1600 -0.1782 -1.8919
 2417SOL     OW18886   2.111   0.076   9.227 -0.0980  0.4030  0.3644
 2417SOL    HW118887   2.042   0.035   9.278  0.9065 -3.1093 -1.1154
 2417SOL    HW218888   2.104   0.031   9.143  4.2691  2.4772 -1.0931
 2418SOL     OW18889   2.064   4.100   7.885  0.1261  0.1342 -0.1727
 2418SOL    HW118890   2.151   4.140   7.893 -1.1712  2.3744  2.5450
 2418SOL    HW218891   2.033   4.112   7.974  0.8170 -0.6063  0.1596
 2419SOL     OW18892   1.875   1.756   9.442 -0.0605 -0.4894 -0.1744
 2419SOL    HW118893   1.959   1.758   9.397  0.6879  0.3407  1.2570
 2419SOL    HW218894   1.899   1.814   9.515 -0.8472  0.5561 -0.7389
 2420SOL     OW18895   4.289   0.165   1.129 -0.0216 -0.3335 -0.3043
 2420SOL    HW118896   4.263   0.257   1.138  1.4646  0.2465 -1.6594
 2420SOL    HW218897   4.260   0.137   1.042  1.8058 -2.3411 -0.2664
 2421SOL     OW18898   2.570   3.432   2.586  0.1773 -0.0449 -0.0266
 2421SOL    HW118899   2.477   3.446   2.604 -0.2907 -0.7293 -1.9470
 2421SOL    HW218900   2.574   3.438   2.491  3.2193 -0.4669  0.0739
 2422SOL     OW18901   1.932   0.927   8.023 -0.4147  0.4821  0.4868
 2422SOL    HW118902   2.003   0.946   8.084  1.0645 -1.4361 -0.6395
 2422SOL    HW218903   1.873   0.874   8.075  0.4347  0.7803  1.7478
 2423SOL     OW18904   0.242   2.300   9.873 -0.3124 -0.1073 -0.0157
 2423SOL    HW118905   0.327   2.338   9.895  0.7774 -1.6193 -1.5952
 2423SOL    HW218906   0.179   2.362   9.910 -0.3836  0.0358 -0.3688
 2424SOL     OW18907   3.188   2.776  10.026 -0.0661 -0.1840  0.4006
 2424SOL    HW118908   3.135   2.849  10.057 -0.9870 -0.7040  0.0598
 2424SOL    HW218909   3.245   2.745  10.096  1.5929  1.7662 -0.0772
 2425SOL     OW18910   3.509   1.064   5.431  0.7480  0.2425  0.3268
 2425SOL    HW118911   3.520   1.143   5.484  1.1884  0.0617  0.5038
 2425SOL    HW218912   3.416   1.064   5.408  1.0335 -0.4969 -0.8159
 2426SOL     OW18913   4.643   3.225   2.994 -0.1594  0.0064 -0.1305
 2426SOL    HW118914   4.636   3.313   3.031 -0.8367  0.1850 -0.6840
 2426SOL    HW218915   4.569   3.184   3.038 -1.2361  2.6932  0.5981
 2427SOL     OW18916   0.874   0.195   8.797  1.1654 -0.2229  0.1622
 2427SOL    HW118917   0.944   0.183   8.733 -0.0223  1.9441 -1.5069
 2427SOL    HW218918   0.857   0.289   8.791  0.3355 -0.2861  1.4123
 2428SOL     OW18919   3.036   2.845   0.803 -0.1321  0.0652 -1.0137
 2428SOL    HW118920   2.963   2.798   0.844  0.0872  1.5143  1.0508
 2428SOL    HW218921   3.012   2.932   0.773  1.0186  1.0309  0.8711
 2429SOL     OW18922   1.380   1.687  16.954 -0.4139 -0.2525  0.8091
 2429SOL    HW118923   1.376   1.673  16.859 -1.6552 -0.5424  0.9018
 2429SOL    HW218924   1.351   1.604  16.993  0.5769 -0.8878  0.1913
 2430SOL     OW18925   2.865   3.275   8.645 -0.2373  0.1847 -0.2299
 2430SOL    HW118926   2.933   3.209   8.644  1.0365  1.5412 -2.1466
 2430SOL    HW218927   2.794   3.234   8.595 -0.6026  0.2863  0.2065
 2431SOL     OW18928   4.398   1.005  11.866  0.2884  0.1032 -0.4809
 2431SOL    HW118929   4.378   0.912  11.880 -0.1877 -0.1280 -2.6458
 2431SOL    HW218930   4.442   1.023  11.949 -1.3199  1.4525  0.0910
 2432SOL     OW18931   2.803   1.684   6.619  0.1359  0.0202  0.0891
 2432SOL    HW118932   2.762   1.699   6.534 -0.3561 -0.6513  0.2149
 2432SOL    HW218933   2.831   1.772   6.644  0.2839  0.0197 -0.0773
 2433SOL     OW18934   4.357   3.235   3.559 -0.1623 -0.2587  0.0477
 2433SOL    HW118935   4.395   3.281   3.633 -0.0673  0.5761 -0.5167
 2433SOL    HW218936   4.266   3.266   3.557  0.9590  2.9798 -2.2800
 2434SOL     OW18937   0.555   1.046   9.835 -0.0497  0.2117  0.5727
 2434SOL    HW118938   0.516   1.013   9.754 -1.4076  1.4226  0.7153
 2434SOL    HW218939   0.645   1.054   9.803  0.3488 -1.2107  1.3181
 2435SOL     OW18940   3.925   2.336   6.514 -0.2064  0.4053  0.2959
 2435SOL    HW118941   3.887   2.300   6.434  1.1258  1.1815 -0.6897
 2435SOL    HW218942   3.933   2.428   6.488  0.4200  0.6703  1.4057
 2436SOL     OW18943   2.202   1.805   7.203  0.9279 -0.1111  0.4940
 2436SOL    HW118944   2.269   1.752   7.160 -0.6836 -2.5362  1.0037
 2436SOL    HW218945   2.153   1.817   7.121  1.7036 -2.0437 -0.2581
 2437SOL     OW18946   0.900   2.270   1.296 -0.9871  0.0753 -0.1106
 2437SOL    HW118947   0.890   2.262   1.390 -0.9615  1.3545  0.0034
 2437SOL    HW218948   0.920   2.178   1.281  0.6209  0.7066 -2.0390
 2438SOL     OW18949   1.334   1.194   5.117 -0.6780 -0.2539 -0.6761
 2438SOL    HW118950   1.428   1.209   5.125 -0.9992  1.5502 -0.3829
 2438SOL    HW218951   1.334   1.135   5.041  0.8368 -0.5179 -0.4716
 2439SOL     OW18952   3.159   0.971   2.267  0.1570 -0.3563  0.0282
 2439SOL    HW118953   3.230   1.033   2.278  0.6165 -0.7762 -0.5334
 2439SOL    HW218954   3.217   0.906   2.228  1.8492  0.6925  0.8223
 2440SOL     OW18955   1.854   2.798   1.755  0.3304 -0.0924  1.2340
 2440SOL    HW118956   1.849   2.830   1.845 -0.3306  1.7850  0.5190
 2440SOL    HW218957   1.763   2.793   1.725  0.0973  2.7955  1.4664
 2441SOL     OW18958   2.992   0.961  16.660 -0.4311 -0.1201  0.2061
 2441SOL    HW118959   2.988   0.928  16.750 -3.0267  1.8256  0.8333
 2441SOL    HW218960   3.080   0.997  16.654 -0.5870 -0.0502 -1.7543
 2442SOL     OW18961   0.468   1.184   8.021  0.3968 -0.4545 -0.0111
 2442SOL    HW118962   0.403   1.247   7.990  0.9818  0.7661  1.2704
 2442SOL    HW218963   0.534   1.231   8.070 -0.3110  2.8761 -2.2306
 2443SOL     OW18964   1.155   2.633   8.017  0.2451 -0.4494 -0.3191
 2443SOL    HW118965   1.109   2.625   7.933 -2.5865 -0.5587  1.2450
 2443SOL    HW218966   1.191   2.544   8.011 -0.3486 -0.6237 -1.2865
 2444SOL     OW18967   0.051   0.631   0.461  0.0831 -0.0778  0.5045
 2444SOL    HW118968   0.116   0.702   0.464  0.6026 -0.5891  1.5068
 2444SOL    HW218969   0.103   0.553   0.480 -0.0007 -0.0820  0.7215
 2445SOL     OW18970   0.143   0.822  10.410  0.0897  0.7000  0.6357
 2445SOL    HW118971   0.167   0.861  10.326 -1.9984 -2.6083 -1.4986
 2445SOL    HW218972   0.203   0.748  10.406  2.1470  2.3595  1.0825
 2446SOL     OW18973   0.426   0.257   8.404 -0.1234 -0.1475 -0.1782
 2446SOL    HW118974   0.418   0.226   8.494  0.5466  0.0842 -0.0343
 2446SOL    HW218975   0.427   0.353   8.400  0.5222 -0.2045 -1.5226
 2447SOL     OW18976   4.695   4.513  17.516 -0.6215  0.4296 -1.2368
 2447SOL    HW118977   0.054   4.519  17.510 -0.3222 -1.9151  1.5144
 2447SOL    HW218978   4.685   4.441  17.577  2.2284  0.1848 -1.0981
 2448SOL     OW18979   0.083   2.030   2.096  0.6325 -0.0477 -0.1836
 2448SOL    HW118980   0.122   1.969   2.033 -0.7669 -1.4561  0.3331
 2448SOL    HW218981   0.029   1.963   2.137 -0.0831 -0.4337 -1.7794
 2449SOL     OW18982   3.219   3.489   7.604  0.0741 -0.2231 -0.1401
 2449SOL    HW118983   3.172   3.408   7.620  2.2368 -1.9642 -2.6292
 2449SOL    HW218984   3.306   3.455   7.584  0.6754  0.6901  0.9102
 2450SOL     OW18985   2.546   4.538   6.914  0.2977 -0.0346  0.1188
 2450SOL    HW118986   2.585   4.542   7.002  1.5496 -1.4444 -0.3747
 2450SOL    HW218987   2.464   4.492   6.932 -0.2271  1.9228  2.7522
 2451SOL     OW18988   0.699   1.163   2.367 -0.4669 -0.2166 -0.3281
 2451SOL    HW118989   0.643   1.240   2.379  0.9003  0.3518  2.2119
 2451SOL    HW218990   0.633   1.093   2.376 -2.6101  2.0291  1.3790
 2452SOL     OW18991   1.489   1.919  10.879  0.1192  0.2608 -0.4166
 2452SOL    HW118992   1.482   2.006  10.918 -2.0435 -0.5069  0.9167
 2452SOL    HW218993   1.416   1.924  10.817  0.2276  1.5523 -0.4383
 2453SOL     OW18994   3.024   2.665   7.959  0.2586  1.0519 -0.0365
 2453SOL    HW118995   2.952   2.682   8.021 -0.1697 -0.0771 -0.2156
 2453SOL    HW218996   2.979   2.622   7.886 -1.3392  0.0501  1.5078
 2454SOL     OW18997   3.555   3.936   6.419 -0.0254 -0.3239  0.2949
 2454SOL    HW118998   3.583   3.983   6.497  3.0431  0.7196 -1.4334
 2454SOL    HW218999   3.591   3.991   6.350  1.7620 -0.4473  1.1252
 2455SOL     OW19000   0.801   0.914   8.090  0.2302  0.3372  0.0055
 2455SOL    HW119001   0.831   0.828   8.117  0.1208  0.0673 -0.7420
 2455SOL    HW219002   0.842   0.959   8.164  2.2093 -0.3020 -0.7235
 2456SOL     OW19003   2.527   2.418   5.544 -0.2402 -0.8672  0.0300
 2456SOL    HW119004   2.621   2.410   5.558  0.3621  0.6240 -2.9986
 2456SOL    HW219005   2.514   2.333   5.503 -0.6977 -0.5775 -0.4401
 2457SOL     OW19006   0.823   0.659   6.065 -0.2399  0.2284 -0.0776
 2457SOL    HW119007   0.806   0.565   6.073  3.1992 -0.4249 -0.4147
 2457SOL    HW219008   0.886   0.685   6.132  0.7349 -0.7424 -0.6031
 2458SOL     OW19009   1.177   2.807   3.056 -0.5384  0.1267  0.2553
 2458SOL    HW119010   1.089   2.820   3.092 -0.5530 -0.7466  0.5295
 2458SOL    HW219011   1.161   2.842   2.968 -0.1208  3.7760  1.6541
 2459SOL     OW19012   0.480   1.948   7.465 -0.5059  0.7144 -0.3912
 2459SOL    HW119013   0.490   1.856   7.489 -2.8358 -0.0775 -2.4828
 2459SOL    HW219014   0.432   1.991   7.536  0.4489  1.3610 -0.1330
 2460SOL     OW19015   4.468   0.393   9.187  0.2682 -0.0772  0.0366
 2460SOL    HW119016   4.511   0.336   9.250  0.9425  1.3717  0.8935
 2460SOL    HW219017   4.540   0.442   9.147  0.9037 -0.9164  0.1661
 2461SOL     OW19018   4.699   4.250   5.432 -0.2450  0.3035  0.3302
 2461SOL    HW119019   4.718   4.259   5.525 -1.4862  0.4971  0.5605
 2461SOL    HW219020   4.611   4.288   5.429 -0.5243 -0.4115 -0.8509
 2462SOL     OW19021   2.132   2.644   5.038 -0.5265  0.9353  0.6253
 2462SOL    HW119022   2.148   2.714   4.975 -0.4829  0.5393  0.2018
 2462SOL    HW219023   2.095   2.697   5.109 -1.0042  0.4167  0.7588
 2463SOL     OW19024   1.896   2.008   5.702  0.0011 -0.5581  0.3823
 2463SOL    HW119025   1.884   2.081   5.642 -0.4078  0.3699  1.5930
 2463SOL    HW219026   1.809   1.989   5.738 -0.4736 -0.4502 -0.6903
 2464SOL     OW19027   2.134   4.542   0.997 -0.0521  0.0135  0.1144
 2464SOL    HW119028   2.111   4.478   1.065 -1.8187 -0.2515 -0.7338
 2464SOL    HW219029   2.156   4.483   0.926  0.3758  1.3038 -0.8220
 2465SOL     OW19030   2.594   3.533   4.421  0.5574 -0.2086 -0.0728
 2465SOL    HW119031   2.515   3.488   4.449  1.7569 -1.0777  1.8819
 2465SOL    HW219032   2.558   3.621   4.417 -0.8486 -0.8514 -1.5217
 2466SOL     OW19033   3.599   3.787   5.331 -0.2045 -0.3605 -0.5426
 2466SOL    HW119034   3.680   3.771   5.282  0.1314  0.6974 -0.3251
 2466SOL    HW219035   3.577   3.694   5.338  0.6806 -0.4403  1.1176
 2467SOL     OW19036   2.381   0.383  16.381 -0.2598 -0.2761 -0.0526
 2467SOL    HW119037   2.440   0.394  16.306 -0.0807 -2.6515 -0.2518
 2467SOL    HW219038   2.306   0.438  16.358  0.1961 -0.3014 -1.6501
 2468SOL     OW19039   2.002   4.137   3.901  1.0457  0.7739 -0.1697
 2468SOL    HW119040   2.060   4.092   3.839  1.5647 -1.1491  1.7248
 2468SOL    HW219041   1.983   4.077   3.972 -0.4660  0.6107 -0.7200
 2469SOL     OW19042   1.578   0.984   6.969  0.1713  0.4447  0.4697
 2469SOL    HW119043   1.673   0.989   6.974  0.2320 -0.9787  0.8064
 2469SOL    HW219044   1.555   1.024   7.054 -1.2300  0.7880 -0.0677
 2470SOL     OW19045   2.799   1.204  10.081 -0.2817 -0.0476 -0.2393
 2470SOL    HW119046   2.756   1.197   9.996  1.9555  4.4098 -1.7762
 2470SOL    HW219047   2.861   1.131  10.085 -2.3089 -1.7358  0.6267
 2471SOL     OW19048   0.175   2.070   6.787 -0.1957  0.2964  0.4487
 2471SOL    HW119049   0.184   2.029   6.701  3.0948  0.7480  0.5891
 2471SOL    HW219050   0.132   1.995   6.830  0.1295 -0.2976 -0.2537
 2472SOL     OW19051   1.086   3.004   5.593  0.9336 -0.3216 -0.7377
 2472SOL    HW119052   1.029   3.015   5.517  1.5951  1.1176 -1.0127
 2472SOL    HW219053   1.063   3.080   5.647 -0.5579 -0.2377 -1.4983
 2473SOL     OW19054   4.133   1.402   5.656 -0.0943 -0.0692 -0.2100
 2473SOL    HW119055   4.098   1.491   5.661 -0.4860 -0.2879  1.1526
 2473SOL    HW219056   4.212   1.405   5.710  0.4706  1.6107 -1.1309
 2474SOL     OW19057   2.637   4.070   1.345 -0.4636 -0.7658  0.3701
 2474SOL    HW119058   2.626   3.982   1.308  2.3016 -1.7179  1.8224
 2474SOL    HW219059   2.585   4.123   1.285  1.6982 -0.3297 -1.0795
 2475SOL     OW19060   4.000   1.884   5.883  0.9455  0.0254 -0.3458
 2475SOL    HW119061   3.946   1.944   5.831 -0.1695 -1.2040 -0.5995
 2475SOL    HW219062   4.063   1.946   5.921  1.1651 -1.1982  1.2637
 2476SOL     OW19063   3.995   2.008   8.305 -0.0774 -0.0513  0.2558
 2476SOL    HW119064   3.944   1.953   8.365  1.5884 -2.4052 -0.4493
 2476SOL    HW219065   3.913   2.024   8.258 -0.7136 -2.8393  0.3484
 2477SOL     OW19066   0.065   0.538  11.330 -0.5710  0.1466  0.0201
 2477SOL    HW119067   0.075   0.446  11.355  0.8825 -0.0211 -1.1645
 2477SOL    HW219068   0.099   0.535  11.241  0.1050  1.4469  0.2163
 2478SOL     OW19069   1.220   3.704  12.221 -0.6980 -0.7637  0.0247
 2478SOL    HW119070   1.233   3.618  12.180 -0.7363 -0.0592 -1.4741
 2478SOL    HW219071   1.310   3.730  12.239 -1.4280  1.1387  0.9103
 2479SOL     OW19072   1.220   4.026  13.801  0.3500  0.6613  0.4591
 2479SOL    HW119073   1.217   4.065  13.713  0.4236  2.9781  1.4985
 2479SOL    HW219074   1.203   4.106  13.851  0.2784  1.1326 -0.3091
 2480SOL     OW19075   3.661   2.259   3.041  0.2522  0.1263 -0.3268
 2480SOL    HW119076   3.709   2.183   3.008 -0.0552  0.0823 -0.6848
 2480SOL    HW219077   3.667   2.250   3.136 -2.8620 -1.2912 -0.2664
 2481SOL     OW19078   0.416   2.559   7.385 -0.4838 -0.0207  0.4375
 2481SOL    HW119079   0.384   2.525   7.302  0.4943  0.9142 -0.3231
 2481SOL    HW219080   0.496   2.606   7.360  0.7134 -2.4594 -0.3311
 2482SOL     OW19081   0.955   1.779   4.029  0.1892  0.4311  0.3312
 2482SOL    HW119082   0.954   1.688   4.059 -0.1994 -0.0511 -1.1285
 2482SOL    HW219083   0.965   1.775   3.934 -1.3283 -1.0051  0.2184
 2483SOL     OW19084   1.540   4.609   0.402  0.4662 -0.2021 -0.3448
 2483SOL    HW119085   1.622   4.588   0.446  0.3241  0.7102  0.3371
 2483SOL    HW219086   1.521   4.700   0.421 -0.0574 -0.0296 -1.6816
 2484SOL     OW19087   0.262   0.919   9.170 -0.3218  0.3858 -0.0367
 2484SOL    HW119088   0.273   0.964   9.254  0.8541 -0.3544  0.2024
 2484SOL    HW219089   0.301   0.987   9.116 -0.2080  0.8108  0.5797
 2485SOL     OW19090   3.132   0.302  14.662 -0.2961  0.4055  0.7359
 2485SOL    HW119091   3.081   0.229  14.697  0.6961 -0.1638  0.9989
 2485SOL    HW219092   3.160   0.270  14.576 -3.2094  0.6868 -0.3313
 2486SOL     OW19093   1.758   1.690   9.152  0.3113 -0.1561  0.4434
 2486SOL    HW119094   1.711   1.749   9.211  2.0492 -0.8842  2.5901
 2486SOL    HW219095   1.838   1.736   9.126  0.1940 -0.3430 -0.2577
 2487SOL     OW19096   2.564   4.541   5.999 -0.1221 -0.6867  0.0835
 2487SOL    HW119097   2.616   4.617   5.970 -0.4891 -0.4688 -0.0068
 2487SOL    HW219098   2.631   4.476   6.018 -0.9493 -1.1708  1.3434
 2488SOL     OW19099   3.640   4.363   9.533  0.0164 -0.5253  0.3299
 2488SOL    HW119100   3.704   4.293   9.518  2.5254  1.9341 -0.6256
 2488SOL    HW219101   3.610   4.345   9.621  1.5568  0.9776  1.1838
 2489SOL     OW19102   0.968   2.053   5.034  0.3817 -0.6604  0.0818
 2489SOL    HW119103   0.903   1.983   5.033  0.8098 -1.0420 -0.6274
 2489SOL    HW219104   1.030   2.010   5.092 -1.0109 -2.4461  0.2443
 2490SOL     OW19105   2.353   1.305   5.988 -0.2789  0.0084 -0.2040
 2490SOL    HW119106   2.272   1.352   5.965 -0.9766 -0.0316  2.1850
 2490SOL    HW219107   2.418   1.336   5.924  2.2299  1.6020  3.1084
 2491SOL     OW19108   2.635   1.191   5.273 -0.1962  1.2185 -0.0666
 2491SOL    HW119109   2.662   1.104   5.242 -0.3499  0.6325  1.4365
 2491SOL    HW219110   2.569   1.170   5.339  0.3496 -3.0397 -0.8523
 2492SOL     OW19111   1.507   1.973   8.363  0.4662  0.4399  0.0458
 2492SOL    HW119112   1.597   1.989   8.391  0.0643  3.2650 -0.2560
 2492SOL    HW219113   1.454   2.016   8.430 -0.1060 -0.3522  0.1073
 2493SOL     OW19114   4.317   3.812   9.283  0.1845  0.4315  0.5897
 2493SOL    HW119115   4.284   3.901   9.270  0.1741  0.1870 -1.0161
 2493SOL    HW219116   4.238   3.764   9.259  0.6792 -0.2380  0.3166
 2494SOL     OW19117   4.515   2.361   7.904  0.2603  0.9927  0.4489
 2494SOL    HW119118   4.516   2.453   7.878  2.6497  0.1408 -2.5642
 2494SOL    HW219119   4.489   2.320   7.821  1.8738 -1.2836  1.0778
 2495SOL     OW19120   4.555   2.757  13.150  1.1602 -0.4187 -0.2280
 2495SOL    HW119121   4.638   2.771  13.106  1.1826 -0.3257 -0.1563
 2495SOL    HW219122   4.541   2.841  13.193  0.3755 -1.4231  1.5037
 2496SOL     OW19123   0.341   2.139   6.968 -0.1384 -0.1749  0.2828
 2496SOL    HW119124   0.426   2.100   6.948 -0.3632 -0.9469  0.8237
 2496SOL    HW219125   0.295   2.109   6.890  1.5895  0.7442 -1.0772
 2497SOL     OW19126   4.521   3.144   8.809 -0.3220  0.2423  0.5365
 2497SOL    HW119127   4.518   3.079   8.879 -1.9563  1.9533  2.0143
 2497SOL    HW219128   4.489   3.221   8.855 -0.2585  1.2172 -1.0583
 2498SOL     OW19129   1.091   3.281  17.363 -0.2538 -0.3106 -0.4085
 2498SOL    HW119130   1.170   3.264  17.312 -1.3438  0.2938 -2.2908
 2498SOL    HW219131   1.029   3.222  17.321 -0.4027  0.5919 -1.4433
 2499SOL     OW19132   3.296   4.336   7.911  0.2490 -0.0637 -0.0747
 2499SOL    HW119133   3.288   4.344   7.815 -0.9251 -0.3802 -0.0117
 2499SOL    HW219134   3.337   4.250   7.918  0.2172  0.2143  3.5019
 2500SOL     OW19135   2.171   2.059   8.178  0.4529 -0.6536 -0.5166
 2500SOL    HW119136   2.215   1.980   8.207  2.3275  0.0728 -1.3230
 2500SOL    HW219137   2.083   2.048   8.213  1.0912 -2.2493  0.5707
 2501SOL     OW19138   1.607   0.149   8.308 -0.0233 -0.3854 -0.0063
 2501SOL    HW119139   1.536   0.094   8.275 -0.1792 -0.0046 -0.3157
 2501SOL    HW219140   1.565   0.235   8.307  2.2495  0.7401  0.8572
 2502SOL     OW19141   1.615   3.261   5.060  0.5470  0.0869  0.1138
 2502SOL    HW119142   1.541   3.233   5.113  0.2374  0.8726  0.0940
 2502SOL    HW219143   1.599   3.353   5.041  1.7308  0.1072 -0.7754
 2503SOL     OW19144   4.157   2.426   2.650  0.2007 -0.1895 -0.4584
 2503SOL    HW119145   4.200   2.420   2.565 -0.5980  0.0706 -0.8828
 2503SOL    HW219146   4.225   2.393   2.708 -0.8488 -1.5742  0.0047
 2504SOL     OW19147   3.044   0.642   4.697 -0.1440  0.0779 -0.2839
 2504SOL    HW119148   3.095   0.723   4.705  1.9731 -1.1865 -0.7342
 2504SOL    HW219149   3.026   0.639   4.603 -0.5157 -1.1606 -0.1652
 2505SOL     OW19150   2.011   1.162  12.922 -0.0481 -0.1070 -0.0980
 2505SOL    HW119151   1.982   1.201  12.840  2.2852 -0.8656 -1.2880
 2505SOL    HW219152   1.957   1.211  12.984  0.9714 -0.8285  1.3413
 2506SOL     OW19153   0.763   1.340  10.833 -0.8417  0.1629 -0.2569
 2506SOL    HW119154   0.772   1.378  10.746 -0.1161  0.0964 -0.2132
 2506SOL    HW219155   0.696   1.273  10.821 -1.7929  1.1336 -0.2639
 2507SOL     OW19156   2.134   3.414   2.339 -0.1967 -0.4946  0.0023
 2507SOL    HW119157   2.117   3.330   2.380 -1.4746  0.0279  0.5478
 2507SOL    HW219158   2.213   3.406   2.285 -0.3849  0.3842 -0.4029
 2508SOL     OW19159   3.605   2.587   0.460  0.5873  0.9626 -0.3828
 2508SOL    HW119160   3.687   2.625   0.493  1.8767 -0.6295 -1.7827
 2508SOL    HW219161   3.577   2.531   0.533 -0.3246  2.8409  0.7305
 2509SOL     OW19162   1.028   3.197   3.643 -0.0568  0.2144  0.6653
 2509SOL    HW119163   0.989   3.126   3.593  1.2318 -1.0304  1.4157
 2509SOL    HW219164   1.097   3.156   3.696  0.5060  0.2397 -0.0434
 2510SOL     OW19165   2.766   3.148   2.513  0.5676  0.5616  0.2984
 2510SOL    HW119166   2.831   3.215   2.536  0.2287  1.5585 -1.7051
 2510SOL    HW219167   2.752   3.113   2.601  0.2596  0.7877  0.3393
 2511SOL     OW19168   4.610   3.440   3.500  0.5935  0.2172  0.2850
 2511SOL    HW119169   4.533   3.415   3.449  1.9444 -0.7716 -1.2550
 2511SOL    HW219170   4.582   3.529   3.522  1.2180 -0.2300  2.8852
 2512SOL     OW19171   3.465   4.093  15.000  0.2610  0.0223  0.6366
 2512SOL    HW119172   3.485   4.080  14.907 -0.9387 -0.0521  0.3883
 2512SOL    HW219173   3.554   4.096  15.034 -0.0288  0.5952  1.3354
 2513SOL     OW19174   4.475   4.094   4.231  0.4279  0.1611  0.0018
 2513SOL    HW119175   4.407   4.155   4.259  1.3406  1.3495 -0.3701
 2513SOL    HW219176   4.442   4.068   4.144  0.3132 -0.2441  0.1644
 2514SOL     OW19177   3.429   3.637   5.000  0.2804 -0.4010  0.0558
 2514SOL    HW119178   3.488   3.562   5.000  0.4818 -0.2468  0.4638
 2514SOL    HW219179   3.484   3.707   4.965  1.5290 -1.7999 -0.7303
 2515SOL     OW19180   0.462   0.866   7.821  0.0804 -0.2529 -1.0126
 2515SOL    HW119181   0.413   0.928   7.874 -1.0306 -2.0704  0.1004
 2515SOL    HW219182   0.503   0.810   7.887 -0.6315  0.5540  0.1101
 2516SOL     OW19183   4.329   3.440   1.018  0.6991 -0.2038 -0.0123
 2516SOL    HW119184   4.376   3.476   0.942 -2.7394  2.5951 -0.7952
 2516SOL    HW219185   4.310   3.523   1.062 -2.5737 -1.4722  0.9003
 2517SOL     OW19186   2.712   2.061   8.731  0.0995 -0.6213  0.3899
 2517SOL    HW119187   2.752   2.077   8.646  0.0675 -1.6498  0.1788
 2517SOL    HW219188   2.763   2.107   8.797 -1.2732  0.9634  0.3520
 2518SOL     OW19189   3.981   1.468   4.474 -0.1574  0.6832  0.8414
 2518SOL    HW119190   3.962   1.504   4.387  0.8087 -0.2315  0.2496
 2518SOL    HW219191   4.076   1.457   4.467  0.2202  2.2245  3.5683
 2519SOL     OW19192   3.019   1.017   8.144 -0.4269 -0.3892  0.3529
 2519SOL    HW119193   3.108   1.009   8.111 -0.1531 -1.1617  1.2854
 2519SOL    HW219194   2.982   0.945   8.092 -1.2443  0.5760 -0.4057
 2520SOL     OW19195   0.285   3.615   4.986  0.1407 -0.2306 -0.0218
 2520SOL    HW119196   0.280   3.576   5.073  0.7254  0.8994  0.5092
 2520SOL    HW219197   0.295   3.531   4.940  2.3104  0.0606 -0.0859
 2521SOL     OW19198   2.663   0.900   7.225  0.6588 -0.1287  0.1831
 2521SOL    HW119199   2.718   0.970   7.259  1.1583 -0.4053 -0.0690
 2521SOL    HW219200   2.722   0.827   7.207  0.4284  0.1376 -1.6672
 2522SOL     OW19201   1.882   2.920   5.460  0.0996  0.2885  0.2551
 2522SOL    HW119202   1.805   2.874   5.492 -1.5098  0.7753 -2.9167
 2522SOL    HW219203   1.842   2.964   5.385  0.2294 -1.2984 -0.7481
 2523SOL     OW19204   4.262   1.863   0.744  0.6841 -0.5236 -0.3353
 2523SOL    HW119205   4.222   1.777   0.758 -0.7788  0.3054  0.5694
 2523SOL    HW219206   4.235   1.896   0.658  0.7559  0.6632  0.0990
 2524SOL     OW19207   3.229   0.264   4.089  0.0543  0.1176  0.2010
 2524SOL    HW119208   3.181   0.289   4.168  1.6795 -0.0066  1.2384
 2524SOL    HW219209   3.256   0.174   4.106  1.0828  0.7714  2.0457
 2525SOL     OW19210   1.360   1.612   0.676 -0.8673 -0.1165 -0.2009
 2525SOL    HW119211   1.324   1.604   0.587  0.4034  0.5336 -0.7686
 2525SOL    HW219212   1.443   1.654   0.656 -0.0329 -0.8078  1.8457
 2526SOL     OW19213   1.750   3.379   8.458  0.2470 -0.5719 -0.4357
 2526SOL    HW119214   1.766   3.433   8.380  1.6816  0.2510  0.4199
 2526SOL    HW219215   1.713   3.297   8.426 -0.4503  0.7076 -2.9425
 2527SOL     OW19216   3.577   1.980  13.991  0.1884 -0.1952  0.3826
 2527SOL    HW119217   3.564   1.894  13.953 -0.7227  1.0149 -2.0290
 2527SOL    HW219218   3.497   2.025  13.965  0.3544  0.4059  0.8988
 2528SOL     OW19219   0.853   4.402   8.767  0.1910 -0.3985  0.0664
 2528SOL    HW119220   0.774   4.357   8.796  1.4668 -0.3786  3.6877
 2528SOL    HW219221   0.905   4.325   8.745 -1.8397 -1.3875 -1.2373
 2529SOL     OW19222   2.167   1.146  10.988  0.3562  0.3235  0.5486
 2529SOL    HW119223   2.248   1.100  11.011 -0.5004 -0.7100  1.5558
 2529SOL    HW219224   2.112   1.068  10.978  2.4908 -1.1937  0.4971
 2530SOL     OW19225   2.088   3.607   8.872 -0.1479 -0.3417 -0.3461
 2530SOL    HW119226   2.126   3.664   8.940 -1.9078  0.3939  0.0275
 2530SOL    HW219227   2.160   3.601   8.810  0.0784 -0.5724 -0.0615
 2531SOL     OW19228   0.769   2.005   7.763 -0.1361  0.3496 -0.4179
 2531SOL    HW119229   0.740   2.077   7.818  0.6556  0.7535 -0.5248
 2531SOL    HW219230   0.798   1.936   7.822 -0.7545  0.9749  0.6057
 2532SOL     OW19231   2.593   1.936  12.382 -0.1643  0.1869 -0.4401
 2532SOL    HW119232   2.682   1.937  12.347  0.8342 -0.6481  2.1134
 2532SOL    HW219233   2.588   2.020  12.428  1.2587  0.7937 -1.3715
 2533SOL     OW19234   1.389   0.226   2.664  0.0325 -0.1041 -0.2956
 2533SOL    HW119235   1.440   0.180   2.730  2.1848  2.5908 -0.0741
 2533SOL    HW219236   1.459   0.263   2.611 -0.2146  1.8993  0.7544
 2534SOL     OW19237   1.195   3.561   6.912  0.0204 -0.6667  0.0475
 2534SOL    HW119238   1.289   3.576   6.898 -0.2532 -1.0714 -2.2773
 2534SOL    HW219239   1.187   3.469   6.936 -1.7871 -0.4391  0.3136
 2535SOL     OW19240   1.102   0.612   4.228 -0.0225  0.6135  0.1138
 2535SOL    HW119241   1.058   0.676   4.171 -1.0172  0.6264  0.8905
 2535SOL    HW219242   1.064   0.534   4.188 -2.1262  1.2995  0.7674
 2536SOL     OW19243   3.878   4.305   4.084  0.2609  0.3943 -0.4573
 2536SOL    HW119244   3.922   4.232   4.128 -3.1344 -0.2918  1.8960
 2536SOL    HW219245   3.951   4.328   4.027  0.3227  0.1245 -0.4862
 2537SOL     OW19246   3.454   3.198   5.054  0.7461  0.5002  0.1850
 2537SOL    HW119247   3.535   3.150   5.071  0.5602  0.2616  0.4002
 2537SOL    HW219248   3.401   3.121   5.033  0.9664  0.2086  0.6991
 2538SOL     OW19249   1.976   2.782   2.383 -0.1275  0.0279 -0.0235
 2538SOL    HW119250   2.066   2.814   2.381 -0.4891  0.9651 -1.0006
 2538SOL    HW219251   1.994   2.692   2.412 -1.4711 -0.5291 -0.8839
 2539SOL     OW19252   1.807   1.081   5.862 -0.3206 -0.0443  0.2171
 2539SOL    HW119253   1.877   1.021   5.836  0.1749  1.1513 -1.2125
 2539SOL    HW219254   1.828   1.088   5.954 -0.7531  1.5268  0.1914
 2540SOL     OW19255   1.285   3.214   5.867 -0.2552  0.0228 -0.4848
 2540SOL    HW119256   1.272   3.309   5.874  1.7514  0.1361  1.5482
 2540SOL    HW219257   1.255   3.201   5.957  2.2638  2.7174  0.7490
 2541SOL     OW19258   4.502   4.130   4.975 -0.4610  0.6268  0.1368
 2541SOL    HW119259   4.495   4.043   4.936  1.1737  1.7130 -2.5893
 2541SOL    HW219260   4.454   4.180   4.910 -0.5351 -0.4068 -0.6095
 2542SOL     OW19261   0.100   0.558   5.021  0.0705  0.5067  0.0785
 2542SOL    HW119262   0.064   0.596   4.941 -0.5478  0.6984  0.4516
 2542SOL    HW219263   0.177   0.612   5.040 -0.7433  1.3676  0.9228
 2543SOL     OW19264   2.221   1.927   4.206 -0.0699 -0.2216  0.2439
 2543SOL    HW119265   2.254   1.880   4.129 -0.8058 -0.5389  0.1232
 2543SOL    HW219266   2.196   1.854   4.262  0.4772  2.5677  4.1515
 2544SOL     OW19267   4.394   2.744   6.123  0.4257  0.1213 -0.2325
 2544SOL    HW119268   4.431   2.780   6.204 -1.0321  0.5487  0.2548
 2544SOL    HW219269   4.304   2.721   6.149 -0.0509  1.7940 -0.3853
 2545SOL     OW19270   3.731   1.127   8.056  0.0297  0.4556 -0.2029
 2545SOL    HW119271   3.698   1.182   8.127  1.1576 -0.3361  0.9356
 2545SOL    HW219272   3.821   1.107   8.082 -0.4419  0.7914  1.6905
 2546SOL     OW19273   4.061   0.706   3.995 -0.3994 -0.1920  0.0471
 2546SOL    HW119274   4.109   0.637   3.948 -1.3407 -0.7791 -0.0501
 2546SOL    HW219275   3.973   0.677   3.971 -0.6263  0.6865 -0.2014
 2547SOL     OW19276   3.474   4.348   7.062  0.1647  0.3897  0.4374
 2547SOL    HW119277   3.536   4.352   6.989  0.6782 -2.1591  0.7397
 2547SOL    HW219278   3.540   4.338   7.132  1.0922  0.7427 -0.3861
 2548SOL     OW19279   0.589   3.933   4.357 -0.4827 -0.2424  0.0919
 2548SOL    HW119280   0.571   4.027   4.358  2.2392  0.3099 -2.0993
 2548SOL    HW219281   0.596   3.923   4.262 -2.7756 -0.7619 -0.0103
 2549SOL     OW19282   1.126   4.351   3.648 -0.0145  0.2162  0.0952
 2549SOL    HW119283   1.046   4.405   3.644 -0.8171 -0.9238  0.5553
 2549SOL    HW219284   1.088   4.264   3.635 -0.3855  0.5067 -0.7307
 2550SOL     OW19285   0.054   2.492   8.642 -0.0679  0.0806  0.0071
 2550SOL    HW119286   0.044   2.399   8.663  0.2529  0.2013  0.7124
 2550SOL    HW219287   0.055   2.487   8.547  0.1975 -1.8073  0.1063
 2551SOL     OW19288   1.815   4.149   2.208 -0.0407 -0.0765  0.0460
 2551SOL    HW119289   1.763   4.090   2.263 -0.0292  0.8353  1.0289
 2551SOL    HW219290   1.782   4.227   2.251  1.3371 -1.2690  3.2827
 2552SOL     OW19291   2.509   1.724   5.969 -0.0185  0.3166  0.0323
 2552SOL    HW119292   2.561   1.767   5.901 -0.0374 -0.0156 -0.1949
 2552SOL    HW219293   2.579   1.719   6.034  0.7802  1.1235 -0.7617
 2553SOL     OW19294   0.983   3.972   6.366 -0.1394 -0.1903 -0.0814
 2553SOL    HW119295   0.938   4.010   6.290  2.3174  0.1058 -1.4028
 2553SOL    HW219296   0.965   4.039   6.432  0.3529 -0.7123  0.5814
 2554SOL     OW19297   4.489   2.022   0.661 -0.3053 -0.2269  0.1347
 2554SOL    HW119298   4.499   1.937   0.704 -2.5492  0.1863  1.4509
 2554SOL    HW219299   4.524   2.007   0.573 -0.3730 -0.5887  0.1689
 2555SOL     OW19300   3.116   2.984   1.704 -0.1995  0.0643 -0.4027
 2555SOL    HW119301   3.164   3.059   1.670 -1.7032  0.5578 -1.4190
 2555SOL    HW219302   3.192   2.934   1.735 -2.4948 -0.8458  3.6945
 2556SOL     OW19303   4.001   2.182   7.450  0.1257  0.6451  0.3927
 2556SOL    HW119304   4.096   2.188   7.443  0.2751 -0.3595  1.6912
 2556SOL    HW219305   3.970   2.270   7.428  0.8240  0.9018  0.4479
 2557SOL     OW19306   1.588   0.252   5.851 -0.0837  0.3124 -0.4082
 2557SOL    HW119307   1.647   0.182   5.823 -1.0169  0.0068 -1.6030
 2557SOL    HW219308   1.657   0.318   5.852 -0.3591  0.5285  2.7531
 2558SOL     OW19309   1.113   1.657   0.049  0.9993 -0.4956 -0.9076
 2558SOL    HW119310   1.178   1.617   0.106  0.7121 -0.2568 -0.4126
 2558SOL    HW219311   1.161   1.721  17.739  1.4970  0.0382  0.1895
 2559SOL     OW19312   1.262   1.908   6.053  1.1000 -0.6710  0.0540
 2559SOL    HW119313   1.343   1.954   6.078 -0.1721  1.3145  0.5135
 2559SOL    HW219314   1.314   1.833   6.022  1.7947 -0.4461  0.6674
 2560SOL     OW19315   3.574   3.601   2.078  0.1195  0.2117  0.1810
 2560SOL    HW119316   3.550   3.510   2.062  0.6911  0.2058 -0.6731
 2560SOL    HW219317   3.533   3.649   2.007  2.2442  2.4483  0.4766
 2561SOL     OW19318   2.956   0.660   0.450 -0.1880  0.3589 -0.6284
 2561SOL    HW119319   2.867   0.652   0.484 -0.6117 -1.5469 -2.1399
 2561SOL    HW219320   3.005   0.638   0.529 -2.4348 -4.7620 -0.7006
 2562SOL     OW19321   0.652   4.201   7.356 -0.1912 -0.1751 -0.4039
 2562SOL    HW119322   0.650   4.185   7.451 -1.7814 -0.4253 -0.4778
 2562SOL    HW219323   0.572   4.152   7.339  1.0012 -1.6640 -1.6938
 2563SOL     OW19324   2.217   0.964   3.861  0.1893  0.4772  0.4749
 2563SOL    HW119325   2.178   0.881   3.891 -1.0597  0.6529 -0.6488
 2563SOL    HW219326   2.136   1.006   3.833 -0.2984  1.3649  3.2644
 2564SOL     OW19327   3.658   0.882   9.223 -0.1743 -0.1337  0.5582
 2564SOL    HW119328   3.597   0.952   9.203  1.0505  0.1408 -2.1235
 2564SOL    HW219329   3.639   0.829   9.146 -3.0901  1.6829  0.0422
 2565SOL     OW19330   3.954   4.533   2.241 -0.3338 -0.5223 -0.0697
 2565SOL    HW119331   4.033   4.497   2.281 -1.2613 -1.1102  1.1952
 2565SOL    HW219332   3.966   4.624   2.269 -0.6751 -0.9047  1.2746
 2566SOL     OW19333   0.427   1.336   6.452 -0.1865  0.4778 -0.0404
 2566SOL    HW119334   0.466   1.359   6.536  0.7949  1.6262 -0.8065
 2566SOL    HW219335   0.480   1.400   6.404  0.0432 -0.8098 -1.4990
 2567SOL     OW19336   1.013   4.626   4.742 -0.2992  0.1490  0.9562
 2567SOL    HW119337   1.098   4.615   4.786  0.9422 -2.1143 -1.9581
 2567SOL    HW219338   0.964   4.548   4.768  1.1363  0.7045  5.4416
 2568SOL     OW19339   3.476   1.909  15.686  0.5232 -0.7049 -0.2389
 2568SOL    HW119340   3.544   1.926  15.751  1.2111  0.2487 -1.2138
 2568SOL    HW219341   3.521   1.936  15.606  1.8234  0.8976  1.0468
 2569SOL     OW19342   1.254   0.048   6.380 -0.7016  0.0747 -0.2719
 2569SOL    HW119343   1.348   0.056   6.396 -0.8516  0.4875  0.4018
 2569SOL    HW219344   1.223   4.709   6.431 -0.7690  0.8962  0.8893
 2570SOL     OW19345   1.431   2.949   0.139  0.0712 -0.2334 -0.0323
 2570SOL    HW119346   1.426   2.857   0.167  0.7492 -0.8624 -1.9513
 2570SOL    HW219347   1.340   2.966   0.117 -0.5876 -1.8405  1.4336
 2571SOL     OW19348   3.765   3.719  11.955 -0.2891  0.1106  0.0718
 2571SOL    HW119349   3.749   3.747  12.045  0.4601 -1.4912  0.7046
 2571SOL    HW219350   3.853   3.682  11.949  0.0755  0.8278  1.1217
 2572SOL     OW19351   0.743   2.053  15.119 -0.6513  0.5066  0.0983
 2572SOL    HW119352   0.825   2.024  15.080 -1.4299 -2.5413  0.7746
 2572SOL    HW219353   0.693   1.976  15.147 -4.2445  3.3649  1.6948
 2573SOL     OW19354   2.065   3.430   4.488  0.1124  0.3134 -1.0581
 2573SOL    HW119355   2.034   3.519   4.469 -0.6535  0.0202 -1.1674
 2573SOL    HW219356   2.045   3.427   4.581 -0.4317  2.1966 -1.1258
 2574SOL     OW19357   2.758   3.326  11.686 -0.1525 -0.2613 -0.1918
 2574SOL    HW119358   2.753   3.302  11.778  0.5140 -0.5108 -0.2176
 2574SOL    HW219359   2.700   3.402  11.673  3.0301  1.5715 -3.7457
 2575SOL     OW19360   0.779   2.149  16.619 -0.4302 -0.9459  0.2723
 2575SOL    HW119361   0.866   2.169  16.652  0.0078 -1.9771 -0.2840
 2575SOL    HW219362   0.817   2.097  16.548 -1.6517 -1.6782  0.1591
 2576SOL     OW19363   1.788   1.341   5.839  0.1991 -0.0116  0.1545
 2576SOL    HW119364   1.792   1.247   5.858 -0.2576  0.0101  0.3545
 2576SOL    HW219365   1.883   1.353   5.843  0.0301  1.7732 -1.3380
 2577SOL     OW19366   0.093   4.032  10.119 -0.2429 -0.3719 -0.7535
 2577SOL    HW119367   0.078   4.061  10.029  1.1121  1.3834 -0.4137
 2577SOL    HW219368   0.011   4.063  10.157  1.5063  1.0201  1.8845
 2578SOL     OW19369   0.114   2.955   4.793 -0.2159  0.6486  0.2144
 2578SOL    HW119370   0.163   2.996   4.864 -0.1985 -1.5763  1.4701
 2578SOL    HW219371   0.185   2.909   4.748 -1.9395 -1.8630  0.0572
 2579SOL     OW19372   2.805   4.185   8.007 -0.3533  0.1454  0.2445
 2579SOL    HW119373   2.855   4.134   7.944 -2.3932 -0.1404 -1.1249
 2579SOL    HW219374   2.716   4.162   7.980  0.3108 -0.7269 -1.2136
 2580SOL     OW19375   3.313   4.008   8.665  0.6535  0.2218 -0.2073
 2580SOL    HW119376   3.244   4.074   8.669 -1.4734 -2.0534  1.3541
 2580SOL    HW219377   3.383   4.055   8.621  0.4514 -0.8832 -1.6963
 2581SOL     OW19378   1.693   4.237   5.347  0.3599 -0.2219  0.7453
 2581SOL    HW119379   1.653   4.171   5.291 -0.5488 -1.2596  2.6326
 2581SOL    HW219380   1.693   4.195   5.433  0.2412 -0.1323  0.7887
 2582SOL     OW19381   2.666   3.983   5.429  0.2774 -0.0594  0.7079
 2582SOL    HW119382   2.577   4.014   5.410  0.5026 -0.3098 -0.7237
 2582SOL    HW219383   2.698   3.966   5.341 -0.5184  2.6003 -0.1013
 2583SOL     OW19384   4.578   1.375   8.499  0.4261  0.2500  0.4771
 2583SOL    HW119385   4.607   1.466   8.493  0.1306  0.2668 -0.6659
 2583SOL    HW219386   4.548   1.368   8.408  2.4221  0.1228 -0.1755
 2584SOL     OW19387   2.742   2.931   5.393 -0.2748 -0.3250  0.1340
 2584SOL    HW119388   2.783   2.876   5.326  0.4686 -1.2165  1.3199
 2584SOL    HW219389   2.722   2.870   5.464 -2.2357 -1.0961 -1.1032
 2585SOL     OW19390   4.139   0.879   0.467  0.4312 -0.1302 -0.1302
 2585SOL    HW119391   4.197   0.805   0.451  0.9534  0.3670 -0.5755
 2585SOL    HW219392   4.186   0.929   0.535 -1.7421 -0.7876  1.8382
 2586SOL     OW19393   4.642   3.245   2.335  0.2022  0.1222  0.1051
 2586SOL    HW119394   4.699   3.312   2.374 -1.7873  0.3021  2.7326
 2586SOL    HW219395   4.637   3.191   2.414 -1.5105  1.6880  1.0675
 2587SOL     OW19396   2.801   3.906  15.921 -0.3206 -0.0507 -0.0236
 2587SOL    HW119397   2.706   3.905  15.934 -0.1564  2.4837  1.4313
 2587SOL    HW219398   2.797   3.879  15.829  2.9083  1.0533 -0.4738
 2588SOL     OW19399   4.174   4.323   6.710  0.6487  0.0282 -0.0317
 2588SOL    HW119400   4.236   4.252   6.723  0.4813 -0.1061  0.0241
 2588SOL    HW219401   4.096   4.304   6.762 -0.0389 -0.6828 -1.3304
 2589SOL     OW19402   0.459   1.723   7.059  0.6988 -1.1150 -0.1993
 2589SOL    HW119403   0.510   1.798   7.092  1.3987 -1.0170 -1.4966
 2589SOL    HW219404   0.379   1.733   7.111  0.6558  1.6114 -0.7841
 2590SOL     OW19405   3.921   1.954   8.808  0.1874  0.4357 -0.2595
 2590SOL    HW119406   3.902   2.048   8.813 -0.5399  0.2496  0.5653
 2590SOL    HW219407   4.010   1.947   8.842 -0.1366  1.9826  0.8871
 2591SOL     OW19408   0.154   4.015   7.515  0.4845  0.8754  0.3605
 2591SOL    HW119409   0.099   3.991   7.590 -0.2234 -1.6160 -0.9786
 2591SOL    HW219410   0.211   4.090   7.535  0.8799  1.0032 -1.2365
 2592SOL     OW19411   0.615   1.056   0.717 -0.3245 -0.2388 -0.4189
 2592SOL    HW119412   0.650   0.975   0.680 -1.4925 -0.7541 -0.4276
 2592SOL    HW219413   0.609   1.111   0.639  2.1771  0.5890  0.0053
 2593SOL     OW19414   3.842   3.779  15.279 -0.2058  0.0320 -0.0501
 2593SOL    HW119415   3.753   3.750  15.300 -0.3474  0.5549  0.0720
 2593SOL    HW219416   3.826   3.873  15.290 -1.1369 -0.2889  1.3300
 2594SOL     OW19417   1.209   4.049   9.325  0.3906 -0.0696 -0.3623
 2594SOL    HW119418   1.265   4.122   9.352  1.5677 -1.0929 -0.0547
 2594SOL    HW219419   1.261   3.971   9.343  1.9339  1.2625  0.9796
 2595SOL     OW19420   4.225   0.796  13.004 -0.3038 -0.3365 -0.3976
 2595SOL    HW119421   4.198   0.863  13.066  0.0560  0.6736 -1.3437
 2595SOL    HW219422   4.311   0.774  13.040 -1.0604  0.0758  1.6648
 2596SOL     OW19423   3.337   3.326   3.111 -0.0359  0.4418 -0.5074
 2596SOL    HW119424   3.426   3.289   3.116 -0.5589 -0.4996  2.1706
 2596SOL    HW219425   3.314   3.290   3.026 -1.8272  0.3391  0.0303
 2597SOL     OW19426   0.587   1.019   8.376 -0.3032  0.7882 -0.5224
 2597SOL    HW119427   0.546   1.101   8.349 -0.5717  0.7000 -0.3867
 2597SOL    HW219428   0.513   0.963   8.354  0.0382 -0.3490  1.2981
 2598SOL     OW19429   0.628   1.505   8.313 -0.3871 -0.1567 -0.3943
 2598SOL    HW119430   0.656   1.506   8.404  0.3311  0.6925 -0.6270
 2598SOL    HW219431   0.536   1.517   8.337  0.3842  1.6112  1.6104
 2599SOL     OW19432   3.211   2.505   8.550 -0.2337 -0.1538  0.0340
 2599SOL    HW119433   3.127   2.460   8.541  1.0477 -2.3458 -1.1481
 2599SOL    HW219434   3.223   2.511   8.645 -0.9448 -2.0831  0.2528
 2600SOL     OW19435   2.051   4.412   4.835  0.3230 -0.3037 -0.1704
 2600SOL    HW119436   2.104   4.339   4.803  2.1570  0.7181  0.5857
 2600SOL    HW219437   1.984   4.404   4.767 -0.3468  0.9149  0.3483
 2601SOL     OW19438   3.167   0.525   6.134  0.1217 -0.0227 -0.0294
 2601SOL    HW119439   3.234   0.572   6.185  1.4364 -2.4783  0.4654
 2601SOL    HW219440   3.182   0.435   6.161 -4.1783 -0.3461  1.2353
 2602SOL     OW19441   1.261   0.434   1.715  0.0885 -0.4726 -0.5805
 2602SOL    HW119442   1.329   0.447   1.649  2.6681 -0.6463  2.0408
 2602SOL    HW219443   1.192   0.405   1.656 -1.0420 -0.7015  0.8486
 2603SOL     OW19444   3.727   3.769  15.819  0.4038  0.2420 -0.0517
 2603SOL    HW119445   3.775   3.724  15.888  1.3764 -0.4038 -1.1487
 2603SOL    HW219446   3.764   3.854  15.844 -1.6239  0.6570  1.5543
 2604SOL     OW19447   4.186   1.137  14.857 -0.5766 -0.0870 -0.0470
 2604SOL    HW119448   4.268   1.150  14.905  0.3544  0.0683 -1.6933
 2604SOL    HW219449   4.130   1.207  14.889 -1.7478 -1.3495  0.6907
 2605SOL     OW19450   2.644   3.135   0.254  0.4695  0.5831  0.1309
 2605SOL    HW119451   2.686   3.081   0.321  0.0664  1.1661  0.8553
 2605SOL    HW219452   2.661   3.222   0.291  1.0418  0.7568 -0.5593
 2606SOL     OW19453   2.865   2.814  17.544  0.4311 -0.1786  0.2884
 2606SOL    HW119454   2.834   2.846  17.629 -1.1064 -0.9967  0.0290
 2606SOL    HW219455   2.921   2.887  17.519 -0.4601  1.2188  2.3614
 2607SOL     OW19456   1.544   2.665   4.641 -0.0797  0.2214 -0.2633
 2607SOL    HW119457   1.487   2.720   4.588 -2.8454 -0.9458  1.5190
 2607SOL    HW219458   1.538   2.583   4.591  0.5510 -0.4201  0.6995
 2608SOL     OW19459   1.150   0.503   4.477 -0.3771  0.2225 -0.3847
 2608SOL    HW119460   1.102   0.421   4.487 -0.1585  0.1494  0.0861
 2608SOL    HW219461   1.090   0.540   4.412 -1.1494 -2.3154 -1.0995
 2609SOL     OW19462   3.447   0.848   2.750  0.0708 -0.2690  0.8180
 2609SOL    HW119463   3.437   0.794   2.829  0.8320  1.0237  1.7966
 2609SOL    HW219464   3.367   0.847   2.699  1.1214  0.9179 -0.8371
 2610SOL     OW19465   4.535   1.196   8.986 -0.5526  0.0288 -0.5733
 2610SOL    HW119466   4.542   1.261   8.916 -0.8818 -0.8989 -1.4669
 2610SOL    HW219467   4.581   1.231   9.063  3.4628 -1.8804 -2.1304
 2611SOL     OW19468   3.769   1.212  11.648  0.2433  0.4715 -0.6212
 2611SOL    HW119469   3.773   1.137  11.587 -2.3959  1.2078 -1.7043
 2611SOL    HW219470   3.848   1.201  11.701 -2.0012 -4.1200  1.8295
 2612SOL     OW19471   1.482   1.855  13.014 -0.0331  0.1808 -0.1647
 2612SOL    HW119472   1.533   1.897  12.945 -0.5389 -1.4560 -1.5451
 2612SOL    HW219473   1.511   1.873  13.103  0.7798  0.9258 -0.5778
 2613SOL     OW19474   3.925   0.733   7.180 -0.3563 -0.2030 -0.1093
 2613SOL    HW119475   3.849   0.788   7.200  0.1754  0.0161  1.2955
 2613SOL    HW219476   3.896   0.649   7.213  1.7101 -1.6971 -2.0255
 2614SOL     OW19477   0.354   0.732   4.970 -0.5188 -0.2057  0.1134
 2614SOL    HW119478   0.389   0.691   4.891  1.4070  1.1571  0.2575
 2614SOL    HW219479   0.426   0.711   5.030 -0.6004 -4.1188 -1.1223
 2615SOL     OW19480   1.011   4.135   5.326 -0.3865  0.1235 -0.1907
 2615SOL    HW119481   1.040   4.107   5.239 -0.4834  1.6999 -0.7341
 2615SOL    HW219482   0.953   4.063   5.350 -0.1002 -0.9794 -2.8478
 2616SOL     OW19483   3.594   0.460   1.112  0.0415 -0.0914 -0.5773
 2616SOL    HW119484   3.604   0.433   1.204  2.6650  1.5096 -0.3936
 2616SOL    HW219485   3.612   0.554   1.120  1.3860 -0.4369  0.5476
 2617SOL     OW19486   1.328   0.851   6.532 -0.2273 -0.0107  0.3239
 2617SOL    HW119487   1.359   0.889   6.614 -1.1915 -0.0257  0.6895
 2617SOL    HW219488   1.366   0.764   6.530 -2.8070 -1.1302 -0.5189
 2618SOL     OW19489   2.160   3.784   3.200 -0.3234 -0.5026  0.4437
 2618SOL    HW119490   2.159   3.879   3.187  1.0822 -0.6446 -0.7081
 2618SOL    HW219491   2.172   3.747   3.112  2.1827  1.0930  0.1118
 2619SOL     OW19492   3.410   1.270   6.879 -0.5901  0.0183  0.1207
 2619SOL    HW119493   3.338   1.303   6.934 -0.3567  0.0683  0.3968
 2619SOL    HW219494   3.430   1.347   6.825  1.5765 -0.0126  0.8776
 2620SOL     OW19495   4.337   2.932  17.040 -0.5587 -0.2459 -0.3242
 2620SOL    HW119496   4.401   2.944  17.110 -0.4053 -0.9278 -0.3520
 2620SOL    HW219497   4.363   3.011  16.992  0.1733 -0.1424  0.2537
 2621SOL     OW19498   1.956   0.375   9.533 -0.5857  0.5357  0.6767
 2621SOL    HW119499   1.952   0.390   9.439 -0.0428  0.1818  0.6022
 2621SOL    HW219500   2.039   0.418   9.552 -0.8627  1.0358  0.7879
 2622SOL     OW19501   3.854   1.043  16.591  0.0633  0.6996 -0.2406
 2622SOL    HW119502   3.897   1.105  16.533  3.5263  0.0770  1.6379
 2622SOL    HW219503   3.898   0.967  16.554 -3.7226 -0.2408 -2.7725
 2623SOL     OW19504   2.038   0.256   5.167 -0.0604 -0.0957  0.2252
 2623SOL    HW119505   1.962   0.268   5.110  0.4481  0.2599 -0.3792
 2623SOL    HW219506   2.014   0.169   5.196 -2.5066  0.3636 -0.3837
 2624SOL     OW19507   0.010   0.757   1.701  0.3874 -0.0814 -0.5905
 2624SOL    HW119508   0.013   0.706   1.782  3.0401  0.5118 -0.3315
 2624SOL    HW219509   0.099   0.746   1.667 -0.3211 -1.1443 -2.0954
 2625SOL     OW19510   1.224   1.886   7.687  0.0718  0.1522  0.2379
 2625SOL    HW119511   1.198   1.906   7.597 -0.1976 -2.2672 -0.2324
 2625SOL    HW219512   1.291   1.818   7.678 -0.2675 -0.3573  1.5817
 2626SOL     OW19513   1.768   1.001  11.633  0.5575  0.2753  0.3674
 2626SOL    HW119514   1.722   0.936  11.686 -1.4344  0.5677 -0.9911
 2626SOL    HW219515   1.712   1.075  11.654  2.3798  1.8682 -0.4673
 2627SOL     OW19516   1.872   0.219   8.543 -0.2203 -0.3727 -0.2668
 2627SOL    HW119517   1.829   0.258   8.466  0.4004  1.9370  0.5662
 2627SOL    HW219518   1.912   0.292   8.589  0.1759  0.7709 -2.4153
 2628SOL     OW19519   2.299   2.761   2.725 -0.2606 -0.1022 -0.3885
 2628SOL    HW119520   2.208   2.739   2.706 -0.3769 -0.4365  0.5433
 2628SOL    HW219521   2.278   2.826   2.792  1.5720  1.7229 -1.5786
 2629SOL     OW19522   3.753   3.959   0.328  0.0121 -0.4208  0.4269
 2629SOL    HW119523   3.802   3.877   0.316 -1.2033 -1.0367 -0.3288
 2629SOL    HW219524   3.669   3.925   0.356  0.4463 -2.8057 -1.1771
 2630SOL     OW19525   2.277   1.835  10.888 -0.6128  0.0506 -0.1159
 2630SOL    HW119526   2.266   1.892  10.812 -1.6040  0.2063  0.1524
 2630SOL    HW219527   2.347   1.777  10.858 -1.7298 -0.8579 -0.9657
 2631SOL     OW19528   0.773   1.364   6.175  0.0348  0.3059  0.4347
 2631SOL    HW119529   0.744   1.336   6.261  1.2800 -0.1654  0.7047
 2631SOL    HW219530   0.701   1.336   6.119 -1.7510  1.7786  2.0036
 2632SOL     OW19531   2.923   0.736   9.572 -0.1834  0.1324  0.3239
 2632SOL    HW119532   2.953   0.686   9.496  1.9294  0.7539  0.7345
 2632SOL    HW219533   3.008   0.758   9.611 -0.8407  0.7150  1.4151
 2633SOL     OW19534   3.876   2.715  11.744 -0.3799  0.6056 -0.0252
 2633SOL    HW119535   3.896   2.769  11.820 -1.0940  1.7031 -0.6161
 2633SOL    HW219536   3.874   2.631  11.790 -1.2041  0.2865 -0.6387
 2634SOL     OW19537   2.000   3.012  10.003 -0.0233 -0.6216  0.6754
 2634SOL    HW119538   2.083   3.037  10.043  0.3633  1.2019 -1.2898
 2634SOL    HW219539   2.023   2.970   9.920 -1.0584 -2.2789  1.2501
 2635SOL     OW19540   0.148   2.698   4.952  0.1737  0.0192 -0.1180
 2635SOL    HW119541   0.130   2.638   4.880  0.1729  1.0834 -0.9983
 2635SOL    HW219542   0.107   2.780   4.926 -0.8063  0.1053  1.6734
 2636SOL     OW19543   4.602   1.634  17.731 -0.0156  0.5144 -0.1625
 2636SOL    HW119544   4.576   1.720   0.021 -2.7343 -0.5567  0.5000
 2636SOL    HW219545   4.513   1.599  17.726  0.3425 -0.6388  1.8465
 2637SOL     OW19546   0.910   0.271  13.567  0.6258  0.3936 -0.0049
 2637SOL    HW119547   1.005   0.273  13.567  0.6043  1.3221  0.0139
 2637SOL    HW219548   0.893   0.288  13.660 -2.0944 -0.2108 -0.3795
 2638SOL     OW19549   4.326   4.520   0.509 -0.3048 -0.2741 -0.0102
 2638SOL    HW119550   4.395   4.537   0.445 -0.6368  0.4729 -0.1571
 2638SOL    HW219551   4.254   4.555   0.458  0.4924  1.3171 -0.0206
 2639SOL     OW19552   4.146   0.025   6.552  0.0237 -0.5083 -0.1021
 2639SOL    HW119553   4.197   4.700   6.605 -1.6424 -2.4753 -0.7440
 2639SOL    HW219554   4.063   4.715   6.562 -0.6437  0.3635 -1.6286
 2640SOL     OW19555   1.899   0.136   6.794  0.4079 -0.9198 -0.4371
 2640SOL    HW119556   1.928   0.227   6.791  2.4660 -1.4921  1.5200
 2640SOL    HW219557   1.862   0.138   6.706  0.1685  0.1236 -0.3090
 2641SOL     OW19558   1.024   3.652   2.182  0.0896  0.1270 -0.5107
 2641SOL    HW119559   1.095   3.711   2.157  0.8676 -0.5962  0.0186
 2641SOL    HW219560   0.954   3.681   2.123  0.9512 -1.0414 -2.1321
 2642SOL     OW19561   2.255   2.921   2.500  0.6232  0.2674 -0.2644
 2642SOL    HW119562   2.286   2.871   2.576 -3.7701 -1.0309  0.6980
 2642SOL    HW219563   2.263   3.015   2.515  2.2191  0.3341 -1.6055
 2643SOL     OW19564   2.902   3.161  14.282 -0.4949 -0.4805 -0.2869
 2643SOL    HW119565   2.894   3.200  14.369  1.4355  0.6419 -0.6023
 2643SOL    HW219566   2.941   3.078  14.309  0.3408 -0.4869 -1.5137
 2644SOL     OW19567   2.688   2.400   6.720 -0.2650  0.4679  0.1937
 2644SOL    HW119568   2.623   2.463   6.688  1.3992  2.5991  1.0585
 2644SOL    HW219569   2.636   2.338   6.771  0.3749  0.4111  0.7800
 2645SOL     OW19570   0.064   2.672  13.041  0.4768  0.1131  0.0502
 2645SOL    HW119571   0.108   2.655  13.124  0.3099 -0.2617  0.0637
 2645SOL    HW219572   0.135   2.671  12.977 -0.0280 -2.1483 -0.4866
 2646SOL     OW19573   0.126   0.616   8.778  0.1956  0.1241  0.0396
 2646SOL    HW119574   0.054   0.658   8.731 -1.0639  0.8540  2.6222
 2646SOL    HW219575   0.110   0.654   8.865 -0.1327  3.2029 -1.3767
 2647SOL     OW19576   1.704   2.086   8.496 -0.2122  0.6434 -0.0291
 2647SOL    HW119577   1.781   2.091   8.553  0.5182 -1.9662 -0.7620
 2647SOL    HW219578   1.651   2.158   8.528 -0.3804 -0.4366  2.1031
 2648SOL     OW19579   0.351   0.611   2.223 -0.5821  0.3237  0.0337
 2648SOL    HW119580   0.330   0.648   2.137 -1.7066  0.0732  0.1979
 2648SOL    HW219581   0.265   0.581   2.250 -1.4433  1.0145 -1.8979
 2649SOL     OW19582   2.357   4.300   3.057  0.0373 -0.0749 -0.8105
 2649SOL    HW119583   2.322   4.332   2.974  1.1031  3.7327  0.2268
 2649SOL    HW219584   2.353   4.381   3.108  1.2624  0.1379 -1.0487
 2650SOL     OW19585   3.949   3.739  13.648  0.6772  0.4526  0.0411
 2650SOL    HW119586   3.996   3.817  13.619 -0.2595  0.1217 -2.3684
 2650SOL    HW219587   3.859   3.771  13.640  0.2103 -1.1110 -0.8728
 2651SOL     OW19588   3.573   2.559   8.219  0.3779 -0.3688 -0.3344
 2651SOL    HW119589   3.483   2.528   8.228  0.7352 -1.6724 -1.1462
 2651SOL    HW219590   3.622   2.477   8.232 -0.3193 -0.3333  2.4534
 2652SOL     OW19591   0.291   1.087   9.424 -0.3364  0.0732  1.0571
 2652SOL    HW119592   0.369   1.127   9.462  0.5655 -1.3636  0.7183
 2652SOL    HW219593   0.243   1.169   9.413  1.4038  0.6489 -2.1087
 2653SOL     OW19594   4.270   0.348  12.747 -0.1937  0.1755 -0.4446
 2653SOL    HW119595   4.278   0.442  12.738  0.7474  0.0687 -0.6729
 2653SOL    HW219596   4.231   0.339  12.834  1.2377 -1.5722  0.0351
 2654SOL     OW19597   2.943   4.134  17.627 -0.4392 -0.0444  0.6200
 2654SOL    HW119598   2.896   4.109  17.707  1.0560 -0.6430  1.3074
 2654SOL    HW219599   2.965   4.225  17.649  1.8559 -0.7210  1.0235
 2655SOL     OW19600   0.452   3.777   8.396  0.0647  0.1876  0.0127
 2655SOL    HW119601   0.385   3.718   8.364 -0.9660  1.0291  0.6128
 2655SOL    HW219602   0.535   3.742   8.363  1.2296 -1.2232  4.3626
 2656SOL     OW19603   4.531   4.390   4.210 -0.1374  0.0345 -0.5984
 2656SOL    HW119604   4.455   4.362   4.261  0.6112 -1.0006 -0.0432
 2656SOL    HW219605   4.607   4.338   4.238 -2.1597 -2.1062  0.9958
 2657SOL     OW19606   3.456   4.448   2.610 -0.2382  0.1784 -0.2388
 2657SOL    HW119607   3.439   4.511   2.540  2.2110 -0.2788 -1.2261
 2657SOL    HW219608   3.545   4.418   2.595 -1.5609 -2.5317 -2.5245
 2658SOL     OW19609   1.480   1.990   5.771  0.3577 -0.2082  0.1032
 2658SOL    HW119610   1.452   1.934   5.698  1.2228  1.4490 -1.4906
 2658SOL    HW219611   1.567   1.952   5.782  0.9439  1.0900 -0.0144
 2659SOL     OW19612   0.600   4.064   8.350 -0.2520 -0.6726  0.2486
 2659SOL    HW119613   0.643   4.014   8.281  1.6481  0.4341  0.6212
 2659SOL    HW219614   0.529   4.002   8.366 -0.0870 -1.0314 -0.3951
 2660SOL     OW19615   0.059   4.495   5.689 -0.2174 -0.8285  0.0586
 2660SOL    HW119616   0.023   4.498   5.778 -1.1528 -0.8542 -0.3161
 2660SOL    HW219617   0.096   4.583   5.682 -3.7232  0.6968  0.6971
 2661SOL     OW19618   1.744   1.844  12.863  0.3393 -0.0031 -0.3001
 2661SOL    HW119619   1.800   1.831  12.786  1.5967 -1.2675  0.8322
 2661SOL    HW219620   1.791   1.786  12.923  1.2912  0.3310 -0.7094
 2662SOL     OW19621   2.932   0.060   5.989 -0.5775 -0.3176 -0.2426
 2662SOL    HW119622   2.996   0.109   6.040 -0.9411 -0.1689  0.0699
 2662SOL    HW219623   2.996   0.021   5.929 -1.0108 -2.1009  0.4466
 2663SOL     OW19624   4.673   2.797   5.103 -0.2356 -0.4009 -0.2569
 2663SOL    HW119625   4.714   2.733   5.045 -0.3700 -1.0221  0.3378
 2663SOL    HW219626   4.638   2.748   5.177  0.8433  0.2697  0.6864
 2664SOL     OW19627   3.077   4.143   3.036  0.2577 -0.6344  0.2423
 2664SOL    HW119628   3.086   4.229   2.997  0.3055  0.5255  2.8406
 2664SOL    HW219629   3.163   4.115   3.005 -1.0582 -0.3785 -3.6867
 2665SOL     OW19630   1.282   0.296   2.988  0.1898 -0.4606 -0.0274
 2665SOL    HW119631   1.299   0.211   2.949 -0.7318 -0.1025 -1.2045
 2665SOL    HW219632   1.281   0.278   3.081  1.2332  1.3103  0.3350
 2666SOL     OW19633   4.680   1.081   9.700 -0.3411  0.5858  0.1913
 2666SOL    HW119634   4.593   1.104   9.733 -0.9658  1.2243 -1.9185
 2666SOL    HW219635   4.690   0.986   9.706 -0.1632  0.5465 -0.7628
 2667SOL     OW19636   2.814   0.769   5.827  0.0346  0.5714 -0.2104
 2667SOL    HW119637   2.859   0.690   5.858 -1.8277 -1.1275 -1.8446
 2667SOL    HW219638   2.791   0.818   5.906  1.6491  0.2759  0.4586
 2668SOL     OW19639   0.657   0.438   1.546 -0.7530 -0.4914 -0.0139
 2668SOL    HW119640   0.645   0.373   1.477 -0.2068 -0.3148 -0.2750
 2668SOL    HW219641   0.580   0.491   1.526  0.4495  1.6904  1.1308
 2669SOL     OW19642   0.912   2.361   4.259  0.4634  0.1435 -0.1506
 2669SOL    HW119643   0.905   2.394   4.348 -2.1158  0.2581 -0.3816
 2669SOL    HW219644   0.826   2.320   4.254 -0.6184  2.3816 -0.0132
 2670SOL     OW19645   2.870   1.248   5.439  0.8260 -0.1158  0.1553
 2670SOL    HW119646   2.816   1.272   5.515  0.6298 -1.5466  0.4758
 2670SOL    HW219647   2.802   1.217   5.379 -0.8740  2.3554  0.8087
 2671SOL     OW19648   1.126   1.141   3.297  0.1050 -0.5943 -0.6123
 2671SOL    HW119649   1.173   1.094   3.228  0.8910 -0.8931  0.1203
 2671SOL    HW219650   1.188   1.122   3.368 -0.4768 -0.2986 -0.0310
 2672SOL     OW19651   4.065   0.189   5.927  0.3356  0.4284 -0.2980
 2672SOL    HW119652   4.130   0.176   5.995  0.4258  0.5388 -0.3637
 2672SOL    HW219653   4.043   0.281   5.940  2.5357  0.8563  0.3423
 2673SOL     OW19654   0.001   0.245   4.060  0.1911  0.9150 -0.2370
 2673SOL    HW119655   0.009   0.176   4.126  2.6954  0.6930 -0.7695
 2673SOL    HW219656   4.643   0.242   4.046  0.1851  0.5456 -0.1183
 2674SOL     OW19657   3.590   4.407   4.105  0.0825 -0.0064  0.7719
 2674SOL    HW119658   3.655   4.440   4.167  0.0686  2.3351 -0.4846
 2674SOL    HW219659   3.615   4.314   4.097 -0.8814 -0.0691 -1.3421
 2675SOL     OW19660   0.104   3.491  13.565  0.3625  0.0506 -0.5722
 2675SOL    HW119661   0.154   3.487  13.647  0.7370  0.0424 -0.8004
 2675SOL    HW219662   0.138   3.575  13.535 -1.1804  0.9353  0.2247
 2676SOL     OW19663   3.152   3.498   5.659  0.4729  0.7199 -0.0704
 2676SOL    HW119664   3.126   3.414   5.698  0.5607 -0.0986 -1.7497
 2676SOL    HW219665   3.077   3.503   5.599 -0.3052 -0.9789  0.7580
 2677SOL     OW19666   0.620   3.194   5.059 -0.0542  0.3683 -0.4033
 2677SOL    HW119667   0.565   3.224   5.131 -1.0656 -1.1812 -0.5258
 2677SOL    HW219668   0.636   3.275   5.011  0.8573  0.8663  0.7595
 2678SOL     OW19669   2.012   0.555   3.725  0.1857 -0.5569 -0.3671
 2678SOL    HW119670   1.975   0.468   3.742 -1.2956  0.2467  0.5900
 2678SOL    HW219671   2.009   0.545   3.630 -1.7012  1.0407 -0.4718
 2679SOL     OW19672   3.010   2.845  10.688  0.1229 -0.1847  0.6567
 2679SOL    HW119673   3.101   2.850  10.658 -0.3347  1.2424 -0.5082
 2679SOL    HW219674   3.006   2.766  10.741 -2.1458  1.2726  2.6511
 2680SOL     OW19675   3.604   2.583   4.735 -0.0796 -0.3572  0.1383
 2680SOL    HW119676   3.615   2.493   4.766 -0.3516  0.6500  3.2358
 2680SOL    HW219677   3.696   2.610   4.736 -0.6131  1.4757  0.7834
 2681SOL     OW19678   1.403   1.175   2.141  0.7663  0.2803 -0.4274
 2681SOL    HW119679   1.384   1.242   2.207 -0.5372 -0.3001 -0.2071
 2681SOL    HW219680   1.344   1.202   2.071  0.9992  1.0080 -0.3408
 2682SOL     OW19681   0.651   3.083   5.476  0.1006 -0.1710 -0.2707
 2682SOL    HW119682   0.702   3.123   5.546 -0.7894 -1.2314  0.9643
 2682SOL    HW219683   0.722   3.058   5.417  0.9858 -1.0295  1.1585
 2683SOL     OW19684   0.446   3.210   5.321 -0.3896  0.5861 -0.4914
 2683SOL    HW119685   0.521   3.207   5.380 -0.4723  1.2214 -0.3556
 2683SOL    HW219686   0.408   3.122   5.324  1.2027 -0.0873 -0.0936
 2684SOL     OW19687   0.479   3.969  11.413 -0.2613  0.1776 -0.4809
 2684SOL    HW119688   0.521   3.971  11.499  0.3776 -0.6330 -0.7724
 2684SOL    HW219689   0.477   4.063  11.392  0.3584  0.5628  1.1864
 2685SOL     OW19690   0.471   2.040   6.062 -0.2495 -0.7244 -0.5173
 2685SOL    HW119691   0.526   2.105   6.020 -0.0942 -0.5453 -0.0373
 2685SOL    HW219692   0.524   2.010   6.136  0.0785  1.5408  0.1476
 2686SOL     OW19693   0.006   4.281  17.684 -0.1307  0.3153  0.2030
 2686SOL    HW119694   0.093   4.304  17.718 -0.3703  3.4402 -1.2852
 2686SOL    HW219695   4.734   4.195  17.725  3.5159 -0.4371 -0.6749
 2687SOL     OW19696   0.630   3.425   8.535  0.2197 -0.1641  0.2377
 2687SOL    HW119697   0.623   3.430   8.439  1.4512  1.4523  0.2215
 2687SOL    HW219698   0.626   3.330   8.547  4.0034 -0.7519 -2.6894
 2688SOL     OW19699   3.070   3.305   2.948 -0.0711  0.3292  0.3393
 2688SOL    HW119700   3.031   3.343   3.026 -0.2755 -2.6699  1.7164
 2688SOL    HW219701   3.038   3.215   2.959  1.9624 -0.2108  1.8548
 2689SOL     OW19702   3.407   0.800   4.468 -0.3770 -0.0135 -0.1668
 2689SOL    HW119703   3.499   0.798   4.493 -0.3377 -1.3469 -0.4315
 2689SOL    HW219704   3.402   0.862   4.395  0.4798  1.8724  1.3738
 2690SOL     OW19705   2.470   0.797   5.220 -0.2369  0.6987 -0.4376
 2690SOL    HW119706   2.454   0.843   5.138  0.3004 -0.1231 -1.0040
 2690SOL    HW219707   2.519   0.861   5.272 -0.7282  1.4413 -0.8987
 2691SOL     OW19708   0.297   1.903  12.543 -0.4137 -0.4712  0.3041
 2691SOL    HW119709   0.271   1.901  12.635 -1.3923 -0.4603  0.0196
 2691SOL    HW219710   0.393   1.910  12.545 -0.7366  3.5798  1.7955
 2692SOL     OW19711   0.103   1.152   3.033  0.0810  0.2250  0.1869
 2692SOL    HW119712   0.183   1.198   3.059  0.0477  0.9047 -0.9188
 2692SOL    HW219713   0.146   1.093   2.970 -1.6005 -0.8980  0.0807
 2693SOL     OW19714   3.832   3.213   1.309 -0.2262  0.4885 -0.7315
 2693SOL    HW119715   3.903   3.277   1.302  0.3489 -0.0147  0.5112
 2693SOL    HW219716   3.786   3.231   1.228 -1.1331 -1.8191 -0.7237
 2694SOL     OW19717   0.324   1.721  14.710 -0.4728  0.6111  0.0255
 2694SOL    HW119718   0.326   1.646  14.768  0.9961 -0.4716 -1.4460
 2694SOL    HW219719   0.403   1.762  14.745 -1.0037 -0.0901  2.0209
 2695SOL     OW19720   4.545   3.610   3.884  0.0353  0.1010  0.1746
 2695SOL    HW119721   4.501   3.567   3.811 -0.3984 -0.5463  0.8209
 2695SOL    HW219722   4.495   3.572   3.956 -0.0456  0.0256  0.0777
 2696SOL     OW19723   2.452   3.357   6.829  0.4311  0.3410 -0.5319
 2696SOL    HW119724   2.516   3.423   6.804  2.8030 -0.8140  2.4357
 2696SOL    HW219725   2.459   3.283   6.769 -1.6961 -0.4089  0.1339
 2697SOL     OW19726   1.581   1.567  13.216 -0.0487 -0.3961  1.0130
 2697SOL    HW119727   1.618   1.571  13.128  1.0415  0.0191  1.4917
 2697SOL    HW219728   1.571   1.471  13.214 -0.5290 -0.3314 -0.0179
 2698SOL     OW19729   3.313   2.502   8.293  0.3553  0.6227  0.6009
 2698SOL    HW119730   3.313   2.492   8.388  1.9873  1.6941  0.7123
 2698SOL    HW219731   3.260   2.426   8.269 -0.7943  1.9047 -0.8678
 2699SOL     OW19732   2.713   4.491  13.852 -0.0749 -0.3757 -0.3604
 2699SOL    HW119733   2.791   4.545  13.862  0.4643 -1.2081 -0.0369
 2699SOL    HW219734   2.745   4.421  13.794  1.7818 -1.9999  2.6271
 2700SOL     OW19735   0.418   1.610   7.393  0.5677 -0.4579  0.3290
 2700SOL    HW119736   0.453   1.647   7.475  2.9853  0.2222 -1.0183
 2700SOL    HW219737   0.343   1.667   7.379  0.4621 -0.5103  0.6658
 2701SOL     OW19738   1.711   0.015   5.433 -0.5514  0.0333 -0.5372
 2701SOL    HW119739   1.682   4.659   5.436  1.7284 -0.7544 -3.0080
 2701SOL    HW219740   1.640   0.055   5.484  0.0341  0.9627 -0.4583
 2702SOL     OW19741   2.585   1.460   5.290 -0.5076  0.2035  0.2405
 2702SOL    HW119742   2.600   1.366   5.282  1.7623  0.6558 -0.7294
 2702SOL    HW219743   2.621   1.492   5.208 -0.8265  0.9954  0.4087
 2703SOL     OW19744   3.706   1.052  10.553 -0.1359 -0.1885 -0.1437
 2703SOL    HW119745   3.666   1.060  10.466  1.0015  1.2454 -0.5307
 2703SOL    HW219746   3.758   1.132  10.549 -2.0207  1.0991  0.6434
 2704SOL     OW19747   2.710   3.563  16.817 -0.2708 -0.7236 -0.3395
 2704SOL    HW119748   2.776   3.631  16.825 -2.0328  0.5576  2.9478
 2704SOL    HW219749   2.765   3.484  16.820  2.6088  1.3682  1.8773
 2705SOL     OW19750   1.136   0.204  14.083  0.0340 -1.2144 -0.4088
 2705SOL    HW119751   1.046   0.195  14.050 -0.6291  0.2591  1.0071
 2705SOL    HW219752   1.120   0.273  14.148 -0.8216  0.3586 -2.3024
 2706SOL     OW19753   3.690   1.961   6.689 -0.8255  0.0503 -0.1906
 2706SOL    HW119754   3.730   1.883   6.653 -1.4663  0.0203 -0.8349
 2706SOL    HW219755   3.738   1.963   6.772 -0.9266 -1.3454 -0.0975
 2707SOL     OW19756   2.770   4.261  13.718  0.2763  0.4672  0.3267
 2707SOL    HW119757   2.821   4.233  13.794 -0.7747 -0.9010  0.5198
 2707SOL    HW219758   2.734   4.174  13.697  0.8290  0.3160  0.0010
 2708SOL     OW19759   0.066   0.972   3.974 -0.0262  0.3003  0.1154
 2708SOL    HW119760   4.714   0.950   3.943 -0.2382  2.5077 -0.8229
 2708SOL    HW219761   0.120   0.929   3.909  0.1179 -1.1109  1.1694
 2709SOL     OW19762   3.592   0.814   3.713 -0.3391 -0.1925 -0.0060
 2709SOL    HW119763   3.634   0.742   3.667  2.3870  0.2726  1.7382
 2709SOL    HW219764   3.539   0.767   3.777 -2.3501  1.1815 -0.6788
 2710SOL     OW19765   2.403   2.637   9.097 -0.3902  0.3257  0.0336
 2710SOL    HW119766   2.322   2.607   9.055  0.1918 -0.3272 -0.6335
 2710SOL    HW219767   2.458   2.626   9.019  0.1816 -1.3016  0.6827
 2711SOL     OW19768   2.878   3.951  14.671  0.0121  0.6355 -0.0885
 2711SOL    HW119769   2.860   3.867  14.713 -1.6529  0.5601 -0.9525
 2711SOL    HW219770   2.797   3.994  14.698 -0.3308  0.5731 -1.0076
 2712SOL     OW19771   2.667   0.033  12.939 -0.2497  0.0942  0.2270
 2712SOL    HW119772   2.584   0.030  12.987 -0.8072  1.0369 -0.6574
 2712SOL    HW219773   2.721   4.723  13.003  1.5192 -0.1645 -1.4585
 2713SOL     OW19774   0.948   1.243  13.107 -0.8943  0.8021  0.2056
 2713SOL    HW119775   0.980   1.330  13.133  0.2274  1.2067 -2.5538
 2713SOL    HW219776   0.981   1.185  13.176 -0.6210 -1.6027 -1.9252
 2714SOL     OW19777   4.132   1.874   2.576  0.1308 -0.1699 -0.0376
 2714SOL    HW119778   4.051   1.829   2.551  2.2030 -2.6465 -2.2438
 2714SOL    HW219779   4.114   1.966   2.555  1.2161  0.0449 -0.0102
 2715SOL     OW19780   1.873   4.075   6.251 -0.1737  0.8424 -0.0672
 2715SOL    HW119781   1.947   4.111   6.299  0.0552 -2.9219  2.3555
 2715SOL    HW219782   1.823   4.153   6.226  0.9205  0.9375 -1.9879
 2716SOL     OW19783   4.669   0.547   9.032 -0.4926 -0.3944 -0.2454
 2716SOL    HW119784   4.718   0.629   9.029  0.4009 -0.9333 -0.2741
 2716SOL    HW219785   0.001   0.497   9.077  0.1148  0.3652 -0.3273
 2717SOL     OW19786   1.826   3.374   7.674 -0.7537  0.0654  0.1523
 2717SOL    HW119787   1.836   3.361   7.579  0.5645  0.6619  0.2081
 2717SOL    HW219788   1.822   3.470   7.669  0.9743  0.1472  0.1888
 2718SOL     OW19789   2.735   2.093   5.309  0.5269  0.3633  0.4675
 2718SOL    HW119790   2.648   2.088   5.348  1.2460  1.7345  2.2063
 2718SOL    HW219791   2.798   2.064   5.374  0.3096 -2.9443 -0.8117
 2719SOL     OW19792   3.922   2.178   6.719  0.4180 -0.1663  0.1383
 2719SOL    HW119793   3.842   2.125   6.715  0.8187 -0.7982  0.4975
 2719SOL    HW219794   3.922   2.224   6.635 -4.2060  0.1346  0.2991
 2720SOL     OW19795   1.681   2.629   9.726 -0.0525 -0.0310 -0.0511
 2720SOL    HW119796   1.716   2.546   9.692  0.1937  0.6257 -1.3836
 2720SOL    HW219797   1.701   2.627   9.819 -1.4107 -0.4076  0.2389
 2721SOL     OW19798   3.305   2.759   8.172  0.2823 -0.1835 -0.1412
 2721SOL    HW119799   3.311   2.684   8.114  1.5422  1.0485 -1.5970
 2721SOL    HW219800   3.325   2.721   8.257 -1.3013  0.1556  0.3892
 2722SOL     OW19801   4.117   2.033   5.192  0.2271 -0.5620  0.0861
 2722SOL    HW119802   4.097   2.012   5.283  0.6990  0.8188  0.5005
 2722SOL    HW219803   4.100   1.946   5.156  0.3510 -0.9505  0.9923
 2723SOL     OW19804   0.800   2.399   7.190 -0.8067  0.0070  0.0345
 2723SOL    HW119805   0.788   2.384   7.096  0.7872 -1.4464  0.0752
 2723SOL    HW219806   0.794   2.312   7.229  1.7131 -0.2245 -0.0615
 2724SOL     OW19807   4.007   1.477   5.390  0.0316  0.0879  0.0048
 2724SOL    HW119808   3.981   1.438   5.306  1.1141  0.8462 -0.6803
 2724SOL    HW219809   4.049   1.399   5.427  2.0371  1.0718 -0.1880
 2725SOL     OW19810   3.475   3.687   1.042 -0.0082  0.3511  0.1404
 2725SOL    HW119811   3.521   3.733   0.972  0.0760 -0.4273 -0.3154
 2725SOL    HW219812   3.465   3.752   1.111  0.5735 -0.1252  0.6703
 2726SOL     OW19813   3.635   1.707  13.904 -0.1305  0.2227 -0.0306
 2726SOL    HW119814   3.703   1.699  13.970  0.4915 -0.3147 -0.7352
 2726SOL    HW219815   3.695   1.713  13.829  0.0150 -0.5384  0.0293
 2727SOL     OW19816   1.443   0.339   3.421 -0.4081  0.6159  0.2110
 2727SOL    HW119817   1.429   0.272   3.487  0.0142 -0.5100 -0.8543
 2727SOL    HW219818   1.495   0.408   3.463  0.3007 -0.0772  0.4732
 2728SOL     OW19819   0.763   2.415   5.966 -0.5107 -0.0809  0.1154
 2728SOL    HW119820   0.844   2.437   5.920 -0.5022  0.4098  0.3657
 2728SOL    HW219821   0.701   2.446   5.900  2.1125  2.1152 -1.3331
 2729SOL     OW19822   0.601   2.702  11.351 -0.0345 -0.6200  0.0672
 2729SOL    HW119823   0.634   2.770  11.292 -1.2995  0.9512  1.1902
 2729SOL    HW219824   0.679   2.648  11.363 -0.5014 -1.0023  1.3064
 2730SOL     OW19825   3.761   3.995   6.865  0.0809  0.1188 -0.7978
 2730SOL    HW119826   3.785   3.909   6.831  1.3963 -0.1194  0.6955
 2730SOL    HW219827   3.742   3.974   6.957 -0.4583 -0.3052 -1.0057
 2731SOL     OW19828   2.670   0.258   2.332 -0.3259  0.3704 -0.0791
 2731SOL    HW119829   2.635   0.258   2.421  1.2430 -1.3996  0.5457
 2731SOL    HW219830   2.586   0.226   2.299 -1.4767  1.8306  1.5002
 2732SOL     OW19831   0.151   4.003   8.697 -0.1306 -0.3680  0.5888
 2732SOL    HW119832   0.109   3.917   8.698  0.3944 -0.6235  0.5021
 2732SOL    HW219833   0.080   4.064   8.678 -0.7698 -0.4702  2.6812
 2733SOL     OW19834   3.039   4.398   4.325 -0.3476  0.4179  0.2626
 2733SOL    HW119835   3.056   4.362   4.412  2.2233  1.4249  0.1755
 2733SOL    HW219836   2.948   4.369   4.315  0.0621 -0.2315 -1.5870
 2734SOL     OW19837   3.776   4.021   5.358 -0.6172 -0.7394  0.5631
 2734SOL    HW119838   3.754   3.942   5.407 -4.0592  0.2179  0.5424
 2734SOL    HW219839   3.761   3.993   5.268 -1.8880  1.1051  0.2102
 2735SOL     OW19840   3.895   4.364   7.416  0.4653 -0.0273  0.2606
 2735SOL    HW119841   3.943   4.342   7.337 -0.5231  2.0925 -0.9471
 2735SOL    HW219842   3.959   4.356   7.486  1.2132  1.1141 -0.2940
 2736SOL     OW19843   1.495   2.377  16.539 -0.5661 -0.0502 -0.3271
 2736SOL    HW119844   1.553   2.344  16.471 -1.5310 -0.1939 -1.0783
 2736SOL    HW219845   1.507   2.471  16.529 -0.8452 -0.2629 -2.5594
 2737SOL     OW19846   3.039   3.150  10.659  0.4087  0.3241  0.5025
 2737SOL    HW119847   2.962   3.201  10.636  1.5835  0.6932 -2.6939
 2737SOL    HW219848   2.994   3.070  10.684  1.7656 -0.9945 -1.2476
 2738SOL     OW19849   4.504   1.234   7.302 -0.0520 -0.5171  0.0955
 2738SOL    HW119850   4.569   1.193   7.360 -2.1802 -1.5178  1.7544
 2738SOL    HW219851   4.488   1.325   7.329  0.7251 -0.5931  0.8272
 2739SOL     OW19852   4.715   2.163  10.504 -0.4146 -0.4524 -0.0455
 2739SOL    HW119853   4.652   2.205  10.446 -1.3030 -2.1447 -0.3244
 2739SOL    HW219854   4.653   2.129  10.569  0.4057 -1.8163  0.0156
 2740SOL     OW19855   1.346   4.319  16.583  0.1183 -0.3323 -0.0973
 2740SOL    HW119856   1.269   4.326  16.639 -0.6792 -0.0532 -1.2260
 2740SOL    HW219857   1.306   4.347  16.500 -1.0630 -0.7750  0.3264
 2741SOL     OW19858   0.669   2.201   2.319 -0.9005  0.1913 -0.2438
 2741SOL    HW119859   0.761   2.175   2.326 -0.2572  2.4422 -0.4329
 2741SOL    HW219860   0.681   2.246   2.236 -2.7427  1.7982  0.3632
 2742SOL     OW19861   1.558   2.789   7.066  0.1928  0.1015 -0.4822
 2742SOL    HW119862   1.544   2.816   6.975 -0.1365 -4.1258 -1.6913
 2742SOL    HW219863   1.621   2.854   7.097  1.6823 -1.5762 -0.0201
 2743SOL     OW19864   1.335   2.672   1.882  0.0588  0.0792  0.0110
 2743SOL    HW119865   1.317   2.645   1.972 -1.9010 -0.4012 -0.5113
 2743SOL    HW219866   1.256   2.642   1.837  1.6884 -1.0880 -2.0271
 2744SOL     OW19867   2.982   1.250   4.643 -0.9525  0.0877  0.2825
 2744SOL    HW119868   3.035   1.233   4.720  0.8789  0.6455 -0.8491
 2744SOL    HW219869   2.895   1.220   4.667 -1.2966 -1.1844 -2.5125
 2745SOL     OW19870   0.527   3.371  10.390  0.2131 -0.5028 -0.3987
 2745SOL    HW119871   0.620   3.387  10.378  0.1449  0.4600  0.2969
 2745SOL    HW219872   0.490   3.420  10.316  1.5181  1.1484  0.0345
 2746SOL     OW19873   3.682   2.235   2.335 -0.1689 -0.1338 -0.4426
 2746SOL    HW119874   3.676   2.178   2.258 -0.7659 -0.1741 -0.3650
 2746SOL    HW219875   3.767   2.278   2.333 -0.2424  0.1719  2.2078
 2747SOL     OW19876   2.342   3.407   4.478  0.5066  0.3455 -0.5713
 2747SOL    HW119877   2.250   3.389   4.456  0.4593 -0.0053 -0.0974
 2747SOL    HW219878   2.358   3.339   4.543 -1.7045 -1.7358 -2.2049
 2748SOL     OW19879   1.908   3.869   7.178 -0.0185 -0.2596 -0.6730
 2748SOL    HW119880   1.997   3.873   7.211 -0.3222 -2.6176  0.4383
 2748SOL    HW219881   1.912   3.929   7.103 -2.1065  1.0391  0.2219
 2749SOL     OW19882   0.868   1.132   4.344  0.6914 -0.1774  0.9964
 2749SOL    HW119883   0.892   1.039   4.347 -1.0673 -0.6429  0.5695
 2749SOL    HW219884   0.839   1.134   4.252 -1.2214  0.3274  1.6001
 2750SOL     OW19885   2.149   1.771   4.392 -0.5743  0.4830 -0.5865
 2750SOL    HW119886   2.224   1.736   4.441 -1.6743  0.4797  1.0874
 2750SOL    HW219887   2.080   1.711   4.421 -0.1025  0.7135  1.0038
 2751SOL     OW19888   3.985   1.442   7.879 -1.2077  0.5480 -0.1047
 2751SOL    HW119889   3.892   1.422   7.892 -1.5430  0.7270 -2.3478
 2751SOL    HW219890   3.990   1.441   7.784  0.6650  2.8264 -0.0273
 2752SOL     OW19891   3.252   0.817   1.991  0.0712 -0.3039 -0.1505
 2752SOL    HW119892   3.347   0.808   1.991  0.1264  0.2438  1.6680
 2752SOL    HW219893   3.235   0.765   1.913  0.1353  0.4045 -0.6308
 2753SOL     OW19894   0.074   0.418   6.313 -0.0264  0.0649 -0.1376
 2753SOL    HW119895   0.047   0.510   6.320  1.6112  0.4848  0.5435
 2753SOL    HW219896   0.162   0.434   6.279  0.1226 -0.7390 -0.1163
 2754SOL     OW19897   0.218   0.908   9.686  0.2991  0.0384 -0.1372
 2754SOL    HW119898   0.202   0.958   9.606 -3.7180  0.0146  0.6287
 2754SOL    HW219899   0.130   0.875   9.704  0.8955 -1.3100  0.3188
 2755SOL     OW19900   0.516   4.640   0.532  0.1207  0.2647  0.4791
 2755SOL    HW119901   0.541   4.621   0.442 -2.5662 -0.4336 -0.1299
 2755SOL    HW219902   0.422   4.620   0.530  0.7333 -2.4182 -0.7543
 2756SOL     OW19903   0.561   0.580   9.570  0.1664 -0.4094 -0.6365
 2756SOL    HW119904   0.500   0.582   9.496 -0.4377  0.0051 -0.1289
 2756SOL    HW219905   0.511   0.632   9.633 -1.2340 -1.3774 -0.9575
 2757SOL     OW19906   1.541   1.908   1.972  0.6569  0.6833  0.3084
 2757SOL    HW119907   1.579   1.987   2.009 -0.4132  1.0500  0.6140
 2757SOL    HW219908   1.614   1.846   1.961 -1.1433 -1.7099  1.8043
 2758SOL     OW19909   4.317   3.417   6.448  0.6526  0.1102 -0.0611
 2758SOL    HW119910   4.285   3.404   6.537 -0.7124  1.9418 -0.2813
 2758SOL    HW219911   4.384   3.483   6.464  1.0914 -0.5196  0.7343
 2759SOL     OW19912   1.696   0.735   5.044 -0.2850  0.5584  0.6965
 2759SOL    HW119913   1.687   0.800   4.974 -0.6836 -0.4694 -0.2125
 2759SOL    HW219914   1.791   0.743   5.045 -0.0164 -2.2900  0.1702
 2760SOL     OW19915   1.152   4.459   7.677  0.5547  0.2887 -0.0500
 2760SOL    HW119916   1.173   4.536   7.730 -0.6197  1.3426 -1.1069
 2760SOL    HW219917   1.223   4.402   7.707 -0.4749 -0.1204  1.6003
 2761SOL     OW19918   4.031   2.431   8.393  0.1199 -0.0005  0.0220
 2761SOL    HW119919   4.048   2.451   8.486 -2.5653  0.8810  0.3258
 2761SOL    HW219920   4.102   2.367   8.384  1.2711  1.1794  0.6899
 2762SOL     OW19921   2.186   2.126   3.414  0.3366 -0.0713 -0.1298
 2762SOL    HW119922   2.281   2.111   3.416  0.4353  0.6941  0.6289
 2762SOL    HW219923   2.171   2.115   3.320 -1.5520  2.0436 -0.0665
 2763SOL     OW19924   4.620   2.144   5.079 -0.1409  0.1342 -0.2648
 2763SOL    HW119925   4.587   2.095   5.154  0.7538 -0.3565 -0.1824
 2763SOL    HW219926   4.552   2.211   5.078  0.9886  1.2555 -1.7939
 2764SOL     OW19927   4.692   3.739   5.951  0.0724  0.3646 -0.4134
 2764SOL    HW119928   4.722   3.778   5.869  1.9472 -0.5296 -0.1406
 2764SOL    HW219929   4.617   3.685   5.928 -0.0193  0.0647  0.5710
 2765SOL     OW19930   1.012   3.705  12.419  0.3053  0.0907  0.3100
 2765SOL    HW119931   1.045   3.645  12.486 -0.3143  1.8171  2.1490
 2765SOL    HW219932   1.083   3.704  12.354 -1.2016  0.0559 -1.3376
 2766SOL     OW19933   0.680   3.421   7.601 -0.9550 -0.0616  0.1751
 2766SOL    HW119934   0.730   3.481   7.545 -0.0195  0.1612  1.2585
 2766SOL    HW219935   0.721   3.435   7.686  1.0282  0.5250 -0.8785
 2767SOL     OW19936   4.226   3.001   5.082 -0.4775 -0.3497 -0.0250
 2767SOL    HW119937   4.319   2.987   5.067  0.0280  1.1463  1.6835
 2767SOL    HW219938   4.222   3.057   5.160 -2.9082 -1.8140  0.9371
 2768SOL     OW19939   0.321   3.414   5.216 -0.7491 -0.1427 -0.6163
 2768SOL    HW119940   0.369   3.341   5.255 -1.0316 -0.4316 -0.8079
 2768SOL    HW219941   0.377   3.489   5.238 -1.1199 -0.5603  1.7861
 2769SOL     OW19942   1.449   1.681   3.471 -0.1499 -0.1246  1.0251
 2769SOL    HW119943   1.392   1.729   3.531 -0.0587  0.8463  0.3314
 2769SOL    HW219944   1.494   1.740   3.410 -0.5639  0.2941  1.1281
 2770SOL     OW19945   4.054   0.386   8.135 -0.0670 -0.7066  0.2891
 2770SOL    HW119946   4.089   0.330   8.066 -2.3509 -2.3265  0.4427
 2770SOL    HW219947   3.977   0.337   8.163 -1.6306  1.7222  0.2492
 2771SOL     OW19948   1.960   2.450  16.169  0.2769  0.1551  0.1233
 2771SOL    HW119949   1.899   2.520  16.189  2.3614  1.4969  1.8296
 2771SOL    HW219950   1.905   2.377  16.139  0.8315  0.2346 -1.1172
 2772SOL     OW19951   0.244   3.747   5.709 -0.3874  0.7008  0.0847
 2772SOL    HW119952   0.242   3.738   5.614  1.3604  2.9228 -0.1676
 2772SOL    HW219953   0.152   3.770   5.723 -1.1273 -0.8105 -2.2899
 2773SOL     OW19954   2.207   1.188   2.662  0.5967  0.1268  0.4366
 2773SOL    HW119955   2.222   1.267   2.611 -3.0210 -0.2626 -1.2343
 2773SOL    HW219956   2.245   1.214   2.746  0.3515  3.2308 -0.4116
 2774SOL     OW19957   3.023   3.280   7.639  0.6956  0.4982 -0.2563
 2774SOL    HW119958   2.952   3.321   7.689  0.4328 -2.1255  1.5471
 2774SOL    HW219959   2.971   3.233   7.573  0.6281 -0.9239  0.8022
 2775SOL     OW19960   0.656   3.887   5.582  0.7712 -0.0529  0.0341
 2775SOL    HW119961   0.728   3.903   5.642  1.8874 -0.8044 -1.1058
 2775SOL    HW219962   0.583   3.916   5.637 -1.7452  0.7115 -3.7098
 2776SOL     OW19963   3.949   3.674   9.153  0.8571  0.2842 -0.1238
 2776SOL    HW119964   4.001   3.749   9.125  1.3738  0.4112  1.1625
 2776SOL    HW219965   3.999   3.655   9.233  2.0307  1.1622 -0.6526
 2777SOL     OW19966   1.493   4.229   6.943 -0.1483  0.3147 -0.1690
 2777SOL    HW119967   1.584   4.231   6.974  0.7436  0.0679 -2.7792
 2777SOL    HW219968   1.510   4.205   6.852 -0.7230 -0.0864 -0.1706
 2778SOL     OW19969   1.827   0.071   9.597  0.1675 -0.2501 -0.5660
 2778SOL    HW119970   1.786   0.152   9.569  0.8077 -0.7904 -3.0811
 2778SOL    HW219971   1.792   0.064   9.686  1.0739 -2.6590 -0.3800
 2779SOL     OW19972   3.105   0.239   4.980  0.4265  0.2716  0.7892
 2779SOL    HW119973   3.134   0.286   4.901  1.1139  0.3031  1.0580
 2779SOL    HW219974   3.018   0.275   4.997 -0.3740 -0.8049 -0.9985
 2780SOL     OW19975   3.688   0.702   1.197 -0.1277  0.1804  0.0440
 2780SOL    HW119976   3.781   0.725   1.200 -0.1837  0.2175  1.4612
 2780SOL    HW219977   3.643   0.784   1.178  0.6814  0.4237 -0.8045
 2781SOL     OW19978   3.104   3.918  15.636 -0.1091  0.2062  0.6384
 2781SOL    HW119979   3.033   3.857  15.614 -0.7425  0.4692  1.9095
 2781SOL    HW219980   3.171   3.864  15.679  0.0175 -0.9280 -0.9980
 2782SOL     OW19981   1.717   4.593   7.329 -0.8773  0.0912  0.6255
 2782SOL    HW119982   1.776   4.593   7.254 -1.0988 -0.5922  0.4488
 2782SOL    HW219983   1.690   4.502   7.318 -1.7830  0.5066 -0.6727
 2783SOL     OW19984   3.825   1.909   3.313 -0.2598  0.1204 -0.1072
 2783SOL    HW119985   3.907   1.945   3.279 -0.1064 -0.4094 -0.3014
 2783SOL    HW219986   3.834   1.928   3.406  1.2345  0.7645 -0.3782
 2784SOL     OW19987   2.899   3.367   6.196  0.1283 -0.1716  0.5690
 2784SOL    HW119988   2.867   3.290   6.149 -1.5073 -0.5015  2.2271
 2784SOL    HW219989   2.995   3.358   6.199 -0.0221 -1.7584  0.5014
 2785SOL     OW19990   1.066   1.915   8.336 -0.0548  0.5589 -0.1535
 2785SOL    HW119991   1.074   1.916   8.431  0.0822 -2.0745 -0.1238
 2785SOL    HW219992   1.086   1.823   8.316 -3.3054 -0.0137 -0.7512
 2786SOL     OW19993   3.139   3.681   8.853 -0.2761 -0.6918  0.4937
 2786SOL    HW119994   3.233   3.687   8.836 -0.5349  1.3760 -0.1792
 2786SOL    HW219995   3.133   3.591   8.820 -1.1924 -0.3938 -0.1593
 2787SOL     OW19996   1.955   0.003   5.276 -0.2078  0.3804 -0.1888
 2787SOL    HW119997   1.999   4.722   5.359  1.2506  0.7204 -0.8921
 2787SOL    HW219998   1.872   0.027   5.317  1.2914  0.9947  2.4668
 2788SOL     OW19999   4.293   0.383   4.907 -0.1360 -0.2729  0.6202
 2788SOL    HW120000   4.219   0.392   4.847 -1.6058  1.8608  2.7690
 2788SOL    HW220001   4.328   0.469   4.883  1.6460 -0.7395  1.5414
 2789SOL     OW20002   3.327   1.848   8.814 -0.5851  0.2069 -0.0573
 2789SOL    HW120003   3.253   1.906   8.834 -2.2425 -0.9158 -2.8954
 2789SOL    HW220004   3.385   1.871   8.886  1.0609 -0.9966 -1.0201
 2790SOL     OW20005   0.157   3.751   6.615 -0.2075  0.3509  0.3403
 2790SOL    HW120006   0.196   3.686   6.671 -1.3242 -0.8182 -0.2377
 2790SOL    HW220007   0.150   3.822   6.679  2.7834  0.5435  0.4455
 2791SOL     OW20008   1.685   1.529   4.164 -0.6829 -0.2792  0.9059
 2791SOL    HW120009   1.672   1.548   4.071  0.0501 -0.3760  0.7833
 2791SOL    HW220010   1.777   1.555   4.173 -0.3327 -1.0932 -0.3475
 2792SOL     OW20011   3.532   3.961  10.429 -0.3757  0.6306  0.1356
 2792SOL    HW120012   3.492   4.035  10.383 -0.4721 -1.1151 -2.5771
 2792SOL    HW220013   3.592   3.927  10.363 -1.6860 -2.2647  0.4258
 2793SOL     OW20014   1.758   0.167   8.078 -0.2961 -0.2536 -0.1020
 2793SOL    HW120015   1.691   0.220   8.034  0.1526  1.6840  1.5162
 2793SOL    HW220016   1.726   0.148   8.167 -1.2830 -2.2327 -0.9024
 2794SOL     OW20017   0.102   3.005   5.147 -0.3122  0.3285 -0.5840
 2794SOL    HW120018   0.046   2.928   5.136 -0.9467  0.9830 -1.9817
 2794SOL    HW220019   0.141   2.995   5.234 -2.2288 -3.4570 -0.1611
 2795SOL     OW20020   1.515   0.428   8.833 -0.3025  0.3532 -0.3973
 2795SOL    HW120021   1.486   0.356   8.889 -1.4823  0.8786 -0.3477
 2795SOL    HW220022   1.503   0.502   8.893  0.9723  1.7329 -1.8568
 2796SOL     OW20023   2.199   4.652   1.376 -0.0365 -0.4831  0.3253
 2796SOL    HW120024   2.114   4.609   1.365  0.3544 -0.3862 -3.3758
 2796SOL    HW220025   2.212   4.635   1.469 -1.0932  0.4904  0.6520
 2797SOL     OW20026   4.024   4.251   5.309  0.0664 -0.6791  0.2499
 2797SOL    HW120027   4.037   4.276   5.217  2.0012 -0.1655  0.6714
 2797SOL    HW220028   3.981   4.328   5.345  0.7021 -0.0319 -0.3541
 2798SOL     OW20029   0.082   0.614   2.285  0.3641 -0.6293 -0.0942
 2798SOL    HW120030   0.015   0.571   2.231 -0.6285  0.9999 -0.1571
 2798SOL    HW220031   0.019   0.659   2.342  0.3467 -0.9396  0.1307
 2799SOL     OW20032   1.818   1.541   3.349  0.4708 -0.4104 -0.4711
 2799SOL    HW120033   1.793   1.473   3.411 -0.9519 -0.9046 -1.5882
 2799SOL    HW220034   1.742   1.552   3.292 -0.6834  0.7623  1.2944
 2800SOL     OW20035   3.265   3.651   6.015  0.0299  0.6978  0.3204
 2800SOL    HW120036   3.315   3.722   6.055  0.1995  1.4567 -1.2180
 2800SOL    HW220037   3.176   3.663   6.047 -0.5884  1.3068 -1.6011
 2801SOL     OW20038   4.517   2.470   3.230 -0.1914  0.1201 -0.2945
 2801SOL    HW120039   4.589   2.424   3.185  0.1578 -0.1878  0.5639
 2801SOL    HW220040   4.453   2.475   3.160  0.2247  0.4722 -0.6487
 2802SOL     OW20041   1.762   3.520   6.382  0.5405  0.1355 -0.0806
 2802SOL    HW120042   1.845   3.519   6.429  0.6992  0.3386 -0.3524
 2802SOL    HW220043   1.763   3.609   6.346  1.7116  0.4279  0.7122
 2803SOL     OW20044   0.983   4.108   8.926 -0.1343 -0.0392  0.3833
 2803SOL    HW120045   1.028   4.030   8.959 -1.7094 -1.2061 -0.2202
 2803SOL    HW220046   1.055   4.152   8.882 -1.3718  0.3755 -1.1997
 2804SOL     OW20047   1.952   3.656  16.176  0.6011 -0.4415  0.0616
 2804SOL    HW120048   2.043   3.633  16.194  2.2985  4.0694 -2.7410
 2804SOL    HW220049   1.906   3.615  16.250  1.3347 -2.4779 -0.6223
 2805SOL     OW20050   2.569   2.002   5.715  0.4080  0.5344 -0.0945
 2805SOL    HW120051   2.642   2.061   5.732  0.0594  1.1218 -0.6742
 2805SOL    HW220052   2.593   1.971   5.628  2.3922 -0.5796  0.8431
 2806SOL     OW20053   2.922   0.374   2.331 -0.1462  0.3828  0.6647
 2806SOL    HW120054   2.837   0.335   2.314 -0.9460  2.1431  0.6142
 2806SOL    HW220055   2.889   0.460   2.358 -0.8986  0.4217 -0.3585
 2807SOL     OW20056   1.390   0.414   6.545  0.1541  0.2155  0.5116
 2807SOL    HW120057   1.350   0.477   6.604  2.2958  1.3907  0.7037
 2807SOL    HW220058   1.381   0.465   6.464  1.3854 -1.7173 -0.8313
 2808SOL     OW20059   1.350   4.205   1.116 -0.0079  0.0481 -0.1969
 2808SOL    HW120060   1.389   4.202   1.028 -2.4707 -1.0529 -1.2470
 2808SOL    HW220061   1.259   4.182   1.100 -0.6023  2.2109  0.0931
 2809SOL     OW20062   0.006   4.115   8.126  0.2208  0.1636 -0.5033
 2809SOL    HW120063   0.092   4.100   8.164  1.1225 -1.5264 -3.2092
 2809SOL    HW220064   4.680   4.076   8.189  0.4738 -0.6034 -0.7326
 2810SOL     OW20065   2.448   3.053   4.202  0.1610  0.1380  0.2399
 2810SOL    HW120066   2.412   3.130   4.158  0.6908 -0.3130 -0.9860
 2810SOL    HW220067   2.484   3.097   4.279  1.4643  2.4535 -1.7086
 2811SOL     OW20068   0.325   1.403   9.888  0.0437 -0.3667  0.0778
 2811SOL    HW120069   0.237   1.401   9.850  0.0446 -0.3988  0.0774
 2811SOL    HW220070   0.344   1.309   9.896  0.6780 -0.3868 -1.7226
 2812SOL     OW20071   2.994   0.265   4.296 -0.3209 -0.3530  0.9156
 2812SOL    HW120072   2.953   0.224   4.219  0.2799 -0.7309  0.7941
 2812SOL    HW220073   2.923   0.264   4.360 -0.3492 -2.3012  0.8602
 2813SOL     OW20074   2.729   0.326  14.608  0.1102 -0.4810 -0.2480
 2813SOL    HW120075   2.748   0.380  14.532 -1.6802  1.5592  0.7623
 2813SOL    HW220076   2.785   0.250  14.596  0.7445  0.3587 -2.4581
 2814SOL     OW20077   1.032   4.356   1.200  0.1495 -0.2726  0.2960
 2814SOL    HW120078   1.047   4.397   1.286  1.2033  1.3134 -0.6450
 2814SOL    HW220079   0.984   4.425   1.154 -1.8511 -1.4086  0.7198
 2815SOL     OW20080   0.811   0.393   5.397  0.3332 -0.1446  0.4976
 2815SOL    HW120081   0.839   0.385   5.489 -1.1641 -0.1039  0.9645
 2815SOL    HW220082   0.776   0.305   5.385 -0.0840 -0.2956  2.7129
 2816SOL     OW20083   1.147   4.280   2.354  0.7019  0.1129  0.0380
 2816SOL    HW120084   1.229   4.257   2.310  0.6140 -0.3016  0.0835
 2816SOL    HW220085   1.123   4.195   2.391  0.2776 -0.4750 -1.5693
 2817SOL     OW20086   1.035   0.789   7.007  0.1632  0.3810  0.2248
 2817SOL    HW120087   1.032   0.861   6.945  0.4307 -3.1971 -3.9169
 2817SOL    HW220088   1.083   0.725   6.954 -0.5538 -1.5196  1.8725
 2818SOL     OW20089   2.259   4.569   9.650  0.1108  0.1556 -0.4061
 2818SOL    HW120090   2.331   4.543   9.592  0.2089 -1.7877  0.5716
 2818SOL    HW220091   2.234   4.656   9.619 -0.2259 -0.0739 -0.7721
 2819SOL     OW20092   3.218   2.480   4.557  0.2137 -0.4279  0.4229
 2819SOL    HW120093   3.167   2.405   4.527  0.5353  0.2756 -1.8797
 2819SOL    HW220094   3.276   2.507   4.486 -2.2518 -1.1663 -1.8294
 2820SOL     OW20095   1.994   2.551   1.142  0.1425  0.5707  0.2667
 2820SOL    HW120096   2.057   2.490   1.104 -2.0318 -1.5522  0.1333
 2820SOL    HW220097   2.005   2.524   1.233 -2.6261  2.1156  1.0670
 2821SOL     OW20098   1.148   3.510   2.785 -0.1248 -0.3599  0.0056
 2821SOL    HW120099   1.125   3.425   2.823  2.6304 -1.3995 -0.6380
 2821SOL    HW220100   1.222   3.529   2.843  0.4060  1.3798 -1.2595
 2822SOL     OW20101   4.720   4.558   8.770  0.1590 -0.0755 -0.0524
 2822SOL    HW120102   0.071   4.527   8.794  0.0130 -0.7313 -0.3586
 2822SOL    HW220103   0.014   4.636   8.722  0.5030 -0.4856 -0.5102
 2823SOL     OW20104   3.246   1.694  16.138  0.2546  0.3722 -0.0435
 2823SOL    HW120105   3.327   1.742  16.150  1.2440 -1.9205  2.5093
 2823SOL    HW220106   3.242   1.686  16.043 -0.9892 -2.2721  0.2244
 2824SOL     OW20107   2.828   2.037   2.815 -0.0514  0.3117 -0.6312
 2824SOL    HW120108   2.913   1.994   2.822 -0.7558 -1.0966 -0.7134
 2824SOL    HW220109   2.799   2.001   2.731  2.9621  1.5767 -2.1968
 2825SOL     OW20110   3.873   2.656   3.964  0.1911  0.1414  0.1883
 2825SOL    HW120111   3.935   2.662   4.036 -0.5820 -1.1518  0.9688
 2825SOL    HW220112   3.808   2.601   4.008  1.1212 -1.7641 -0.8146
 2826SOL     OW20113   1.526   3.559   5.020  0.3279 -0.2503  0.5405
 2826SOL    HW120114   1.524   3.600   4.934 -0.2755 -0.6499  0.3677
 2826SOL    HW220115   1.438   3.574   5.054  1.0757  1.2427  1.8408
 2827SOL     OW20116   2.298   0.156  16.467 -0.4035  0.3166 -0.2889
 2827SOL    HW120117   2.378   0.123  16.509 -1.4889 -0.6149  1.0476
 2827SOL    HW220118   2.326   0.245  16.448  1.2278 -0.3077 -0.8072
 2828SOL     OW20119   2.540   2.723   1.988  0.9699  0.2975  0.2505
 2828SOL    HW120120   2.607   2.775   2.031  0.8350 -0.2986  1.1768
 2828SOL    HW220121   2.582   2.664   1.925  0.2839 -1.9888  1.9491
 2829SOL     OW20122   3.262   0.453   3.885 -0.9243 -0.0939 -0.0388
 2829SOL    HW120123   3.272   0.399   3.964  2.6582  2.1243  1.0208
 2829SOL    HW220124   3.292   0.383   3.827 -1.8333 -0.5375  0.0272
 2830SOL     OW20125   3.894   4.130   9.191  0.1601 -0.1939 -0.1287
 2830SOL    HW120126   3.824   4.111   9.128  2.5591  0.2823 -2.9550
 2830SOL    HW220127   3.915   4.219   9.161  0.4016 -0.3661 -0.4731
 2831SOL     OW20128   3.609   2.931   5.325 -0.4889 -0.2737 -0.1518
 2831SOL    HW120129   3.694   2.932   5.281 -0.8071 -0.0645 -0.7671
 2831SOL    HW220130   3.559   2.975   5.256  1.6939  1.7376 -0.4324
 2832SOL     OW20131   1.674   4.016   3.935  0.1981 -0.0108  0.1869
 2832SOL    HW120132   1.716   4.034   4.019 -0.7086 -0.4476  0.7225
 2832SOL    HW220133   1.681   4.095   3.881  1.5876  0.2705  0.7620
 2833SOL     OW20134   2.752   3.481   3.459 -0.3219  0.2299  0.4078
 2833SOL    HW120135   2.735   3.401   3.508 -2.7821  0.0749 -0.6787
 2833SOL    HW220136   2.836   3.511   3.494  0.8108 -0.3984 -1.7826
 2834SOL     OW20137   3.231   2.585  13.841 -0.2218  0.5449  0.4153
 2834SOL    HW120138   3.300   2.628  13.892  0.4868 -0.2999  0.1696
 2834SOL    HW220139   3.162   2.651  13.849 -1.2922 -0.5924  0.4531
 2835SOL     OW20140   1.593   0.652   1.510  0.0285 -0.1585  0.1361
 2835SOL    HW120141   1.538   0.706   1.453  0.8947 -1.6180 -2.0785
 2835SOL    HW220142   1.545   0.570   1.505 -0.8892  0.4644 -1.2293
 2836SOL     OW20143   1.472   2.369   3.065  0.0252 -0.1441  0.3980
 2836SOL    HW120144   1.492   2.280   3.097 -0.0131 -0.4539 -0.4440
 2836SOL    HW220145   1.408   2.394   3.131 -0.2579  0.5610 -0.1524
 2837SOL     OW20146   3.266   3.019  14.224 -0.4919  0.0823  0.6610
 2837SOL    HW120147   3.199   2.964  14.264  0.5020 -0.7603  1.1544
 2837SOL    HW220148   3.287   3.081  14.295 -1.1703 -2.3056  2.9566
 2838SOL     OW20149   4.498   1.625   2.479 -0.1952  0.3335  0.8979
 2838SOL    HW120150   4.560   1.572   2.529 -1.2288 -3.2192 -1.6121
 2838SOL    HW220151   4.464   1.678   2.552  0.6711 -0.1146  1.6295
 2839SOL     OW20152   3.968   4.330   9.043  0.5554  0.1095  0.6879
 2839SOL    HW120153   4.021   4.324   8.964 -0.6321  2.0200 -0.2422
 2839SOL    HW220154   3.904   4.397   9.019 -0.9248 -2.1006 -1.6112
 2840SOL     OW20155   1.883   3.855   8.686 -0.5936  0.6072 -0.0542
 2840SOL    HW120156   1.868   3.826   8.776 -2.5638  0.4193 -0.4556
 2840SOL    HW220157   1.882   3.770   8.642 -2.2009  0.4464  0.2874
 2841SOL     OW20158   4.593   3.953   0.892  0.0335 -0.2379 -0.3735
 2841SOL    HW120159   4.510   3.967   0.846  0.4918  0.9313 -0.8564
 2841SOL    HW220160   4.570   3.954   0.985 -1.0427 -2.4755 -0.6128
 2842SOL     OW20161   0.084   1.727   5.823 -0.4142 -0.6194 -0.2944
 2842SOL    HW120162   0.142   1.651   5.831  0.8527  0.5571  1.7255
 2842SOL    HW220163   0.131   1.789   5.879 -0.2367  0.5285 -1.7369
 2843SOL     OW20164   4.387   2.996   1.034  0.0466 -0.0370  0.4319
 2843SOL    HW120165   4.403   2.910   0.993  1.6871  0.3776  0.1963
 2843SOL    HW220166   4.351   3.044   0.960  1.4573 -0.4413 -0.5270
 2844SOL     OW20167   1.706   3.940   2.567  0.2583  0.2987  0.3500
 2844SOL    HW120168   1.795   3.973   2.578  0.1442  0.4155  0.9447
 2844SOL    HW220169   1.686   3.904   2.653  0.0036 -1.3037 -0.3920
 2845SOL     OW20170   2.130   4.055   8.331 -0.4281 -0.5861  0.4240
 2845SOL    HW120171   2.065   4.053   8.260  2.0785 -0.8486 -1.8676
 2845SOL    HW220172   2.073   4.063   8.407  1.1220 -0.4592  1.5791
 2846SOL     OW20173   4.646   1.859   3.001  0.2066 -0.4526 -0.3066
 2846SOL    HW120174   4.623   1.947   2.971  1.3772  0.0310  0.2407
 2846SOL    HW220175   4.714   1.880   3.065  0.5824 -2.1585 -0.1269
 2847SOL     OW20176   3.020   0.320   6.453  0.1971 -0.4287 -0.2269
 2847SOL    HW120177   2.993   0.251   6.514  0.6737 -0.4762 -0.0629
 2847SOL    HW220178   3.116   0.319   6.464  0.0548 -1.4527  1.0015
 2848SOL     OW20179   3.537   3.067   9.304  0.7040  0.2939 -0.3105
 2848SOL    HW120180   3.606   3.068   9.238 -0.0495 -0.6878 -1.1137
 2848SOL    HW220181   3.519   3.161   9.308 -0.5450  0.0476 -0.1567
 2849SOL     OW20182   1.989   2.597  10.352  0.3749  0.0955  0.0152
 2849SOL    HW120183   1.993   2.509  10.390  1.4520 -0.2870 -0.9504
 2849SOL    HW220184   2.055   2.644  10.403 -0.7696  0.7788  0.8557
 2850SOL     OW20185   4.237   4.273  13.678  0.0712 -0.0249  0.9387
 2850SOL    HW120186   4.322   4.258  13.635  0.0495 -0.3387  1.0010
 2850SOL    HW220187   4.260   4.231  13.761  3.1889  1.4137  0.8149
 2851SOL     OW20188   4.328   1.391   7.647  0.3295 -0.6804  0.4978
 2851SOL    HW120189   4.411   1.429   7.620 -0.8254 -0.3318 -2.4827
 2851SOL    HW220190   4.279   1.427   7.574  3.9879 -0.6107 -1.8818
 2852SOL     OW20191   2.976   1.502   1.006 -0.6955  0.0062 -0.4669
 2852SOL    HW120192   2.990   1.540   1.092  0.9436 -0.7626 -0.4021
 2852SOL    HW220193   2.888   1.532   0.983 -0.3036  0.8048 -0.9390
 2853SOL     OW20194   2.561   4.078   7.956 -0.0680 -0.0831 -0.2032
 2853SOL    HW120195   2.520   4.036   7.880 -1.5498 -2.6096  1.9864
 2853SOL    HW220196   2.539   4.027   8.035  1.4689  0.2463  0.4330
 2854SOL     OW20197   2.763   0.944   5.301 -0.0664 -0.1685  0.1054
 2854SOL    HW120198   2.765   0.923   5.394 -0.7299  3.9116  1.0428
 2854SOL    HW220199   2.840   0.898   5.266 -0.8098 -1.6048  0.3389
 2855SOL     OW20200   0.289   1.335  16.748 -0.0689 -0.2926 -0.4897
 2855SOL    HW120201   0.340   1.304  16.674 -0.9779 -1.3675 -0.6679
 2855SOL    HW220202   0.324   1.424  16.743  1.0599 -0.7166 -0.0196
 2856SOL     OW20203   2.945   2.499   3.019  0.0763 -0.7960 -0.0700
 2856SOL    HW120204   2.987   2.422   2.982 -0.7215 -1.1580 -0.2123
 2856SOL    HW220205   2.960   2.485   3.113  1.1741  0.3136 -0.0754
 2857SOL     OW20206   2.790   2.917   0.078  0.0982  0.1881 -0.0877
 2857SOL    HW120207   2.704   2.886   0.106  0.2502 -1.9126 -1.9305
 2857SOL    HW220208   2.773   3.011   0.075 -0.1865  0.0973 -1.3891
 2858SOL     OW20209   2.083   2.404   8.330  0.3863  0.2802 -0.7018
 2858SOL    HW120210   2.131   2.408   8.247 -0.9082 -1.9702 -1.5639
 2858SOL    HW220211   2.158   2.370   8.379 -0.7477 -0.4679  0.4884
 2859SOL     OW20212   4.368   3.749   5.907 -0.3265  0.3634 -0.5264
 2859SOL    HW120213   4.293   3.692   5.921 -0.1273 -0.4802 -2.9014
 2859SOL    HW220214   4.375   3.755   5.811  0.2611  2.0902 -0.3903
 2860SOL     OW20215   4.718   2.189   2.720 -0.5541 -0.4528 -0.4636
 2860SOL    HW120216   0.003   2.159   2.631  0.1842 -2.3733  0.3736
 2860SOL    HW220217   4.715   2.284   2.703  0.1488 -0.3743 -0.1211
 2861SOL     OW20218   0.732   2.108  13.703  0.4596  0.2461 -0.2728
 2861SOL    HW120219   0.672   2.152  13.763  1.4030  2.9521 -1.3544
 2861SOL    HW220220   0.674   2.100  13.628 -1.0543 -1.1470  1.0485
 2862SOL     OW20221   4.536   3.449   7.300 -0.3011 -0.1479  0.2554
 2862SOL    HW120222   4.599   3.507   7.258 -0.1038 -1.3329 -1.1082
 2862SOL    HW220223   4.503   3.389   7.233 -0.0322  1.5125 -1.3503
 2863SOL     OW20224   1.928   2.538   6.063  0.3973 -0.4803 -0.1621
 2863SOL    HW120225   1.975   2.546   6.146 -0.7179 -1.1801  0.5328
 2863SOL    HW220226   1.997   2.497   6.010 -0.9108 -0.3220 -2.0120
 2864SOL     OW20227   3.658   2.884  11.597  0.6272 -0.1616  0.1484
 2864SOL    HW120228   3.721   2.859  11.664  2.2947  0.0587 -1.3157
 2864SOL    HW220229   3.704   2.873  11.514 -0.1124 -1.4983 -0.0992
 2865SOL     OW20230   2.001   3.700   6.082 -0.3725  0.0202 -0.4219
 2865SOL    HW120231   1.921   3.717   6.131  1.9942  2.5212  2.5690
 2865SOL    HW220232   2.067   3.748   6.131 -1.2026  1.9428 -1.1915
 2866SOL     OW20233   4.065   4.147   0.190  0.1823 -0.2734 -0.2383
 2866SOL    HW120234   4.133   4.082   0.209  1.1973  0.9785  0.3842
 2866SOL    HW220235   4.118   4.201   0.131  2.6894 -3.2423 -0.7177
 2867SOL     OW20236   3.161   3.537  16.335 -0.0451  0.0377  0.2131
 2867SOL    HW120237   3.162   3.502  16.246 -1.2131  1.5748 -0.3956
 2867SOL    HW220238   3.222   3.478  16.380 -1.9182 -1.7764  0.4395
 2868SOL     OW20239   0.219   2.262   1.896  0.3495 -0.2822 -0.4213
 2868SOL    HW120240   0.207   2.328   1.828 -0.2615  0.1104  0.0719
 2868SOL    HW220241   0.309   2.234   1.877  0.0874  0.8452 -3.2782
 2869SOL     OW20242   0.251   2.175  10.465 -0.3047 -0.3495  0.1230
 2869SOL    HW120243   0.157   2.161  10.468 -0.1674 -1.2191  0.2721
 2869SOL    HW220244   0.256   2.210  10.554 -0.8091  0.0231  0.0002
 2870SOL     OW20245   3.356   2.906   1.779  0.0074  0.5071  0.1078
 2870SOL    HW120246   3.411   2.829   1.793 -0.1474  0.2542 -0.6596
 2870SOL    HW220247   3.405   2.937   1.702 -1.7666 -1.1693 -1.6885
 2871SOL     OW20248   3.878   1.649  12.455 -0.4088  0.4548 -0.2554
 2871SOL    HW120249   3.885   1.559  12.424  0.2381  0.4051  0.0207
 2871SOL    HW220250   3.874   1.700  12.374  1.0203  0.8433 -0.0942
 2872SOL     OW20251   3.761   4.323   2.978  0.2780  0.1654 -0.1920
 2872SOL    HW120252   3.798   4.309   2.891 -1.5794 -1.8762 -0.6677
 2872SOL    HW220253   3.808   4.252   3.021 -1.3110 -0.9581 -0.2906
 2873SOL     OW20254   0.947   4.479   9.035  0.1226  0.3993 -0.2761
 2873SOL    HW120255   0.853   4.480   9.056  0.3647 -0.0363  0.8739
 2873SOL    HW220256   0.939   4.469   8.940  0.0594 -2.2708  0.0055
 2874SOL     OW20257   1.788   0.966   6.342 -0.4118  0.2104  0.0341
 2874SOL    HW120258   1.740   0.904   6.288 -0.7616  0.2297  0.3248
 2874SOL    HW220259   1.880   0.938   6.339 -0.4911 -0.1732  1.1141
 2875SOL     OW20260   0.882   3.594   7.486 -0.2047  0.1226  0.3491
 2875SOL    HW120261   0.918   3.669   7.439  0.7056 -0.1956  0.5437
 2875SOL    HW220262   0.953   3.592   7.550 -0.0932 -0.3056  0.2116
 2876SOL     OW20263   4.607   0.175   6.644  0.2263 -0.2013 -0.0101
 2876SOL    HW120264   4.603   0.191   6.550 -2.8566 -0.1718  0.1237
 2876SOL    HW220265   4.669   0.244   6.669 -1.6335  1.3581  0.2934
 2877SOL     OW20266   2.701   0.312   3.786  0.1224 -0.2300  0.0697
 2877SOL    HW120267   2.754   0.233   3.793  0.6805  0.2231  1.0688
 2877SOL    HW220268   2.616   0.268   3.790 -0.0441  0.1135  0.3588
 2878SOL     OW20269   2.722   0.548   5.574 -0.0344  0.3777 -0.2076
 2878SOL    HW120270   2.648   0.536   5.633 -0.1202  0.7363 -0.2449
 2878SOL    HW220271   2.788   0.494   5.617 -0.6883 -0.5839 -0.4146
 2879SOL     OW20272   0.470   2.304  16.927  0.0201  0.2039  0.0018
 2879SOL    HW120273   0.494   2.285  16.836 -4.6751 -2.3324 -0.7145
 2879SOL    HW220274   0.520   2.385  16.941  0.4430 -0.2515  1.0512
 2880SOL     OW20275   2.203   3.040   6.839  0.0830 -0.0665 -0.0615
 2880SOL    HW120276   2.151   2.998   6.908  0.3674 -2.1606 -1.1132
 2880SOL    HW220277   2.138   3.042   6.769  1.6168 -2.8289 -1.5579
 2881SOL     OW20278   4.426   2.712  17.290  0.1550 -0.5405 -0.5007
 2881SOL    HW120279   4.443   2.688  17.381 -0.6128  0.6928 -0.0311
 2881SOL    HW220280   4.510   2.752  17.269  0.4997 -1.2513 -0.4945
 2882SOL     OW20281   2.286   2.981   0.784 -0.4386 -0.0634  0.2351
 2882SOL    HW120282   2.232   3.031   0.845  0.0729  1.1275 -0.3000
 2882SOL    HW220283   2.269   3.035   0.707 -0.3194 -2.0470 -1.1821
 2883SOL     OW20284   1.247   3.334   0.729  0.5719 -0.5044  0.1165
 2883SOL    HW120285   1.265   3.335   0.823  0.2247  1.9701  0.1566
 2883SOL    HW220286   1.256   3.240   0.719  1.6059 -0.4472  0.5223
 2884SOL     OW20287   0.636   2.035   4.551 -0.0004 -0.1142 -0.3861
 2884SOL    HW120288   0.619   2.000   4.638 -0.1905 -2.5821 -1.4419
 2884SOL    HW220289   0.550   2.046   4.512  0.0940  0.1476 -0.5227
 2885SOL     OW20290   1.570   4.679   6.960 -0.3461  0.5852 -0.4331
 2885SOL    HW120291   1.528   4.604   6.918  1.1988 -0.7958  0.4890
 2885SOL    HW220292   1.645   4.645   7.009  0.7231 -0.3911 -2.7749
 2886SOL     OW20293   0.249   1.008  13.416  0.1545 -0.3476 -0.3247
 2886SOL    HW120294   0.264   1.099  13.390 -1.6055 -0.2643 -1.0028
 2886SOL    HW220295   0.237   1.016  13.510  0.8660 -1.2408 -0.1600
 2887SOL     OW20296   0.747   1.117   7.921 -0.0595  0.5306 -0.4151
 2887SOL    HW120297   0.652   1.126   7.931  0.0117 -0.0327  0.7694
 2887SOL    HW220298   0.773   1.033   7.957  2.6125 -0.5278 -4.9095
 2888SOL     OW20299   3.254   2.350   5.736  0.6820 -0.3417  0.4490
 2888SOL    HW120300   3.317   2.414   5.704 -1.0044  1.0189 -0.1928
 2888SOL    HW220301   3.307   2.275   5.762  0.8320 -0.2948  0.2803
 2889SOL     OW20302   3.666   1.452   5.489  0.2010  0.3571 -0.1787
 2889SOL    HW120303   3.664   1.363   5.522  5.3361  0.5678  0.6779
 2889SOL    HW220304   3.741   1.447   5.430 -1.3399 -2.5114 -1.8662
 2890SOL     OW20305   3.040   3.173  11.627 -0.6773 -0.0701 -0.4828
 2890SOL    HW120306   3.056   3.265  11.650  1.5501 -0.9613  1.5900
 2890SOL    HW220307   3.114   3.147  11.682 -0.6883  1.2105  0.1471
 2891SOL     OW20308   2.117   3.766  17.300  0.0127 -0.8419 -0.5102
 2891SOL    HW120309   2.062   3.693  17.330  0.7391 -1.3041 -0.3057
 2891SOL    HW220310   2.196   3.740  17.347  0.2944 -0.8583 -0.9926
 2892SOL     OW20311   2.141   2.714   8.005 -0.2856 -0.1488  0.2097
 2892SOL    HW120312   2.064   2.745   7.957 -0.7697  0.9212  1.6723
 2892SOL    HW220313   2.210   2.721   7.939 -1.1230  1.4429 -0.4994
 2893SOL     OW20314   1.822   3.796   6.288 -0.2078 -0.7612 -0.6488
 2893SOL    HW120315   1.839   3.813   6.381 -0.8251  0.6037 -0.7818
 2893SOL    HW220316   1.830   3.887   6.260  2.8544 -0.9157 -0.2720
 2894SOL     OW20317   3.141   4.642   2.917 -0.0235  0.6993 -0.3105
 2894SOL    HW120318   3.118   4.637   3.010 -1.3141  2.4466 -0.5316
 2894SOL    HW220319   3.182   4.557   2.903 -0.8649  0.2465 -0.0435
 2895SOL     OW20320   4.026   0.165   8.959 -0.1010  0.6992  0.1264
 2895SOL    HW120321   4.121   0.168   8.961 -0.0032 -1.6564 -1.1415
 2895SOL    HW220322   4.011   0.171   9.054  1.7583 -1.2027  0.5358
 2896SOL     OW20323   4.146   0.823   9.053 -0.4390 -0.0958 -0.3014
 2896SOL    HW120324   4.172   0.735   9.083  1.3416  0.8437  0.9002
 2896SOL    HW220325   4.210   0.883   9.092 -1.4213  1.1416 -0.6430
 2897SOL     OW20326   2.888   1.162   7.477  0.2142  0.1658  0.7427
 2897SOL    HW120327   2.799   1.182   7.448 -0.1789 -2.2487  0.2998
 2897SOL    HW220328   2.884   1.209   7.561 -1.8993  1.0144  0.1767
 2898SOL     OW20329   4.226   4.166   0.742 -0.1823 -0.0568  0.0282
 2898SOL    HW120330   4.170   4.205   0.675  1.1938 -1.7621 -2.0807
 2898SOL    HW220331   4.297   4.227   0.724 -1.6175  1.6092  0.0087
 2899SOL     OW20332   0.489   1.197   9.573  0.3873 -0.0370  0.5137
 2899SOL    HW120333   0.438   1.275   9.594 -0.5705 -0.1987 -1.2211
 2899SOL    HW220334   0.578   1.231   9.577  0.1893  0.5364  0.0974
 2900SOL     OW20335   2.615   3.111   6.159 -0.4974  0.2521 -0.1026
 2900SOL    HW120336   2.536   3.070   6.124  1.2695 -1.0064 -2.6171
 2900SOL    HW220337   2.572   3.170   6.221  0.4435 -0.2605  1.0332
 2901SOL     OW20338   1.078   3.167   3.926  0.4486  0.0489 -0.2410
 2901SOL    HW120339   1.088   3.079   3.962 -0.9089 -0.2394 -0.5540
 2901SOL    HW220340   1.159   3.175   3.876 -0.4919 -0.1380 -1.7849
 2902SOL     OW20341   2.201   4.028   9.683 -0.0122  0.4786  0.0196
 2902SOL    HW120342   2.154   3.962   9.632 -1.5220  0.4113  1.5101
 2902SOL    HW220343   2.134   4.045   9.749 -1.8418  0.1952 -1.7610
 2903SOL     OW20344   1.885   4.581   6.775  0.4315 -0.7525 -0.8698
 2903SOL    HW120345   1.883   4.676   6.766 -2.5163 -0.6299  0.9355
 2903SOL    HW220346   1.961   4.553   6.725  0.9816 -1.6654  0.4648
 2904SOL     OW20347   0.323   1.578  15.219  0.0818 -0.8420  0.0675
 2904SOL    HW120348   0.256   1.511  15.222  0.2443 -1.0040  0.0522
 2904SOL    HW220349   0.391   1.540  15.275  0.4865 -0.2867 -0.0443
 2905SOL     OW20350   3.227   4.624   7.748  0.2191  0.4233  0.0189
 2905SOL    HW120351   3.191   4.711   7.733  1.6515  0.9935 -0.1626
 2905SOL    HW220352   3.227   4.627   7.844  0.7090 -1.9935  0.0908
 2906SOL     OW20353   2.774   0.316  11.999 -0.2242  0.1797  0.0604
 2906SOL    HW120354   2.777   0.245  11.935 -0.4955  0.1830  0.0453
 2906SOL    HW220355   2.715   0.273  12.061 -0.9944 -0.6828 -1.2808
 2907SOL     OW20356   1.962   2.212  14.473 -0.1537  0.0190  0.4377
 2907SOL    HW120357   2.011   2.184  14.396 -1.6457  0.1555 -0.5584
 2907SOL    HW220358   1.985   2.142  14.534 -1.3244 -2.4045 -1.9008
 2908SOL     OW20359   1.080   0.276   6.788  0.0330 -0.3933  0.0413
 2908SOL    HW120360   1.016   0.207   6.805 -0.1121 -0.5132 -0.9424
 2908SOL    HW220361   1.062   0.306   6.698 -3.0446 -1.6204  0.2475
 2909SOL     OW20362   2.533   3.338   3.704  0.8276 -0.2548  0.0705
 2909SOL    HW120363   2.553   3.390   3.781  0.3763 -1.7807  1.2273
 2909SOL    HW220364   2.439   3.354   3.699  0.6428 -1.2504  0.3529
 2910SOL     OW20365   1.228   0.628   9.457 -0.3602 -0.6999  0.0858
 2910SOL    HW120366   1.241   0.722   9.468  0.6195 -1.4771  5.4384
 2910SOL    HW220367   1.232   0.615   9.362  0.5605  0.7092 -0.0555
 2911SOL     OW20368   3.644   2.541   2.964 -0.4866  0.0130 -0.4410
 2911SOL    HW120369   3.668   2.455   2.999 -0.5618  0.6986  1.3050
 2911SOL    HW220370   3.548   2.538   2.968 -0.3872  0.7249  2.3076
 2912SOL     OW20371   3.735   4.635  17.259  0.0440  0.0400 -0.4099
 2912SOL    HW120372   3.703   4.555  17.215  1.6854 -0.4736 -0.6472
 2912SOL    HW220373   3.649   4.677  17.260  0.3916  0.7598 -0.7017
 2913SOL     OW20374   2.631   4.599   4.952 -0.0863 -0.4961 -0.5271
 2913SOL    HW120375   2.695   4.660   4.917  0.6898 -0.7446  0.4552
 2913SOL    HW220376   2.549   4.623   4.908  1.0122  1.4330 -1.4879
 2914SOL     OW20377   0.450   0.680   3.064 -0.7419 -0.0862  0.2240
 2914SOL    HW120378   0.477   0.684   2.972 -2.0990 -0.8729 -0.2041
 2914SOL    HW220379   0.498   0.755   3.100 -0.8562 -0.0715  0.3448
 2915SOL     OW20380   1.712   2.085   2.086  0.2646  0.0300  0.0296
 2915SOL    HW120381   1.773   2.125   2.148 -0.5229  0.9515  0.2022
 2915SOL    HW220382   1.774   2.072   2.015 -1.3021 -0.9265 -1.1586
 2916SOL     OW20383   1.554   0.082  10.983 -0.4543  0.1004 -0.2541
 2916SOL    HW120384   1.475   0.029  10.983  0.5019 -1.3110 -0.3373
 2916SOL    HW220385   1.624   0.018  10.993 -2.5816 -2.2023 -0.2214
 2917SOL     OW20386   3.883   3.066   3.526 -0.4540 -0.1569 -0.3520
 2917SOL    HW120387   3.864   3.147   3.478 -0.6294  1.1548  1.9127
 2917SOL    HW220388   3.792   3.040   3.540 -0.1084 -0.8348  0.6277
 2918SOL     OW20389   4.011   2.719   8.645  0.1853  0.3694  0.3369
 2918SOL    HW120390   4.072   2.649   8.669  0.4589 -0.0673 -1.6291
 2918SOL    HW220391   3.985   2.697   8.556  2.4963  0.9731 -0.4821
 2919SOL     OW20392   2.323   4.234   7.010 -0.0919 -0.2034 -0.3580
 2919SOL    HW120393   2.340   4.142   6.986 -3.0917 -0.5908 -0.9877
 2919SOL    HW220394   2.270   4.267   6.938 -1.7154  3.2411  2.4474
 2920SOL     OW20395   4.617   4.287   2.979 -0.1069 -0.1054 -0.1398
 2920SOL    HW120396   4.611   4.191   2.970 -1.2838 -0.0261 -0.2318
 2920SOL    HW220397   4.530   4.298   2.941  0.2434  3.4029  0.1581
 2921SOL     OW20398   3.599   3.750  15.345  0.4215  0.5275  0.2099
 2921SOL    HW120399   3.542   3.725  15.272 -1.5392 -1.9567  2.6300
 2921SOL    HW220400   3.536   3.735  15.416  1.2094 -1.1597  0.5320
 2922SOL     OW20401   4.007   2.854  11.956 -0.6954 -0.2113  0.1294
 2922SOL    HW120402   4.007   2.948  11.976  1.6329 -0.1047 -0.3177
 2922SOL    HW220403   4.087   2.835  11.906 -0.9951  0.8299 -0.7456
 2923SOL     OW20404   0.709   3.354   0.653 -0.1208  0.4901 -0.3233
 2923SOL    HW120405   0.644   3.284   0.659 -0.3257  0.7336  0.3744
 2923SOL    HW220406   0.655   3.413   0.601  0.9560  2.2419  0.5149
 2924SOL     OW20407   2.439   1.277  16.134  0.7094 -0.4289 -0.2733
 2924SOL    HW120408   2.526   1.316  16.141  0.6319  0.1840 -2.8609
 2924SOL    HW220409   2.445   1.207  16.070 -0.3722 -0.9152  0.1543
 2925SOL     OW20410   0.592   2.290   5.371  0.7044 -0.5089 -0.5678
 2925SOL    HW120411   0.533   2.356   5.406  1.0160  0.1698 -1.3129
 2925SOL    HW220412   0.536   2.213   5.381  1.3782 -1.0207 -0.7146
 2926SOL     OW20413   4.574   2.530   6.067  0.4600 -0.4963 -0.3064
 2926SOL    HW120414   4.520   2.608   6.082  0.5252 -0.3604 -0.7732
 2926SOL    HW220415   4.576   2.490   6.154  1.7562  0.2363  0.0054
 2927SOL     OW20416   2.607   1.593  10.004 -0.2231  0.7106  0.3866
 2927SOL    HW120417   2.604   1.578   9.910 -1.2253  0.5543  0.4365
 2927SOL    HW220418   2.656   1.515  10.027  1.2618  1.2862 -0.8672
 2928SOL     OW20419   2.704   4.194  17.245  0.2543 -0.0358 -0.2965
 2928SOL    HW120420   2.745   4.240  17.172  0.1401  1.9909  0.8853
 2928SOL    HW220421   2.695   4.102  17.220 -1.0771 -0.3939  1.4593
 2929SOL     OW20422   2.933   1.076  12.606 -0.9595  0.2830 -0.1284
 2929SOL    HW120423   2.885   1.083  12.689  1.5238  0.7368  1.2517
 2929SOL    HW220424   2.896   0.995  12.570  1.3685  0.3133 -2.5796
 2930SOL     OW20425   3.519   3.703   2.665 -0.0951  0.4022  0.1969
 2930SOL    HW120426   3.424   3.701   2.652  0.5355 -2.6537 -3.7286
 2930SOL    HW220427   3.559   3.689   2.580  1.5234  0.8813  0.8763
 2931SOL     OW20428   2.395   1.200   7.303 -0.2168  0.0811 -0.4055
 2931SOL    HW120429   2.334   1.127   7.290 -3.8811  3.0702  0.0368
 2931SOL    HW220430   2.374   1.248   7.223 -0.2146 -1.3992 -1.2981
 2932SOL     OW20431   4.054   1.814  13.125  0.3856  0.3441  0.4517
 2932SOL    HW120432   4.069   1.898  13.169 -0.5552  0.8137 -0.1232
 2932SOL    HW220433   3.995   1.830  13.051  1.3420 -0.0814 -0.3959
 2933SOL     OW20434   2.720   1.245  16.391  0.3890  0.2848  0.3187
 2933SOL    HW120435   2.647   1.203  16.436  0.7104  1.1012  1.5938
 2933SOL    HW220436   2.681   1.280  16.310 -1.1873  0.9324  1.3625
 2934SOL     OW20437   1.320   2.543   7.373 -0.0363  0.1883  0.4509
 2934SOL    HW120438   1.250   2.539   7.438 -0.1735 -0.8023  0.2344
 2934SOL    HW220439   1.327   2.635   7.348  0.7076 -0.2602 -1.0171
 2935SOL     OW20440   1.514   1.351   8.579  0.1783 -0.1978  0.4734
 2935SOL    HW120441   1.529   1.277   8.637  2.9678 -0.2322 -0.2886
 2935SOL    HW220442   1.420   1.344   8.563  0.2048  0.1597  0.1591
 2936SOL     OW20443   3.840   1.229  17.411  0.3543 -0.0308  0.3979
 2936SOL    HW120444   3.936   1.234  17.406  0.3861  0.1239  1.2443
 2936SOL    HW220445   3.809   1.223  17.320  0.5177  1.0633  0.2664
 2937SOL     OW20446   4.468   3.619   9.418 -0.2618  0.0304  0.6779
 2937SOL    HW120447   4.440   3.545   9.365  0.0638  0.9344 -0.7345
 2937SOL    HW220448   4.419   3.688   9.374 -1.1729 -1.4799 -0.6499
 2938SOL     OW20449   0.754   3.260  15.054  0.1369  0.1788  0.4186
 2938SOL    HW120450   0.735   3.321  15.124 -1.4979 -0.0553  0.1920
 2938SOL    HW220451   0.752   3.176  15.101 -0.0149 -1.4358 -2.4478
 2939SOL     OW20452   4.239   1.725   6.389 -0.1381 -0.5700  0.1354
 2939SOL    HW120453   4.277   1.748   6.305 -0.1753  0.3221  0.3666
 2939SOL    HW220454   4.174   1.663   6.354 -0.6414 -0.0768  0.1871
 2940SOL     OW20455   3.577   1.165   9.178 -0.3759 -0.3121 -0.4703
 2940SOL    HW120456   3.491   1.207   9.178 -0.7299 -1.0088  2.1718
 2940SOL    HW220457   3.596   1.171   9.084 -0.3717 -0.5799 -0.4856
 2941SOL     OW20458   2.685   2.387  13.216 -0.3470  0.5233  0.2647
 2941SOL    HW120459   2.608   2.334  13.195  0.4826 -0.2871 -0.6882
 2941SOL    HW220460   2.730   2.335  13.282  2.1487  1.1549 -0.9412
 2942SOL     OW20461   0.021   1.217   3.499 -0.3599  0.1730 -0.3528
 2942SOL    HW120462   4.721   1.143   3.450  1.1426 -1.3646  0.8955
 2942SOL    HW220463   4.715   1.284   3.445 -0.0300  0.3850 -0.3436
 2943SOL     OW20464   1.264   1.121  12.760  0.1536 -0.0053 -0.3303
 2943SOL    HW120465   1.220   1.133  12.676 -0.1398 -2.8216 -0.5718
 2943SOL    HW220466   1.309   1.037  12.751  0.9015  0.0391  2.8646
 2944SOL     OW20467   3.995   3.083  14.910 -0.5288 -0.3932  0.2220
 2944SOL    HW120468   3.921   3.029  14.883 -0.6226  1.3608 -3.1084
 2944SOL    HW220469   4.013   3.058  15.000  0.3723  2.4764  0.8383
 2945SOL     OW20470   2.887   2.972  12.037 -0.0724 -0.1419 -0.1424
 2945SOL    HW120471   2.971   2.932  12.016  0.6362  1.4354 -0.2361
 2945SOL    HW220472   2.919   3.061  12.046  0.8614 -0.6925  1.8505
 2946SOL     OW20473   1.569   0.249   2.115 -0.7808  0.3272  0.2917
 2946SOL    HW120474   1.548   0.300   2.037 -0.9006 -0.8818 -0.4593
 2946SOL    HW220475   1.649   0.285   2.154 -0.5164 -2.1640  2.0738
 2947SOL     OW20476   3.295   3.448  11.308  0.0369 -0.7405 -0.1349
 2947SOL    HW120477   3.237   3.518  11.340  0.7779  0.6935 -1.9468
 2947SOL    HW220478   3.377   3.474  11.349 -0.5029 -0.6896  0.9284
 2948SOL     OW20479   1.640   3.372   4.265 -0.0664 -0.7038  0.5494
 2948SOL    HW120480   1.693   3.403   4.192  0.3892  0.6812  1.4667
 2948SOL    HW220481   1.705   3.357   4.333 -1.7588  0.7949  2.4984
 2949SOL     OW20482   1.597   0.258   4.864 -0.2767  0.3221 -0.1481
 2949SOL    HW120483   1.546   0.245   4.784  2.7155 -1.9151 -1.7183
 2949SOL    HW220484   1.561   0.342   4.894 -0.6339  0.6979 -1.6014
 2950SOL     OW20485   0.200   1.267  16.995  0.3012  0.4084  0.2838
 2950SOL    HW120486   0.235   1.262  16.906  0.4582 -5.4596  0.6129
 2950SOL    HW220487   0.223   1.182  17.033  1.6743  0.9175  0.5848
 2951SOL     OW20488   0.871   1.184   3.649 -0.5045  0.1206 -0.4500
 2951SOL    HW120489   0.858   1.247   3.578 -1.0701  1.6393  0.9996
 2951SOL    HW220490   0.825   1.222   3.724 -0.8031 -2.1674  0.5342
 2952SOL     OW20491   1.904   3.612   6.754 -0.6251 -0.3801  0.1382
 2952SOL    HW120492   1.985   3.567   6.728  0.3897  0.9658  0.9302
 2952SOL    HW220493   1.842   3.539   6.750 -0.7797 -0.1956 -0.8109
 2953SOL     OW20494   1.546   4.375  15.868 -1.1283  0.0300 -0.0653
 2953SOL    HW120495   1.582   4.414  15.948 -1.2533 -1.9962  0.9885
 2953SOL    HW220496   1.557   4.447  15.807  1.6624 -1.1875 -0.9722
 2954SOL     OW20497   3.397   1.948   1.507 -0.0375 -0.1189 -0.4013
 2954SOL    HW120498   3.335   2.020   1.521  2.0448  1.6685 -0.3450
 2954SOL    HW220499   3.387   1.910   1.595  1.9167 -0.9541 -0.5339
 2955SOL     OW20500   1.367   2.867   8.668 -0.3462  0.5960 -0.1556
 2955SOL    HW120501   1.360   2.896   8.759 -1.2552  0.7761 -0.2813
 2955SOL    HW220502   1.400   2.949   8.632 -0.4955  0.8742  0.3446
 2956SOL     OW20503   3.542   0.552   9.540 -0.0483  0.3303  0.1018
 2956SOL    HW120504   3.502   0.471   9.572  1.8577 -0.0032  1.6129
 2956SOL    HW220505   3.494   0.616   9.593 -0.6556 -0.9111  1.0512
 2957SOL     OW20506   3.996   4.066   8.116  0.1825 -0.5269 -0.4119
 2957SOL    HW120507   3.902   4.047   8.106 -0.1900  0.6031  0.8322
 2957SOL    HW220508   4.032   4.058   8.028 -0.3246 -0.0327 -0.6691
 2958SOL     OW20509   1.916   0.995   4.374 -0.4109  0.2207 -0.5693
 2958SOL    HW120510   1.996   0.948   4.394  1.2650  3.1720 -0.3751
 2958SOL    HW220511   1.946   1.042   4.296 -1.1746  0.4007 -0.7561
 2959SOL     OW20512   2.176   2.472   7.196  0.1055  0.2753  0.4837
 2959SOL    HW120513   2.203   2.429   7.115 -0.6950 -2.1591  1.5124
 2959SOL    HW220514   2.240   2.543   7.196  1.5582 -1.0451  0.5420
 2960SOL     OW20515   1.196   2.958   4.785  0.3951  0.3066 -0.3791
 2960SOL    HW120516   1.196   2.882   4.842  1.4591 -1.0325 -2.1327
 2960SOL    HW220517   1.173   3.027   4.847 -2.2616 -0.2710 -0.7537
 2961SOL     OW20518   4.095   3.270   4.145 -0.3165  0.5671 -0.0632
 2961SOL    HW120519   4.180   3.246   4.184 -0.5797 -0.4545 -0.1098
 2961SOL    HW220520   4.034   3.266   4.219 -1.3283 -0.0168 -0.9355
 2962SOL     OW20521   4.166   3.324   7.976  0.2432  0.5098 -0.1974
 2962SOL    HW120522   4.258   3.331   8.004  0.5406  0.2692 -1.1097
 2962SOL    HW220523   4.118   3.274   8.042 -1.3153 -1.5656 -2.9363
 2963SOL     OW20524   2.763   0.998   8.452  0.0354  0.3495 -0.9183
 2963SOL    HW120525   2.800   1.015   8.538  0.9944  0.3534 -1.3281
 2963SOL    HW220526   2.685   0.947   8.472  0.8295 -0.5195 -0.0085
 2964SOL     OW20527   0.383   4.637   4.483  0.1489  0.0127 -0.3946
 2964SOL    HW120528   0.356   4.612   4.394 -0.1372 -1.3035  0.0544
 2964SOL    HW220529   0.368   4.731   4.477  0.8247  0.0980 -0.7125
 2965SOL     OW20530   0.311   3.165   3.519 -0.0408  0.3004 -0.4204
 2965SOL    HW120531   0.320   3.260   3.524  0.3806  0.2564 -0.3627
 2965SOL    HW220532   0.237   3.148   3.461  2.5745 -1.1358 -3.2805
 2966SOL     OW20533   1.583   4.512   5.419  0.1545 -0.0703 -0.2542
 2966SOL    HW120534   1.497   4.519   5.462  0.7944  2.0330  0.6623
 2966SOL    HW220535   1.599   4.418   5.420  0.1537 -0.0441  2.1652
 2967SOL     OW20536   4.034   4.137   9.571 -0.2216  0.0419  0.3479
 2967SOL    HW120537   4.006   4.208   9.514  1.1642 -1.2142 -1.8605
 2967SOL    HW220538   3.959   4.132   9.631 -0.3700 -0.7558  0.1010
 2968SOL     OW20539   4.219   0.592   6.011  0.4123  0.1324 -0.0604
 2968SOL    HW120540   4.143   0.535   6.015 -0.1281  0.6961 -2.3467
 2968SOL    HW220541   4.209   0.624   5.922 -2.9798 -2.1526 -0.4734
 2969SOL     OW20542   3.633   0.303   7.849 -0.1563  0.6482  0.1121
 2969SOL    HW120543   3.676   0.300   7.934 -0.1251 -2.0340 -0.0179
 2969SOL    HW220544   3.703   0.298   7.783 -1.0373  1.6294 -0.9015
 2970SOL     OW20545   1.822   2.295   3.192  0.4698  0.2552 -0.6851
 2970SOL    HW120546   1.807   2.317   3.100  0.0081  2.8444  0.0297
 2970SOL    HW220547   1.767   2.361   3.235  0.2520  0.3911 -1.1728
 2971SOL     OW20548   2.158   2.447   8.068 -0.1932  0.1451 -0.0625
 2971SOL    HW120549   2.168   2.540   8.047 -0.1017 -0.0875 -1.0270
 2971SOL    HW220550   2.103   2.412   7.998 -2.0713  2.4618  0.2325
 2972SOL     OW20551   0.534   0.270  13.049  0.3916  0.2494 -0.3962
 2972SOL    HW120552   0.612   0.281  13.104 -0.4280  1.6446  0.4829
 2972SOL    HW220553   0.508   0.180  13.067 -0.3381  0.4110 -0.6599
 2973SOL     OW20554   1.670   2.302   4.995 -0.0408  0.8232  0.0912
 2973SOL    HW120555   1.715   2.348   5.066  1.1282  1.2356 -0.9096
 2973SOL    HW220556   1.640   2.221   5.037 -0.7264  0.3568 -1.3015
 2974SOL     OW20557   4.590   4.453   5.892  0.2076  0.3475  0.0351
 2974SOL    HW120558   4.502   4.485   5.875  0.5385  1.6426  0.7998
 2974SOL    HW220559   4.624   4.524   5.947 -0.3140 -0.1135  0.9586
 2975SOL     OW20560   2.633   0.216  12.196 -0.2338  0.5491  0.4440
 2975SOL    HW120561   2.636   0.121  12.183  0.3305  0.3644  2.0064
 2975SOL    HW220562   2.567   0.222  12.265 -1.4168  1.6073 -0.7777
 2976SOL     OW20563   2.955   2.417   3.323 -0.1464 -0.2636 -0.1172
 2976SOL    HW120564   2.873   2.425   3.370  0.2357 -1.9758  0.8567
 2976SOL    HW220565   2.982   2.344   3.378 -1.9031 -0.3738  0.5760
 2977SOL     OW20566   4.411   4.655   3.836  0.4816 -0.3934 -0.0377
 2977SOL    HW120567   4.488   4.605   3.864 -0.2605 -1.0987  0.7131
 2977SOL    HW220568   4.439   0.003   3.871  0.6269 -0.3206 -0.3302
 2978SOL     OW20569   3.794   3.730   9.773 -0.0657 -0.5093 -0.3194
 2978SOL    HW120570   3.714   3.770   9.809  1.2237  0.9950  0.8751
 2978SOL    HW220571   3.852   3.788   9.823 -0.4715  0.2089 -0.6815
 2979SOL     OW20572   4.011   0.683   6.540 -0.1113  0.2746 -0.0377
 2979SOL    HW120573   3.981   0.681   6.631  0.1931 -2.3427  0.0044
 2979SOL    HW220574   4.097   0.646   6.557 -0.2833 -0.9709 -1.8471
 2980SOL     OW20575   1.504   3.053   4.342  0.2941  0.4100 -0.4638
 2980SOL    HW120576   1.584   3.050   4.289  1.6304  1.2582  1.5422
 2980SOL    HW220577   1.448   3.078   4.268 -0.4607 -1.2994 -0.4791
 2981SOL     OW20578   0.001   2.932  16.598  0.0718 -0.0890 -0.6484
 2981SOL    HW120579   0.053   3.006  16.569  0.6140 -0.5708 -0.9177
 2981SOL    HW220580   4.736   2.959  16.690  0.8541  0.1358 -0.7069
 2982SOL     OW20581   3.756   1.076  13.823  0.5160 -0.2591 -0.0435
 2982SOL    HW120582   3.831   1.093  13.879 -1.0971 -0.5813  2.2335
 2982SOL    HW220583   3.793   1.008  13.767 -1.1270 -2.4170  1.4638
 2983SOL     OW20584   1.592   0.606  15.230  0.4279  0.2140  0.2523
 2983SOL    HW120585   1.630   0.685  15.191 -1.8021  0.8222 -0.6812
 2983SOL    HW220586   1.608   0.538  15.165 -1.1771  0.1481 -0.0705
 2984SOL     OW20587   3.766   0.628  11.397  0.6694  0.6748  0.1671
 2984SOL    HW120588   3.711   0.588  11.464  0.8584 -0.8767 -0.5957
 2984SOL    HW220589   3.727   0.714  11.382 -1.6553 -0.0974  1.8695
 2985SOL     OW20590   4.584   0.698   4.411 -0.3269 -0.0275 -0.1266
 2985SOL    HW120591   4.678   0.685   4.401 -0.0507  3.8484 -2.7649
 2985SOL    HW220592   4.566   0.736   4.325  0.1840  0.7449  0.1008
 2986SOL     OW20593   1.334   1.939  13.940  0.3944  0.7424  0.2670
 2986SOL    HW120594   1.365   1.862  13.893  4.6674  2.9784 -0.5772
 2986SOL    HW220595   1.252   1.900  13.968  1.7088 -0.6684  2.1652
 2987SOL     OW20596   2.146   3.283  11.840 -0.4445  0.9537  0.3805
 2987SOL    HW120597   2.221   3.297  11.899  1.8017  1.6791 -2.6385
 2987SOL    HW220598   2.117   3.204  11.885 -0.3298 -0.0454 -1.2901
 2988SOL     OW20599   2.355   3.722  13.065 -0.7736  0.2656  0.0027
 2988SOL    HW120600   2.311   3.803  13.038 -1.9275 -0.6140 -0.7189
 2988SOL    HW220601   2.328   3.656  13.001  1.4181 -0.4324 -0.1982
 2989SOL     OW20602   2.046   1.574   0.611  0.2753 -0.3227  0.1025
 2989SOL    HW120603   2.099   1.498   0.590  2.4312  0.7148  1.7539
 2989SOL    HW220604   2.087   1.610   0.690  0.1812 -0.9346  0.4314
 2990SOL     OW20605   3.752   4.056  13.628  0.3708  0.0255  0.4667
 2990SOL    HW120606   3.833   4.098  13.658  0.9613 -1.6979  1.2452
 2990SOL    HW220607   3.721   4.118  13.562 -2.6010  1.7663  3.5104
 2991SOL     OW20608   1.377   1.505   8.177 -0.1911 -0.4756  0.3377
 2991SOL    HW120609   1.428   1.569   8.128  0.6274 -1.3749  0.0294
 2991SOL    HW220610   1.312   1.562   8.220  1.0372 -0.6775  2.4645
 2992SOL     OW20611   0.765   2.041  10.783  0.6150 -0.7842 -0.3030
 2992SOL    HW120612   0.725   2.006  10.703 -1.9107  1.3956  0.0090
 2992SOL    HW220613   0.853   2.061  10.754  0.0595  1.7388 -0.1904
 2993SOL     OW20614   1.212   0.918   9.735  0.4984 -0.4870 -0.7605
 2993SOL    HW120615   1.193   1.006   9.702  0.2641 -0.7659 -1.3746
 2993SOL    HW220616   1.207   0.918   9.830  2.9051 -1.5260 -0.6471
 2994SOL     OW20617   3.863   3.926   0.708 -0.7090 -0.1455  0.2522
 2994SOL    HW120618   3.873   3.992   0.639  1.0673 -0.5605  0.0931
 2994SOL    HW220619   3.907   3.860   0.653 -0.6373 -0.4858  0.7225
 2995SOL     OW20620   4.275   4.527   6.191  0.4451 -0.5086  0.6863
 2995SOL    HW120621   4.241   4.492   6.274  0.4090 -0.5250  0.6648
 2995SOL    HW220622   4.348   4.467   6.178 -0.2301 -1.2424  0.2794
 2996SOL     OW20623   0.409   0.355   9.923  0.6917  0.6371  0.4936
 2996SOL    HW120624   0.492   0.353   9.876  0.8078  0.0561  0.7346
 2996SOL    HW220625   0.430   0.429   9.981  1.3990  0.6705  0.1911
 2997SOL     OW20626   3.655   2.080  17.152  0.2871 -0.1792  1.3508
 2997SOL    HW120627   3.657   2.018  17.080 -2.4774 -0.1611  1.2491
 2997SOL    HW220628   3.622   2.017  17.216  1.2294 -0.7881  1.2271
 2998SOL     OW20629   0.576   0.045   3.032  0.0838 -0.0630  0.1946
 2998SOL    HW120630   0.500   0.102   3.023  0.4590  0.3991 -0.0627
 2998SOL    HW220631   0.624   0.092   3.100  1.2083 -0.5404 -0.2598
 2999SOL     OW20632   0.363   2.663   8.002  0.2250 -0.8365 -0.0521
 2999SOL    HW120633   0.337   2.614   8.080 -1.9576 -0.5175 -0.5829
 2999SOL    HW220634   0.285   2.645   7.950  0.0656  0.3887 -0.2254
 3000SOL     OW20635   0.750   1.360  12.924  0.2485  0.3146 -0.2077
 3000SOL    HW120636   0.693   1.297  12.968  0.9414 -0.7585 -0.8317
 3000SOL    HW220637   0.813   1.374  12.995 -0.3777 -2.8437  0.9452
 3001SOL     OW20638   0.801   3.121   4.466 -0.4736 -0.6253  0.9780
 3001SOL    HW120639   0.741   3.101   4.538  1.6778 -1.2610  2.5850
 3001SOL    HW220640   0.883   3.103   4.512  0.0188 -0.2808  0.2307
 3002SOL     OW20641   1.501   1.919   5.355  0.1045  0.1636  0.5444
 3002SOL    HW120642   1.463   1.885   5.274  2.6704 -0.0490 -0.5561
 3002SOL    HW220643   1.424   1.912   5.413 -2.7339 -0.3745 -3.2882
 3003SOL     OW20644   0.380   2.603   6.033  0.3397 -0.4293  0.1965
 3003SOL    HW120645   0.393   2.692   6.066  0.9126 -0.3825 -0.1524
 3003SOL    HW220646   0.466   2.562   6.046  0.8440  0.7056  0.4354
 3004SOL     OW20647   1.763   3.116   7.774  0.0007  0.9085 -0.1374
 3004SOL    HW120648   1.767   3.202   7.733  0.7669  0.4853 -0.9205
 3004SOL    HW220649   1.686   3.076   7.734  0.2880 -0.0766  0.3094
 3005SOL     OW20650   1.372   0.987   7.289  0.3957  0.2069 -0.0592
 3005SOL    HW120651   1.439   0.918   7.290 -0.8279 -0.9840  2.4855
 3005SOL    HW220652   1.293   0.941   7.261 -2.8030  4.2901  2.3789
 3006SOL     OW20653   1.787   0.212   2.720 -0.4027  0.8362  0.0302
 3006SOL    HW120654   1.728   0.261   2.662 -1.6912 -0.3560  0.3320
 3006SOL    HW220655   1.812   0.136   2.668 -1.5215  0.5440 -0.0902
 3007SOL     OW20656   2.028   2.073   9.950  0.2956 -0.1958 -0.1632
 3007SOL    HW120657   2.060   2.145   9.895  0.2918 -1.6152 -2.0218
 3007SOL    HW220658   2.099   2.061  10.013  1.8977 -0.3210 -1.9959
 3008SOL     OW20659   3.346   2.258   7.419  0.7621 -0.0895  0.2836
 3008SOL    HW120660   3.404   2.325   7.381 -1.6803  2.2245  0.6607
 3008SOL    HW220661   3.409   2.192   7.449  1.7234  1.3074  1.3695
 3009SOL     OW20662   3.308   1.271   8.065  0.1434 -0.0908 -0.4830
 3009SOL    HW120663   3.218   1.278   8.032 -0.5559  0.1224  1.4085
 3009SOL    HW220664   3.307   1.346   8.125 -1.8413 -1.5473  1.3431
 3010SOL     OW20665   0.660   0.657   3.550 -0.4307 -0.0214 -0.1961
 3010SOL    HW120666   0.648   0.658   3.456 -1.0838  1.5529 -0.0920
 3010SOL    HW220667   0.747   0.696   3.560 -0.3200 -0.9826  2.8627
 3011SOL     OW20668   4.532   0.872   0.707  0.2075  0.3115 -0.1764
 3011SOL    HW120669   4.504   0.794   0.755 -0.2150  0.5967  0.0425
 3011SOL    HW220670   4.623   0.879   0.735 -0.0053  1.7052  0.2075
 3012SOL     OW20671   0.146   0.400   1.940 -0.3485  0.3608  0.3617
 3012SOL    HW120672   0.188   0.341   1.877 -0.9053 -0.1906  0.5047
 3012SOL    HW220673   0.193   0.483   1.938  0.4465 -0.0820  0.5546
 3013SOL     OW20674   3.890   0.110  17.131  0.3100 -0.2224 -0.5414
 3013SOL    HW120675   3.830   0.046  17.169 -0.1681  0.1013 -0.7525
 3013SOL    HW220676   3.971   0.061  17.142  0.1322 -0.2318  0.7353
 3014SOL     OW20677   0.028   1.863   6.676  0.1679 -0.0767 -0.3225
 3014SOL    HW120678   0.054   1.773   6.659 -1.3799  0.0559 -3.3853
 3014SOL    HW220679   4.714   1.881   6.596  1.4584  1.2144 -0.8391
 3015SOL     OW20680   4.240   1.696   5.752 -0.0743  0.3475 -0.0741
 3015SOL    HW120681   4.323   1.734   5.722 -0.2917  0.3666 -0.6489
 3015SOL    HW220682   4.180   1.694   5.678  1.1094 -2.1135 -0.9429
 3016SOL     OW20683   2.111   3.463  15.493  0.2955 -0.4545  0.2744
 3016SOL    HW120684   2.032   3.494  15.449  1.1084  1.1973 -0.0542
 3016SOL    HW220685   2.086   3.371  15.496  2.0625 -0.9479 -0.1912
 3017SOL     OW20686   2.085   1.006  13.403 -0.6514  0.1314  0.0277
 3017SOL    HW120687   2.007   1.018  13.348 -1.5935  0.9686  1.5489
 3017SOL    HW220688   2.110   0.915  13.392  0.2951  0.0964  2.4445
 3018SOL     OW20689   3.674   3.548   9.602  0.1555 -0.0294  0.0381
 3018SOL    HW120690   3.715   3.615   9.657  0.5969  0.3968 -0.8070
 3018SOL    HW220691   3.618   3.607   9.551  2.2739  0.5654 -1.6202
 3019SOL     OW20692   3.727   3.014   4.278 -0.1172  0.2356 -0.0512
 3019SOL    HW120693   3.727   3.087   4.216 -0.5243 -0.0775 -0.4267
 3019SOL    HW220694   3.674   2.946   4.236 -1.2109  0.7710  0.4897
 3020SOL     OW20695   2.446   4.117   8.738  0.2837  0.4450  0.5045
 3020SOL    HW120696   2.393   4.038   8.750  1.7201 -0.6116 -0.0827
 3020SOL    HW220697   2.381   4.177   8.702  0.5714 -0.8730 -2.2275
 3021SOL     OW20698   4.300   1.934  12.915 -0.2787  0.2501  0.6897
 3021SOL    HW120699   4.351   1.919  12.994 -0.8062  3.3885  1.5910
 3021SOL    HW220700   4.345   2.009  12.877  0.1313 -0.3942 -0.1095
 3022SOL     OW20701   0.995   2.907  16.754  0.1217  0.2776  0.4330
 3022SOL    HW120702   0.936   2.964  16.803 -0.0703  0.1994  0.2925
 3022SOL    HW220703   1.005   2.828  16.808  0.1898  0.6828  1.0110
 3023SOL     OW20704   2.602   2.164   3.265  0.5993  0.0372 -0.3775
 3023SOL    HW120705   2.576   2.099   3.330  5.2849 -1.4833 -0.0251
 3023SOL    HW220706   2.649   2.229   3.317 -1.7677  0.8756  0.7282
 3024SOL     OW20707   2.251   0.188  14.879 -0.5276 -0.8746 -0.0362
 3024SOL    HW120708   2.301   0.151  14.952  1.5156 -0.8449 -1.4381
 3024SOL    HW220709   2.313   0.164  14.810 -1.0462 -0.7166 -0.5525
 3025SOL     OW20710   4.677   0.720   1.965  0.4906  0.3001  0.1611
 3025SOL    HW120711   4.665   0.791   2.028  2.8384  2.1940 -1.5090
 3025SOL    HW220712   4.586   0.713   1.937  0.5330  0.3409  0.0109
 3026SOL     OW20713   2.015   0.875   5.800 -0.0649 -0.1959  0.3392
 3026SOL    HW120714   2.019   0.784   5.773 -0.1439  0.3769 -1.5978
 3026SOL    HW220715   2.100   0.889   5.841 -0.7932  0.9079  1.4820
 3027SOL     OW20716   0.902   0.019  10.310  0.2745 -1.0146  0.1822
 3027SOL    HW120717   0.931   4.676  10.264  1.3966  0.1074 -1.0340
 3027SOL    HW220718   0.946   0.095  10.273  1.5050 -2.2842 -1.0088
 3028SOL     OW20719   0.781   4.455   5.801  0.4173  0.3712  0.1153
 3028SOL    HW120720   0.847   4.506   5.847 -0.6398  2.0841 -0.2760
 3028SOL    HW220721   0.757   4.502   5.722 -1.2192 -1.5484 -0.5462
 3029SOL     OW20722   2.466   3.174   2.460  0.4066 -0.0534 -0.0476
 3029SOL    HW120723   2.554   3.152   2.492 -0.3426 -0.5535  1.6942
 3029SOL    HW220724   2.424   3.146   2.542 -1.1470  0.9251 -0.4959
 3030SOL     OW20725   2.818   0.323   9.348  0.2320 -0.2039 -1.1447
 3030SOL    HW120726   2.852   0.236   9.369 -0.7613 -0.2245  0.3136
 3030SOL    HW220727   2.746   0.299   9.288  0.0283  0.8118 -1.3007
 3031SOL     OW20728   1.269   2.992   2.393 -0.3029 -0.6596  0.3177
 3031SOL    HW120729   1.280   2.897   2.399 -2.1608 -0.8770  0.1766
 3031SOL    HW220730   1.219   3.000   2.312 -0.9364  0.7251  0.8461
 3032SOL     OW20731   1.504   1.268   6.347 -0.6808  0.3810  0.0261
 3032SOL    HW120732   1.451   1.332   6.299  1.5697  1.7614 -0.6283
 3032SOL    HW220733   1.549   1.335   6.399 -0.4871  0.6646 -0.5045
 3033SOL     OW20734   3.964   1.408   9.558 -0.1342 -0.2519 -0.4573
 3033SOL    HW120735   3.887   1.392   9.502 -1.1497  2.5106  0.1245
 3033SOL    HW220736   4.000   1.481   9.508  1.1069  0.9740  2.2281
 3034SOL     OW20737   0.652   3.425   1.961 -0.3805  0.1660  0.1284
 3034SOL    HW120738   0.666   3.335   1.989  0.5082  0.5452  0.8998
 3034SOL    HW220739   0.619   3.413   1.872 -0.4612 -1.2394  0.3415
 3035SOL     OW20740   2.567   3.130  11.518  0.2138  0.5864  0.4301
 3035SOL    HW120741   2.565   3.131  11.423  2.8167 -2.3821  0.3174
 3035SOL    HW220742   2.506   3.199  11.545 -0.8523  0.9587 -3.0289
 3036SOL     OW20743   3.467   4.559   9.672  0.6117 -0.3051  0.6978
 3036SOL    HW120744   3.393   4.500   9.682  1.2671 -1.1739  0.4499
 3036SOL    HW220745   3.448   4.608   9.591 -0.9080 -0.3716  1.0180
 3037SOL     OW20746   4.456   4.284  12.063 -0.0890  0.6468  0.3784
 3037SOL    HW120747   4.424   4.280  12.153 -2.2339 -0.4116 -0.4585
 3037SOL    HW220748   4.489   4.195  12.066  0.7094  0.9526  0.9697
 3038SOL     OW20749   0.496   3.059  11.076  0.0465  0.3608  0.3809
 3038SOL    HW120750   0.535   3.146  11.068  0.2972  0.2418  0.3108
 3038SOL    HW220751   0.476   3.041  10.984  1.2844  0.1758  0.1554
 3039SOL     OW20752   1.991   0.672   7.427 -0.0082 -0.1275 -0.1551
 3039SOL    HW120753   1.923   0.706   7.369  1.2407  1.5968 -0.6393
 3039SOL    HW220754   1.970   0.694   7.518 -2.0903  0.2985 -0.7445
 3040SOL     OW20755   4.197   1.036   0.900  0.6266  0.4991 -0.4808
 3040SOL    HW120756   4.105   1.018   0.918  0.5332  0.2217 -1.2194
 3040SOL    HW220757   4.191   1.123   0.938  0.1018  0.1067  0.3555
 3041SOL     OW20758   0.683   4.291   6.278  0.4734 -0.0196  0.1548
 3041SOL    HW120759   0.692   4.305   6.183 -0.2261 -0.6029  0.0084
 3041SOL    HW220760   0.588   4.280   6.278  0.1720  2.4734  0.0431
 3042SOL     OW20761   3.618   4.488  14.435 -0.1247  0.1238  0.0019
 3042SOL    HW120762   3.525   4.477  14.455 -0.6851 -0.1009 -2.7463
 3042SOL    HW220763   3.633   4.550  14.507  0.6138  0.7245 -0.6590
 3043SOL     OW20764   2.524   0.130   5.824 -0.3165  0.4135 -0.7253
 3043SOL    HW120765   2.574   0.200   5.866  0.9981 -0.7756 -0.2739
 3043SOL    HW220766   2.502   0.166   5.738 -0.5970 -1.9105 -1.6362
 3044SOL     OW20767   1.464   1.326   6.650 -1.2730  0.1064 -0.3656
 3044SOL    HW120768   1.503   1.239   6.651 -0.5035  0.4524 -0.3282
 3044SOL    HW220769   1.528   1.374   6.598  0.2403 -0.5413  0.9288
 3045SOL     OW20770   3.595   4.609   5.059 -0.5861  0.5630 -0.3083
 3045SOL    HW120771   3.543   4.687   5.073 -0.6959  0.6188 -1.0532
 3045SOL    HW220772   3.630   4.597   5.147  0.6489 -2.4890 -1.1779
 3046SOL     OW20773   3.956   3.421  14.089 -0.2117 -0.1690  0.4914
 3046SOL    HW120774   3.995   3.486  14.031  0.5971 -2.2848 -1.3790
 3046SOL    HW220775   4.005   3.449  14.167  0.5636  0.0788 -0.0871
 3047SOL     OW20776   4.508   4.041   8.289  0.0052  0.4735  0.1011
 3047SOL    HW120777   4.512   4.070   8.380  0.9116  1.3393 -0.2010
 3047SOL    HW220778   4.423   4.067   8.256 -0.2539 -1.2993 -0.6096
 3048SOL     OW20779   1.982   1.641   8.642  0.0307 -0.4856  0.3848
 3048SOL    HW120780   1.964   1.723   8.688  0.9214  0.7082 -1.3887
 3048SOL    HW220781   1.899   1.597   8.659 -0.1219 -0.6377 -0.7571
 3049SOL     OW20782   2.642   3.362   0.438  0.6103  0.2662  0.6334
 3049SOL    HW120783   2.556   3.396   0.412  1.1249 -0.3298 -1.8356
 3049SOL    HW220784   2.703   3.430   0.411 -1.8246  1.3047 -2.3039
 3050SOL     OW20785   3.664   1.218   5.613  0.4783 -0.0379  0.2633
 3050SOL    HW120786   3.645   1.130   5.644 -2.4737  0.3582 -0.4101
 3050SOL    HW220787   3.758   1.209   5.629  0.6820  2.7635  0.8178
 3051SOL     OW20788   1.430   0.388   1.196 -0.8001  0.2629 -0.0230
 3051SOL    HW120789   1.380   0.467   1.177 -1.1598  0.1769  0.5858
 3051SOL    HW220790   1.513   0.427   1.170 -0.4088  0.8017  2.0349
 3052SOL     OW20791   2.017   2.813   9.821 -0.3754  0.1266  0.8441
 3052SOL    HW120792   2.056   2.775   9.742  1.3464  0.4031  1.5725
 3052SOL    HW220793   2.004   2.738   9.879  0.1935  0.2502  1.1187
 3053SOL     OW20794   3.598   1.662   6.588  0.5874 -0.3825 -0.1030
 3053SOL    HW120795   3.514   1.694   6.554  0.7603 -2.5002 -2.5077
 3053SOL    HW220796   3.656   1.734   6.562 -1.5004  1.2003 -0.3845
 3054SOL     OW20797   2.209   1.790  11.556 -0.2136  0.2994 -0.8045
 3054SOL    HW120798   2.130   1.737  11.548 -0.4339  0.4999  0.0959
 3054SOL    HW220799   2.197   1.825  11.467 -1.5914  1.9700  0.0228
 3055SOL     OW20800   4.110   3.476   2.261 -0.4438  0.2294  0.3618
 3055SOL    HW120801   4.173   3.544   2.284 -1.4046  1.2759 -0.0988
 3055SOL    HW220802   4.034   3.492   2.317  0.3992  0.9756  1.2875
 3056SOL     OW20803   3.532   2.075   2.495  0.0061 -0.3545  0.4677
 3056SOL    HW120804   3.471   2.097   2.425  0.0792 -0.9096  0.2262
 3056SOL    HW220805   3.603   2.120   2.450 -0.1617  0.8832  1.4515
 3057SOL     OW20806   4.109   2.187   5.756 -0.1092  0.1679  0.5300
 3057SOL    HW120807   4.148   2.102   5.737  1.4756  1.2656 -1.1761
 3057SOL    HW220808   4.153   2.201   5.839 -0.5173 -1.0724  0.9488
 3058SOL     OW20809   4.568   2.963   2.858 -0.0157 -0.1098 -0.5750
 3058SOL    HW120810   4.593   3.054   2.848 -1.3621  0.2297 -0.8950
 3058SOL    HW220811   4.630   2.917   2.802  1.0194 -1.6385  1.8476
 3059SOL     OW20812   0.766   2.683   8.817 -0.1524  0.4090  0.4120
 3059SOL    HW120813   0.674   2.665   8.796  0.4158 -1.1634 -0.7194
 3059SOL    HW220814   0.768   2.777   8.834 -2.6564  0.7228 -1.1060
 3060SOL     OW20815   0.008   3.124   4.504  0.3868 -0.3877 -0.1017
 3060SOL    HW120816   0.075   3.192   4.505 -1.0348  1.0433 -1.8861
 3060SOL    HW220817   0.062   3.051   4.474 -0.4724 -1.6006  1.2858
 3061SOL     OW20818   3.168   0.098   9.544 -0.8289 -0.3905 -0.1866
 3061SOL    HW120819   3.124   0.112   9.461 -2.3030 -1.2276  0.4557
 3061SOL    HW220820   3.114   0.025   9.574  1.1593 -0.7229  2.6517
 3062SOL     OW20821   0.714   0.669   1.007 -0.1004 -0.6340  0.1053
 3062SOL    HW120822   0.767   0.676   1.087  0.2846  2.3139 -0.4207
 3062SOL    HW220823   0.693   0.761   0.992 -0.2111 -0.0665  3.6033
 3063SOL     OW20824   1.135   0.774  12.068  0.1262  0.3610  0.2346
 3063SOL    HW120825   1.228   0.797  12.066 -0.3104  2.1369  0.2324
 3063SOL    HW220826   1.127   0.743  12.158  2.1776  0.3294  0.4062
 3064SOL     OW20827   2.913   2.538   8.767 -0.1555  0.2424  0.4662
 3064SOL    HW120828   2.854   2.504   8.834 -0.5957  0.0716 -0.0089
 3064SOL    HW220829   2.865   2.615   8.738  2.9015  2.1113  0.3910
 3065SOL     OW20830   1.795   0.369   2.938  0.6564  0.6966 -0.5189
 3065SOL    HW120831   1.771   0.309   2.868 -3.0256  1.7203 -0.1613
 3065SOL    HW220832   1.705   0.373   2.972 -0.1550 -0.6949 -2.5132
 3066SOL     OW20833   4.470   3.572   0.393  0.4382 -0.5648  0.0516
 3066SOL    HW120834   4.468   3.477   0.406 -1.0622 -0.3829  1.1507
 3066SOL    HW220835   4.543   3.599   0.450  0.8985 -0.8458 -0.4029
 3067SOL     OW20836   4.616   1.913   4.351  0.3723  0.0769 -0.0758
 3067SOL    HW120837   4.527   1.922   4.386 -0.0274  0.9445 -1.3401
 3067SOL    HW220838   4.647   2.004   4.355 -0.4214  0.4331 -2.1460
 3068SOL     OW20839   1.342   3.186   2.098 -0.1029 -0.0869  0.1954
 3068SOL    HW120840   1.255   3.148   2.089 -0.5112  1.3984 -2.0552
 3068SOL    HW220841   1.344   3.211   2.191 -1.4061 -1.6295  0.6376
 3069SOL     OW20842   0.461   3.599   9.639  0.0738 -0.0607 -0.1481
 3069SOL    HW120843   0.395   3.544   9.596  0.3143 -1.5126  1.3029
 3069SOL    HW220844   0.542   3.554   9.614  1.1491  1.5653  0.4115
 3070SOL     OW20845   2.897   0.397   8.685  0.2765 -0.0687  0.3769
 3070SOL    HW120846   2.816   0.400   8.737 -1.0161 -1.7868 -1.5138
 3070SOL    HW220847   2.891   0.305   8.661 -1.6785 -0.2202  1.4094
 3071SOL     OW20848   0.911   1.104  12.281  0.0149  0.5936 -0.0063
 3071SOL    HW120849   0.857   1.029  12.256 -1.1767  1.7583 -0.9125
 3071SOL    HW220850   0.839   1.156  12.317  0.3479  0.2718  1.1307
 3072SOL     OW20851   3.390   4.071   7.799  0.3195  0.1739 -0.3936
 3072SOL    HW120852   3.308   4.067   7.750  0.1880  0.2791 -0.1768
 3072SOL    HW220853   3.439   4.127   7.738  3.0666 -2.6551 -0.8514
 3073SOL     OW20854   4.190   3.235  14.780  0.3648  0.2763  0.2652
 3073SOL    HW120855   4.241   3.182  14.719  0.6676 -0.8931  1.5395
 3073SOL    HW220856   4.124   3.173  14.811  1.4953  0.6604  3.3986
 3074SOL     OW20857   3.389   3.595   8.754  0.0247  0.4658  0.2109
 3074SOL    HW120858   3.441   3.521   8.722  0.0530  0.3204  0.5885
 3074SOL    HW220859   3.412   3.666   8.695  0.2631  1.7458  1.8693
 3075SOL     OW20860   0.924   0.052   6.051 -0.1093 -0.0312  0.2431
 3075SOL    HW120861   1.000   0.099   6.018 -0.3641  0.8178  0.8748
 3075SOL    HW220862   0.960   4.701   6.067  0.8730  0.7299  2.2175
 3076SOL     OW20863   2.438   0.157   2.235 -0.0079 -0.6725 -0.0849
 3076SOL    HW120864   2.425   0.065   2.213  1.3103 -1.1038  0.9618
 3076SOL    HW220865   2.392   0.168   2.318  2.2919  0.7891  0.9843
 3077SOL     OW20866   2.173   3.156   4.875  0.4037 -0.1609  0.1351
 3077SOL    HW120867   2.212   3.126   4.957  0.4146  1.7734  0.8315
 3077SOL    HW220868   2.123   3.078   4.848 -2.2537  1.2131  1.0767
 3078SOL     OW20869   1.077   2.834   8.784  0.0034  0.3726  0.7371
 3078SOL    HW120870   1.161   2.857   8.823  0.0441  2.4616 -0.5969
 3078SOL    HW220871   1.026   2.824   8.864  1.0332  0.3697  1.3819
 3079SOL     OW20872   2.069   2.343   4.238 -0.6188  0.3840  0.2541
 3079SOL    HW120873   1.997   2.335   4.300 -1.5248  0.7698 -0.7656
 3079SOL    HW220874   2.054   2.428   4.197  0.5113 -0.6410 -2.2573
 3080SOL     OW20875   2.982   1.530   4.603  0.7037  0.3089 -0.0175
 3080SOL    HW120876   3.077   1.516   4.597  0.2114 -2.3164 -1.4058
 3080SOL    HW220877   2.949   1.441   4.616  1.2693  0.2284  0.8958
 3081SOL     OW20878   3.561   0.032   4.710 -0.4364 -0.1754 -0.3540
 3081SOL    HW120879   3.556   4.674   4.728 -0.7858  0.3825  2.5300
 3081SOL    HW220880   3.514   0.068   4.785  1.3818 -0.4428  0.9007
 3082SOL     OW20881   3.441   3.937  16.220  0.6529 -0.5361  0.1609
 3082SOL    HW120882   3.529   3.964  16.245  0.3213  0.0032  0.7712
 3082SOL    HW220883   3.386   4.003  16.263 -2.4586 -2.0253 -1.5198
 3083SOL     OW20884   1.408   3.555   7.471  0.4044 -0.2577  0.4357
 3083SOL    HW120885   1.393   3.604   7.552  0.3243 -1.0030  0.8694
 3083SOL    HW220886   1.348   3.595   7.408  1.4626  0.9636  0.1896
 3084SOL     OW20887   0.046   2.623  11.644  0.0880 -0.1678  0.7535
 3084SOL    HW120888   4.701   2.660  11.610  0.9102  0.7215 -0.2421
 3084SOL    HW220889   0.112   2.649  11.580 -1.8210  1.8964 -0.3828
 3085SOL     OW20890   1.017   1.044   5.829 -0.1536  0.0196  0.4752
 3085SOL    HW120891   0.986   1.069   5.916  0.0675 -1.7127  1.0370
 3085SOL    HW220892   1.112   1.046   5.841 -0.3930  0.3511  2.2136
 3086SOL     OW20893   1.560   2.996   7.610 -0.2373 -0.5039  0.4784
 3086SOL    HW120894   1.466   2.982   7.616 -0.0373 -1.6335  0.9484
 3086SOL    HW220895   1.550   3.089   7.591 -0.9256 -0.2095  2.2468
 3087SOL     OW20896   1.252   1.201   8.453 -0.5125  0.2763 -0.3182
 3087SOL    HW120897   1.276   1.198   8.361  0.9227  0.5716  0.0504
 3087SOL    HW220898   1.159   1.218   8.442 -0.3919  1.1574  0.0712
 3088SOL     OW20899   2.016   3.006  17.554  0.2001  0.2356 -0.0873
 3088SOL    HW120900   2.066   2.943  17.606 -0.0390 -0.2603 -0.4582
 3088SOL    HW220901   2.093   3.045  17.514  0.3958  1.1445  1.1635
 3089SOL     OW20902   0.007   0.683   4.791  0.2654 -0.1118 -0.2265
 3089SOL    HW120903   0.031   0.638   4.710  0.1126 -0.5292 -0.0396
 3089SOL    HW220904   4.719   0.764   4.745  0.1515 -0.0452 -0.0534
 3090SOL     OW20905   0.305   3.417   1.321 -0.3407 -0.5416  0.3030
 3090SOL    HW120906   0.287   3.511   1.312 -0.1194 -0.5428 -0.1394
 3090SOL    HW220907   0.347   3.397   1.238 -0.3223 -0.1181  0.2088
 3091SOL     OW20908   1.501   0.188   7.943  0.2784  0.5127  0.2876
 3091SOL    HW120909   1.406   0.199   7.951  0.2943 -0.1280  1.3560
 3091SOL    HW220910   1.512   0.095   7.923  3.3150  0.6865  1.1866
 3092SOL     OW20911   3.059   0.611   5.315 -0.0414 -0.0307  0.7853
 3092SOL    HW120912   3.131   0.548   5.311  0.3058  0.4011  0.1863
 3092SOL    HW220913   2.985   0.559   5.346  1.1875 -0.3905  3.1212
 3093SOL     OW20914   1.233   2.384   8.310  0.0133  0.1522  0.2593
 3093SOL    HW120915   1.159   2.422   8.357  0.2457 -1.6821  2.1069
 3093SOL    HW220916   1.214   2.290   8.309 -1.3243  0.4239  0.3608
 3094SOL     OW20917   1.539   1.152   7.497  0.7613 -0.3753  0.4369
 3094SOL    HW120918   1.448   1.176   7.482  0.7545 -0.8911 -0.3193
 3094SOL    HW220919   1.525   1.073   7.550 -1.6038 -0.9813 -1.1037
 3095SOL     OW20920   4.538   4.268   7.574 -0.5781  0.3498 -0.1880
 3095SOL    HW120921   4.530   4.242   7.482 -1.1552  1.7191 -0.5349
 3095SOL    HW220922   4.629   4.277   7.599  0.1633 -2.3558 -1.9524
 3096SOL     OW20923   3.763   0.779   6.470  0.6811 -0.1863 -0.3842
 3096SOL    HW120924   3.723   0.727   6.539  0.3686 -0.5345 -0.8260
 3096SOL    HW220925   3.852   0.749   6.490  0.9175  0.5312 -0.3390
 3097SOL     OW20926   0.678   0.648   5.391  0.1110  0.4075  0.0124
 3097SOL    HW120927   0.708   0.558   5.381  0.7846  0.7484 -0.9355
 3097SOL    HW220928   0.755   0.700   5.371 -0.2817  1.4248  1.1004
 3098SOL     OW20929   2.812   4.626   9.154 -0.0008 -0.4686 -0.2181
 3098SOL    HW120930   2.727   4.662   9.128 -0.3730 -0.8809  0.4540
 3098SOL    HW220931   2.853   4.632   9.068  2.2021  0.1415  0.8695
 3099SOL     OW20932   0.891   4.357   5.464 -0.3785  0.4514 -0.1013
 3099SOL    HW120933   0.836   4.291   5.507  0.5047  1.4989  2.6203
 3099SOL    HW220934   0.945   4.297   5.411 -0.6075 -0.5500  0.7971
 3100SOL     OW20935   0.096   3.653  15.075 -0.0295  0.1715 -0.2070
 3100SOL    HW120936   0.185   3.624  15.095 -0.2998 -0.1211  0.5761
 3100SOL    HW220937   0.102   3.697  14.990  0.3664  1.1743  0.3451
 3101SOL     OW20938   4.278   3.335   4.914  0.2831 -0.3254 -0.0141
 3101SOL    HW120939   4.282   3.313   5.007  1.7394  3.2648  0.7693
 3101SOL    HW220940   4.201   3.284   4.891  0.1046 -0.1891  0.2706
 3102SOL     OW20941   0.117   3.525   7.198  0.0781 -0.0136 -0.2949
 3102SOL    HW120942   0.130   3.610   7.239  0.3924  0.1439 -0.7210
 3102SOL    HW220943   0.143   3.464   7.267 -0.2858  0.9703  0.7072
 3103SOL     OW20944   3.527   0.996  12.363 -0.0160 -0.1026 -0.0313
 3103SOL    HW120945   3.536   1.081  12.319 -1.8752  0.0778 -0.0824
 3103SOL    HW220946   3.610   0.981  12.407  0.6519  0.4580 -1.0968
 3104SOL     OW20947   1.184   3.361   2.309 -0.2060  0.3040  0.2355
 3104SOL    HW120948   1.126   3.423   2.265  0.4395  1.0958  0.4978
 3104SOL    HW220949   1.198   3.404   2.394  1.0939 -0.7580  0.5599
 3105SOL     OW20950   0.570   4.646   2.189  0.0182 -0.0717 -0.3940
 3105SOL    HW120951   0.516   4.658   2.267 -1.0678 -1.7690 -0.8783
 3105SOL    HW220952   0.617   4.567   2.218  0.8328  0.1439 -1.1205
 3106SOL     OW20953   0.066   1.292   1.407 -0.3699  0.0305  0.8368
 3106SOL    HW120954   0.072   1.388   1.402  0.5941 -0.0974 -0.4944
 3106SOL    HW220955   4.718   1.278   1.363  0.9568 -1.0681 -1.3561
 3107SOL     OW20956   0.108   3.533  14.804 -0.3711 -0.3281 -0.2590
 3107SOL    HW120957   0.122   3.570  14.717 -2.5207  2.0308  0.3702
 3107SOL    HW220958   0.171   3.463  14.817 -0.1502 -0.3364 -1.3681
 3108SOL     OW20959   1.734   2.871   0.031  0.2448  0.2248 -0.1308
 3108SOL    HW120960   1.795   2.798   0.024 -0.8052 -0.5115 -1.8161
 3108SOL    HW220961   1.703   2.878  17.683 -1.7715 -1.2145  0.4519
 3109SOL     OW20962   4.157   0.167   9.377 -0.0194  0.1658  0.6564
 3109SOL    HW120963   4.100   0.097   9.409  0.5616 -0.5800  0.0514
 3109SOL    HW220964   4.096   0.230   9.338 -0.4811 -1.2836 -0.9873
 3110SOL     OW20965   4.283   2.424   0.850  0.5311  0.0624 -0.0184
 3110SOL    HW120966   4.288   2.354   0.785 -1.1783  0.8694 -1.0104
 3110SOL    HW220967   4.207   2.468   0.812  1.2691  0.3706 -1.1435
 3111SOL     OW20968   1.244   0.978  10.035 -0.2013 -0.3506 -0.2126
 3111SOL    HW120969   1.162   1.028  10.032  1.2037  1.8360 -1.7928
 3111SOL    HW220970   1.313   1.043  10.028  0.0682 -0.7278 -1.1005
 3112SOL     OW20971   2.528   0.247   8.103 -0.0967 -0.0497 -0.7241
 3112SOL    HW120972   2.467   0.175   8.116  0.6134 -0.3724  0.7962
 3112SOL    HW220973   2.571   0.211   8.026 -0.2587 -0.1608 -0.7635
 3113SOL     OW20974   3.588   0.747   8.965  0.3251 -0.1805  0.3292
 3113SOL    HW120975   3.634   0.714   8.888  2.1610  3.7230 -0.2379
 3113SOL    HW220976   3.523   0.677   8.976  0.2447  0.1340  1.8861
 3114SOL     OW20977   2.261   1.616  12.098 -0.4925  0.1866 -0.1724
 3114SOL    HW120978   2.308   1.610  12.015 -0.2322  0.8866 -0.0712
 3114SOL    HW220979   2.332   1.646  12.155  0.1241 -2.2956  0.4018
 3115SOL     OW20980   4.634   3.437   5.541 -0.3235  0.7699  0.1385
 3115SOL    HW120981   4.683   3.464   5.619  1.8714 -0.0967 -0.9597
 3115SOL    HW220982   4.698   3.384   5.494  0.7142  1.4944  0.7484
 3116SOL     OW20983   2.174   4.236   4.602  0.9598  0.0274 -0.3354
 3116SOL    HW120984   2.163   4.331   4.604  1.6997  0.0662  1.7156
 3116SOL    HW220985   2.255   4.224   4.651 -0.0924  1.4957  1.7795
 3117SOL     OW20986   4.364   3.444  12.003 -0.1152  0.1218 -0.1699
 3117SOL    HW120987   4.435   3.448  11.939  2.2288  0.2146  2.4172
 3117SOL    HW220988   4.306   3.383  11.958  0.3864 -0.3340 -0.2021
 3118SOL     OW20989   1.312   1.715   3.779  0.5006 -0.0350 -0.1347
 3118SOL    HW120990   1.344   1.697   3.867  1.3371 -0.7491 -0.5827
 3118SOL    HW220991   1.370   1.786   3.752 -1.9325  0.8877 -2.9481
 3119SOL     OW20992   2.925   3.707   2.228 -0.1293 -0.4430 -0.6312
 3119SOL    HW120993   2.991   3.732   2.164  0.3976 -1.9304 -0.6532
 3119SOL    HW220994   2.957   3.763   2.299 -2.4091 -0.5297  0.4642
 3120SOL     OW20995   2.702   3.773   0.441 -0.2820  0.3063  0.1256
 3120SOL    HW120996   2.727   3.721   0.365  3.6143  3.3071 -0.6550
 3120SOL    HW220997   2.613   3.797   0.418 -0.2632 -0.0811 -0.3454
 3121SOL     OW20998   1.191   2.444   2.474 -0.0085 -0.5446  0.1980
 3121SOL    HW120999   1.123   2.413   2.534 -0.1818  0.1711  0.3736
 3121SOL    HW221000   1.186   2.374   2.409 -1.3690  0.6770 -1.0095
 3122SOL     OW21001   0.955   4.394   9.670  0.8272 -0.2673  0.0374
 3122SOL    HW121002   0.974   4.465   9.608  0.0022 -0.2316 -0.1787
 3122SOL    HW221003   0.882   4.340   9.641 -1.2224  1.7378  1.4710
 3123SOL     OW21004   3.313   4.517   3.470  0.5768  0.2471  0.8107
 3123SOL    HW121005   3.377   4.454   3.504  0.3435 -0.2886  0.2610
 3123SOL    HW221006   3.231   4.467   3.480  0.4059 -0.0568 -1.9231
 3124SOL     OW21007   1.035   0.114   1.075 -0.7185 -0.1631 -0.0528
 3124SOL    HW121008   0.968   0.133   1.140 -1.5260 -2.2396 -0.3118
 3124SOL    HW221009   1.112   0.138   1.129 -0.6119  1.9586 -1.1372
 3125SOL     OW21010   1.055   4.729   2.997  0.3175  0.0028 -0.3066
 3125SOL    HW121011   0.982   4.709   2.939  0.9668  1.2646 -1.5476
 3125SOL    HW221012   1.115   0.042   2.942  3.3704 -1.7152  1.4920
 3126SOL     OW21013   1.810   2.598  15.252 -0.5389 -0.1632  0.0536
 3126SOL    HW121014   1.869   2.666  15.283 -1.3826  0.9457 -0.7745
 3126SOL    HW221015   1.724   2.620  15.289 -0.6872 -0.3639 -0.1643
 3127SOL     OW21016   2.000   2.075   6.686  0.2360  0.5739  0.1797
 3127SOL    HW121017   1.951   2.086   6.767  0.3725  3.5680 -0.1750
 3127SOL    HW221018   2.086   2.060   6.725  0.1130 -1.5709 -0.3613
 3128SOL     OW21019   3.120   1.067  15.604  0.4621 -0.4343  0.3460
 3128SOL    HW121020   3.108   1.113  15.521 -1.3638 -1.7771 -0.1284
 3128SOL    HW221021   3.034   1.059  15.644  0.9807 -0.3828  1.4901
 3129SOL     OW21022   3.446   1.809   7.594  0.7456  0.0595 -0.1096
 3129SOL    HW121023   3.366   1.836   7.550 -0.7880 -2.2749  1.2308
 3129SOL    HW221024   3.434   1.714   7.587 -0.3775  0.1412  0.7602
 3130SOL     OW21025   3.719   4.261   1.601 -0.9267  0.3185  0.0271
 3130SOL    HW121026   3.651   4.245   1.665  0.3834  1.5870  1.7265
 3130SOL    HW221027   3.689   4.346   1.569  0.1663  0.8342  0.3531
 3131SOL     OW21028   1.993   2.174   4.999  0.2951 -0.1540  0.1121
 3131SOL    HW121029   2.042   2.233   4.943  1.0455 -1.2038 -0.3346
 3131SOL    HW221030   1.953   2.236   5.061 -0.6063 -0.2448 -0.3752
 3132SOL     OW21031   2.932   2.506   4.823  0.4360  0.3285 -0.3415
 3132SOL    HW121032   2.866   2.536   4.760  0.2748  1.5087  0.3869
 3132SOL    HW221033   2.906   2.559   4.898  1.1362  0.8369 -0.4550
 3133SOL     OW21034   3.499   4.303   9.296  0.0633 -0.1522 -0.6406
 3133SOL    HW121035   3.558   4.294   9.371 -0.1914  0.5823 -0.3573
 3133SOL    HW221036   3.412   4.306   9.336 -0.1551 -0.9679 -1.0625
 3134SOL     OW21037   2.244   2.360   2.583  0.1310  0.5136 -0.0089
 3134SOL    HW121038   2.231   2.351   2.677 -1.8693  0.6976 -0.2730
 3134SOL    HW221039   2.334   2.394   2.587  0.1165  0.8807 -2.8003
 3135SOL     OW21040   4.231   2.589  16.008  0.0835 -0.2444  0.2270
 3135SOL    HW121041   4.322   2.570  15.985  0.4618 -0.1299  1.6399
 3135SOL    HW221042   4.203   2.639  15.931  0.2078 -1.7235 -0.7879
 3136SOL     OW21043   0.929   0.087  11.314  0.2283 -0.8801 -0.1828
 3136SOL    HW121044   0.909   0.058  11.225 -0.6850 -2.5736  0.5696
 3136SOL    HW221045   0.842   0.091  11.355  1.2627 -1.2524  2.0524
 3137SOL     OW21046   3.334   0.199   3.220  0.5790 -0.4285  0.1089
 3137SOL    HW121047   3.375   0.185   3.135  1.7405  1.5945  0.3277
 3137SOL    HW221048   3.393   0.270   3.247  1.8420 -1.6567  0.5779
 3138SOL     OW21049   1.562   4.407   3.345  0.2189 -0.0166  0.0031
 3138SOL    HW121050   1.486   4.375   3.298  0.2279 -0.8441  0.5535
 3138SOL    HW221051   1.602   4.456   3.273 -1.2551  1.0273 -0.1055
 3139SOL     OW21052   1.651   4.197  11.126 -0.1946  0.2099 -0.3982
 3139SOL    HW121053   1.671   4.104  11.118  1.0195  0.3768  0.8019
 3139SOL    HW221054   1.589   4.200  11.199  0.2827 -2.2067  0.0797
 3140SOL     OW21055   2.056   0.560   7.028 -0.2307  0.0206  0.1015
 3140SOL    HW121056   1.966   0.537   7.052  0.1316 -0.5679  0.8961
 3140SOL    HW221057   2.089   0.570   7.117  0.6350  1.1139 -0.3499
 3141SOL     OW21058   2.269   1.495   7.727 -0.2945 -0.9969  0.2238
 3141SOL    HW121059   2.288   1.405   7.700  0.7867 -0.5602 -0.4406
 3141SOL    HW221060   2.344   1.545   7.697 -0.4750 -0.7123  0.2514
 3142SOL     OW21061   2.310   0.223   4.237 -0.4960 -0.1795 -0.0523
 3142SOL    HW121062   2.252   0.161   4.282 -1.0129 -0.3966 -1.0361
 3142SOL    HW221063   2.317   0.290   4.306 -2.5456  0.3494 -0.3474
 3143SOL     OW21064   1.451   1.934   3.721 -0.0043 -0.4139 -0.1941
 3143SOL    HW121065   1.420   2.025   3.722  0.4724 -0.2598  1.0361
 3143SOL    HW221066   1.545   1.949   3.727  0.1924 -0.3687 -3.5972
 3144SOL     OW21067   3.614   2.981   3.526  0.1660 -0.6545 -0.9445
 3144SOL    HW121068   3.613   2.886   3.536 -2.9092 -0.2663  2.2639
 3144SOL    HW221069   3.568   2.996   3.443 -1.7072  0.0099  0.2225
 3145SOL     OW21070   1.538   4.209   8.877  0.6403 -0.0012 -0.0046
 3145SOL    HW121071   1.448   4.221   8.844 -0.7278 -1.9254  3.0775
 3145SOL    HW221072   1.533   4.139   8.941 -1.0800  0.2473  0.1402
 3146SOL     OW21073   2.842   2.143   7.411 -0.0675  0.1074  0.4609
 3146SOL    HW121074   2.826   2.150   7.505  0.8867 -0.5408  0.6762
 3146SOL    HW221075   2.898   2.219   7.399  0.5225 -0.5899 -1.2379
 3147SOL     OW21076   3.562   3.384  13.126  0.2512 -0.0655  0.3099
 3147SOL    HW121077   3.538   3.367  13.217 -0.1951 -2.5430 -0.2898
 3147SOL    HW221078   3.509   3.457  13.093  0.8312  0.4460  0.4986
 3148SOL     OW21079   4.188   1.321   1.325  0.4093 -0.1025  0.8133
 3148SOL    HW121080   4.121   1.372   1.370 -0.8731 -0.0948 -1.0917
 3148SOL    HW221081   4.269   1.353   1.366 -0.8146  0.4974  2.7042
 3149SOL     OW21082   2.544   4.603   6.636 -0.6041  0.3993  0.2113
 3149SOL    HW121083   2.536   4.517   6.594 -0.3918  0.0464  0.8937
 3149SOL    HW221084   2.557   4.575   6.727 -0.3080  0.9279  0.3262
 3150SOL     OW21085   3.712   4.387   2.312  0.4048 -0.2195 -0.2804
 3150SOL    HW121086   3.718   4.472   2.268  2.6322  0.0680  0.5560
 3150SOL    HW221087   3.618   4.372   2.305  0.7741 -1.5075 -2.7345
 3151SOL     OW21088   4.591   3.639   8.773 -0.0464  0.6263 -0.2956
 3151SOL    HW121089   4.551   3.725   8.783 -0.3811  0.3153  1.1653
 3151SOL    HW221090   4.522   3.596   8.722  1.9116 -1.6349 -1.0609
 3152SOL     OW21091   1.408   0.053  12.951 -0.4533 -0.0799 -0.0629
 3152SOL    HW121092   1.383   0.083  12.863 -3.2684 -0.0927  0.7380
 3152SOL    HW221093   1.469   4.718  12.932  0.4040  0.7729 -0.5053
 3153SOL     OW21094   4.161   2.009   9.191 -0.0980 -0.0108 -0.1718
 3153SOL    HW121095   4.231   1.981   9.132  0.7988 -2.9720  2.2624
 3153SOL    HW221096   4.086   1.959   9.157  2.1486 -2.5539 -1.3911
 3154SOL     OW21097   2.993   1.677  16.724  0.2245 -0.0901 -0.1455
 3154SOL    HW121098   2.971   1.767  16.698  1.3301  0.5596  1.1974
 3154SOL    HW221099   2.970   1.631  16.643  0.5056  1.4982 -1.1315
 3155SOL     OW21100   2.023   0.558   5.783 -0.3757 -0.3893 -0.0743
 3155SOL    HW121101   1.937   0.523   5.759  0.0056 -2.4361  1.5848
 3155SOL    HW221102   2.055   0.567   5.694  0.1529 -1.7275 -0.0083
 3156SOL     OW21103   3.702   4.309   6.388  0.2054 -0.7594  0.0538
 3156SOL    HW121104   3.679   4.348   6.473  0.2227  1.1243 -0.8297
 3156SOL    HW221105   3.772   4.365   6.356 -1.8694  1.9590  0.3174
 3157SOL     OW21106   2.756   3.007   4.146 -0.7700  0.1471 -0.2537
 3157SOL    HW121107   2.779   2.920   4.180  1.5572  0.5154 -0.8561
 3157SOL    HW221108   2.661   3.006   4.153 -0.7741  2.0150 -0.0223
 3158SOL     OW21109   0.371   2.070  10.275  0.2950  0.6167 -0.1455
 3158SOL    HW121110   0.301   2.069  10.209  0.2195  1.9380 -0.0842
 3158SOL    HW221111   0.327   2.097  10.355  1.6832  0.2668  0.7322
 3159SOL     OW21112   2.378   3.498  17.125  0.6647 -0.5805  0.7642
 3159SOL    HW121113   2.287   3.476  17.145  1.0414 -2.7705 -0.0022
 3159SOL    HW221114   2.389   3.467  17.035  2.2639 -0.0280  0.7679
 3160SOL     OW21115   2.945   1.372   2.674 -0.2552  0.0949 -0.0521
 3160SOL    HW121116   2.855   1.368   2.705 -0.4291  2.9891 -0.1378
 3160SOL    HW221117   2.944   1.333   2.587 -1.8530  1.1587 -0.5057
 3161SOL     OW21118   2.568   3.740   8.951 -0.2220 -0.7209  0.2608
 3161SOL    HW121119   2.654   3.781   8.962  1.4697 -3.7071 -1.6894
 3161SOL    HW221120   2.593   3.677   8.884 -3.4138 -1.4890 -0.1658
 3162SOL     OW21121   2.338   3.722   4.844  0.1584  0.0442  0.0580
 3162SOL    HW121122   2.401   3.742   4.775 -0.7656 -1.0110 -1.1215
 3162SOL    HW221123   2.343   3.626   4.836 -1.9407 -0.2222  1.8285
 3163SOL     OW21124   3.034   1.196  15.365  0.2543 -0.3170  0.0152
 3163SOL    HW121125   2.998   1.273  15.322  1.1903 -0.3926 -0.9123
 3163SOL    HW221126   3.127   1.198  15.344  0.0330  3.2178 -0.6719
 3164SOL     OW21127   2.225   1.440   5.197 -0.1636 -0.3563 -0.5361
 3164SOL    HW121128   2.261   1.501   5.262 -0.1699  2.0577 -2.7949
 3164SOL    HW221129   2.146   1.481   5.163 -0.5052  1.1690  2.0645
 3165SOL     OW21130   1.224   1.201   6.736 -0.5012  0.3608 -0.0429
 3165SOL    HW121131   1.256   1.160   6.655  0.1909  1.3453 -0.2634
 3165SOL    HW221132   1.293   1.267   6.739 -0.8340  0.7268 -0.5387
 3166SOL     OW21133   4.390   0.610  11.661 -0.3020 -0.7218  0.1519
 3166SOL    HW121134   4.453   0.601  11.589 -1.0067  0.0752 -0.5673
 3166SOL    HW221135   4.324   0.545  11.636  0.0093  0.0102 -2.5665
 3167SOL     OW21136   0.228   4.241  13.706  0.0093  0.3366 -0.1757
 3167SOL    HW121137   0.231   4.241  13.802  0.4406 -1.5813 -0.1820
 3167SOL    HW221138   0.290   4.313  13.693  0.2864  0.1808  0.2497
 3168SOL     OW21139   0.284   2.138  15.865 -0.0535  0.2762  0.0175
 3168SOL    HW121140   0.294   2.045  15.884  0.7053 -0.5550 -4.3973
 3168SOL    HW221141   0.196   2.147  15.828  0.0304 -0.7576 -0.4432
 3169SOL     OW21142   1.154   3.980   3.967 -0.0068  0.0921  0.5257
 3169SOL    HW121143   1.161   4.073   3.946  1.2930 -0.1670 -0.2244
 3169SOL    HW221144   1.060   3.971   3.982 -0.4686  1.4595 -1.6265
 3170SOL     OW21145   0.781   4.311   0.483  0.0691 -0.6599 -0.7826
 3170SOL    HW121146   0.710   4.345   0.429  0.7336  3.6623  1.0670
 3170SOL    HW221147   0.861   4.348   0.444  1.0335 -2.9676 -1.0099
 3171SOL     OW21148   4.333   0.995   7.288  0.2158 -0.7090 -0.0351
 3171SOL    HW121149   4.250   1.026   7.325  0.4583  0.0428 -0.1270
 3171SOL    HW221150   4.398   1.055   7.323 -0.2997 -0.3171  0.2624
 3172SOL     OW21151   1.982   3.163   8.006 -0.4620  0.2080  0.8979
 3172SOL    HW121152   2.040   3.212   7.948  1.5759 -2.3868  0.7655
 3172SOL    HW221153   1.908   3.173   7.946  1.9152 -0.9563 -2.1931
 3173SOL     OW21154   2.211   0.047   3.787  0.4785 -0.1712 -0.1081
 3173SOL    HW121155   2.226   4.732   3.867  4.3531  2.7597  1.0599
 3173SOL    HW221156   2.134   0.003   3.752 -0.3174  0.4657  0.8586
 3174SOL     OW21157   3.942   0.868   2.795  0.1081  0.2530 -0.4844
 3174SOL    HW121158   3.956   0.946   2.742  0.7951 -0.0591 -0.7692
 3174SOL    HW221159   3.873   0.818   2.750 -0.4973  0.0436  0.6790
 3175SOL     OW21160   0.730   1.633  10.293 -0.3386 -0.1439  0.1710
 3175SOL    HW121161   0.677   1.620  10.372 -2.6642 -0.1853 -1.3773
 3175SOL    HW221162   0.818   1.614  10.324 -0.2484 -0.7489 -0.4483
 3176SOL     OW21163   4.228   0.024   1.389  0.1176  0.3414  0.1184
 3176SOL    HW121164   4.310   0.068   1.414  1.0785 -0.9144 -0.9003
 3176SOL    HW221165   4.189   0.082   1.323 -0.3749  1.4472  1.3504
 3177SOL     OW21166   4.413   0.732  13.696  0.1372 -0.6373 -0.1816
 3177SOL    HW121167   4.466   0.654  13.708  1.5234  0.4063  0.4701
 3177SOL    HW221168   4.479   0.797  13.669 -0.9745  0.4284 -0.3443
 3178SOL     OW21169   3.587   0.843   6.989 -0.2201 -0.4613 -0.3260
 3178SOL    HW121170   3.565   0.803   6.904  0.0417 -0.3721 -0.4367
 3178SOL    HW221171   3.603   0.935   6.967 -3.2287  0.3019  0.6840
 3179SOL     OW21172   4.235   0.194   7.561  0.5541 -0.2319  0.5096
 3179SOL    HW121173   4.230   0.120   7.621 -1.6774 -0.8002 -0.3596
 3179SOL    HW221174   4.148   0.232   7.553 -0.2995 -1.9613  1.4742
 3180SOL     OW21175   4.538   0.540   0.548 -0.0139  0.3358 -0.0512
 3180SOL    HW121176   4.526   0.545   0.453 -0.6567  2.7976  0.1661
 3180SOL    HW221177   4.630   0.566   0.552  0.1660 -0.4595  0.9410
 3181SOL     OW21178   4.610   0.497  13.790  0.4347 -0.0924 -0.6892
 3181SOL    HW121179   4.558   0.488  13.870 -1.3203  1.1114 -1.6752
 3181SOL    HW221180   4.701   0.502  13.817 -0.0190  0.2666  0.7801
 3182SOL     OW21181   0.118   0.223   2.988 -0.3751 -0.0921 -0.2204
 3182SOL    HW121182   0.124   0.162   2.914  0.7851 -1.5100  1.0462
 3182SOL    HW221183   0.130   0.302   2.936  0.3945  0.0737  0.2166
 3183SOL     OW21184   3.897   4.236   5.040  0.1793 -0.1249  0.0346
 3183SOL    HW121185   3.808   4.204   5.034  0.1667  0.1231 -1.1244
 3183SOL    HW221186   3.933   4.147   5.040 -1.4058 -0.7579  0.9494
 3184SOL     OW21187   2.145   3.502  10.129 -0.5588  0.1935 -0.1919
 3184SOL    HW121188   2.121   3.503  10.037  1.6887  0.6225 -0.7742
 3184SOL    HW221189   2.097   3.424  10.157 -0.3587 -0.1055 -0.6872
 3185SOL     OW21190   3.148   3.859   5.808 -0.0843 -0.1213  0.2538
 3185SOL    HW121191   3.123   3.927   5.871 -0.4989  0.3426 -0.4097
 3185SOL    HW221192   3.097   3.881   5.730  1.9219  2.3881 -0.3377
 3186SOL     OW21193   0.047   3.108  15.076 -0.4148 -0.9332 -0.1233
 3186SOL    HW121194   0.121   3.050  15.094  0.2743  0.1221  0.4420
 3186SOL    HW221195   0.002   3.120  15.160  0.7344 -1.2665  0.5449
 3187SOL     OW21196   3.940   3.255   3.756 -0.2644  0.0527 -0.1281
 3187SOL    HW121197   3.979   3.175   3.720 -0.3554  0.7498 -1.7710
 3187SOL    HW221198   3.850   3.230   3.778  0.2123 -1.8566 -0.3357
 3188SOL     OW21199   3.963   2.544   4.507  1.1906  0.3051 -0.1331
 3188SOL    HW121200   3.891   2.481   4.514 -1.1832  2.7763 -2.3364
 3188SOL    HW221201   4.041   2.492   4.529  0.7455 -0.4311 -0.2893
 3189SOL     OW21202   0.964   0.097   2.451  0.2549  0.3299 -0.4895
 3189SOL    HW121203   0.963   0.165   2.519  1.8967  1.9779 -2.1280
 3189SOL    HW221204   0.869   0.084   2.441  0.6767 -2.4175 -0.8097
 3190SOL     OW21205   0.066   0.814  11.432  0.1459  0.2402 -0.0621
 3190SOL    HW121206   4.709   0.831  11.445  0.0495  0.0338 -0.4764
 3190SOL    HW221207   0.079   0.722  11.407  0.7108  0.2872  0.0516
 3191SOL     OW21208   1.997   3.730  12.737  0.6686 -0.6398 -0.0257
 3191SOL    HW121209   2.073   3.773  12.776  0.8885 -0.4058 -0.7108
 3191SOL    HW221210   2.024   3.639  12.737 -2.4251 -1.5517  0.7597
 3192SOL     OW21211   3.444   0.301   4.560 -0.0662 -0.8439 -0.3204
 3192SOL    HW121212   3.484   0.278   4.476  2.4037  0.3981  0.5051
 3192SOL    HW221213   3.356   0.265   4.555 -0.1359 -0.0508 -4.9149
 3193SOL     OW21214   4.400   2.774   8.943  0.0170 -0.2453  0.2737
 3193SOL    HW121215   4.474   2.835   8.952 -1.2284  1.7961 -3.4145
 3193SOL    HW221216   4.357   2.820   8.871  0.1691  0.4910  0.6518
 3194SOL     OW21217   2.412   4.287  10.602 -0.1129  0.1524  0.5728
 3194SOL    HW121218   2.482   4.257  10.659  1.9331  0.9739 -1.5211
 3194SOL    HW221219   2.360   4.332  10.669 -1.6776 -0.5967 -0.1251
 3195SOL     OW21220   0.325   1.162   8.467  0.0222  0.4676  0.5172
 3195SOL    HW121221   0.259   1.130   8.529 -0.8257 -0.9551 -1.1161
 3195SOL    HW221222   0.355   1.246   8.503  1.3041  0.4583 -0.5413
 3196SOL     OW21223   3.792   3.879   2.510 -0.1115 -0.8549  0.2928
 3196SOL    HW121224   3.735   3.926   2.448  1.9295  0.3320 -0.6719
 3196SOL    HW221225   3.821   3.809   2.452 -1.0684 -1.1482  0.1679
 3197SOL     OW21226   4.023   1.588   6.648  0.1885  0.2131 -0.1849
 3197SOL    HW121227   4.078   1.521   6.607 -0.0180 -0.6809  1.0108
 3197SOL    HW221228   4.078   1.603   6.725 -0.7882 -0.7451  0.6890
 3198SOL     OW21229   0.759   2.014   2.979  0.1838 -0.3525  0.8975
 3198SOL    HW121230   0.752   1.992   2.886 -0.2995 -1.9148  1.3071
 3198SOL    HW221231   0.784   2.105   2.970  0.0111 -0.3367  0.5818
 3199SOL     OW21232   1.844   0.981   9.061 -0.3432  0.0669  0.5922
 3199SOL    HW121233   1.752   0.974   9.089 -1.1425  2.3028 -1.4550
 3199SOL    HW221234   1.891   0.932   9.128 -0.7358  0.0374  0.8486
 3200SOL     OW21235   4.380   2.927   7.426 -0.6485  0.7238 -0.3157
 3200SOL    HW121236   4.413   2.841   7.401 -1.1127  0.4392  0.0550
 3200SOL    HW221237   4.416   2.950   7.512 -1.9015  0.6112  0.2496
 3201SOL     OW21238   1.909   1.114  16.729 -0.5296  0.3233  0.7168
 3201SOL    HW121239   1.951   1.143  16.810  2.7959 -2.3755 -0.0111
 3201SOL    HW221240   1.917   1.195  16.678 -0.9233  0.7116  1.2694
 3202SOL     OW21241   2.702   0.558   2.312  0.0636  0.6786  0.3665
 3202SOL    HW121242   2.706   0.530   2.221 -0.3267 -1.2665  0.9489
 3202SOL    HW221243   2.706   0.653   2.301  0.4917  0.7935  1.4836
 3203SOL     OW21244   3.911   1.866   8.528  0.1347 -0.2555  0.3947
 3203SOL    HW121245   3.976   1.799   8.551  1.5908  1.2676  0.6993
 3203SOL    HW221246   3.905   1.910   8.613 -1.5003 -0.0912  0.1876
 3204SOL     OW21247   1.111   0.635   7.312  0.2856 -0.0297  0.0011
 3204SOL    HW121248   1.168   0.645   7.388 -0.0968  1.2516  0.1302
 3204SOL    HW221249   1.169   0.588   7.252  0.2442 -0.2890  0.1680
 3205SOL     OW21250   1.230   3.914   8.981 -0.1782 -0.1328  0.3644
 3205SOL    HW121251   1.291   3.858   9.030  2.8123  1.6835 -1.2908
 3205SOL    HW221252   1.155   3.855   8.973 -0.7612  0.6116  0.3715
 3206SOL     OW21253   1.055   3.123   2.594 -0.1632 -0.7282  0.6485
 3206SOL    HW121254   0.964   3.138   2.571 -0.1251 -1.0035  0.3142
 3206SOL    HW221255   1.078   3.046   2.542 -1.4665  0.4827 -1.6919
 3207SOL     OW21256   4.595   0.783  13.313 -0.5938 -0.8203 -1.2254
 3207SOL    HW121257   4.609   0.807  13.404 -1.3976  0.7392 -1.5123
 3207SOL    HW221258   4.583   0.872  13.282 -0.8101 -0.2716  0.4316
 3208SOL     OW21259   4.689   2.335   3.061  0.3851  0.1962  0.0228
 3208SOL    HW121260   4.634   2.287   2.998  0.4480 -0.0431  0.1484
 3208SOL    HW221261   0.040   2.326   3.021 -0.5308  0.7875 -2.1072
 3209SOL     OW21262   4.263   0.039   5.201  0.1843 -0.2720 -0.0197
 3209SOL    HW121263   4.185   4.721   5.210 -0.3753  0.7163  0.9149
 3209SOL    HW221264   4.333   4.713   5.226  0.5946  0.5146  0.7831
 3210SOL     OW21265   4.711   2.047   3.310  0.6951 -0.2645 -0.2317
 3210SOL    HW121266   0.005   2.038   3.219 -4.4168 -1.3775 -1.7784
 3210SOL    HW221267   0.038   1.988   3.352  0.7692 -0.6848 -0.9237
 3211SOL     OW21268   2.018   4.474   9.628 -0.4037  0.2629 -0.1701
 3211SOL    HW121269   2.112   4.482   9.644  0.0042 -1.9148 -1.4951
 3211SOL    HW221270   1.981   4.514   9.706 -2.3129 -2.2060  0.1794
 3212SOL     OW21271   1.398   1.654  13.851 -0.2601 -0.0042 -0.2564
 3212SOL    HW121272   1.476   1.618  13.892 -0.3605 -0.7475 -0.7202
 3212SOL    HW221273   1.333   1.583  13.848 -0.0819 -0.1999  0.5440
 3213SOL     OW21274   3.908   0.975   9.100  0.3259  0.5808 -0.1610
 3213SOL    HW121275   3.950   0.896   9.066 -0.6063  0.3801 -0.8396
 3213SOL    HW221276   3.839   0.940   9.156  2.4572 -2.3511  0.6404
 3214SOL     OW21277   0.292   2.890   1.851 -0.0893  0.1293  0.0485
 3214SOL    HW121278   0.278   2.909   1.944  1.1832  2.7862 -0.3377
 3214SOL    HW221279   0.387   2.888   1.849 -0.1586 -1.5096 -1.5968
 3215SOL     OW21280   2.002   3.944   9.153  0.0935 -0.3385  0.7417
 3215SOL    HW121281   1.962   3.865   9.116 -1.1517  0.6756 -0.0920
 3215SOL    HW221282   1.932   3.976   9.210  0.0020  2.4847 -0.9979
 3216SOL     OW21283   3.328   2.222  13.399  0.2662  0.0743  0.1965
 3216SOL    HW121284   3.380   2.192  13.473  1.2941  1.7525  0.1701
 3216SOL    HW221285   3.244   2.260  13.425  0.1447 -0.4909  0.6333
 3217SOL     OW21286   0.839   4.580   7.266  0.1802  0.7114 -0.1738
 3217SOL    HW121287   0.876   4.523   7.334 -1.2881  0.0330  0.0488
 3217SOL    HW221288   0.899   4.552   7.197 -3.2574 -1.7260 -2.2097
 3218SOL     OW21289   0.444   1.771   2.507  0.1061  0.1017  0.4923
 3218SOL    HW121290   0.418   1.836   2.573  3.0904  0.3032  1.4572
 3218SOL    HW221291   0.468   1.828   2.434 -0.0831  1.1237  1.2274
 3219SOL     OW21292   3.431   0.731   4.142 -0.0832  0.2383 -0.4811
 3219SOL    HW121293   3.509   0.740   4.195 -0.2759  1.0448 -0.3403
 3219SOL    HW221294   3.403   0.652   4.188 -0.9304  1.5799  1.3046
 3220SOL     OW21295   3.890   1.334   3.561  0.6301  0.0626 -0.0132
 3220SOL    HW121296   3.830   1.369   3.626 -0.7907 -1.7417 -0.3488
 3220SOL    HW221297   3.940   1.264   3.603 -0.5575 -0.7233  0.1002
 3221SOL     OW21298   3.514   0.662   4.783  0.0823 -0.2493  0.0301
 3221SOL    HW121299   3.575   0.597   4.746  0.0061 -1.4946  2.0995
 3221SOL    HW221300   3.439   0.635   4.730  0.4765 -0.9532 -0.1746
 3222SOL     OW21301   2.714   1.513   0.964  0.1200 -0.2197 -0.2408
 3222SOL    HW121302   2.659   1.580   1.005 -0.7198  0.5941 -2.7108
 3222SOL    HW221303   2.679   1.435   1.007 -1.1981 -0.7618 -2.2809
 3223SOL     OW21304   0.519   0.419   6.053 -0.5887  0.3689 -0.0582
 3223SOL    HW121305   0.611   0.413   6.078 -1.4251 -3.2063  2.2077
 3223SOL    HW221306   0.506   0.324   6.052 -1.2690  0.4766 -1.8490
 3224SOL     OW21307   2.611   1.361   1.186 -0.2863 -0.8566  0.2725
 3224SOL    HW121308   2.550   1.381   1.257 -0.3891 -0.0200 -0.0482
 3224SOL    HW221309   2.697   1.347   1.226  0.3448 -1.6214 -1.3931
 3225SOL     OW21310   2.159   0.098  11.967  0.5145  0.0988 -0.5824
 3225SOL    HW121311   2.111   0.076  11.887 -1.9124 -0.9177  1.1240
 3225SOL    HW221312   2.248   0.083  11.937  1.3422 -0.8743  2.4025
 3226SOL     OW21313   3.003   3.882   4.091 -0.0727 -0.1358 -0.2879
 3226SOL    HW121314   3.030   3.849   4.005  0.3332 -1.1328  0.2261
 3226SOL    HW221315   3.090   3.884   4.130 -0.7149 -0.6191  1.1530
 3227SOL     OW21316   4.284   4.069   2.573 -0.0284 -1.1212 -0.5344
 3227SOL    HW121317   4.329   4.000   2.525  1.8126  0.2388 -0.7894
 3227SOL    HW221318   4.192   4.070   2.547 -0.5557 -2.9464  1.3481
 3228SOL     OW21319   0.696   3.806   5.850  0.1819  0.6230  0.6989
 3228SOL    HW121320   0.604   3.833   5.849  0.2045  0.7276  1.5024
 3228SOL    HW221321   0.729   3.813   5.940 -2.4338  2.1864  1.5266
 3229SOL     OW21322   0.946   4.473  10.238 -0.1447 -0.0942 -0.1852
 3229SOL    HW121323   0.991   4.423  10.170  1.6486  1.8508 -0.4518
 3229SOL    HW221324   0.933   4.403  10.302 -1.0938  1.4461  1.3118
 3230SOL     OW21325   2.428   1.418   4.285 -0.5170  0.0339 -0.3394
 3230SOL    HW121326   2.505   1.372   4.250  0.6810  1.6080  0.2610
 3230SOL    HW221327   2.454   1.508   4.267  1.0081 -0.6175 -1.4144
 3231SOL     OW21328   2.296   0.300   9.256 -0.0914  0.6218  0.1465
 3231SOL    HW121329   2.240   0.224   9.241  0.1416  0.9331 -2.1869
 3231SOL    HW221330   2.232   0.370   9.261 -0.5108  0.2506 -0.0543
 3232SOL     OW21331   0.084   4.024   3.530 -0.2804  0.6199  0.5823
 3232SOL    HW121332   0.144   3.950   3.525 -1.8800 -0.6014 -0.5227
 3232SOL    HW221333   0.078   4.029   3.625  0.1265 -0.2668  0.6490
 3233SOL     OW21334   3.256   1.977  15.328 -0.5374  0.4854 -0.2424
 3233SOL    HW121335   3.289   1.896  15.289  0.0885  0.7395 -0.2433
 3233SOL    HW221336   3.287   2.048  15.272  0.7561 -0.1762 -0.3636
 3234SOL     OW21337   0.094   3.760   2.546  0.3402 -0.3638  0.2597
 3234SOL    HW121338   0.176   3.711   2.546  1.1501  0.9801 -0.8908
 3234SOL    HW221339   0.025   3.695   2.528 -0.3564  0.8745 -1.5524
 3235SOL     OW21340   2.209   3.029   8.269  0.0072  0.1573  0.0600
 3235SOL    HW121341   2.209   2.933   8.269  0.8108  0.1634 -0.8412
 3235SOL    HW221342   2.116   3.050   8.279 -0.1349 -1.8813  3.3529
 3236SOL     OW21343   1.505   0.402  15.540  0.0247  0.0571 -0.6168
 3236SOL    HW121344   1.548   0.362  15.465  1.9832 -1.1336  1.1308
 3236SOL    HW221345   1.459   0.474  15.497 -0.3070 -0.8226 -1.7433
 3237SOL     OW21346   2.711   4.194   2.196  0.2282  0.0345  0.2284
 3237SOL    HW121347   2.642   4.157   2.249 -0.1207  1.2059  0.5985
 3237SOL    HW221348   2.680   4.175   2.107  0.8945 -0.2348  0.0538
 3238SOL     OW21349   0.643   1.089   1.837  0.2293 -0.1646 -0.9931
 3238SOL    HW121350   0.569   1.140   1.803  0.7777  0.3882 -1.3326
 3238SOL    HW221351   0.612   1.062   1.924 -2.9676  0.2588 -1.9793
 3239SOL     OW21352   0.993   1.350   3.188  0.6814  0.6480 -0.3682
 3239SOL    HW121353   0.941   1.308   3.120 -2.4012  1.1639  1.6498
 3239SOL    HW221354   1.036   1.276   3.230 -0.2328  0.2320 -0.1656
 3240SOL     OW21355   4.205   3.885   4.866 -0.2873  0.0031  0.2922
 3240SOL    HW121356   4.283   3.870   4.919 -0.4651 -2.3460 -0.1058
 3240SOL    HW221357   4.211   3.824   4.792 -2.3455 -0.5418  0.5937
 3241SOL     OW21358   3.734   3.399  13.388 -0.1728 -0.4928 -0.0354
 3241SOL    HW121359   3.717   3.347  13.467 -2.5100 -2.4337 -1.8278
 3241SOL    HW221360   3.705   3.485  13.418  0.1077 -0.4498  0.1152
 3242SOL     OW21361   2.732   3.035   2.880 -0.0598 -0.1622 -0.6304
 3242SOL    HW121362   2.677   3.002   2.810 -0.0166  0.3039 -0.8815
 3242SOL    HW221363   2.713   3.127   2.864 -0.9861 -0.1814  0.3762
 3243SOL     OW21364   0.933   4.520   3.646 -0.0056 -0.1311 -0.0170
 3243SOL    HW121365   0.844   4.502   3.677 -0.1555 -1.5179 -1.2347
 3243SOL    HW221366   0.918   4.567   3.564 -1.3934 -0.4339  0.0605
 3244SOL     OW21367   3.783   1.883  17.651 -0.4752  0.4343 -0.7632
 3244SOL    HW121368   3.826   1.900  17.567  1.1306 -2.5282 -0.5432
 3244SOL    HW221369   3.717   1.816  17.636  0.6786 -0.4959 -1.7097
 3245SOL     OW21370   3.109   0.919   6.922  0.3063 -0.1792  0.0550
 3245SOL    HW121371   3.165   0.916   6.999 -2.3455  2.6281  2.0873
 3245SOL    HW221372   3.176   0.946   6.859  0.2720  1.5720  0.7782
 3246SOL     OW21373   4.129   0.406  11.474  0.0858  0.0061  0.0820
 3246SOL    HW121374   4.180   0.348  11.530  0.2589  0.6910  0.6307
 3246SOL    HW221375   4.045   0.361  11.463  0.1830  0.0438 -0.8496
 3247SOL     OW21376   1.404   0.793   1.349  0.0669 -0.7387  0.3937
 3247SOL    HW121377   1.333   0.845   1.311  1.3125  0.9883  0.4301
 3247SOL    HW221378   1.368   0.774   1.436 -3.6386 -0.3194 -1.0500
 3248SOL     OW21379   0.189   2.832   8.231 -0.4264  0.0388 -0.1109
 3248SOL    HW121380   0.271   2.803   8.270 -1.0152 -0.9396  0.3915
 3248SOL    HW221381   0.124   2.779   8.277 -0.1136  0.4287  0.7647
 3249SOL     OW21382   3.204   4.494   9.917  0.6441  0.0850 -0.1843
 3249SOL    HW121383   3.145   4.468   9.846 -0.4813 -0.0629  0.7987
 3249SOL    HW221384   3.212   4.406   9.955 -0.7807 -0.0704 -0.2538
 3250SOL     OW21385   3.004   2.625  11.478  0.2830 -0.0710 -0.1770
 3250SOL    HW121386   3.094   2.598  11.461 -0.0803 -0.1150 -2.0578
 3250SOL    HW221387   2.949   2.547  11.483  2.5858 -1.7876 -1.5991
 3251SOL     OW21388   2.608   2.172   4.673  0.0527 -0.6423  0.8858
 3251SOL    HW121389   2.519   2.137   4.669 -0.8987  2.0737 -2.0383
 3251SOL    HW221390   2.636   2.160   4.764 -1.6626 -1.2365  1.3356
 3252SOL     OW21391   3.666   1.328   2.268  0.5745 -0.0409  0.4041
 3252SOL    HW121392   3.578   1.318   2.231 -0.0845  2.3112  1.3503
 3252SOL    HW221393   3.721   1.282   2.205 -1.3996  0.7008 -1.8859
 3253SOL     OW21394   1.267   2.188   7.451  0.3472 -0.3736 -0.5237
 3253SOL    HW121395   1.256   2.179   7.357  0.8534  3.5398 -0.9689
 3253SOL    HW221396   1.188   2.156   7.494  0.8912 -0.6941  0.2352
 3254SOL     OW21397   2.492   4.133  15.989 -0.0786 -0.1440  0.1425
 3254SOL    HW121398   2.515   4.161  16.077 -1.0734 -0.0512  0.3727
 3254SOL    HW221399   2.431   4.204  15.969 -1.0082 -0.5491  1.5577
 3255SOL     OW21400   2.783   2.161   8.484  0.5061 -0.2600 -1.0187
 3255SOL    HW121401   2.708   2.197   8.438 -0.2732  0.4940  0.8354
 3255SOL    HW221402   2.835   2.240   8.498 -0.6945  0.3800 -0.1547
 3256SOL     OW21403   3.204   2.570   5.991  0.1329  0.6770 -0.1152
 3256SOL    HW121404   3.132   2.535   6.043 -0.5015  0.1521 -1.3587
 3256SOL    HW221405   3.151   2.612   5.924  0.5322 -1.2361 -1.6176
 3257SOL     OW21406   1.142   4.679   2.326 -0.7177  0.1666 -0.6377
 3257SOL    HW121407   1.092   4.620   2.270  1.1273 -2.0291  0.0045
 3257SOL    HW221408   1.074   0.004   2.354 -1.0871 -1.1457  1.3352
 3258SOL     OW21409   1.321   0.894   8.150  1.2009  0.0389  0.1021
 3258SOL    HW121410   1.364   0.933   8.074  1.0570 -0.3259 -0.1638
 3258SOL    HW221411   1.381   0.918   8.220 -0.0024  1.4782  0.6656
 3259SOL     OW21412   2.734   1.302   4.417  0.0745  0.2957  0.3825
 3259SOL    HW121413   2.710   1.350   4.496  1.1193  1.0958  0.2084
 3259SOL    HW221414   2.702   1.215   4.440 -0.4918  0.2451 -0.5733
 3260SOL     OW21415   3.939   2.983   1.240  0.0807  0.2132  0.1896
 3260SOL    HW121416   4.028   3.007   1.214  0.3076  1.1172  1.7676
 3260SOL    HW221417   3.897   3.067   1.258 -2.3999 -0.4983 -2.1490
 3261SOL     OW21418   2.961   0.585   2.825 -0.2136  0.2596  0.2885
 3261SOL    HW121419   3.006   0.581   2.909 -2.0442  0.3094  1.2658
 3261SOL    HW221420   3.021   0.535   2.769 -2.2303 -0.9038 -0.8206
 3262SOL     OW21421   0.343   1.410   8.578 -0.1615  0.6637 -0.1717
 3262SOL    HW121422   0.383   1.471   8.639 -1.7050  0.6648  0.8653
 3262SOL    HW221423   0.353   1.457   8.496 -2.4769  1.5313  0.0421
 3263SOL     OW21424   0.124   3.053   8.873 -0.5653 -0.4340 -0.5540
 3263SOL    HW121425   0.069   3.103   8.933 -0.5471  0.5593 -1.3766
 3263SOL    HW221426   0.067   3.051   8.796 -2.4162 -0.6219  0.8122
 3264SOL     OW21427   3.782   1.532   6.835 -0.3246  0.6369 -0.1840
 3264SOL    HW121428   3.837   1.471   6.884  0.8316  0.1185 -2.1481
 3264SOL    HW221429   3.842   1.577   6.775  0.2167 -2.3658 -1.8543
 3265SOL     OW21430   0.757   2.352   1.070  0.2592  0.2369  0.1712
 3265SOL    HW121431   0.820   2.302   1.121 -0.9474  1.0929  2.5084
 3265SOL    HW221432   0.669   2.317   1.088 -0.3015  2.0639  0.9897
 3266SOL     OW21433   2.215   2.650  12.192  0.0588  0.1403  0.3297
 3266SOL    HW121434   2.287   2.711  12.205 -1.5429  2.2072 -0.3528
 3266SOL    HW221435   2.225   2.595  12.269  2.5318 -1.0738 -0.8644
 3267SOL     OW21436   1.998   4.461   1.391 -0.6421 -0.2456 -0.1066
 3267SOL    HW121437   1.982   4.412   1.471  0.3763 -0.5016 -0.0594
 3267SOL    HW221438   1.910   4.487   1.362  0.4175  0.3556 -2.8361
 3268SOL     OW21439   3.651   3.422   8.791  0.4706  0.0027 -0.4849
 3268SOL    HW121440   3.702   3.418   8.872  0.5661 -0.3874 -0.5623
 3268SOL    HW221441   3.643   3.328   8.775 -0.3873  0.3342 -1.9121
 3269SOL     OW21442   0.841   2.656   3.063  0.7539  0.0998 -0.3240
 3269SOL    HW121443   0.865   2.738   3.106 -2.0503  0.7104  0.0755
 3269SOL    HW221444   0.749   2.649   3.086  0.6030 -3.2042 -1.8896
 3270SOL     OW21445   2.463   0.034   5.328  0.2762 -0.3460  0.2657
 3270SOL    HW121446   2.376   0.016   5.292  0.1561 -2.6200  1.7230
 3270SOL    HW221447   2.468   4.719   5.409  2.9113  3.3044  2.4026
 3271SOL     OW21448   0.102   3.104   6.056  0.0900  0.1990  0.1174
 3271SOL    HW121449   0.151   3.033   6.014 -2.0897 -1.5222  0.4759
 3271SOL    HW221450   0.048   3.127   5.980  0.8266 -2.0559 -1.1137
 3272SOL     OW21451   1.653   0.562   9.189 -0.1301 -0.0744  1.2180
 3272SOL    HW121452   1.644   0.514   9.271 -0.6359 -2.9429 -0.5156
 3272SOL    HW221453   1.732   0.605   9.221 -0.3631  0.8928  0.5370
 3273SOL     OW21454   3.068   0.985  11.799  0.2110  0.3284 -0.1106
 3273SOL    HW121455   3.007   0.989  11.873  1.0306 -1.7736  0.6814
 3273SOL    HW221456   3.054   0.890  11.790 -1.0787  0.5771 -0.7564
 3274SOL     OW21457   3.666   4.087   8.386 -0.2741 -0.4252  0.2894
 3274SOL    HW121458   3.574   4.096   8.360 -0.3424 -1.0249  0.3157
 3274SOL    HW221459   3.658   4.122   8.475  3.0366  0.9784  0.0215
 3275SOL     OW21460   3.163   3.647   7.369  0.1807 -0.0249  0.6527
 3275SOL    HW121461   3.228   3.623   7.436  0.3982 -0.3421  0.3278
 3275SOL    HW221462   3.160   3.561   7.329 -2.4046  0.5339 -0.3469
 3276SOL     OW21463   2.923   2.114   4.117 -0.7925 -0.0352 -0.0514
 3276SOL    HW121464   2.974   2.051   4.167 -0.3006  0.9684  0.7173
 3276SOL    HW221465   2.943   2.194   4.166  0.1514 -0.3885  0.1322
 3277SOL     OW21466   4.185   0.732   5.788 -0.3519  0.1275 -0.2620
 3277SOL    HW121467   4.217   0.715   5.700  0.5810  1.9143 -0.2592
 3277SOL    HW221468   4.127   0.806   5.769  0.5321  1.6002  2.7513
 3278SOL     OW21469   0.718   3.935   5.210  0.0768 -0.4331  0.3199
 3278SOL    HW121470   0.732   3.889   5.127 -0.3650 -0.3560  0.2038
 3278SOL    HW221471   0.800   3.905   5.250 -0.4687  1.3033  2.7645
 3279SOL     OW21472   0.821   2.164   8.194  0.3587 -0.3836  0.2948
 3279SOL    HW121473   0.775   2.092   8.150  1.0280 -0.6410 -0.0007
 3279SOL    HW221474   0.911   2.156   8.162  0.0943  0.8102 -0.7259
 3280SOL     OW21475   1.244   2.633   8.944  0.0505 -0.1443 -0.3162
 3280SOL    HW121476   1.158   2.610   8.980 -0.4584  0.4845 -1.1299
 3280SOL    HW221477   1.243   2.592   8.858  3.9358 -0.4400 -0.2319
 3281SOL     OW21478   1.833   3.471   8.214  0.5734 -0.2006  0.1823
 3281SOL    HW121479   1.878   3.491   8.132 -0.0371 -0.1100 -0.1375
 3281SOL    HW221480   1.743   3.458   8.184  0.5126 -1.3257  0.8213
 3282SOL     OW21481   3.490   1.432   7.189 -0.7219 -0.2541  0.3856
 3282SOL    HW121482   3.532   1.493   7.250  0.4149 -1.3012  0.6520
 3282SOL    HW221483   3.508   1.464   7.101  1.8100  1.5884  1.5988
 3283SOL     OW21484   1.462   1.228  12.156  0.0950  0.8155 -0.2889
 3283SOL    HW121485   1.382   1.206  12.203  0.9977 -1.4605  0.1836
 3283SOL    HW221486   1.517   1.270  12.222 -2.7290 -1.1036  3.2342
 3284SOL     OW21487   2.162   0.512   8.963  0.0074  0.0664  0.4735
 3284SOL    HW121488   2.106   0.442   8.996 -1.0920  0.3658 -0.7502
 3284SOL    HW221489   2.125   0.529   8.877  0.7177 -0.6178  0.0388
 3285SOL     OW21490   3.697   0.304  10.725 -0.0285  0.6177  0.0876
 3285SOL    HW121491   3.613   0.313  10.771  0.5266 -1.1956  1.4720
 3285SOL    HW221492   3.754   0.323  10.800 -0.3971  0.5943  0.3760
 3286SOL     OW21493   1.212   0.048   9.396  0.6484 -0.0844 -0.0123
 3286SOL    HW121494   1.173   0.025   9.311 -0.9834  2.3063  0.1202
 3286SOL    HW221495   1.239   0.138   9.381  1.4205 -0.1019  1.3390
 3287SOL     OW21496   1.067   0.640   5.698  0.0410  0.5862  0.7047
 3287SOL    HW121497   1.010   0.716   5.696 -0.4199  0.3015  2.8908
 3287SOL    HW221498   1.095   0.632   5.607 -1.5559  0.8139  0.2107
 3288SOL     OW21499   0.350   1.434   7.117  0.7501  0.5951  0.0135
 3288SOL    HW121500   0.300   1.492   7.175 -0.0734 -0.6206  0.5072
 3288SOL    HW221501   0.382   1.503   7.058  0.9525 -0.0465 -0.6200
 3289SOL     OW21502   4.557   3.907   2.685 -0.0622  0.3609  0.5137
 3289SOL    HW121503   4.626   3.928   2.623  0.5803  1.3075  1.5451
 3289SOL    HW221504   4.524   3.821   2.657 -0.8072  0.4742  1.0313
 3290SOL     OW21505   1.640   4.579   2.061 -0.3413  0.4848  0.0141
 3290SOL    HW121506   1.687   4.647   2.012 -0.6924 -0.8224 -2.1291
 3290SOL    HW221507   1.552   4.617   2.058 -1.3358 -1.8598 -0.3433
 3291SOL     OW21508   3.089   1.555  10.967  0.1568  0.2795 -0.4447
 3291SOL    HW121509   3.062   1.639  11.004  2.4683  0.3704  1.0392
 3291SOL    HW221510   3.019   1.520  10.912 -1.8843  1.8088  1.1976
 3292SOL     OW21511   3.114   1.175   8.375 -0.0816  0.2409  0.4799
 3292SOL    HW121512   3.195   1.214   8.342 -1.7973  2.7075 -0.7152
 3292SOL    HW221513   3.086   1.113   8.308  0.9154 -0.2617  0.5205
 3293SOL     OW21514   4.250   4.399  12.844  0.3612 -0.9097 -0.2203
 3293SOL    HW121515   4.269   4.321  12.791 -0.9352 -1.1968 -0.2595
 3293SOL    HW221516   4.331   4.448  12.828 -1.8419  2.1883 -2.0883
 3294SOL     OW21517   0.475   2.394   4.585  0.2521  0.2378 -0.4023
 3294SOL    HW121518   0.442   2.476   4.620  0.0836  0.1852 -0.4351
 3294SOL    HW221519   0.456   2.409   4.493 -0.3650 -0.9259 -0.4649
 3295SOL     OW21520   3.862   2.245  13.132 -0.2398  0.1583  0.3449
 3295SOL    HW121521   3.814   2.273  13.209 -0.9225 -1.6108  0.5668
 3295SOL    HW221522   3.790   2.265  13.073  0.0156  1.2988  0.4249
 3296SOL     OW21523   3.255   2.258   6.190 -0.2400 -0.0341 -0.2325
 3296SOL    HW121524   3.332   2.217   6.152 -1.1131 -1.1967 -0.7642
 3296SOL    HW221525   3.193   2.185   6.186  0.6131 -0.7302 -0.8028
 3297SOL     OW21526   2.929   0.174   5.747 -0.7973 -0.3446 -0.1545
 3297SOL    HW121527   2.856   0.132   5.702 -1.3555 -0.8083  1.1877
 3297SOL    HW221528   2.904   0.145   5.835 -0.3228  0.5108  0.2646
 3298SOL     OW21529   3.649   2.252   4.317 -0.0488  0.2210  0.3432
 3298SOL    HW121530   3.661   2.285   4.406 -1.0136 -0.3291  0.6758
 3298SOL    HW221531   3.559   2.222   4.323 -0.1322  0.2047 -0.9755
 3299SOL     OW21532   3.869   2.521   3.725 -0.4516  0.1206  0.3270
 3299SOL    HW121533   3.911   2.568   3.653  4.5697 -0.9771  2.5056
 3299SOL    HW221534   3.921   2.557   3.797  0.1112 -0.5806  0.2717
 3300SOL     OW21535   1.376   2.341  10.072 -0.6756  0.2623 -0.0878
 3300SOL    HW121536   1.352   2.248  10.067 -1.0088  0.3135  0.5922
 3300SOL    HW221537   1.410   2.345  10.162  0.3608  0.4265 -0.4867
 3301SOL     OW21538   1.546   4.735   9.123 -0.0319  0.2895 -0.5733
 3301SOL    HW121539   1.507   0.078   9.085 -1.4737  0.3809  1.1162
 3301SOL    HW221540   1.573   0.026   9.210  1.0503 -0.6538 -0.6208
 3302SOL     OW21541   4.730   4.396   9.190  0.3351 -0.2038  0.3579
 3302SOL    HW121542   0.032   4.348   9.263  1.4780  0.7089  0.3560
 3302SOL    HW221543   0.046   4.475   9.206 -2.1777  1.5751 -0.1994
 3303SOL     OW21544   4.231   1.153  12.915  0.0324  0.3766 -0.4010
 3303SOL    HW121545   4.143   1.171  12.950  0.2637  0.5013  0.1202
 3303SOL    HW221546   4.212   1.137  12.823 -1.9494 -0.5878  0.1622
 3304SOL     OW21547   3.404   2.496   4.986  0.3718  0.4190  0.2081
 3304SOL    HW121548   3.339   2.501   4.916  2.0318 -1.6555 -1.4850
 3304SOL    HW221549   3.439   2.585   4.982 -1.2350  1.0910  1.5206
 3305SOL     OW21550   0.383   2.361   2.789  0.1245 -0.4431  0.2299
 3305SOL    HW121551   0.465   2.408   2.773  1.0575 -1.7492  1.1918
 3305SOL    HW221552   0.365   2.310   2.709  2.3006  1.1558 -1.2712
 3306SOL     OW21553   2.867   4.307  17.008  0.4930 -0.0597  0.1921
 3306SOL    HW121554   2.940   4.245  17.006  0.9590  0.4853  0.0577
 3306SOL    HW221555   2.916   4.379  16.969 -3.0031  1.9862 -0.3677
 3307SOL     OW21556   4.345   4.605   3.481 -0.2401  0.4716  0.2779
 3307SOL    HW121557   4.274   4.613   3.418  0.3682  0.3851 -0.4164
 3307SOL    HW221558   4.392   4.528   3.449 -1.0695  0.5846 -1.2005
 3308SOL     OW21559   4.281   2.243   1.662  0.1444 -0.5756 -0.3746
 3308SOL    HW121560   4.297   2.310   1.728  1.2637  0.6607 -1.8877
 3308SOL    HW221561   4.306   2.282   1.578 -1.9700  2.1914  0.2544
 3309SOL     OW21562   0.102   3.348  13.352 -0.1076  0.2022  0.2588
 3309SOL    HW121563   0.023   3.369  13.302 -0.2448  0.6043  0.6487
 3309SOL    HW221564   0.077   3.384  13.437  0.1882 -0.8660  0.8057
 3310SOL     OW21565   0.182   3.632   2.282  0.8945  0.0868 -0.0395
 3310SOL    HW121566   0.211   3.620   2.191 -2.4198 -1.9291 -0.8292
 3310SOL    HW221567   0.223   3.716   2.303  0.0734  0.6303 -0.6260
 3311SOL     OW21568   4.304   1.770   1.980  0.2250  0.0309  0.0639
 3311SOL    HW121569   4.320   1.861   2.007 -0.6754  0.0463  0.5273
 3311SOL    HW221570   4.343   1.722   2.053  0.0092 -0.3772 -0.0919
 3312SOL     OW21571   4.652   0.744   3.269 -0.4447  0.0897 -0.1400
 3312SOL    HW121572   4.705   0.768   3.193  2.0044  1.2965  1.9419
 3312SOL    HW221573   4.712   0.689   3.321 -1.4133 -0.9476 -0.1229
 3313SOL     OW21574   1.590   1.861   4.187  0.5115 -0.2633 -0.2434
 3313SOL    HW121575   1.666   1.867   4.129  1.5040  0.9804  1.1979
 3313SOL    HW221576   1.567   1.953   4.175 -1.8567 -0.4821  2.4965
 3314SOL     OW21577   0.958   3.056  10.739  0.1475 -0.2521 -0.0870
 3314SOL    HW121578   0.934   3.106  10.661  0.0299 -1.0626 -0.5695
 3314SOL    HW221579   1.027   3.009  10.692  2.3335  1.1905  1.6585
 3315SOL     OW21580   0.585   1.419  14.714 -0.5216 -0.1555  0.4657
 3315SOL    HW121581   0.575   1.366  14.635 -0.7445  0.8840 -0.1898
 3315SOL    HW221582   0.642   1.356  14.759 -2.2464 -1.1212  1.2963
 3316SOL     OW21583   1.326   4.198  14.642  0.6478  0.1013 -0.1527
 3316SOL    HW121584   1.417   4.206  14.671  0.6922  1.0447 -0.5517
 3316SOL    HW221585   1.311   4.109  14.676  0.7058  0.8289  1.7665
 3317SOL     OW21586   3.018   0.275   7.770 -0.4143 -0.2115 -0.0405
 3317SOL    HW121587   2.949   0.208   7.770 -1.5123  0.9347  0.4400
 3317SOL    HW221588   2.984   0.340   7.831 -1.9593 -0.9654 -0.1153
 3318SOL     OW21589   2.201   0.252   2.949  0.1618 -0.0339  0.6482
 3318SOL    HW121590   2.178   0.224   2.860  0.3714 -0.8437  0.8536
 3318SOL    HW221591   2.128   0.213   2.996 -0.6208  0.4571 -0.1603
 3319SOL     OW21592   2.472   0.320   5.265 -0.0826  0.3800  0.0521
 3319SOL    HW121593   2.566   0.307   5.271 -0.3200 -0.7314  1.1832
 3319SOL    HW221594   2.450   0.242   5.316 -1.0447 -0.2360 -1.3084
 3320SOL     OW21595   1.855   0.592   4.287 -0.7212 -0.2119 -0.2790
 3320SOL    HW121596   1.818   0.597   4.198 -4.7769  0.7724  1.4608
 3320SOL    HW221597   1.933   0.645   4.272 -1.5168  0.7272 -1.1120
 3321SOL     OW21598   4.016   4.624   9.219 -0.0021 -0.6481  0.7653
 3321SOL    HW121599   3.936   4.676   9.228  1.2335  1.3314  0.2385
 3321SOL    HW221600   3.993   4.532   9.203 -0.1909 -0.4390 -0.1636
 3322SOL     OW21601   0.233   3.661   8.344  0.0329 -0.1423  1.1937
 3322SOL    HW121602   0.186   3.650   8.261  0.3030  0.8682  0.9034
 3322SOL    HW221603   0.245   3.570   8.371 -3.5653 -1.2305 -0.8729
 3323SOL     OW21604   4.466   1.266   4.027  0.2232 -0.2808 -0.6931
 3323SOL    HW121605   4.378   1.293   4.001  1.1353  1.6108 -1.8641
 3323SOL    HW221606   4.447   1.173   4.036 -1.0842  0.1147  0.6963
 3324SOL     OW21607   2.940   0.637   8.598 -0.0353 -0.0517  0.2163
 3324SOL    HW121608   3.027   0.615   8.566  0.3302  0.1032  1.1015
 3324SOL    HW221609   2.913   0.548   8.625  0.2945  0.0835  0.9961
 3325SOL     OW21610   3.744   3.641   1.793  0.0608  0.0370  0.4944
 3325SOL    HW121611   3.839   3.641   1.783 -0.2794 -0.3102 -2.7378
 3325SOL    HW221612   3.718   3.595   1.714  0.5126  0.3659  0.1544
 3326SOL     OW21613   3.941   4.434  12.394  0.0813  0.4688  0.4591
 3326SOL    HW121614   4.016   4.377  12.379  0.5127  1.0111  0.5371
 3326SOL    HW221615   3.958   4.495  12.322 -1.5442  2.0370  1.4037
 3327SOL     OW21616   4.182   3.897   5.387 -0.0166 -0.1274 -0.0410
 3327SOL    HW121617   4.270   3.930   5.371 -0.7110  2.1079  0.8218
 3327SOL    HW221618   4.142   3.958   5.448  0.6370  1.4216 -1.1743
 3328SOL     OW21619   0.230   4.430   8.425 -0.5534  0.3006 -0.2140
 3328SOL    HW121620   0.161   4.373   8.460  0.1864 -0.1911  0.4448
 3328SOL    HW221621   0.297   4.365   8.406  0.4014  1.3355 -0.4030
 3329SOL     OW21622   3.323   0.092   5.957  0.2346  0.1735  0.3869
 3329SOL    HW121623   3.401   0.082   6.012 -0.5062 -0.8784  1.2423
 3329SOL    HW221624   3.345   0.045   5.876 -1.2740 -2.1571  1.3324
 3330SOL     OW21625   3.392   1.770   6.406  0.1978 -0.4735 -0.0728
 3330SOL    HW121626   3.306   1.730   6.393 -0.2082 -0.2160  1.8352
 3330SOL    HW221627   3.438   1.733   6.331  0.3558 -0.1086 -0.1583
 3331SOL     OW21628   2.557   0.132  16.582 -0.2787 -0.0032  0.1708
 3331SOL    HW121629   2.597   0.219  16.577 -1.2716  0.4495  0.0443
 3331SOL    HW221630   2.630   0.083  16.619 -0.4425 -0.7473 -0.4821
 3332SOL     OW21631   2.533   3.780   4.625 -0.5605 -0.6359  0.7729
 3332SOL    HW121632   2.541   3.873   4.644 -4.1467 -0.5768  1.9842
 3332SOL    HW221633   2.509   3.781   4.532 -0.0014  0.1975  0.6413
 3333SOL     OW21634   0.726   4.230  11.175  0.0149  0.2246 -0.5885
 3333SOL    HW121635   0.681   4.224  11.091 -0.4761  1.0300 -0.3868
 3333SOL    HW221636   0.772   4.146  11.173  1.1658  0.7377  3.8266
 3334SOL     OW21637   2.182   0.486   5.096 -0.4840  0.4946 -0.0758
 3334SOL    HW121638   2.153   0.394   5.100 -5.4612  2.0329  0.2174
 3334SOL    HW221639   2.144   0.506   5.010 -0.2872 -0.0667 -0.2960
 3335SOL     OW21640   3.055   0.185   6.191  0.5527  0.2003  0.7414
 3335SOL    HW121641   2.967   0.173   6.227  0.3003 -1.1479 -0.3258
 3335SOL    HW221642   3.110   0.138   6.254  0.3611  1.7840  2.1026
 3336SOL     OW21643   4.044   1.619   8.596  0.1901  0.0848 -0.1503
 3336SOL    HW121644   3.993   1.601   8.517  1.7486 -3.0636 -0.4470
 3336SOL    HW221645   4.008   1.549   8.650  0.6822 -1.9007 -2.4222
 3337SOL     OW21646   0.901   3.570   5.513 -0.2310  0.0873  0.4579
 3337SOL    HW121647   0.861   3.548   5.597  0.7622  1.5456  1.3245
 3337SOL    HW221648   0.996   3.576   5.529 -0.2898  1.0944  0.4756
 3338SOL     OW21649   2.360   1.067   4.226 -0.2188 -0.4628 -0.3479
 3338SOL    HW121650   2.293   1.130   4.199  1.3378  1.4463  0.2591
 3338SOL    HW221651   2.441   1.115   4.210 -1.2196  0.9640 -1.1731
 3339SOL     OW21652   0.795   1.522   4.022  0.2270  0.3642 -0.2111
 3339SOL    HW121653   0.848   1.463   3.968  1.6376 -0.8393  2.4609
 3339SOL    HW221654   0.771   1.458   4.089  1.7708  0.9505  0.9078
 3340SOL     OW21655   2.278   0.498   2.373 -0.6730 -0.5514  0.6855
 3340SOL    HW121656   2.201   0.556   2.369  1.4708  2.1673 -1.0761
 3340SOL    HW221657   2.324   0.539   2.300  0.0104  0.1449  1.4956
 3341SOL     OW21658   2.359   4.433   4.408  0.3461 -0.6579 -0.4743
 3341SOL    HW121659   2.276   4.468   4.376 -0.1551  0.4684  1.9898
 3341SOL    HW221660   2.401   4.516   4.431 -0.1543 -0.1071 -1.5460
 3342SOL     OW21661   2.767   2.861  17.250 -0.1250  0.2796  0.2369
 3342SOL    HW121662   2.822   2.807  17.308  0.0559 -1.4258 -1.5151
 3342SOL    HW221663   2.734   2.916  17.320  0.4058 -0.0202  0.7216
 3343SOL     OW21664   4.560   2.409  11.781 -0.1355  0.4921 -0.3707
 3343SOL    HW121665   4.646   2.451  11.794 -0.8023  2.2505 -1.4984
 3343SOL    HW221666   4.558   2.403  11.685  1.1867 -2.3041 -0.2220
 3344SOL     OW21667   3.545   0.949   9.835 -0.2901 -0.6312 -0.4966
 3344SOL    HW121668   3.625   0.942   9.782  0.1146 -1.5392  0.2138
 3344SOL    HW221669   3.483   0.991   9.776  0.5913  0.7843 -0.4239
 3345SOL     OW21670   0.371   3.819  16.957  0.3046  0.0132  0.5610
 3345SOL    HW121671   0.299   3.778  17.003 -0.7338  1.7783  0.5085
 3345SOL    HW221672   0.390   3.749  16.895 -2.0053 -0.3840  0.3078
 3346SOL     OW21673   3.784   2.057   5.198 -0.4063  0.0955  0.5278
 3346SOL    HW121674   3.817   2.054   5.288 -2.6908 -1.0643  1.3376
 3346SOL    HW221675   3.702   2.007   5.202 -0.5072  0.1122 -1.2344
 3347SOL     OW21676   0.043   2.171   3.909  0.0066  0.1394  0.6306
 3347SOL    HW121677   0.124   2.219   3.892  0.0300  0.9598  3.0653
 3347SOL    HW221678   0.001   2.169   3.824 -0.9412  0.9625  1.0786
 3348SOL     OW21679   0.230   2.754   2.760 -0.5155  0.7014 -0.7889
 3348SOL    HW121680   0.163   2.760   2.828 -1.7042  0.0981 -1.9308
 3348SOL    HW221681   0.296   2.704   2.808  0.0957  1.1187 -1.1948
 3349SOL     OW21682   0.290   1.783   4.849 -0.0822  0.1864 -0.2306
 3349SOL    HW121683   0.302   1.877   4.853 -3.8502  0.6402  0.3534
 3349SOL    HW221684   0.268   1.766   4.758 -2.5538  2.0939  0.0172
 3350SOL     OW21685   1.832   1.966   0.168 -0.0850 -0.4539  0.3634
 3350SOL    HW121686   1.836   1.989   0.261  0.0179  2.0838 -0.2568
 3350SOL    HW221687   1.925   1.949   0.149  0.0842  4.0391 -2.9571
 3351SOL     OW21688   4.403   3.066  11.867 -0.6846  0.3073  0.1014
 3351SOL    HW121689   4.475   3.035  11.923 -0.8025 -0.1850 -0.0186
 3351SOL    HW221690   4.358   2.982  11.867  1.6139 -0.9351 -1.0627
 3352SOL     OW21691   3.750   3.076  15.209  0.1047  0.0288 -0.2216
 3352SOL    HW121692   3.824   3.112  15.159 -0.7782  0.4118 -1.2712
 3352SOL    HW221693   3.786   2.992  15.238  0.2431  0.9626  2.2507
 3353SOL     OW21694   2.819   2.163  16.137 -0.2454 -0.4268  0.4230
 3353SOL    HW121695   2.808   2.204  16.223 -1.1776 -0.5185  0.3517
 3353SOL    HW221696   2.847   2.238  16.084  0.4960 -1.2063 -0.2966
 3354SOL     OW21697   4.397   3.100   3.930  0.2791 -0.3701  0.2358
 3354SOL    HW121698   4.480   3.134   3.964 -0.3923 -0.5323  2.0167
 3354SOL    HW221699   4.375   3.170   3.870  0.3975  0.3245  1.0090
 3355SOL     OW21700   1.381   1.137   4.663  0.1785 -0.8322  0.1535
 3355SOL    HW121701   1.458   1.193   4.649 -1.4387  1.1912 -0.6441
 3355SOL    HW221702   1.335   1.147   4.580 -1.3344 -0.7443  1.0164
 3356SOL     OW21703   1.312   1.542   2.946  0.2850  0.6553  0.3043
 3356SOL    HW121704   1.322   1.474   3.013 -0.3322  1.0424  0.7859
 3356SOL    HW221705   1.384   1.534   2.883 -1.0050 -1.0343 -0.9478
 3357SOL     OW21706   0.054   4.267   4.255  0.5625  0.3315 -0.3017
 3357SOL    HW121707   0.068   4.173   4.264 -3.0750 -0.4490 -2.4083
 3357SOL    HW221708   0.131   4.300   4.209  1.7131 -0.8021  0.8375
 3358SOL     OW21709   1.223   2.186   7.095 -0.1871 -0.0615 -0.0479
 3358SOL    HW121710   1.132   2.165   7.075 -1.2632  2.0542  2.6014
 3358SOL    HW221711   1.227   2.269   7.047  1.5785  0.8937  1.7034
 3359SOL     OW21712   3.443   1.532   6.817 -0.6431 -0.0517 -0.4168
 3359SOL    HW121713   3.499   1.580   6.756 -0.0426  0.8651  0.8502
 3359SOL    HW221714   3.439   1.594   6.890  0.8481  0.3124 -0.6506
 3360SOL     OW21715   2.562   2.650   4.444 -0.2013 -0.0119  0.4976
 3360SOL    HW121716   2.471   2.670   4.425 -0.1746  0.1542  0.5511
 3360SOL    HW221717   2.555   2.565   4.489 -2.2849 -0.2934 -0.4021
 3361SOL     OW21718   4.120   3.804   3.413 -0.0138 -0.0077 -0.8553
 3361SOL    HW121719   4.203   3.776   3.375 -0.1277 -1.9692  0.3621
 3361SOL    HW221720   4.071   3.819   3.332  0.3399  1.0502 -0.8715
 3362SOL     OW21721   2.281   4.250   7.941  0.1023 -0.4861  0.2772
 3362SOL    HW121722   2.267   4.345   7.942 -0.5834 -0.6199  2.7605
 3362SOL    HW221723   2.311   4.251   8.032 -0.5232  0.3251  0.4716
 3363SOL     OW21724   4.107   2.674   9.440  0.1875 -0.2226  0.2943
 3363SOL    HW121725   4.030   2.726   9.416  0.0120 -0.1202  1.0785
 3363SOL    HW221726   4.162   2.737   9.486 -1.1941 -0.0294  1.6616
 3364SOL     OW21727   0.994   2.651   5.502  0.0452 -0.5434  0.0449
 3364SOL    HW121728   1.004   2.746   5.489 -2.1470 -0.5668 -1.7818
 3364SOL    HW221729   1.077   2.627   5.544  0.6038  0.0441 -0.7203
 3365SOL     OW21730   0.336   1.014   0.589  0.4297  0.4679 -0.0347
 3365SOL    HW121731   0.391   0.936   0.584  1.5001  1.1556  0.9000
 3365SOL    HW221732   0.308   1.016   0.681 -2.4357  2.9225 -0.9860
 3366SOL     OW21733   2.944   1.543   5.731 -0.5637  0.1060 -0.3460
 3366SOL    HW121734   2.934   1.565   5.638  0.0483  1.7852 -0.0258
 3366SOL    HW221735   3.015   1.479   5.730  0.3911  1.1556 -0.6296
 3367SOL     OW21736   2.144   0.766  13.111 -0.3750 -0.8743  0.8020
 3367SOL    HW121737   2.221   0.753  13.167  0.2467  0.1974  0.1867
 3367SOL    HW221738   2.072   0.775  13.174 -2.9194  0.6337 -2.3250
 3368SOL     OW21739   4.472   3.682   8.455  0.1581 -0.1016 -0.0098
 3368SOL    HW121740   4.527   3.707   8.380  0.2817 -1.2480 -0.2943
 3368SOL    HW221741   4.400   3.745   8.454  0.3793  0.1390 -0.9191
 3369SOL     OW21742   2.538   2.922   0.781  0.4369  0.3900 -0.4816
 3369SOL    HW121743   2.445   2.928   0.761  0.0605 -0.1552  1.1310
 3369SOL    HW221744   2.544   2.973   0.862 -1.4536  0.9016 -0.6800
 3370SOL     OW21745   2.988   4.127   3.301 -0.1609  0.2347 -0.1908
 3370SOL    HW121746   3.069   4.081   3.320  0.7071  1.7166 -0.2462
 3370SOL    HW221747   3.008   4.128   3.207 -1.1310  1.7496 -0.3806
 3371SOL     OW21748   1.570   0.568  12.643  0.1989  0.1120  0.0222
 3371SOL    HW121749   1.516   0.508  12.695  0.2746  1.2201  1.3837
 3371SOL    HW221750   1.626   0.508  12.594  1.8380  0.3294  1.6028
 3372SOL     OW21751   3.481   4.320  15.343  0.1819  0.4957  0.6156
 3372SOL    HW121752   3.522   4.360  15.266 -0.5568  1.1823  0.5814
 3372SOL    HW221753   3.559   4.306  15.396  1.6977 -1.0266 -2.0015
 3373SOL     OW21754   4.438   3.890  17.530  0.3617 -0.5387  0.1180
 3373SOL    HW121755   4.467   3.800  17.548  0.6091 -0.3267  0.8014
 3373SOL    HW221756   4.455   3.886  17.436  0.8069  2.0868  0.0971
 3374SOL     OW21757   3.081   4.685  13.220 -0.8039 -0.1502  0.0822
 3374SOL    HW121758   3.140   0.013  13.259  1.1870 -1.7119 -0.3761
 3374SOL    HW221759   3.108   4.601  13.255 -1.6392 -0.3986  0.1462
 3375SOL     OW21760   3.501   3.582  11.451  1.1334 -0.2123  0.4519
 3375SOL    HW121761   3.463   3.620  11.530  0.6362 -1.8022  0.9921
 3375SOL    HW221762   3.528   3.492  11.473 -0.7370 -0.9030 -0.0868
 3376SOL     OW21763   0.768   0.542  10.681  0.8850 -0.2202 -0.6926
 3376SOL    HW121764   0.785   0.622  10.630  1.7520  0.0214 -0.0179
 3376SOL    HW221765   0.858   0.510  10.684  0.7275 -0.5478  0.4091
 3377SOL     OW21766   1.401   0.396   6.005  0.5060  0.0307  0.5891
 3377SOL    HW121767   1.454   0.325   5.967 -0.4743 -0.3975  0.0275
 3377SOL    HW221768   1.350   0.349   6.071  0.8580 -2.0746 -0.6516
 3378SOL     OW21769   1.192   0.303   3.864  0.2114 -0.4344  0.2184
 3378SOL    HW121770   1.247   0.377   3.837  0.8813 -0.8080  0.5315
 3378SOL    HW221771   1.116   0.326   3.811 -1.0261 -1.3205  1.5926
 3379SOL     OW21772   3.521   4.038  14.242  0.6219  0.1626 -0.3616
 3379SOL    HW121773   3.609   4.000  14.232 -0.2035 -1.2041 -2.3414
 3379SOL    HW221774   3.535   4.130  14.224 -2.2909  0.8724  1.0066
 3380SOL     OW21775   3.883   4.131   3.114  0.0281 -0.1189  0.0187
 3380SOL    HW121776   3.908   4.058   3.170 -0.5695  0.5926  1.2143
 3380SOL    HW221777   3.956   4.188   3.139 -0.6548 -0.7012  3.2454
 3381SOL     OW21778   3.548   1.882  13.610  0.1463 -0.0115 -0.0610
 3381SOL    HW121779   3.558   1.794  13.646 -2.4580  0.7802  2.5268
 3381SOL    HW221780   3.639   1.910  13.608  0.2944 -0.4749  0.3103
 3382SOL     OW21781   0.532   2.063   9.245  0.1955  0.1235  0.2892
 3382SOL    HW121782   0.508   2.056   9.153  3.1028  3.5585 -0.7309
 3382SOL    HW221783   0.598   2.131   9.243 -0.3231  0.5940 -0.5902
 3383SOL     OW21784   3.963   3.268   9.068 -0.0327  0.2038 -0.4580
 3383SOL    HW121785   4.027   3.203   9.038 -0.1970 -0.6330  0.9805
 3383SOL    HW221786   3.988   3.282   9.159  0.3874 -0.0856 -0.5282
 3384SOL     OW21787   0.039   4.239   5.947  0.2421  0.0631 -0.0837
 3384SOL    HW121788   4.710   4.175   5.975  0.0059 -0.5504 -1.9985
 3384SOL    HW221789   4.720   4.315   5.933  0.7585  0.6148  0.9421
 3385SOL     OW21790   1.064   3.352  14.332 -0.1914 -0.0928 -0.3047
 3385SOL    HW121791   0.976   3.351  14.296 -0.8559  1.8970  1.2589
 3385SOL    HW221792   1.116   3.309  14.264  1.1545 -0.1519  0.7679
 3386SOL     OW21793   1.520   2.711   2.535  0.1016 -0.6164  0.0067
 3386SOL    HW121794   1.439   2.701   2.486 -1.5144  1.1298  2.3259
 3386SOL    HW221795   1.577   2.749   2.468  0.0191  1.6486  1.2045
 3387SOL     OW21796   4.180   0.497   2.706  0.7305 -0.6878 -0.4575
 3387SOL    HW121797   4.104   0.537   2.749  3.5731  1.3688  2.6216
 3387SOL    HW221798   4.175   0.405   2.732  0.5778 -0.4408  0.3689
 3388SOL     OW21799   2.710   3.178  17.722 -0.1122 -0.2718 -0.0308
 3388SOL    HW121800   2.625   3.183  17.679  0.5301 -0.6565 -1.3435
 3388SOL    HW221801   2.681   3.193   0.069 -0.1582  1.9957 -0.4084
 3389SOL     OW21802   0.458   4.003   7.479  0.4932 -0.7112  0.1469
 3389SOL    HW121803   0.381   4.051   7.447 -1.6061 -2.7903  2.1174
 3389SOL    HW221804   0.469   4.052   7.561 -0.8953 -1.1897  0.6242
 3390SOL     OW21805   0.061   1.450   9.017 -0.0691  0.3860  0.0974
 3390SOL    HW121806   0.138   1.476   8.967  1.5151 -1.3508  1.6426
 3390SOL    HW221807   0.057   1.356   9.000 -1.2506  1.0111 -3.1374
 3391SOL     OW21808   0.859   2.247   5.419 -0.0717  0.4459  0.5864
 3391SOL    HW121809   0.858   2.151   5.419 -0.2518  0.4553  2.3879
 3391SOL    HW221810   0.766   2.266   5.404 -0.0150 -0.6140 -1.0471
 3392SOL     OW21811   4.071   3.163   4.904  0.1569 -0.4422  0.2380
 3392SOL    HW121812   4.090   3.086   4.958 -2.8119 -1.3090  0.0396
 3392SOL    HW221813   3.984   3.149   4.868 -0.3101 -0.4916  1.4037
 3393SOL     OW21814   1.843   2.293   4.405 -0.3137  0.5523  0.0536
 3393SOL    HW121815   1.758   2.252   4.387 -0.0836  1.0451 -2.2118
 3393SOL    HW221816   1.859   2.231   4.476 -0.7089  1.1214  0.6477
 3394SOL     OW21817   3.435   1.046   3.687  0.2400 -0.1209 -0.4419
 3394SOL    HW121818   3.474   0.965   3.720  1.1100 -0.5706 -2.6100
 3394SOL    HW221819   3.341   1.032   3.702 -0.2837  2.0595 -1.6697
 3395SOL     OW21820   4.291   3.138   9.605  0.4837  0.0351  0.1830
 3395SOL    HW121821   4.296   3.220   9.654  0.4100 -0.6055  1.2623
 3395SOL    HW221822   4.307   3.074   9.675 -0.3973  0.0543  0.4070
 3396SOL     OW21823   2.846   3.531   2.616  0.3217 -0.6712  0.7034
 3396SOL    HW121824   2.756   3.502   2.606 -0.4281  1.5818  0.9883
 3396SOL    HW221825   2.841   3.626   2.608 -1.9362 -0.9092 -0.7643
 3397SOL     OW21826   4.646   0.696  12.009 -0.0344  0.4408  0.3593
 3397SOL    HW121827   4.655   0.606  11.976 -0.3120  1.1332 -1.6380
 3397SOL    HW221828   4.686   0.678  12.094 -1.9456  2.0601  1.5903
 3398SOL     OW21829   0.110   3.125  16.109 -0.4332  0.5711 -0.1496
 3398SOL    HW121830   0.124   3.192  16.176 -1.5289 -0.1755  0.8300
 3398SOL    HW221831   0.191   3.135  16.060  1.0723 -0.8990  2.0598
 3399SOL     OW21832   2.126   2.451   5.887  0.6336 -0.2049 -0.0920
 3399SOL    HW121833   2.109   2.369   5.839  0.9339 -1.2583  1.6130
 3399SOL    HW221834   2.221   2.450   5.897  0.7558  2.5978 -0.9889
 3400SOL     OW21835   0.813   2.594   8.202 -0.2952  0.1818 -0.5034
 3400SOL    HW121836   0.829   2.522   8.140  1.7664 -1.0729  1.4747
 3400SOL    HW221837   0.753   2.648   8.150  0.9558  3.3497  1.4395
 3401SOL     OW21838   0.283   2.142  11.513  0.0833  0.3446 -0.0429
 3401SOL    HW121839   0.352   2.200  11.546  1.6383 -0.6756 -1.5189
 3401SOL    HW221840   0.211   2.150  11.576 -1.9141 -1.4825 -2.1352
 3402SOL     OW21841   2.043   2.816   3.419  0.7148 -0.0303  0.5492
 3402SOL    HW121842   2.012   2.891   3.367  4.4444 -0.3022 -2.0786
 3402SOL    HW221843   2.043   2.853   3.507  0.2347  0.9397  0.1471
 3403SOL     OW21844   3.677   3.813   0.873  0.0266  0.1205  0.4053
 3403SOL    HW121845   3.737   3.765   0.931  1.1419 -1.9692 -2.4820
 3403SOL    HW221846   3.721   3.789   0.792  0.8961  1.9888  0.3242
 3404SOL     OW21847   0.594   3.577   4.052  0.7300  0.3166  0.0537
 3404SOL    HW121848   0.682   3.614   4.057  0.2987  1.2988  0.3740
 3404SOL    HW221849   0.588   3.542   4.141  0.8942 -0.4841 -0.2504
 3405SOL     OW21850   2.444   4.369   6.504  0.2151 -0.0320 -0.2256
 3405SOL    HW121851   2.520   4.389   6.449 -0.6082  0.9874 -0.9934
 3405SOL    HW221852   2.366   4.395   6.454  0.3867  2.8601  0.9997
 3406SOL     OW21853   4.449   2.157   6.213  0.3327  0.1856  0.0698
 3406SOL    HW121854   4.388   2.202   6.270  2.4436  1.2721  1.4812
 3406SOL    HW221855   4.530   2.175   6.261 -0.5324  2.1470  0.8025
 3407SOL     OW21856   2.036   1.783   5.779  0.3398  0.6037 -0.4947
 3407SOL    HW121857   1.988   1.864   5.762 -0.8397  0.3704  1.7215
 3407SOL    HW221858   2.098   1.789   5.706  1.9390  1.0817  0.9041
 3408SOL     OW21859   4.128   2.905  14.605 -0.3895  0.0325  0.8231
 3408SOL    HW121860   4.089   2.990  14.586 -1.0774 -0.6074 -0.5821
 3408SOL    HW221861   4.211   2.939  14.638  0.5643 -2.6206  1.1238
 3409SOL     OW21862   1.048   0.140  15.660  0.4917  0.5070 -0.4146
 3409SOL    HW121863   1.020   0.214  15.714  0.7297  0.2980 -0.0068
 3409SOL    HW221864   1.140   0.119  15.674 -0.2246 -0.9850  1.8875
 3410SOL     OW21865   4.476   4.474  10.994  0.0806  0.3977  0.4119
 3410SOL    HW121866   4.422   4.544  10.958  0.1449  0.0027 -0.4714
 3410SOL    HW221867   4.495   4.515  11.078 -0.6887 -1.0852  1.3031
 3411SOL     OW21868   1.644   0.470  16.204 -0.4168  0.1732 -0.2889
 3411SOL    HW121869   1.619   0.385  16.240  0.9591 -0.1319 -0.0438
 3411SOL    HW221870   1.555   0.499  16.185 -1.6057 -2.5186  1.1614
 3412SOL     OW21871   4.026   3.147   7.063 -0.3340  0.1416 -0.1670
 3412SOL    HW121872   4.015   3.113   7.152  1.0107 -1.1359 -0.4951
 3412SOL    HW221873   3.934   3.170   7.048  0.2306  1.8552 -1.0153
 3413SOL     OW21874   3.967   1.730   2.163  0.0862  0.6719 -0.3150
 3413SOL    HW121875   3.906   1.698   2.230  2.3371 -1.3447  0.7439
 3413SOL    HW221876   3.929   1.684   2.088 -0.5083 -1.1228  1.0894
 3414SOL     OW21877   2.371   2.951   1.909  0.7723 -0.0597  0.3074
 3414SOL    HW121878   2.427   2.880   1.942  0.7327  1.0378  2.7165
 3414SOL    HW221879   2.320   2.901   1.845 -0.0235  0.8811  0.2245
 3415SOL     OW21880   3.295   0.817   4.801  0.2552 -0.1202  0.3023
 3415SOL    HW121881   3.382   0.780   4.813  0.0519 -0.9398 -0.7372
 3415SOL    HW221882   3.243   0.779   4.872  0.9544  0.4014  1.1000
 3416SOL     OW21883   2.306   3.465   5.546  0.1649  0.3294  0.0465
 3416SOL    HW121884   2.338   3.375   5.546  0.2687  0.3658  0.8502
 3416SOL    HW221885   2.331   3.507   5.464 -1.9623 -0.7895 -1.1862
 3417SOL     OW21886   3.305   1.284   5.251 -0.4468  0.2317 -0.0802
 3417SOL    HW121887   3.278   1.342   5.323 -2.0758 -0.3671 -0.2087
 3417SOL    HW221888   3.264   1.325   5.175 -0.4183  1.0337  0.3348
 3418SOL     OW21889   3.165   0.034  15.814  0.5118  0.0436  0.0822
 3418SOL    HW121890   3.077   0.072  15.811  1.1591  1.4176 -1.8419
 3418SOL    HW221891   3.163   0.005  15.722 -1.3703 -0.9618  0.4353
 3419SOL     OW21892   2.418   4.655   4.550  0.2605 -0.5543  0.1470
 3419SOL    HW121893   2.509   4.657   4.521 -0.4393 -0.0215 -2.0329
 3419SOL    HW221894   2.421   4.684   4.641 -2.1390 -0.9500  0.3460
 3420SOL     OW21895   2.065   0.132  17.014  0.0459 -0.0289 -0.1075
 3420SOL    HW121896   2.145   0.080  17.004 -0.8356 -1.4894  0.3469
 3420SOL    HW221897   2.004   0.065  16.983  0.3909  0.5450 -1.9892
 3421SOL     OW21898   0.184   0.790   1.063  0.2705 -0.0296  0.4242
 3421SOL    HW121899   0.235   0.710   1.052  0.2726  0.0337 -0.0171
 3421SOL    HW221900   0.113   0.766   1.123 -2.8597  1.0053 -2.8507
 3422SOL     OW21901   3.974   3.387   6.540  0.3152 -0.2357  0.3569
 3422SOL    HW121902   3.999   3.316   6.599  0.2246 -2.8181 -2.7394
 3422SOL    HW221903   3.898   3.421   6.587 -1.2509 -0.8432 -1.7454
 3423SOL     OW21904   4.011   4.306  14.109 -0.0933  0.4424 -0.2750
 3423SOL    HW121905   3.991   4.395  14.082 -0.0387  0.9363  1.3538
 3423SOL    HW221906   3.952   4.258  14.050  0.7280  2.2173 -2.5561
 3424SOL     OW21907   3.488   2.795   1.305  0.0572  0.6100 -0.3543
 3424SOL    HW121908   3.553   2.852   1.265  1.4817  2.2153  4.2077
 3424SOL    HW221909   3.501   2.711   1.262  0.3441  0.3678  0.1947
 3425SOL     OW21910   3.225   2.862   6.741  0.5871  0.3992  0.9029
 3425SOL    HW121911   3.219   2.783   6.687 -0.9672  1.0532  0.1026
 3425SOL    HW221912   3.156   2.916   6.701 -0.2548  1.4429  3.7773
 3426SOL     OW21913   1.857   0.435   8.079  0.2718 -0.3078  0.0886
 3426SOL    HW121914   1.951   0.442   8.063  0.5268 -0.3280  1.5492
 3426SOL    HW221915   1.828   0.350   8.046 -0.8475  0.0152  0.2512
 3427SOL     OW21916   1.142   3.563  12.617 -0.6088  0.7514  0.2125
 3427SOL    HW121917   1.098   3.567  12.702 -0.9491  0.6053  0.0444
 3427SOL    HW221918   1.121   3.472  12.594  0.1198  0.0204  2.3950
 3428SOL     OW21919   4.516   4.607   8.077 -0.3303 -0.4302  0.0246
 3428SOL    HW121920   4.588   4.586   8.136  0.7677  0.0895 -1.1052
 3428SOL    HW221921   4.496   4.699   8.094 -0.2807 -0.3141 -0.5427
 3429SOL     OW21922   1.591   1.516   3.660 -0.4657  0.1292 -0.1198
 3429SOL    HW121923   1.549   1.566   3.591  1.8077 -2.0715 -3.0863
 3429SOL    HW221924   1.619   1.442   3.605  0.6607  1.1744 -0.9350
 3430SOL     OW21925   2.777   3.046   3.215  0.4961 -0.1003 -0.3648
 3430SOL    HW121926   2.821   3.047   3.130 -1.0484  1.5688 -1.1424
 3430SOL    HW221927   2.759   2.952   3.224 -3.1114  0.5577 -0.5648
 3431SOL     OW21928   3.727   2.033  15.229  0.0632 -0.7509 -0.1857
 3431SOL    HW121929   3.758   2.087  15.157  3.1424 -0.8465  1.0924
 3431SOL    HW221930   3.810   2.010  15.269 -0.1411  0.9816  1.2147
 3432SOL     OW21931   2.440   0.861   7.387 -0.6802 -0.0371  0.1655
 3432SOL    HW121932   2.518   0.872   7.332  0.1952  1.5255  1.6949
 3432SOL    HW221933   2.453   0.770   7.414  0.0828  0.4751  1.5193
 3433SOL     OW21934   3.070   1.128   7.158 -0.0449 -0.6413 -0.0004
 3433SOL    HW121935   3.087   1.093   7.246  1.4025  3.1013  1.1750
 3433SOL    HW221936   3.091   1.053   7.102  1.0316 -0.2307 -0.1415
 3434SOL     OW21937   3.286   1.491   5.023 -0.2756  0.7566 -0.6268
 3434SOL    HW121938   3.362   1.473   4.967  0.9933 -0.6677  1.6017
 3434SOL    HW221939   3.210   1.481   4.965  0.8211 -0.4814 -1.8515
 3435SOL     OW21940   0.999   3.767   8.501 -0.1501 -0.2775 -0.5117
 3435SOL    HW121941   0.937   3.700   8.473 -1.3322  0.8483 -0.5922
 3435SOL    HW221942   1.024   3.733   8.586 -0.0621 -0.9119 -0.7935
 3436SOL     OW21943   4.461   3.695   6.490 -0.4015  0.5189  0.1558
 3436SOL    HW121944   4.537   3.638   6.493 -1.0664 -0.3858 -0.2435
 3436SOL    HW221945   4.479   3.743   6.409 -0.7548  0.5938  0.1190
 3437SOL     OW21946   1.918   3.500  15.757  0.1630 -0.3502  0.0622
 3437SOL    HW121947   1.948   3.581  15.798  0.1753 -0.6534  0.6566
 3437SOL    HW221948   1.985   3.480  15.692  0.3986 -1.0749  0.5307
 3438SOL     OW21949   4.082   4.043   4.572 -0.2715 -0.3347 -0.5545
 3438SOL    HW121950   4.052   4.090   4.650 -1.8521 -0.4605 -1.0840
 3438SOL    HW221951   4.170   4.017   4.599 -0.9062 -0.5043  1.3332
 3439SOL     OW21952   1.611   1.908   8.055  0.4630  0.5775 -0.3219
 3439SOL    HW121953   1.687   1.950   8.014 -0.2258  0.6964 -1.4870
 3439SOL    HW221954   1.576   1.975   8.112  1.0344  1.0371 -0.5143
 3440SOL     OW21955   4.522   2.715   4.536  0.0352  0.1957  0.2677
 3440SOL    HW121956   4.584   2.674   4.476  1.1899  1.4995  0.5828
 3440SOL    HW221957   4.565   2.787   4.582 -1.0701  1.4695 -0.7087
 3441SOL     OW21958   1.120   2.955   2.832 -0.0932 -0.5763 -0.3897
 3441SOL    HW121959   1.093   2.912   2.751 -0.4112 -2.1254  0.5213
 3441SOL    HW221960   1.039   2.967   2.882  0.2908  0.1232  0.0756
 3442SOL     OW21961   3.222   0.159  12.321  0.4607 -0.2593 -0.9053
 3442SOL    HW121962   3.136   0.153  12.364 -0.1303  1.4086 -1.8476
 3442SOL    HW221963   3.211   0.094  12.252 -2.7330  0.0602 -0.6851
 3443SOL     OW21964   3.027   3.923   2.048  0.7725  0.4107  0.4456
 3443SOL    HW121965   3.110   3.961   2.019  0.0223  0.8246 -1.1773
 3443SOL    HW221966   3.005   3.993   2.108 -1.2556 -0.8398  1.1721
 3444SOL     OW21967   0.835   0.744  10.497  0.3047 -0.1124  0.1610
 3444SOL    HW121968   0.785   0.799  10.437  0.5990 -1.4731 -1.3397
 3444SOL    HW221969   0.849   0.813  10.562 -0.8507 -0.9395  1.3014
 3445SOL     OW21970   4.302   3.378   4.644  0.0802  0.3121  0.1739
 3445SOL    HW121971   4.300   3.337   4.731  0.0329  0.5789  0.3005
 3445SOL    HW221972   4.227   3.335   4.604  0.9951 -0.6568 -0.4817
 3446SOL     OW21973   2.884   3.693  17.275 -0.6627  0.3402  0.5920
 3446SOL    HW121974   2.880   3.788  17.291  1.3408  0.8909 -1.9969
 3446SOL    HW221975   2.797   3.671  17.243 -0.3501  0.2576 -0.2140
 3447SOL     OW21976   3.590   2.654   1.079 -0.3464  0.0837  0.3021
 3447SOL    HW121977   3.515   2.632   1.023 -0.3349  1.7686 -0.3705
 3447SOL    HW221978   3.576   2.748   1.083  1.2642  0.3228  0.3009
 3448SOL     OW21979   3.231   4.219   1.980 -0.0850  0.6677  0.3619
 3448SOL    HW121980   3.308   4.266   2.013 -0.0164 -0.3552  1.6796
 3448SOL    HW221981   3.271   4.133   1.966 -1.3360  0.2038 -0.3540
 3449SOL     OW21982   3.170   0.488   7.576 -0.2304 -0.0656 -0.0737
 3449SOL    HW121983   3.221   0.421   7.620  0.7983  1.4130  0.9847
 3449SOL    HW221984   3.092   0.440   7.548 -1.0150  1.5552 -0.6839
 3450SOL     OW21985   3.281   3.354   0.476  0.0595 -0.2551 -0.3680
 3450SOL    HW121986   3.273   3.447   0.455 -0.3564 -0.3104 -0.4610
 3450SOL    HW221987   3.375   3.345   0.493  0.4728 -0.2565 -2.5705
 3451SOL     OW21988   1.495   2.385   2.790 -0.1687 -0.0130  0.2524
 3451SOL    HW121989   1.516   2.373   2.883 -0.4136 -1.1268  0.1604
 3451SOL    HW221990   1.419   2.442   2.803  1.0995  1.5021  0.9921
 3452SOL     OW21991   4.025   2.605   2.381 -0.0987 -0.7551 -0.0783
 3452SOL    HW121992   3.987   2.656   2.453 -0.5618  0.1740 -0.9755
 3452SOL    HW221993   3.964   2.635   2.314  3.7248  0.5401 -2.9474
 3453SOL     OW21994   0.631   0.037   6.564 -0.8899  0.2207 -0.0428
 3453SOL    HW121995   0.548   0.083   6.558 -1.2250 -0.5808 -1.6166
 3453SOL    HW221996   0.689   0.100   6.607 -4.5174  2.4411  1.5933
 3454SOL     OW21997   1.134   1.579   3.174  0.2450  0.3397  0.0945
 3454SOL    HW121998   1.110   1.486   3.177 -2.8833  1.0876 -2.0330
 3454SOL    HW221999   1.113   1.611   3.086 -1.1618  0.5105  0.4883
 3455SOL     OW22000   3.635   4.659  16.713  0.3575 -0.2334 -0.4179
 3455SOL    HW122001   3.702   4.701  16.767 -1.3610  2.2274 -0.1704
 3455SOL    HW222002   3.643   4.704  16.629 -2.6061 -0.5342 -0.8574
 3456SOL     OW22003   0.460   2.146   3.046 -0.4576 -0.1066 -0.1002
 3456SOL    HW122004   0.518   2.082   3.088 -0.5218 -1.0127 -1.4093
 3456SOL    HW222005   0.515   2.188   2.981 -1.3118 -1.4410 -1.7029
 3457SOL     OW22006   3.773   4.102   0.904 -0.2022 -0.4639 -0.2366
 3457SOL    HW122007   3.859   4.081   0.867 -0.1394  1.5563 -1.2903
 3457SOL    HW222008   3.733   4.017   0.887 -0.3117 -0.1117 -1.7517
 3458SOL     OW22009   2.335   2.747   7.563 -0.3042  0.2457 -0.0827
 3458SOL    HW122010   2.257   2.800   7.543  0.2254  1.7910  1.9970
 3458SOL    HW222011   2.305   2.717   7.649 -0.9174  0.7892 -0.1039
 3459SOL     OW22012   3.671   4.270  14.726 -0.1704  0.1438 -0.1191
 3459SOL    HW122013   3.662   4.247  14.633 -2.3624 -0.3455  0.2001
 3459SOL    HW222014   3.622   4.198  14.766  0.1342  0.7452  1.3139
 3460SOL     OW22015   3.294   1.821   5.838  0.1609 -0.4059 -0.3996
 3460SOL    HW122016   3.381   1.860   5.834  0.5381 -1.1040  1.1092
 3460SOL    HW222017   3.303   1.777   5.922 -0.6882 -0.9434 -0.5918
 3461SOL     OW22018   1.275   1.490   5.274  0.1104 -0.2811  0.2265
 3461SOL    HW122019   1.187   1.486   5.312 -0.0431 -0.8536 -0.1895
 3461SOL    HW222020   1.261   1.520   5.184  1.7189 -0.5715 -0.1074
 3462SOL     OW22021   0.155   1.763  13.291 -0.2947  0.2458 -0.4145
 3462SOL    HW122022   0.131   1.764  13.384  1.0931  1.7157 -0.0672
 3462SOL    HW222023   0.068   1.753  13.254 -0.0187  0.1204 -1.0356
 3463SOL     OW22024   3.250   1.916  13.030  0.2139 -0.3407  0.7382
 3463SOL    HW122025   3.284   1.845  13.084 -0.8380 -0.9670  0.5750
 3463SOL    HW222026   3.271   2.001  13.069 -1.6406 -0.0017  0.9878
 3464SOL     OW22027   3.225   3.643   6.464 -0.6246  0.8465  0.4366
 3464SOL    HW122028   3.317   3.629   6.442 -0.1256 -0.5117  3.4513
 3464SOL    HW222029   3.231   3.714   6.528  0.9031  2.5616 -1.6069
 3465SOL     OW22030   3.810   3.720   0.185  0.1145  0.6712 -0.3259
 3465SOL    HW122031   3.723   3.685   0.171  0.0605 -0.5163  2.9598
 3465SOL    HW222032   3.842   3.657   0.249  0.0784 -2.1898 -3.1207
 3466SOL     OW22033   3.848   4.703   3.392 -0.4131 -1.0499  0.1591
 3466SOL    HW122034   3.763   4.663   3.374 -0.3218 -1.0566 -0.2452
 3466SOL    HW222035   3.826   0.055   3.363 -2.1473 -1.6126 -0.2483
 3467SOL     OW22036   3.724   3.604   3.974  0.3732  0.0521 -0.4224
 3467SOL    HW122037   3.815   3.623   3.952 -0.1968  2.9009 -0.3361
 3467SOL    HW222038   3.694   3.550   3.900  0.1774 -2.8542  1.7551
 3468SOL     OW22039   0.152   0.212   7.956  0.1160 -0.0089  0.3906
 3468SOL    HW122040   0.210   0.271   8.005 -0.2966 -1.1731  2.2737
 3468SOL    HW222041   0.171   0.129   7.999 -2.1257 -0.0731  1.2287
 3469SOL     OW22042   3.911   3.583  17.545 -0.5528  0.1344 -0.0039
 3469SOL    HW122043   3.928   3.661  17.597  0.5346 -0.4376  0.5022
 3469SOL    HW222044   3.960   3.517  17.594 -0.5143  2.3810  2.9156
 3470SOL     OW22045   0.464   3.718   6.026 -0.1590 -0.0832 -0.0899
 3470SOL    HW122046   0.493   3.682   6.109 -0.8517  0.4128  0.3661
 3470SOL    HW222047   0.421   3.801   6.046  1.2191 -0.0349  2.6176
 3471SOL     OW22048   0.397   1.686   2.912 -0.0720  0.5599 -0.2451
 3471SOL    HW122049   0.449   1.656   2.838 -0.0202  0.7857 -0.3028
 3471SOL    HW222050   0.307   1.699   2.884  0.3631 -0.6210 -2.1572
 3472SOL     OW22051   3.749   3.354   8.291  0.1104  0.0157  0.2112
 3472SOL    HW122052   3.808   3.365   8.217  1.7910 -3.5363  0.9886
 3472SOL    HW222053   3.678   3.296   8.263  0.1024 -0.0251  0.3153
 3473SOL     OW22054   3.851   0.627  16.131  0.0424 -0.3908 -0.2654
 3473SOL    HW122055   3.808   0.690  16.190  0.9813  0.3081 -0.3154
 3473SOL    HW222056   3.879   0.687  16.062  1.3125 -0.9509 -0.2455
 3474SOL     OW22057   0.674   1.925   2.062  0.2309 -0.0313  0.0013
 3474SOL    HW122058   0.634   1.950   2.146  1.8311 -0.0302  0.7648
 3474SOL    HW222059   0.602   1.891   2.010 -1.1085  1.5756  0.8103
 3475SOL     OW22060   2.940   1.450   6.658  0.5969 -0.0604  0.0634
 3475SOL    HW122061   2.916   1.528   6.609  0.1630 -1.3841 -1.8106
 3475SOL    HW222062   2.997   1.475   6.731  0.4911  1.5743 -0.4093
 3476SOL     OW22063   0.276   3.560   6.384 -0.4727 -0.1600  0.8034
 3476SOL    HW122064   0.214   3.494   6.414 -0.8560 -0.9738 -1.7881
 3476SOL    HW222065   0.287   3.598   6.472  2.4681  1.4514 -0.2531
 3477SOL     OW22066   1.843   3.116   4.947 -0.6166  0.5542  0.5864
 3477SOL    HW122067   1.790   3.184   4.988 -2.2696 -1.1714  1.3169
 3477SOL    HW222068   1.841   3.051   5.017  1.2936 -1.5109 -1.2542
 3478SOL     OW22069   4.505   2.059   7.480 -0.5375 -0.3728  0.4704
 3478SOL    HW122070   4.595   2.053   7.448 -1.1381 -0.7166 -1.1611
 3478SOL    HW222071   4.469   1.974   7.453  0.0362 -0.9481  1.4919
 3479SOL     OW22072   3.930   0.215  12.853 -0.2942  0.3104 -0.3757
 3479SOL    HW122073   3.963   0.135  12.811 -1.5815  0.5418 -1.8250
 3479SOL    HW222074   4.009   0.241  12.901 -0.3835 -0.9562  0.4499
 3480SOL     OW22075   3.581   1.571  11.093  0.2664  0.4661 -0.3217
 3480SOL    HW122076   3.515   1.560  11.024 -1.5598  1.5752  1.2634
 3480SOL    HW222077   3.565   1.658  11.128  0.5727  0.2702  0.3055
 3481SOL     OW22078   3.673   4.469   6.612 -0.7606 -0.3510  0.4353
 3481SOL    HW122079   3.591   4.502   6.573 -1.2489 -2.2543 -0.1666
 3481SOL    HW222080   3.661   4.449   6.705  0.8243  0.2373  0.7505
 3482SOL     OW22081   4.598   3.591   5.243  0.0557  0.3170  0.8069
 3482SOL    HW122082   4.657   3.516   5.247  0.6388  0.6776 -0.9802
 3482SOL    HW222083   4.654   3.662   5.209  1.2435  0.0576  2.2272
 3483SOL     OW22084   2.901   1.080   5.853  0.1034 -0.3553  0.2532
 3483SOL    HW122085   2.925   0.988   5.867  0.1435 -0.2183  1.1184
 3483SOL    HW222086   2.988   1.120   5.848  0.3248 -1.2233 -2.9302
 3484SOL     OW22087   1.701   1.749   8.384 -0.2311 -0.0306 -0.1411
 3484SOL    HW122088   1.773   1.810   8.399  2.3876 -2.8861 -1.2580
 3484SOL    HW222089   1.646   1.808   8.333  0.5411 -1.0335 -2.1121
 3485SOL     OW22090   4.517   0.494   5.462 -0.6058 -0.1380  0.0621
 3485SOL    HW122091   4.525   0.569   5.521 -2.1335  0.4066 -0.4231
 3485SOL    HW222092   4.521   0.527   5.372 -1.8318  0.7568  0.3418
 3486SOL     OW22093   1.148   0.572   1.967 -0.0769 -0.0354  0.4786
 3486SOL    HW122094   1.190   0.658   1.973  0.2096  0.0408 -3.0927
 3486SOL    HW222095   1.087   0.588   1.896 -1.6865  2.0761  2.3117
 3487SOL     OW22096   0.448   1.067   4.259 -0.4278  0.1727 -0.2877
 3487SOL    HW122097   0.379   1.121   4.219  0.3750 -0.1825 -2.1750
 3487SOL    HW222098   0.466   1.100   4.346 -0.1367 -1.5888  0.3282
 3488SOL     OW22099   2.202   4.470  17.124 -0.6899  0.6241 -0.4673
 3488SOL    HW122100   2.200   4.549  17.071  1.6037  0.3587 -0.9368
 3488SOL    HW222101   2.279   4.490  17.177 -0.2187  0.2036 -0.9929
 3489SOL     OW22102   1.961   3.462   9.324 -0.2843 -0.3392 -0.2315
 3489SOL    HW122103   2.049   3.424   9.319  0.1355  0.4059  1.2355
 3489SOL    HW222104   1.923   3.417   9.249  0.2946 -1.9550  0.4334
 3490SOL     OW22105   3.116   1.281  10.778 -0.5232  0.2403 -0.4796
 3490SOL    HW122106   3.023   1.261  10.770 -0.4684 -0.7994  1.5742
 3490SOL    HW222107   3.121   1.293  10.873  2.0074  1.2402 -0.7485
 3491SOL     OW22108   4.660   0.600   8.402  0.5571 -0.1539 -0.0620
 3491SOL    HW122109   4.566   0.605   8.414  0.3636  1.4390 -2.3459
 3491SOL    HW222110   4.683   0.691   8.421 -0.3332  0.0790 -0.1110
 3492SOL     OW22111   1.073   0.113   8.534  0.3479  0.2828  0.5727
 3492SOL    HW122112   1.152   0.082   8.489 -0.5827 -1.7856  0.3882
 3492SOL    HW222113   1.017   0.038   8.514  2.4795 -0.7853 -1.4787
 3493SOL     OW22114   0.863   0.384   1.274 -0.4772  0.8487 -0.2907
 3493SOL    HW122115   0.866   0.289   1.283 -1.7006  0.7754 -0.6060
 3493SOL    HW222116   0.783   0.399   1.223 -1.2478  2.0312  1.2514
 3494SOL     OW22117   1.852   2.972   1.948  0.2019  0.1196 -0.4060
 3494SOL    HW122118   1.899   3.040   1.997  2.4279 -0.9564 -1.0928
 3494SOL    HW222119   1.791   3.028   1.899 -0.3288 -0.5105 -0.4555
 3495SOL     OW22120   1.815   3.318   2.327  0.3145 -0.0451  0.5993
 3495SOL    HW122121   1.896   3.344   2.371 -0.5274  1.2145  1.3811
 3495SOL    HW222122   1.781   3.250   2.384 -1.8838  0.5355 -0.0353
 3496SOL     OW22123   0.536   3.458   4.285 -0.5626  0.8791 -0.2462
 3496SOL    HW122124   0.527   3.477   4.378  1.1799 -2.7510  0.6702
 3496SOL    HW222125   0.454   3.411   4.266  0.0843  0.3944 -1.9120
 3497SOL     OW22126   2.485   1.789   3.772 -0.1036  0.1816 -0.0242
 3497SOL    HW122127   2.441   1.757   3.693 -1.9030 -0.2658  1.1546
 3497SOL    HW222128   2.576   1.801   3.744  0.4700  2.0763  2.6209
 3498SOL     OW22129   2.180   1.872  16.939 -0.3829  0.6587  0.5516
 3498SOL    HW122130   2.217   1.940  16.995 -1.7943  1.9802 -0.1157
 3498SOL    HW222131   2.170   1.800  17.002 -2.2050  0.2509 -0.1973
 3499SOL     OW22132   4.652   3.213   4.004  0.3296  0.8891  0.4380
 3499SOL    HW122133   4.727   3.200   3.947  0.4836 -0.1476  0.8825
 3499SOL    HW222134   4.664   3.304   4.032 -1.3517  0.8491  1.3504
 3500SOL     OW22135   2.353   2.366   4.824  0.2740 -0.0579  0.1269
 3500SOL    HW122136   2.271   2.362   4.873 -0.0100 -2.3176 -0.5371
 3500SOL    HW222137   2.365   2.274   4.802  0.3714  0.0148 -0.1233
 3501SOL     OW22138   4.096   0.997   8.810 -0.5337 -0.0855  0.0386
 3501SOL    HW122139   4.139   1.037   8.886  2.3939 -0.4184 -1.4590
 3501SOL    HW222140   4.070   0.917   8.855 -2.3571 -0.5757 -1.9044
 3502SOL     OW22141   0.952   3.843  15.221  0.1531 -0.0583  0.4063
 3502SOL    HW122142   0.962   3.900  15.145  0.1627  1.4275  1.5228
 3502SOL    HW222143   0.970   3.906  15.290  0.5878  1.3723 -1.0192
 3503SOL     OW22144   2.823   4.700   8.019  0.1114 -0.3676  0.3264
 3503SOL    HW122145   2.810   4.720   8.111  0.4468  4.5672 -0.7035
 3503SOL    HW222146   2.850   4.608   8.027 -3.0196 -1.3315 -0.3697
 3504SOL     OW22147   0.002   3.329   5.003  0.1163 -0.0617 -0.0720
 3504SOL    HW122148   4.728   3.358   4.913  0.8509 -0.5480 -0.3141
 3504SOL    HW222149   0.060   3.253   4.997  0.9774  0.5167  0.9275
 3505SOL     OW22150   3.147   3.902   7.363  0.0230 -0.2998  0.4157
 3505SOL    HW122151   3.167   3.918   7.271 -1.1338  1.4147  0.4657
 3505SOL    HW222152   3.147   3.806   7.361  2.1330 -0.3506  3.2122
 3506SOL     OW22153   0.268   3.377   4.823 -0.5640  0.4372  0.3625
 3506SOL    HW122154   0.174   3.371   4.806 -0.3018 -0.3992 -0.7581
 3506SOL    HW222155   0.287   3.292   4.862 -2.2371  0.7311  1.8769
 3507SOL     OW22156   3.014   3.747   5.314 -0.1569  0.1085  0.2675
 3507SOL    HW122157   2.974   3.680   5.371 -0.6125  0.3986  0.2868
 3507SOL    HW222158   3.103   3.713   5.304 -0.8021 -1.1487 -1.1338
 3508SOL     OW22159   1.704   4.548   5.873 -0.0043  0.9720  0.2047
 3508SOL    HW122160   1.660   4.504   5.946 -1.9681  1.2490 -0.7918
 3508SOL    HW222161   1.667   4.503   5.797  0.8073  1.5546 -0.5248
 3509SOL     OW22162   2.626   1.196   6.101  0.0689  0.5580  0.6739
 3509SOL    HW122163   2.548   1.206   6.156  0.8168  0.4610  1.7547
 3509SOL    HW222164   2.695   1.162   6.158  0.0472  1.1832  1.0677
 3510SOL     OW22165   2.985   1.622   8.121 -0.3340 -0.7285 -0.4022
 3510SOL    HW122166   2.989   1.690   8.054 -1.5652 -1.8910 -1.6489
 3510SOL    HW222167   3.022   1.660   8.201 -0.1147  0.5344 -1.1217
 3511SOL     OW22168   1.907   1.776  15.740 -0.5401  0.1918  0.3076
 3511SOL    HW122169   1.830   1.748  15.791 -0.7135  1.8426  0.9382
 3511SOL    HW222170   1.973   1.721  15.782 -1.8228 -0.9456  0.8348
 3512SOL     OW22171   3.557   4.248   9.772 -0.0431  0.0179 -0.0771
 3512SOL    HW122172   3.529   4.157   9.768 -0.8290  0.3388 -2.0515
 3512SOL    HW222173   3.470   4.284   9.756 -0.5684 -0.2731  2.2275
 3513SOL     OW22174   3.669   0.933   4.818  0.6458  0.3498 -0.2387
 3513SOL    HW122175   3.699   0.900   4.903 -0.4592 -0.7002 -0.2717
 3513SOL    HW222176   3.622   0.858   4.783 -1.0098  0.3594  2.0054
 3514SOL     OW22177   1.523   0.815   8.795 -0.8745 -0.0228 -0.7456
 3514SOL    HW122178   1.548   0.905   8.778  0.4760 -0.2068  0.3116
 3514SOL    HW222179   1.494   0.789   8.707  0.6508 -2.6823 -0.4542
 3515SOL     OW22180   2.008   3.659   0.973  0.1842  0.1067 -0.6943
 3515SOL    HW122181   1.935   3.605   0.943  0.3598 -0.5505  0.0561
 3515SOL    HW222182   2.004   3.728   0.907 -1.8780  0.8116  0.1496
 3516SOL     OW22183   1.644   2.233  16.348 -0.3081  0.1455 -0.3661
 3516SOL    HW122184   1.734   2.229  16.315 -0.3090  2.2764 -0.5957
 3516SOL    HW222185   1.624   2.140  16.334 -0.1021  0.1113 -0.4280
 3517SOL     OW22186   4.250   1.500   8.333  0.5577  0.4080  0.3184
 3517SOL    HW122187   4.162   1.508   8.371  0.0344 -1.5675 -0.4362
 3517SOL    HW222188   4.306   1.535   8.402 -0.4271 -1.3492  2.0469
 3518SOL     OW22189   2.813   3.424   6.793 -0.0656  0.3731  0.2150
 3518SOL    HW122190   2.835   3.431   6.700 -1.2102 -1.8936 -0.2376
 3518SOL    HW222191   2.816   3.328   6.802 -1.0854  0.2130 -1.1691
 3519SOL     OW22192   3.526   4.143   8.891 -0.1560  0.3562 -0.5032
 3519SOL    HW122193   3.598   4.200   8.865 -0.3337 -0.8840 -3.6427
 3519SOL    HW222194   3.464   4.210   8.919  1.0581  0.1907  2.5879
 3520SOL     OW22195   0.623   1.340   3.567  0.8384  0.9729 -0.3046
 3520SOL    HW122196   0.548   1.293   3.532 -0.8223  2.2250  1.5788
 3520SOL    HW222197   0.638   1.424   3.526  1.0593  0.2468 -1.7057
 3521SOL     OW22198   4.480   0.580   2.832 -0.1760  0.6223 -0.5152
 3521SOL    HW122199   4.394   0.550   2.804  0.1003 -1.5939  1.0130
 3521SOL    HW222200   4.454   0.667   2.865 -2.5686 -0.4804  0.4687
 3522SOL     OW22201   4.294   3.172   5.539  0.0872  0.6244 -0.2392
 3522SOL    HW122202   4.355   3.145   5.608 -0.6886  1.0898  0.6226
 3522SOL    HW222203   4.304   3.268   5.539 -1.5139  0.7768  2.8926
 3523SOL     OW22204   0.617   3.631   5.497 -0.1817  0.0239 -0.7220
 3523SOL    HW122205   0.706   3.595   5.500  0.7664  2.4277 -0.0760
 3523SOL    HW222206   0.632   3.724   5.511 -0.8607  0.2574 -1.5401
 3524SOL     OW22207   3.241   3.278   8.919 -0.1525  0.7752 -0.1544
 3524SOL    HW122208   3.181   3.321   8.858  0.6810  1.8332 -0.2385
 3524SOL    HW222209   3.240   3.348   8.984  0.4108 -0.2726  0.9747
 3525SOL     OW22210   2.922   1.937   8.392  0.2211  0.0460 -0.1843
 3525SOL    HW122211   2.883   2.022   8.412 -0.1388 -0.9356  3.3465
 3525SOL    HW222212   2.847   1.878   8.400 -0.9752  1.7896  1.5085
 3526SOL     OW22213   3.276   1.700   6.089 -0.2670  0.4192 -0.0442
 3526SOL    HW122214   3.280   1.605   6.076 -0.7252  0.3416  0.3518
 3526SOL    HW222215   3.369   1.720   6.085 -0.2034 -0.6790 -4.5405
 3527SOL     OW22216   1.973   0.461  11.140 -0.4402 -0.3390  0.0735
 3527SOL    HW122217   2.032   0.386  11.135  1.6984  1.0947  3.4988
 3527SOL    HW222218   1.900   0.427  11.089 -0.7401  1.4058 -0.6499
 3528SOL     OW22219   0.896   4.426  11.505 -0.2924  0.4392 -0.7371
 3528SOL    HW122220   0.819   4.450  11.555 -0.0701  2.6955 -1.5084
 3528SOL    HW222221   0.860   4.441  11.418  2.0648 -0.2464 -1.8382
 3529SOL     OW22222   4.649   0.581  14.532  0.2166  0.4449 -0.3502
 3529SOL    HW122223   4.711   0.512  14.508 -0.4628  0.0338 -0.8817
 3529SOL    HW222224   4.639   0.625  14.448  0.6938 -0.5255 -0.9185
 3530SOL     OW22225   0.924   3.374   3.469 -0.2938  0.0086  0.3540
 3530SOL    HW122226   0.995   3.377   3.406  0.5453  0.6159  1.3460
 3530SOL    HW222227   0.955   3.307   3.530 -0.1060 -0.7798 -0.6085
 3531SOL     OW22228   3.967   2.871   5.008  0.1057 -0.1474  0.1087
 3531SOL    HW122229   4.006   2.817   4.939 -1.1031 -0.9132  0.0247
 3531SOL    HW222230   4.039   2.919   5.048  0.0360 -0.7810  0.9941
 3532SOL     OW22231   3.917   0.253   8.616  0.2847  0.5637 -0.0940
 3532SOL    HW122232   3.881   0.238   8.704 -1.8640  1.0577 -0.8817
 3532SOL    HW222233   3.843   0.223   8.564 -0.2921  2.4565 -0.3726
 3533SOL     OW22234   1.921   1.361   1.850  0.4935 -0.4381  0.2291
 3533SOL    HW122235   1.942   1.431   1.912  1.4871 -0.5477  0.0174
 3533SOL    HW222236   1.880   1.296   1.907 -1.3322  0.1266 -0.4218
 3534SOL     OW22237   0.524   1.215   4.496  0.3230  0.6501 -0.1542
 3534SOL    HW122238   0.489   1.207   4.585 -0.7091  2.5259 -0.4069
 3534SOL    HW222239   0.591   1.280   4.516 -0.1186  1.6158 -1.8121
 3535SOL     OW22240   0.432   1.800   9.711 -0.8115  0.1548 -0.1783
 3535SOL    HW122241   0.410   1.751   9.632 -0.7645  1.3164 -0.9083
 3535SOL    HW222242   0.417   1.729   9.773 -2.8338 -0.8726 -1.8293
 3536SOL     OW22243   3.954   2.540   5.743  0.0048 -0.2314  0.5209
 3536SOL    HW122244   3.995   2.620   5.710 -0.4086 -0.8746 -1.5242
 3536SOL    HW222245   3.948   2.492   5.661  1.1531 -1.2834  1.0594
 3537SOL     OW22246   2.497   2.554   6.617  0.2294  0.8488 -0.1218
 3537SOL    HW122247   2.436   2.542   6.690  0.5443 -1.5935 -0.2602
 3537SOL    HW222248   2.439   2.586   6.548  0.4959  2.3841  0.3746
 3538SOL     OW22249   2.539   3.196  10.643 -0.2095  0.7093 -0.1530
 3538SOL    HW122250   2.467   3.252  10.672 -1.1820 -0.2078 -0.8057
 3538SOL    HW222251   2.606   3.215  10.708  0.4410  0.9149 -0.8732
 3539SOL     OW22252   1.854   4.343   4.631  0.8926 -0.2972 -0.0342
 3539SOL    HW122253   1.830   4.370   4.543 -2.3394  0.6822  1.1455
 3539SOL    HW222254   1.860   4.248   4.617  2.9188 -0.5120  2.2480
 3540SOL     OW22255   2.457   4.190   4.423 -0.3089  0.2206 -0.0208
 3540SOL    HW122256   2.427   4.281   4.413 -1.1320 -0.3091 -2.4584
 3540SOL    HW222257   2.497   4.177   4.336 -0.8116 -1.5478  0.0163
 3541SOL     OW22258   1.112   4.004   2.858  0.5468  0.9484 -0.2930
 3541SOL    HW122259   1.078   4.072   2.799  0.3476  0.3336 -0.8884
 3541SOL    HW222260   1.122   3.936   2.792 -0.2717  0.5313  0.0133
 3542SOL     OW22261   4.240   1.783   4.173 -0.2790  0.2113 -0.2395
 3542SOL    HW122262   4.302   1.813   4.239  0.4782 -1.5295 -0.1450
 3542SOL    HW222263   4.243   1.688   4.184  2.8761  0.1183 -1.9606
 3543SOL     OW22264   1.611   1.003   1.825  0.2053 -0.5615 -0.1347
 3543SOL    HW122265   1.689   0.976   1.776 -0.7656 -3.1434 -0.2543
 3543SOL    HW222266   1.547   0.986   1.756  0.5915 -1.1212 -0.3607
 3544SOL     OW22267   1.050   0.873  11.459  0.1858 -0.4500  0.1496
 3544SOL    HW122268   0.997   0.812  11.408 -0.4110 -0.0699  0.3175
 3544SOL    HW222269   1.133   0.826  11.449  0.5269 -0.1926  1.7701
 3545SOL     OW22270   3.885   2.651   8.349 -0.2109 -0.5360  0.1983
 3545SOL    HW122271   3.927   2.568   8.375  0.6513  0.2628  1.3440
 3545SOL    HW222272   3.909   2.656   8.256 -1.7993 -2.0693 -0.2882
 3546SOL     OW22273   4.243   3.212   5.270  0.0409 -0.5024  0.1841
 3546SOL    HW122274   4.265   3.191   5.360  1.9477  0.1000 -0.1564
 3546SOL    HW222275   4.329   3.212   5.230 -0.1422  0.5583 -0.1906
 3547SOL     OW22276   4.613   3.721  16.214 -0.3611  0.6075  0.1611
 3547SOL    HW122277   4.662   3.792  16.173  0.1767 -0.7975 -1.6386
 3547SOL    HW222278   4.549   3.707  16.144  0.8814  0.0256 -0.8548
 3548SOL     OW22279   1.133   3.065  13.375 -0.0748 -0.8996  0.1284
 3548SOL    HW122280   1.135   3.161  13.383 -0.6975 -0.8072 -0.8356
 3548SOL    HW222281   1.191   3.027  13.441  1.7056  1.1256 -0.2587
 3549SOL     OW22282   3.785   1.834   5.639 -0.5528 -0.2634 -0.3967
 3549SOL    HW122283   3.789   1.779   5.717  0.1712 -1.9233 -1.6006
 3549SOL    HW222284   3.701   1.802   5.606  0.4531 -2.2400 -1.0564
 3550SOL     OW22285   4.023   2.913   2.596  0.2740 -0.4305  0.6469
 3550SOL    HW122286   3.956   2.978   2.617  0.2501 -0.0305 -0.6694
 3550SOL    HW222287   4.014   2.838   2.655 -2.6037  1.1460  2.1801
 3551SOL     OW22288   2.818   4.150   8.886  0.3209  0.3521 -0.6075
 3551SOL    HW122289   2.906   4.175   8.857  0.2849  0.0983 -0.9386
 3551SOL    HW222290   2.769   4.169   8.806 -0.0877 -1.0897 -0.6948
 3552SOL     OW22291   0.112   1.975   5.637 -0.0473 -0.1311 -0.6666
 3552SOL    HW122292   0.031   2.024   5.649  0.5344  0.8192 -0.5992
 3552SOL    HW222293   0.078   1.886   5.640  1.5973 -0.6761  2.6208
 3553SOL     OW22294   0.125   0.071   2.663  0.6347 -0.1115  0.3082
 3553SOL    HW122295   0.162   0.106   2.581  0.9170 -2.1376 -0.4396
 3553SOL    HW222296   0.130   4.713   2.645 -0.4599  0.2612 -1.9687
 3554SOL     OW22297   1.387   0.063  12.681  0.4251 -0.1209  0.0005
 3554SOL    HW122298   1.460   0.007  12.654 -0.2284  0.1773 -2.3886
 3554SOL    HW222299   1.366   0.120  12.607  0.6182  1.1276  0.8919
 3555SOL     OW22300   0.004   3.473  16.555 -0.3811 -0.4688  0.3146
 3555SOL    HW122301   4.675   3.402  16.560 -0.5231 -0.2381  1.8834
 3555SOL    HW222302   0.053   3.455  16.475 -1.6114  1.4133 -0.8480
 3556SOL     OW22303   3.405   1.887   8.121 -0.1017 -0.0782  0.4582
 3556SOL    HW122304   3.397   1.915   8.030  2.1310  0.7140  0.5269
 3556SOL    HW222305   3.395   1.967   8.173  3.0141  1.0277 -0.6732
 3557SOL     OW22306   1.683   3.769   8.383 -0.2664 -0.3891 -0.3318
 3557SOL    HW122307   1.710   3.823   8.458  1.1867 -0.6967 -0.6412
 3557SOL    HW222308   1.637   3.699   8.429  0.1013  0.5320  1.4545
 3558SOL     OW22309   0.235   2.251   2.333 -0.0558 -0.1130  0.5778
 3558SOL    HW122310   0.231   2.345   2.314 -0.4730 -0.5578 -1.5969
 3558SOL    HW222311   0.303   2.211   2.279 -1.7790 -2.1597 -0.1343
 3559SOL     OW22312   1.847   0.494   7.674 -0.3100 -0.2054  0.3820
 3559SOL    HW122313   1.882   0.582   7.690 -0.9512  0.3517 -1.2831
 3559SOL    HW222314   1.784   0.477   7.744  1.9919 -0.6214  2.3734
 3560SOL     OW22315   4.303   1.980   9.886  0.1843  0.1263 -0.0204
 3560SOL    HW122316   4.274   2.060   9.842 -0.0147 -0.1240 -0.3383
 3560SOL    HW222317   4.225   1.930   9.908  0.3774  0.8105  2.2569
 3561SOL     OW22318   0.306   1.635   3.471 -0.4040 -0.0688 -0.4602
 3561SOL    HW122319   0.400   1.634   3.450 -0.1535  0.1168  0.6877
 3561SOL    HW222320   0.269   1.576   3.405 -0.0994  0.1683 -0.8456
 3562SOL     OW22321   0.639   4.472   4.294  0.1675 -0.2593 -0.0231
 3562SOL    HW122322   0.602   4.487   4.207 -0.3848  0.4620  0.3295
 3562SOL    HW222323   0.623   4.554   4.342  1.9729  1.1619 -1.8481
 3563SOL     OW22324   2.443   0.250   7.444 -0.4695 -0.4279 -0.1312
 3563SOL    HW122325   2.362   0.200   7.458 -0.9192  0.0967 -0.8340
 3563SOL    HW222326   2.462   0.275   7.534 -3.0308  0.0315  0.2918
 3564SOL     OW22327   0.571   2.671   7.791  0.5763 -0.0929 -0.0561
 3564SOL    HW122328   0.516   2.664   7.869 -1.9214 -1.2470 -1.8990
 3564SOL    HW222329   0.507   2.655   7.721  0.2814  0.6843  0.0373
 3565SOL     OW22330   4.326   0.879  10.090  0.0740 -0.2437  0.2453
 3565SOL    HW122331   4.344   0.965  10.127 -1.3401  0.4288 -0.6271
 3565SOL    HW222332   4.269   0.849  10.162  0.7345 -2.3081 -0.0932
 3566SOL     OW22333   2.002   2.590   2.893  0.3836  0.5236 -0.4359
 3566SOL    HW122334   1.957   2.634   2.965 -0.1928  1.0929 -1.1346
 3566SOL    HW222335   1.996   2.657   2.824  0.7893 -0.9641 -1.9076
 3567SOL     OW22336   4.239   2.921  11.445 -0.3445 -0.0710 -0.3485
 3567SOL    HW122337   4.185   2.858  11.493 -2.8498  2.8914  0.7703
 3567SOL    HW222338   4.324   2.886  11.470 -0.8690 -0.5990  0.6865
 3568SOL     OW22339   1.654   3.822   9.720  0.7316  0.4748  0.0684
 3568SOL    HW122340   1.603   3.902   9.715  1.8452  1.2386  1.0314
 3568SOL    HW222341   1.603   3.743   9.740  1.5340  0.2406  1.1781
 3569SOL     OW22342   1.494   1.670   8.005 -1.0845 -0.0504 -0.1208
 3569SOL    HW122343   1.549   1.604   7.964  1.9559  0.9094  2.4068
 3569SOL    HW222344   1.546   1.749   8.021 -0.4207 -0.7505  1.1985
 3570SOL     OW22345   4.607   2.623   0.517 -0.2207 -0.1948  0.2446
 3570SOL    HW122346   4.690   2.625   0.470  0.9379 -1.3391  2.2868
 3570SOL    HW222347   4.636   2.638   0.606  1.1584 -1.5382  0.0132
 3571SOL     OW22348   0.357   0.132   7.303 -0.0417 -0.2136 -0.3125
 3571SOL    HW122349   0.379   0.060   7.244 -0.2873 -0.1394 -0.4953
 3571SOL    HW222350   0.284   0.097   7.354 -0.4961 -1.3966 -1.7741
 3572SOL     OW22351   2.924   3.314  14.904  0.0020  0.0541  0.4094
 3572SOL    HW122352   2.896   3.297  14.994 -0.0933 -0.7514  0.2278
 3572SOL    HW222353   2.885   3.400  14.891  1.2044  0.4858 -0.3550
 3573SOL     OW22354   2.221   2.684  12.959 -0.0512 -0.6329  0.2231
 3573SOL    HW122355   2.274   2.762  12.975 -0.9211 -0.0671  0.3330
 3573SOL    HW222356   2.284   2.612  12.972  0.2148 -0.7427 -1.6956
 3574SOL     OW22357   1.373   3.512   4.350  0.0117 -0.0341  0.7679
 3574SOL    HW122358   1.349   3.527   4.258 -0.1958  0.7093  0.9432
 3574SOL    HW222359   1.444   3.447   4.345 -1.1291 -1.1745 -0.7478
 3575SOL     OW22360   4.022   4.427   8.390  0.3398 -0.1481  0.1689
 3575SOL    HW122361   3.968   4.437   8.311  0.6572  0.7618  0.0591
 3575SOL    HW222362   4.095   4.488   8.376  0.4420  0.0855  1.7038
 3576SOL     OW22363   0.455   2.871   9.035 -0.1080 -0.0981 -0.1418
 3576SOL    HW122364   0.464   2.927   9.112 -1.2328  1.4493 -1.1391
 3576SOL    HW222365   0.547   2.874   9.008  0.5716  2.5200  2.5185
 3577SOL     OW22366   3.437   4.570   9.121 -0.0897 -0.1768  0.3890
 3577SOL    HW122367   3.401   4.481   9.114 -0.1845 -0.0242 -1.0688
 3577SOL    HW222368   3.475   4.563   9.209  2.9919 -0.1954 -0.9493
 3578SOL     OW22369   4.229   3.508   0.570 -0.0691  0.1355 -0.2051
 3578SOL    HW122370   4.300   3.568   0.548 -0.4632  0.6531 -0.0683
 3578SOL    HW222371   4.203   3.469   0.487 -1.2807 -0.0326  0.2525
 3579SOL     OW22372   2.251   2.126   6.407 -0.1210  0.1758  0.5678
 3579SOL    HW122373   2.310   2.052   6.416 -2.9619 -2.0869  0.4034
 3579SOL    HW222374   2.165   2.087   6.393 -0.4649  0.6882  1.2263
 3580SOL     OW22375   2.995   2.594   1.413  0.0305 -0.2210 -0.1335
 3580SOL    HW122376   3.011   2.514   1.463 -1.2683 -0.4605 -0.1089
 3580SOL    HW222377   3.067   2.638   1.458 -1.1503  1.8316 -0.2600
 3581SOL     OW22378   3.585   4.727   9.869  0.1932  0.1383  0.1179
 3581SOL    HW122379   3.547   4.672   9.800  2.0561 -0.2917 -0.5493
 3581SOL    HW222380   3.607   0.068   9.816 -1.1325  1.4667  1.4905
 3582SOL     OW22381   0.669   4.639   4.561 -0.1706 -0.4789  0.6890
 3582SOL    HW122382   0.593   4.696   4.573 -1.3705 -1.7993 -0.4458
 3582SOL    HW222383   0.637   4.559   4.605 -0.6055  0.3316  1.8399
 3583SOL     OW22384   1.494   2.101  14.083  0.0485 -0.1072  0.4384
 3583SOL    HW122385   1.429   2.042  14.044  0.8187 -0.9950  0.4754
 3583SOL    HW222386   1.513   2.050  14.162 -0.9354  0.7292  1.2095
 3584SOL     OW22387   2.631   0.948   6.563  0.1417 -0.2077 -0.1697
 3584SOL    HW122388   2.710   0.975   6.609 -0.1989  0.6543 -0.0952
 3584SOL    HW222389   2.674   0.905   6.488 -0.3454  0.3666 -0.7757
 3585SOL     OW22390   3.393   2.606  12.835  0.1912 -0.1100  0.4729
 3585SOL    HW122391   3.460   2.591  12.768  0.0486  0.3175  0.2288
 3585SOL    HW222392   3.306   2.618  12.798  0.7436  1.0338 -0.4733
 3586SOL     OW22393   3.277   4.160   2.339 -0.1297 -0.4332 -0.0693
 3586SOL    HW122394   3.211   4.091   2.348 -0.7402  0.0661 -0.7206
 3586SOL    HW222395   3.352   4.105   2.318 -0.4773 -0.3781 -1.4192
 3587SOL     OW22396   0.840   0.145   6.870  0.0486  0.1104  0.4861
 3587SOL    HW122397   0.750   0.146   6.837 -0.5963 -2.6958  2.1731
 3587SOL    HW222398   0.861   0.052   6.867  1.0374  0.3710 -0.3760
 3588SOL     OW22399   2.043   3.130   7.533  0.0219  0.1701 -0.3880
 3588SOL    HW122400   2.020   3.037   7.541  3.8987 -0.6619  1.3008
 3588SOL    HW222401   2.016   3.151   7.444 -0.9295  0.0946 -0.1152
 3589SOL     OW22402   2.186   2.553   1.829  0.4832 -0.1124 -0.6903
 3589SOL    HW122403   2.098   2.548   1.867  0.7884  0.6256  0.1386
 3589SOL    HW222404   2.239   2.509   1.896 -0.0474 -0.3346 -0.4166
 3590SOL     OW22405   2.852   0.051   4.710 -0.6546  0.8018  0.4809
 3590SOL    HW122406   2.867   0.016   4.798 -0.4636 -1.6553 -0.5095
 3590SOL    HW222407   2.916   0.004   4.656 -1.7659 -0.4735  0.2740
 3591SOL     OW22408   3.549   4.554   1.928 -0.1957  0.2355  0.4149
 3591SOL    HW122409   3.632   4.599   1.942 -0.9169  1.6429  0.0691
 3591SOL    HW222410   3.492   4.629   1.918 -0.5248 -0.0540  0.1451
 3592SOL     OW22411   2.954   2.797   0.341  0.5893 -0.5868  0.2779
 3592SOL    HW122412   2.890   2.793   0.270  0.5025  0.5009  0.2915
 3592SOL    HW222413   3.023   2.845   0.296  2.0830 -2.8172  0.2080
 3593SOL     OW22414   3.450   2.272   7.994 -0.2964 -0.7824  0.2975
 3593SOL    HW122415   3.436   2.215   8.069  1.6735  1.0560  2.0563
 3593SOL    HW222416   3.364   2.305   7.968 -0.0553  0.6041  1.2717
 3594SOL     OW22417   0.261   4.445  15.024  0.1539  0.3249 -0.4814
 3594SOL    HW122418   0.351   4.419  15.001  0.5599  1.4380 -0.1405
 3594SOL    HW222419   0.293   4.510  15.087 -0.6811 -1.9474  2.2462
 3595SOL     OW22420   0.641   4.525   3.462  0.1814  0.0709 -0.1094
 3595SOL    HW122421   0.629   4.519   3.557 -0.0790  0.2859 -0.1278
 3595SOL    HW222422   0.715   4.585   3.469  0.4527 -0.1436 -1.2793
 3596SOL     OW22423   3.406   2.275  12.346 -0.2565 -0.2444  0.2173
 3596SOL    HW122424   3.460   2.197  12.332  0.2709  0.2834 -0.6565
 3596SOL    HW222425   3.354   2.280  12.266 -0.1372 -0.0891  0.1508
 3597SOL     OW22426   2.168   0.639   7.839  0.2327  0.0937 -0.4735
 3597SOL    HW122427   2.133   0.560   7.796  0.5293  0.5556 -1.5682
 3597SOL    HW222428   2.248   0.601   7.875 -0.2430  0.5150  1.0030
 3598SOL     OW22429   0.115   3.790   9.666 -0.1475  0.2223 -0.0597
 3598SOL    HW122430   0.082   3.710   9.625  0.1725 -0.3156  0.7588
 3598SOL    HW222431   0.081   3.852   9.601  0.2222  0.3070 -0.1727
 3599SOL     OW22432   3.416   3.873   1.232  0.3914  0.2886  0.4518
 3599SOL    HW122433   3.397   3.960   1.198  3.2399  0.0684 -1.7097
 3599SOL    HW222434   3.504   3.881   1.268  0.7133  1.6406 -0.6184
 3600SOL     OW22435   0.985   4.730  13.775 -0.5666  0.9253  0.7058
 3600SOL    HW122436   0.959   0.031  13.859  0.7575 -1.9672  2.4064
 3600SOL    HW222437   1.076   4.709  13.795 -0.6824  2.0506  2.3727
 3601SOL     OW22438   3.135   3.822   9.472 -0.3700 -0.5809  0.2442
 3601SOL    HW122439   3.121   3.733   9.504  1.4319 -1.1649 -0.6164
 3601SOL    HW222440   3.176   3.797   9.389  1.5520  0.4093  0.8985
 3602SOL     OW22441   4.579   3.449  16.064 -0.0541 -0.2671 -0.8022
 3602SOL    HW122442   4.544   3.522  16.013 -0.6791  0.0893  0.1325
 3602SOL    HW222443   4.554   3.369  16.017  2.2299 -0.4633 -1.6781
 3603SOL     OW22444   2.943   0.089  17.448 -1.0962 -0.1210  0.0948
 3603SOL    HW122445   2.948   0.063  17.540  0.0031  0.2485  0.1375
 3603SOL    HW222446   2.866   0.146  17.449 -0.8430  0.1924  3.6995
 3604SOL     OW22447   1.695   0.130   3.399  0.9718 -0.3379  0.1587
 3604SOL    HW122448   1.745   0.100   3.475 -0.0843 -0.2750  0.8671
 3604SOL    HW222449   1.626   0.065   3.392  1.2574 -0.6522  0.2718
 3605SOL     OW22450   0.429   4.547  16.976  0.0743  0.4955  0.2001
 3605SOL    HW122451   0.388   4.589  17.052  1.6090  1.4623  0.4784
 3605SOL    HW222452   0.377   4.468  16.958 -0.6719  0.8723  0.6821
 3606SOL     OW22453   2.909   2.812   7.474 -0.3773  0.2285 -0.2888
 3606SOL    HW122454   2.973   2.761   7.425  1.7453  1.2149  1.4360
 3606SOL    HW222455   2.847   2.740   7.464 -1.2986  0.7001  2.2061
 3607SOL     OW22456   3.565   1.016   5.985  0.2227  0.2304  0.2915
 3607SOL    HW122457   3.534   1.082   6.046  0.9736  0.9232 -0.0770
 3607SOL    HW222458   3.500   0.949   6.006  0.0425  0.1200 -0.6188
 3608SOL     OW22459   3.625   2.827  10.682  0.0088  0.0086 -0.2553
 3608SOL    HW122460   3.644   2.897  10.620 -0.3059 -0.8716 -1.3329
 3608SOL    HW222461   3.582   2.881  10.749 -2.2742 -0.7298 -1.1518
 3609SOL     OW22462   4.578   1.747  17.328  0.4365 -0.0681 -0.0412
 3609SOL    HW122463   4.652   1.728  17.386  0.5639  0.9072  0.1275
 3609SOL    HW222464   4.617   1.815  17.273 -0.0607  1.6670  1.7060
 3610SOL     OW22465   3.951   3.163   8.139 -0.3270 -0.5712  0.0345
 3610SOL    HW122466   3.936   3.093   8.076 -1.1512 -0.9697  0.6707
 3610SOL    HW222467   3.946   3.106   8.215  0.6412 -1.7658 -0.8105
 3611SOL     OW22468   1.701   3.918   1.032 -1.0279 -0.0423  0.3680
 3611SOL    HW122469   1.631   3.937   0.969  0.2276 -0.8974 -1.3132
 3611SOL    HW222470   1.676   3.987   1.094 -1.0612 -0.7402  1.1173
 3612SOL     OW22471   1.057   2.229  11.095  0.7067  0.0683 -0.3232
 3612SOL    HW122472   1.073   2.215  11.002 -1.7680 -0.5493 -0.6607
 3612SOL    HW222473   1.038   2.322  11.085 -1.5064 -0.1518  1.6633
 3613SOL     OW22474   3.539   1.891   8.584  0.3514  0.3383  0.3578
 3613SOL    HW122475   3.583   1.816   8.623  2.3613 -0.2272 -3.0317
 3613SOL    HW222476   3.461   1.854   8.541  2.0177 -5.9686  2.7933
 3614SOL     OW22477   3.045   1.251  14.555  0.0920  0.3346  0.1133
 3614SOL    HW122478   3.001   1.205  14.483  2.6113 -1.5402 -0.2303
 3614SOL    HW222479   3.109   1.185  14.581 -1.6289 -1.1324  0.6180
 3615SOL     OW22480   3.470   2.633  13.109 -0.2864 -0.0793 -0.5866
 3615SOL    HW122481   3.454   2.668  13.022  1.2417 -2.1108 -1.6887
 3615SOL    HW222482   3.394   2.669  13.155  0.4106  2.7757 -1.6714
 3616SOL     OW22483   2.465   0.834   2.493  0.1922  0.1425 -0.1606
 3616SOL    HW122484   2.538   0.816   2.435  0.5007  0.5949  0.0846
 3616SOL    HW222485   2.416   0.896   2.438  0.1775  0.3369  0.0691
 3617SOL     OW22486   1.857   0.320  13.779  0.0772  0.1166  0.1419
 3617SOL    HW122487   1.890   0.257  13.844 -2.0535  0.8385  1.9415
 3617SOL    HW222488   1.766   0.339  13.802 -0.0373  0.7986 -0.9114
 3618SOL     OW22489   3.729   1.397   7.958  0.0161  0.4463  0.1534
 3618SOL    HW122490   3.731   1.302   7.964 -0.9203  0.3768 -0.6022
 3618SOL    HW222491   3.640   1.421   7.983  0.6231 -0.3081  3.0073
 3619SOL     OW22492   1.211   3.190  10.068  0.5642  0.1487 -0.1103
 3619SOL    HW122493   1.136   3.168  10.124 -1.6217  2.7472 -2.0413
 3619SOL    HW222494   1.221   3.281  10.097  2.7424 -0.8849  2.4063
 3620SOL     OW22495   3.643   2.004  16.137  0.4020  0.1652  0.0589
 3620SOL    HW122496   3.600   2.089  16.144  1.3335  0.5599  0.8572
 3620SOL    HW222497   3.612   1.956  16.213  0.0697  0.4059  0.0756
 3621SOL     OW22498   0.267   4.302   0.002 -0.0722 -0.2850  0.0365
 3621SOL    HW122499   0.362   4.291   0.001 -0.3474 -2.4586 -1.9136
 3621SOL    HW222500   0.237   4.250   0.077  1.0652 -1.8534 -0.5930
 3622SOL     OW22501   4.162   1.223   3.930 -0.2894  0.2676 -0.1148
 3622SOL    HW122502   4.108   1.151   3.964 -0.7386  1.1165  0.9970
 3622SOL    HW222503   4.100   1.283   3.888  1.4544  1.1939 -1.3414
 3623SOL     OW22504   3.525   2.698   6.910 -0.2531 -0.6542  0.6337
 3623SOL    HW122505   3.513   2.693   6.815  1.1565 -1.8168  0.5079
 3623SOL    HW222506   3.554   2.786   6.931 -0.8379 -0.6053  1.2439
 3624SOL     OW22507   4.432   4.357   5.165 -0.2211  0.0504 -0.1590
 3624SOL    HW122508   4.411   4.409   5.088 -0.1287 -0.2322 -0.3731
 3624SOL    HW222509   4.366   4.289   5.157  0.4169 -0.4292 -1.4026
 3625SOL     OW22510   0.633   3.344   2.297 -0.3750 -0.7097  0.2037
 3625SOL    HW122511   0.614   3.431   2.262  0.7787 -1.3379 -1.9965
 3625SOL    HW222512   0.649   3.364   2.390  0.5638  0.4972 -0.2146
 3626SOL     OW22513   3.745   0.705   7.502 -0.1045 -0.0687  0.5352
 3626SOL    HW122514   3.756   0.613   7.477 -0.0841  0.3132 -0.8627
 3626SOL    HW222515   3.744   0.744   7.415 -0.0030 -0.2215  0.4662
 3627SOL     OW22516   2.623   0.143   3.244 -0.3207 -0.6477  0.4532
 3627SOL    HW122517   2.699   0.192   3.215 -1.8881  1.1642 -0.5602
 3627SOL    HW222518   2.651   0.121   3.333  0.3455  0.4220  0.5008
 3628SOL     OW22519   3.679   1.625  17.082  0.2308  0.1419  0.2409
 3628SOL    HW122520   3.700   1.556  17.018  0.6233 -0.7549  1.3334
 3628SOL    HW222521   3.725   1.585  17.156  0.5512  2.8740  1.5148
 3629SOL     OW22522   1.783   3.873  10.577 -0.3829 -0.2362 -0.1355
 3629SOL    HW122523   1.771   3.964  10.604  0.1107 -0.2534  0.1613
 3629SOL    HW222524   1.878   3.869  10.564 -0.2717 -0.7137  0.7982
 3630SOL     OW22525   2.695   2.754   3.827  0.3666  0.1617  0.0635
 3630SOL    HW122526   2.636   2.783   3.897  1.2858  1.0038  0.4785
 3630SOL    HW222527   2.757   2.706   3.882 -0.1909  0.1370  0.6781
 3631SOL     OW22528   3.486   3.826  12.481 -0.3491 -0.4081  0.7912
 3631SOL    HW122529   3.562   3.846  12.535  0.1840 -0.1737 -0.0402
 3631SOL    HW222530   3.424   3.802  12.550 -0.8684  0.7697  0.7317
 3632SOL     OW22531   4.687   4.385  14.146 -0.2559  0.1782  0.0677
 3632SOL    HW122532   0.023   4.440  14.114 -0.1350 -0.3989 -0.6309
 3632SOL    HW222533   4.665   4.421  14.232 -0.2274  1.2884 -0.3950
 3633SOL     OW22534   4.660   1.458   2.605 -0.4868  0.0890 -0.1703
 3633SOL    HW122535   4.635   1.450   2.698  1.6762  2.3869  0.6065
 3633SOL    HW222536   4.699   1.374   2.584 -1.6645 -0.5323  0.1277
 3634SOL     OW22537   3.001   3.311   9.909 -0.0676  0.0997  0.3269
 3634SOL    HW122538   3.085   3.275   9.879  0.2061  0.4684  0.6539
 3634SOL    HW222539   2.974   3.261   9.986 -1.2362 -0.0230 -0.1669
 3635SOL     OW22540   2.825   0.046  13.909 -0.5440  0.2665  0.3058
 3635SOL    HW122541   2.873   0.078  13.833 -2.5118  2.2043 -0.0983
 3635SOL    HW222542   2.784   0.126  13.939 -1.9450  0.0715 -1.1026
 3636SOL     OW22543   0.242   0.363   7.176 -0.2678  0.4320  0.1961
 3636SOL    HW122544   0.274   0.428   7.239 -3.6691 -0.1752  2.5721
 3636SOL    HW222545   0.268   0.286   7.226 -2.1965  1.5062  2.8446
 3637SOL     OW22546   2.714   4.118   3.282 -0.4190 -0.2255  0.0592
 3637SOL    HW122547   2.801   4.154   3.295 -0.7115 -0.0809  1.6159
 3637SOL    HW222548   2.713   4.039   3.337  0.6728  0.3105  0.8297
 3638SOL     OW22549   2.161   4.230   8.933 -0.1807  0.2516 -0.4417
 3638SOL    HW122550   2.203   4.316   8.924  1.0176 -0.3171 -0.3415
 3638SOL    HW222551   2.201   4.203   9.016 -2.4523  1.4170  1.0519
 3639SOL     OW22552   4.609   2.700   9.272 -0.2750 -0.4028  0.0355
 3639SOL    HW122553   4.568   2.773   9.317 -0.6303 -1.4422  1.3915
 3639SOL    HW222554   4.655   2.664   9.347  0.5721  0.9732  0.1681
 3640SOL     OW22555   3.851   0.292   3.068  1.0191  0.3798 -0.3789
 3640SOL    HW122556   3.943   0.269   3.065  0.8506 -0.0341 -3.0845
 3640SOL    HW222557   3.830   0.319   2.978 -4.1504  1.0834  1.0013
 3641SOL     OW22558   1.021   3.305   8.730 -0.5299 -0.3004  0.6342
 3641SOL    HW122559   1.094   3.367   8.743 -0.4010  0.4548 -3.6387
 3641SOL    HW222560   1.013   3.253   8.810 -0.1436 -1.6608 -0.2219
 3642SOL     OW22561   4.069   0.633   0.876  0.4385  0.4737  0.0423
 3642SOL    HW122562   4.089   0.611   0.785  0.9174 -0.3431  0.3411
 3642SOL    HW222563   4.047   0.724   0.859 -1.8797 -0.2809 -1.0801
 3643SOL     OW22564   3.173   0.994   3.712  0.1279 -0.3448  0.1911
 3643SOL    HW122565   3.135   0.953   3.634 -1.0717 -1.0304  1.1351
 3643SOL    HW222566   3.114   0.960   3.779  2.7139 -1.7108  1.7539
 3644SOL     OW22567   4.276   3.659   1.548  0.5522 -0.0784  0.1227
 3644SOL    HW122568   4.248   3.574   1.516 -2.4119  1.5832 -1.7542
 3644SOL    HW222569   4.324   3.642   1.629  0.2066 -0.1256  0.3156
 3645SOL     OW22570   4.276   3.375  15.017 -0.4018  0.1565 -0.2302
 3645SOL    HW122571   4.227   3.361  14.936 -0.9815  0.0978  0.1317
 3645SOL    HW222572   4.332   3.298  15.026  2.0839  2.0248  0.2501
 3646SOL     OW22573   1.546   2.645  16.449 -0.6156  0.0617  0.4258
 3646SOL    HW122574   1.504   2.695  16.379  4.2836  0.7970 -1.9873
 3646SOL    HW222575   1.500   2.686  16.522  0.5233 -1.3213  1.9225
 3647SOL     OW22576   3.514   2.645   6.222 -0.0386 -0.1519 -0.2053
 3647SOL    HW122577   3.499   2.580   6.154  1.7507  1.0399 -1.7173
 3647SOL    HW222578   3.607   2.662   6.212  0.4890 -0.6995  3.6106
 3648SOL     OW22579   2.461   1.379   2.621  0.1269  0.2186 -0.2905
 3648SOL    HW122580   2.485   1.290   2.597  1.2457  0.4619 -0.0711
 3648SOL    HW222581   2.378   1.392   2.575 -0.3917 -1.3522  0.1901
 3649SOL     OW22582   0.623   2.803  10.972 -0.2967  0.0513 -0.1019
 3649SOL    HW122583   0.680   2.844  10.908  1.2783 -0.8232  0.7380
 3649SOL    HW222584   0.635   2.854  11.052 -2.9701  0.4977  0.0415
 3650SOL     OW22585   0.539   3.052  11.763 -0.0999 -0.3668 -0.2306
 3650SOL    HW122586   0.577   3.128  11.806  0.3654 -2.1590  2.5732
 3650SOL    HW222587   0.612   2.990  11.758 -0.5124 -0.9634  1.0403
 3651SOL     OW22588   0.732   3.389   2.572  0.4320  0.8801 -0.0052
 3651SOL    HW122589   0.792   3.463   2.566 -0.7524  1.8406  0.0552
 3651SOL    HW222590   0.687   3.417   2.651 -1.4445  1.7111 -1.3578
 3652SOL     OW22591   0.958   2.316  10.374  0.2627  0.3034 -0.1785
 3652SOL    HW122592   0.925   2.404  10.356 -1.1082 -0.0566  0.6305
 3652SOL    HW222593   1.026   2.318  10.306 -0.7781 -4.3660 -1.3969
 3653SOL     OW22594   1.663   3.310   3.582 -0.6375  0.0571 -0.5090
 3653SOL    HW122595   1.634   3.397   3.556  1.5515  1.2295  0.9988
 3653SOL    HW222596   1.689   3.326   3.672 -0.1241  0.3778 -0.7161
 3654SOL     OW22597   1.451   3.699   6.410 -0.9180 -0.6689 -0.0460
 3654SOL    HW122598   1.501   3.765   6.363  1.5497 -1.1825  1.8938
 3654SOL    HW222599   1.374   3.745   6.443  1.0858  2.5951  0.0898
 3655SOL     OW22600   1.961   0.718   5.194  0.0626  0.1123  0.2901
 3655SOL    HW122601   2.021   0.789   5.172  1.0181 -0.0587  2.3002
 3655SOL    HW222602   2.011   0.655   5.245 -0.1746  0.5051  1.0169
 3656SOL     OW22603   4.036   1.761   7.352 -0.5340  0.1327 -0.1726
 3656SOL    HW122604   3.941   1.768   7.346 -0.2738  2.2968 -1.6096
 3656SOL    HW222605   4.043   1.738   7.259  0.0079 -0.6384  0.0522
 3657SOL     OW22606   3.383   0.007   7.523 -0.2123 -0.0258  0.1126
 3657SOL    HW122607   3.360   0.073   7.458  0.9970  1.0173  0.7360
 3657SOL    HW222608   3.304   4.689   7.516  1.2109 -1.7665 -2.6238
 3658SOL     OW22609   4.024   0.385   1.766 -0.3462 -0.4574 -0.7085
 3658SOL    HW122610   3.993   0.461   1.718  0.6418 -0.5138 -1.4225
 3658SOL    HW222611   3.940   0.340   1.775 -2.3582  3.5624  0.3690
 3659SOL     OW22612   1.546   0.871   4.032 -0.2129 -0.3952  0.0816
 3659SOL    HW122613   1.590   0.789   4.056 -0.4489 -1.1811 -2.0716
 3659SOL    HW222614   1.466   0.873   4.085 -0.3046 -0.4406 -0.0538
 3660SOL     OW22615   3.884   1.349   9.304  0.2332 -0.7397  0.0626
 3660SOL    HW122616   3.956   1.319   9.249  1.1582 -0.4954  1.1386
 3660SOL    HW222617   3.837   1.272   9.334 -1.5461  1.7447  3.7280
 3661SOL     OW22618   2.068   0.319  10.849  0.1174 -0.0093  0.0296
 3661SOL    HW122619   2.079   0.270  10.767 -1.5148 -0.5875  0.1580
 3661SOL    HW222620   2.075   0.409  10.816 -1.3018  0.4628  1.0142
 3662SOL     OW22621   4.210   1.812  11.733  0.6814  0.0108  0.5431
 3662SOL    HW122622   4.273   1.779  11.797  1.2950 -0.6730 -0.4186
 3662SOL    HW222623   4.266   1.878  11.692  0.4537  0.5801  1.1586
 3663SOL     OW22624   4.178   2.695   4.003  0.0730  0.3473  0.3971
 3663SOL    HW122625   4.250   2.692   4.066 -0.3289 -0.4620  0.8190
 3663SOL    HW222626   4.158   2.787   4.015  1.0569  0.6366 -0.1494
 3664SOL     OW22627   4.218   0.367   2.470  0.3096 -0.1417 -0.0489
 3664SOL    HW122628   4.202   0.422   2.546  1.7273 -0.0259  0.1679
 3664SOL    HW222629   4.128   0.370   2.436 -0.2261  0.9509  1.4417
 3665SOL     OW22630   1.058   0.937   9.031  0.7138  0.0662  0.7131
 3665SOL    HW122631   1.006   0.864   9.065  2.2044 -1.3985 -0.1594
 3665SOL    HW222632   1.146   0.908   9.055  1.0156  1.7102  1.6311
 3666SOL     OW22633   3.358   1.643   5.631  0.6099 -0.1017 -0.0518
 3666SOL    HW122634   3.383   1.574   5.691 -0.0154  0.0112  0.3429
 3666SOL    HW222635   3.327   1.710   5.692  1.7808 -0.4594  0.9186
 3667SOL     OW22636   1.592   3.163   8.066 -0.3179  0.4296  0.3714
 3667SOL    HW122637   1.612   3.235   8.008 -0.5267  1.1113  1.1472
 3667SOL    HW222638   1.586   3.083   8.013  0.6136  0.1862  0.6227
 3668SOL     OW22639   3.291   4.233   1.482  0.6662  0.0785  0.4781
 3668SOL    HW122640   3.209   4.265   1.445  0.6359  0.1373  0.5928
 3668SOL    HW222641   3.284   4.138   1.481 -0.0734  0.1425 -0.1502
 3669SOL     OW22642   0.341   2.415   4.332 -0.1397  0.1146  0.5905
 3669SOL    HW122643   0.368   2.487   4.275  2.8831 -1.2621  0.2967
 3669SOL    HW222644   0.346   2.348   4.264 -0.6960  1.8966 -1.2116
 3670SOL     OW22645   3.308   4.527   2.228 -0.2804 -0.1370 -0.6162
 3670SOL    HW122646   3.308   4.597   2.163  2.5203 -1.5192 -2.0558
 3670SOL    HW222647   3.340   4.571   2.307  3.1441  1.7102 -3.0669
 3671SOL     OW22648   1.296   1.866   1.712 -0.4702 -0.0481  0.5768
 3671SOL    HW122649   1.309   1.845   1.620 -0.0799  0.5507  0.4925
 3671SOL    HW222650   1.374   1.919   1.730 -0.3059  0.1645 -0.8000
 3672SOL     OW22651   0.976   3.073  17.191 -0.3675 -0.0301 -0.2731
 3672SOL    HW122652   1.040   3.002  17.191  0.5819  0.8298 -1.5859
 3672SOL    HW222653   0.961   3.090  17.098  1.1396 -1.1058 -0.7068
 3673SOL     OW22654   1.110   2.441   5.039  0.2633 -0.1489 -0.0494
 3673SOL    HW122655   1.019   2.413   5.047  0.6161 -0.7229  1.9754
 3673SOL    HW222656   1.151   2.368   4.991  0.1924  0.5862 -1.2262
 3674SOL     OW22657   3.771   2.103   5.735 -0.1857 -0.2267 -0.1649
 3674SOL    HW122658   3.776   2.167   5.664 -1.2200 -1.0811 -1.0006
 3674SOL    HW222659   3.769   2.018   5.692  0.0707 -0.4604  0.2904
 3675SOL     OW22660   4.583   1.359   3.343 -0.3732 -0.6297 -0.2519
 3675SOL    HW122661   4.498   1.319   3.358  0.9160 -2.6662  1.6614
 3675SOL    HW222662   4.569   1.408   3.262 -2.3186  0.6569  0.8541
 3676SOL     OW22663   0.767   1.107   5.461  0.1308  0.8674 -0.1868
 3676SOL    HW122664   0.677   1.077   5.453  0.0488  1.3164 -1.0235
 3676SOL    HW222665   0.765   1.171   5.532  1.6837  0.1361  0.5024
 3677SOL     OW22666   2.751   2.399   0.550 -0.1980  0.2384  0.4293
 3677SOL    HW122667   2.704   2.319   0.527 -0.0475 -0.2283  1.7282
 3677SOL    HW222668   2.837   2.379   0.513 -0.4812 -0.1067 -0.0481
 3678SOL     OW22669   3.237   3.349   8.532 -0.3083  0.3160 -0.1616
 3678SOL    HW122670   3.211   3.292   8.460 -1.4577 -0.2442  0.6854
 3678SOL    HW222671   3.286   3.291   8.591  2.4397  3.2349  0.3836
 3679SOL     OW22672   3.590   1.836   2.648 -0.2005  0.2787 -0.3239
 3679SOL    HW122673   3.573   1.922   2.611  0.0997  0.5995  0.2787
 3679SOL    HW222674   3.596   1.861   2.741  1.5590 -0.4161 -0.2369
 3680SOL     OW22675   1.343   1.999   8.113 -0.0867  0.4015  0.2139
 3680SOL    HW122676   1.380   1.936   8.176 -2.1242 -1.8923 -0.8760
 3680SOL    HW222677   1.303   1.935   8.054  0.6222 -0.6167  0.8300
 3681SOL     OW22678   3.470   2.784   2.718 -0.1918  0.1671 -0.0845
 3681SOL    HW122679   3.551   2.781   2.668  0.4589  2.0534  0.8697
 3681SOL    HW222680   3.412   2.765   2.644 -1.1757  2.1440  0.1762
 3682SOL     OW22681   0.612   0.809  15.868  0.7645 -0.0321  0.0022
 3682SOL    HW122682   0.676   0.858  15.919 -0.7406  0.1594  1.7212
 3682SOL    HW222683   0.574   0.879  15.816 -1.2905 -1.3422 -0.2764
 3683SOL     OW22684   2.585   1.468   7.509  0.0800 -0.0292  0.3064
 3683SOL    HW122685   2.542   1.507   7.433 -0.7157 -1.3209  0.1010
 3683SOL    HW222686   2.528   1.395   7.530 -2.1076  1.4003 -0.6179
 3684SOL     OW22687   0.169   2.382  12.790  0.1444 -0.0679  0.1013
 3684SOL    HW122688   0.181   2.477  12.797 -0.5172  0.1031 -1.0611
 3684SOL    HW222689   0.244   2.359  12.845 -0.8149 -0.1473  1.3917
 3685SOL     OW22690   2.100   1.810  16.108 -0.1758 -0.1815  0.3521
 3685SOL    HW122691   2.097   1.784  16.016  0.1067 -0.3518  0.3936
 3685SOL    HW222692   2.016   1.857  16.108 -0.8581 -1.4061 -0.1224
 3686SOL     OW22693   1.846   2.680   5.702  0.4635 -0.3235 -0.0787
 3686SOL    HW122694   1.785   2.754   5.704  0.8379 -0.0257  0.2801
 3686SOL    HW222695   1.795   2.614   5.748  0.3616 -0.8763 -0.9824
 3687SOL     OW22696   2.277   2.190  13.570  0.7639  0.2360 -0.2334
 3687SOL    HW122697   2.252   2.138  13.495  0.3021 -0.4554  0.4031
 3687SOL    HW222698   2.373   2.187  13.563  0.5422 -0.6218 -2.8151
 3688SOL     OW22699   0.257   2.279   6.376 -0.1489  0.0608 -0.0622
 3688SOL    HW122700   0.352   2.273   6.368 -0.3604  0.2419 -2.5991
 3688SOL    HW222701   0.225   2.265   6.287 -2.8996  1.1246  0.7709
 3689SOL     OW22702   1.056   0.648   6.726  0.0592 -0.0733 -0.3219
 3689SOL    HW122703   1.015   0.574   6.771  0.0486 -0.4494 -0.9406
 3689SOL    HW222704   0.992   0.685   6.665  0.2507  0.1197 -0.4061
 3690SOL     OW22705   0.257   4.520   3.032  0.6728 -0.9340 -0.4042
 3690SOL    HW122706   0.194   4.584   2.996  1.2283  1.7854  3.4677
 3690SOL    HW222707   0.241   4.443   2.977  0.8356 -1.0214 -0.3287
 3691SOL     OW22708   4.262   0.856  11.530 -0.0818 -0.3549 -0.1957
 3691SOL    HW122709   4.288   0.803  11.605 -0.2179  0.6435  0.5654
 3691SOL    HW222710   4.226   0.789  11.472 -1.1144  0.6723 -0.7617
 3692SOL     OW22711   1.395   3.786   2.597  0.1459  0.3877  0.4063
 3692SOL    HW122712   1.475   3.836   2.589 -0.0556  0.0894 -3.3091
 3692SOL    HW222713   1.359   3.807   2.511  0.7638 -2.1801 -0.4699
 3693SOL     OW22714   1.664   1.716   5.276  0.0843 -0.0663 -0.1379
 3693SOL    HW122715   1.642   1.658   5.349  0.1374 -2.3387 -1.9137
 3693SOL    HW222716   1.613   1.795   5.294 -0.4154 -0.2876 -0.6073
 3694SOL     OW22717   2.662   0.719   7.544  0.4987  0.4861  0.2869
 3694SOL    HW122718   2.736   0.780   7.545  0.0417  1.0260  1.0818
 3694SOL    HW222719   2.692   0.668   7.468 -0.4613 -2.5658  1.9691
 3695SOL     OW22720   3.819   2.509   0.283 -0.3253  0.1557  0.3558
 3695SOL    HW122721   3.844   2.453   0.356 -2.7443 -1.9180 -0.3963
 3695SOL    HW222722   3.731   2.540   0.302 -0.6831  0.3293 -1.5738
 3696SOL     OW22723   3.846   0.411  11.234  0.0040 -0.5218 -0.7577
 3696SOL    HW122724   3.842   0.367  11.319  0.8641  1.0836  0.1217
 3696SOL    HW222725   3.827   0.496  11.272  2.2600  1.0145 -3.0234
 3697SOL     OW22726   1.638   4.200   6.352 -0.0418  0.2663 -0.4736
 3697SOL    HW122727   1.607   4.265   6.288  0.1215  1.8537  1.0494
 3697SOL    HW222728   1.717   4.240   6.388  0.1145  0.8067 -1.4366
 3698SOL     OW22729   0.500   0.532  15.146  0.2851  0.8130  0.1236
 3698SOL    HW122730   0.443   0.467  15.185 -0.2981  2.1862  1.5785
 3698SOL    HW222731   0.485   0.529  15.052 -1.6976 -0.0338  0.4725
 3699SOL     OW22732   1.415   3.658   7.938  0.2299 -0.3297  0.4859
 3699SOL    HW122733   1.455   3.697   8.016  0.2368  0.8604 -0.1162
 3699SOL    HW222734   1.321   3.657   7.956  0.0227  0.0666 -0.6076
 3700SOL     OW22735   4.065   0.269   3.561 -0.2308  0.1177  0.2690
 3700SOL    HW122736   4.131   0.320   3.607  0.6081 -0.8188  0.1080
 3700SOL    HW222737   4.081   0.179   3.590 -0.6287  1.0009  3.2870
 3701SOL     OW22738   3.420   1.316   2.555 -0.4870 -0.4323  0.3565
 3701SOL    HW122739   3.389   1.273   2.635 -1.9667 -1.1844 -0.6382
 3701SOL    HW222740   3.425   1.407   2.586 -1.4985 -1.0869  2.4517
 3702SOL     OW22741   2.190   2.747  16.654 -0.2256  0.6229 -0.5605
 3702SOL    HW122742   2.127   2.701  16.599  0.0454 -1.6449  1.0140
 3702SOL    HW222743   2.262   2.685  16.655  0.7102  1.7461  2.1784
 3703SOL     OW22744   0.235   4.014   9.455 -0.1658 -0.0886 -0.0559
 3703SOL    HW122745   0.159   3.966   9.422 -0.1941 -0.2680  0.2660
 3703SOL    HW222746   0.305   3.956   9.426  0.1151  0.6446 -0.8275
 3704SOL     OW22747   0.737   0.384   1.797 -0.3928 -0.1321 -0.4557
 3704SOL    HW122748   0.708   0.466   1.838  1.4125 -0.1174  0.8006
 3704SOL    HW222749   0.704   0.405   1.710  0.9850  0.2507 -0.8844
 3705SOL     OW22750   2.193   1.523   1.496  0.1102  0.2258  0.1599
 3705SOL    HW122751   2.258   1.590   1.520  1.9797 -2.3053  2.2495
 3705SOL    HW222752   2.114   1.543   1.546  0.4867  0.1170  0.8058
 3706SOL     OW22753   4.388   2.151  10.706  0.0021  0.1829  0.3860
 3706SOL    HW122754   4.389   2.103  10.789  0.5591 -0.0554  0.2408
 3706SOL    HW222755   4.369   2.077  10.649 -0.3618  0.5145  0.0769
 3707SOL     OW22756   3.909   0.024  17.435 -0.2173 -0.3731 -0.4747
 3707SOL    HW122757   3.906   4.725  17.347  1.3799 -0.9456 -0.3138
 3707SOL    HW222758   3.827   4.719  17.461 -0.3350 -1.1589 -2.1280
 3708SOL     OW22759   2.128   0.168   2.724 -0.1506 -0.3513  0.2038
 3708SOL    HW122760   2.147   0.075   2.726  3.1652  0.3167 -0.2025
 3708SOL    HW222761   2.194   0.207   2.666 -0.3699  0.2761  0.3751
 3709SOL     OW22762   2.930   3.637  12.977 -0.0497 -0.0392 -0.1472
 3709SOL    HW122763   2.876   3.582  12.920 -0.2120 -0.4154  0.3660
 3709SOL    HW222764   2.956   3.578  13.048  0.2757 -0.7559 -0.8594
 3710SOL     OW22765   1.526   1.907   7.525 -0.7426 -0.3393  0.6691
 3710SOL    HW122766   1.521   1.850   7.602  0.2603  0.1564  1.1074
 3710SOL    HW222767   1.567   1.981   7.569 -3.3628  0.7498  1.2488
 3711SOL     OW22768   0.114   4.178   2.407 -0.2434  0.1697  0.4052
 3711SOL    HW122769   0.083   4.130   2.484  0.5152  0.2204  0.7372
 3711SOL    HW222770   0.206   4.151   2.412 -0.1883  0.5408  1.3008
 3712SOL     OW22771   4.089   3.591   9.385 -0.1143  0.8540 -0.4479
 3712SOL    HW122772   4.039   3.614   9.464  1.1669  0.2302  0.5355
 3712SOL    HW222773   4.152   3.531   9.425 -1.9240 -1.6722 -1.4410
 3713SOL     OW22774   2.436   2.184   5.451 -0.0596  0.2895  0.1122
 3713SOL    HW122775   2.415   2.142   5.368 -0.8558  1.1866 -0.1481
 3713SOL    HW222776   2.377   2.156   5.521 -0.1385 -1.6636 -0.7320
 3714SOL     OW22777   3.700   4.380   6.870 -0.2003 -0.0398 -0.2492
 3714SOL    HW122778   3.789   4.345   6.857 -0.6615 -0.2045 -3.0055
 3714SOL    HW222779   3.715   4.470   6.896  2.3967 -0.4664 -0.2188
 3715SOL     OW22780   4.096   1.640   6.973 -0.4791 -0.0745  0.2077
 3715SOL    HW122781   4.104   1.735   6.977 -0.1177 -0.1356  0.9270
 3715SOL    HW222782   4.188   1.623   6.949 -0.6327 -1.2320  0.4468
 3716SOL     OW22783   2.090   0.339   8.330  0.6354  0.7752  0.2623
 3716SOL    HW122784   2.014   0.369   8.380 -0.5804  0.6005 -1.4959
 3716SOL    HW222785   2.162   0.391   8.367  0.2567 -0.8768  3.3306
 3717SOL     OW22786   2.961   2.729   5.383  0.1163  0.3550 -0.2471
 3717SOL    HW122787   2.976   2.779   5.464  2.8556 -2.3541  0.8954
 3717SOL    HW222788   3.044   2.682   5.381 -1.5845 -2.7180  1.4718
 3718SOL     OW22789   3.874   1.147  17.093  0.0013 -0.1034  0.7875
 3718SOL    HW122790   3.929   1.183  17.023  1.5938 -1.6269  1.2430
 3718SOL    HW222791   3.846   1.073  17.040  0.8232  0.8482 -0.9763
 3719SOL     OW22792   0.560   0.295   7.213  0.6388 -0.2333 -0.4116
 3719SOL    HW122793   0.637   0.250   7.246  0.3197 -0.3741  0.1279
 3719SOL    HW222794   0.482   0.243   7.234  1.5892 -1.8556 -0.8741
 3720SOL     OW22795   0.431   4.727   6.874 -0.2511 -0.2368 -0.3690
 3720SOL    HW122796   0.386   0.058   6.825  1.3539 -0.2590 -1.8792
 3720SOL    HW222797   0.508   4.707   6.821 -0.3117  0.1127 -0.5825
 3721SOL     OW22798   3.122   1.307   2.916 -0.6220 -0.2402 -0.0442
 3721SOL    HW122799   3.188   1.252   2.874  0.0646 -0.4645  1.3297
 3721SOL    HW222800   3.053   1.316   2.850 -1.5121 -0.0254  0.9263
 3722SOL     OW22801   4.213   0.918   4.559  0.4210 -0.6319  0.5712
 3722SOL    HW122802   4.244   0.997   4.514  0.0154  0.6222  2.4761
 3722SOL    HW222803   4.127   0.947   4.590  1.1052  2.2771 -0.2603
 3723SOL     OW22804   0.859   2.974  12.830 -0.0994  0.9478  0.1213
 3723SOL    HW122805   0.858   3.060  12.787  4.5423  1.2416  0.6308
 3723SOL    HW222806   0.885   3.004  12.917  1.5305 -1.5670  0.5003
 3724SOL     OW22807   2.170   3.429   3.093 -0.5708  0.1813 -0.7669
 3724SOL    HW122808   2.157   3.336   3.073  1.1418 -0.1209 -0.4441
 3724SOL    HW222809   2.172   3.465   3.004 -1.3478 -0.4853 -1.0604
 3725SOL     OW22810   4.165   2.217   6.845 -0.2081  0.2365  0.6081
 3725SOL    HW122811   4.148   2.301   6.888 -0.6075  1.3462 -1.7052
 3725SOL    HW222812   4.082   2.193   6.805  1.1638 -0.3531 -1.9012
 3726SOL     OW22813   3.639   0.734   7.220 -0.2350  0.0394  0.3080
 3726SOL    HW122814   3.601   0.774   7.141  0.1151 -1.6965 -0.7368
 3726SOL    HW222815   3.607   0.644   7.210  0.6021 -0.2239  0.0400
 3727SOL     OW22816   3.013   0.579   1.988 -0.2168 -0.7767 -0.0178
 3727SOL    HW122817   2.924   0.545   1.990 -1.5576  2.7245 -1.3919
 3727SOL    HW222818   3.034   0.542   1.903  0.5781 -2.2254  0.7935
 3728SOL     OW22819   3.360   4.108   3.008  0.0216  0.2675  0.5858
 3728SOL    HW122820   3.401   4.051   2.944 -0.6794 -0.1205  0.4866
 3728SOL    HW222821   3.436   4.101   3.066  0.1558 -0.2633  0.3428
 3729SOL     OW22822   1.004   3.087  10.229  0.3441  0.2056  0.0439
 3729SOL    HW122823   0.954   3.023  10.177 -0.2512  0.5007  0.2516
 3729SOL    HW222824   0.934   3.111  10.290  1.0241  0.6133  0.6644
 3730SOL     OW22825   2.328   2.839   6.457  0.4807 -0.3086 -0.1434
 3730SOL    HW122826   2.284   2.784   6.521  0.8277  0.8626  1.0830
 3730SOL    HW222827   2.357   2.772   6.394  1.4182  2.0828 -2.2562
 3731SOL     OW22828   3.293   1.232   6.044  0.2610 -0.3665  0.2181
 3731SOL    HW122829   3.282   1.315   5.997 -1.6772  0.0046  1.3401
 3731SOL    HW222830   3.375   1.247   6.091  0.5275 -2.5776  0.4514
 3732SOL     OW22831   0.833   1.662   5.228 -0.2538  0.4971 -0.1601
 3732SOL    HW122832   0.825   1.680   5.135  0.8135  1.0504 -0.1354
 3732SOL    HW222833   0.761   1.700   5.278 -0.5883  1.3250 -1.2800
 3733SOL     OW22834   3.180   2.939  12.368 -0.2403  0.4094  0.0288
 3733SOL    HW122835   3.236   3.006  12.330  0.1537  0.5331  0.8107
 3733SOL    HW222836   3.241   2.888  12.421 -1.5019 -0.7468  0.3807
 3734SOL     OW22837   3.307   1.065  14.421 -0.4463  0.4918  0.0178
 3734SOL    HW122838   3.293   1.081  14.514 -0.5535  1.5544 -0.1872
 3734SOL    HW222839   3.228   1.012  14.406 -0.2929  1.0913 -2.8586
 3735SOL     OW22840   0.651   1.802  17.711  0.2419 -0.1575 -0.2953
 3735SOL    HW122841   0.593   1.806  17.635 -0.5672  2.3325  0.4579
 3735SOL    HW222842   0.723   1.752  17.673 -0.5240  0.2298 -2.2784
 3736SOL     OW22843   0.762   1.897   5.020 -0.2754 -0.2869  0.2112
 3736SOL    HW122844   0.691   1.894   5.084 -1.0903  0.6887 -0.6317
 3736SOL    HW222845   0.731   1.827   4.961  2.3269 -1.0826 -0.1976
 3737SOL     OW22846   1.219   1.496   1.774  0.0913  0.3788 -0.1036
 3737SOL    HW122847   1.197   1.573   1.825  1.8760  0.1088  1.0927
 3737SOL    HW222848   1.301   1.522   1.731 -0.0527  0.6076 -0.2417
 3738SOL     OW22849   2.119   2.006  15.086 -0.6728 -0.1943  0.2265
 3738SOL    HW122850   2.111   1.947  15.161 -1.1463  0.8725  1.0112
 3738SOL    HW222851   2.139   2.089  15.129  0.2531 -0.1291 -0.3317
 3739SOL     OW22852   1.881   3.432  15.146  0.3325  0.1311  0.8921
 3739SOL    HW122853   1.917   3.512  15.183  0.7393  0.3877 -0.0724
 3739SOL    HW222854   1.793   3.463  15.125  1.1784  0.8284 -1.5373
 3740SOL     OW22855   1.248   2.728   2.450  0.4014 -0.5283 -0.7920
 3740SOL    HW122856   1.227   2.636   2.434 -2.8180 -0.2570  2.0148
 3740SOL    HW222857   1.177   2.758   2.506  2.7326  0.8149  1.4443
 3741SOL     OW22858   1.798   0.568  12.894 -0.3576  0.1088  0.0623
 3741SOL    HW122859   1.708   0.551  12.921 -0.0838  0.8404  1.4067
 3741SOL    HW222860   1.789   0.537  12.804 -0.0448  0.0988  0.0353
 3742SOL     OW22861   4.724   1.175   0.016 -0.4016 -0.1953  0.5970
 3742SOL    HW122862   4.673   1.100   0.045  1.8591 -1.6460  0.8233
 3742SOL    HW222863   4.668   1.246   0.047 -0.6523  0.1262 -0.5918
 3743SOL     OW22864   3.949   2.771   7.788 -0.3199  0.5768 -0.3742
 3743SOL    HW122865   4.024   2.720   7.757  0.6036  2.4370 -1.1870
 3743SOL    HW222866   3.897   2.696   7.817 -2.1755  1.2208 -2.0484
 3744SOL     OW22867   3.610   1.717   4.902 -0.0530 -0.0654  0.0382
 3744SOL    HW122868   3.595   1.624   4.914  2.2579 -0.1903  1.9585
 3744SOL    HW222869   3.611   1.746   4.993  0.4653  0.0833 -0.0152
 3745SOL     OW22870   1.647   3.706   7.440 -0.0871 -0.8149 -0.2975
 3745SOL    HW122871   1.587   3.638   7.469  0.9259 -0.8521  1.6756
 3745SOL    HW222872   1.664   3.680   7.349  1.6209  1.8774 -0.7529
 3746SOL     OW22873   2.720   1.299   0.204  0.2867 -0.0314 -0.4199
 3746SOL    HW122874   2.677   1.382   0.182 -1.3934 -0.1022  2.6221
 3746SOL    HW222875   2.673   1.281   0.285  1.1144  0.1105  0.0898
 3747SOL     OW22876   3.983   3.336   8.746  0.3791 -0.0602 -0.0556
 3747SOL    HW122877   3.977   3.323   8.652  0.1366  0.0242 -0.0518
 3747SOL    HW222878   3.891   3.353   8.768 -0.4956 -1.9998 -2.2685
 3748SOL     OW22879   3.015   1.797   5.071 -0.2251  0.0990 -0.2963
 3748SOL    HW122880   2.964   1.876   5.052 -0.4500  0.0609  0.1366
 3748SOL    HW222881   2.986   1.744   4.997  1.5866 -0.8847 -0.2918
 3749SOL     OW22882   2.599   2.458   4.643 -0.7506 -0.3197  0.1499
 3749SOL    HW122883   2.582   2.484   4.733  0.8231  0.0556  0.3412
 3749SOL    HW222884   2.618   2.364   4.644  3.1281  0.5085  3.0887
 3750SOL     OW22885   3.577   4.275  11.321 -0.0565  0.5030 -0.0135
 3750SOL    HW122886   3.506   4.224  11.282  0.8875 -0.5697 -0.3406
 3750SOL    HW222887   3.642   4.207  11.341  1.7136  2.1273 -0.1539
 3751SOL     OW22888   4.182   0.197  14.752  0.0948  0.2453 -0.5691
 3751SOL    HW122889   4.183   0.211  14.847  1.2172 -2.3142 -0.2275
 3751SOL    HW222890   4.218   0.109  14.746  1.6642  0.8056  0.7085
 3752SOL     OW22891   3.334   2.575  15.461 -0.4196 -0.7550 -0.0222
 3752SOL    HW122892   3.262   2.591  15.400 -0.6479  1.9922  0.9618
 3752SOL    HW222893   3.335   2.658  15.507  1.3127 -1.0922  0.5354
 3753SOL     OW22894   2.856   3.982  11.632 -0.4598 -0.0951 -0.3721
 3753SOL    HW122895   2.774   4.001  11.678  0.7706  1.0135  1.3433
 3753SOL    HW222896   2.918   4.018  11.696  0.7817 -0.7061 -1.2366
 3754SOL     OW22897   1.015   4.436   2.165 -0.0930  0.3234 -0.4420
 3754SOL    HW122898   1.085   4.399   2.111 -0.7146 -0.8488 -0.4466
 3754SOL    HW222899   1.045   4.385   2.240  1.3679  1.9889  0.1181
 3755SOL     OW22900   0.772   4.117  10.519 -0.1299 -0.1424 -0.2485
 3755SOL    HW122901   0.696   4.161  10.556  0.5317  1.8758 -1.3118
 3755SOL    HW222902   0.810   4.186  10.464  1.3500  1.4192  2.7620
 3756SOL     OW22903   1.534   2.183   9.779 -0.4010  0.7089 -0.3186
 3756SOL    HW122904   1.629   2.191   9.785 -0.4278  0.1284  0.7939
 3756SOL    HW222905   1.520   2.094   9.810  1.1910  1.4454  2.5021
 3757SOL     OW22906   1.512   1.469   9.225  0.1910 -0.2929  0.3932
 3757SOL    HW122907   1.570   1.513   9.288  1.5804  1.2574 -1.9447
 3757SOL    HW222908   1.572   1.398   9.200  2.3220  1.6037  0.0808
 3758SOL     OW22909   1.087   0.447  14.249 -0.7824  0.3171  0.2952
 3758SOL    HW122910   1.034   0.470  14.326 -0.0942 -2.9298  1.7061
 3758SOL    HW222911   1.168   0.491  14.272 -0.2375  0.2963 -1.5572
 3759SOL     OW22912   2.503   2.252   0.713  0.0298  0.3430 -0.5271
 3759SOL    HW122913   2.527   2.215   0.629  1.2434  1.4850 -0.6886
 3759SOL    HW222914   2.461   2.333   0.683  0.4202  0.6498 -0.2545
 3760SOL     OW22915   0.168   1.621  12.491  0.1380  0.3592 -0.1213
 3760SOL    HW122916   0.212   1.546  12.451 -0.2428 -0.9798  1.9897
 3760SOL    HW222917   0.243   1.658  12.537 -0.0536 -1.0704  1.3408
 3761SOL     OW22918   1.611   3.797   0.477  0.0288 -0.3476 -0.4857
 3761SOL    HW122919   1.551   3.805   0.551 -2.5834 -1.6403 -2.4559
 3761SOL    HW222920   1.619   3.702   0.469 -1.1947 -0.4894 -0.1001
 3762SOL     OW22921   3.424   4.341   4.880  0.0012 -0.1346  0.1010
 3762SOL    HW122922   3.385   4.275   4.823 -2.5451  2.2248 -0.8837
 3762SOL    HW222923   3.453   4.288   4.955  0.2668 -2.0120 -1.3304
 3763SOL     OW22924   3.987   0.985   5.182  0.3197 -0.1605 -0.4657
 3763SOL    HW122925   4.080   0.992   5.203  0.2712 -1.3416  0.1451
 3763SOL    HW222926   3.990   1.020   5.094 -0.5052  1.9689  0.3577
 3764SOL     OW22927   4.393   0.736  11.905  0.0275 -0.6442 -0.2658
 3764SOL    HW122928   4.459   0.698  11.963  0.8357 -0.6853 -1.2031
 3764SOL    HW222929   4.398   0.697  11.818  0.6421 -0.3691 -0.3469
 3765SOL     OW22930   1.318   3.025   5.464  0.3845 -0.2051 -0.0336
 3765SOL    HW122931   1.331   2.930   5.457 -0.6510 -0.3016 -0.5621
 3765SOL    HW222932   1.242   3.032   5.521  0.4593 -1.3127  0.2018
 3766SOL     OW22933   1.441   1.113   2.413 -0.4846  0.2151  0.4644
 3766SOL    HW122934   1.418   1.206   2.416 -1.8901 -0.1122 -0.0296
 3766SOL    HW222935   1.470   1.108   2.322 -3.4871 -2.5313 -0.3257
 3767SOL     OW22936   4.150   0.605  12.029 -0.1786  0.1832 -0.2065
 3767SOL    HW122937   4.217   0.596  11.961  0.3189 -0.8207  0.4280
 3767SOL    HW222938   4.179   0.533  12.085 -0.8501  0.2993  0.2990
 3768SOL     OW22939   4.308   2.696   5.787  0.1512  0.1437 -0.0117
 3768SOL    HW122940   4.389   2.736   5.817  0.5470  0.8217 -1.9982
 3768SOL    HW222941   4.295   2.626   5.850 -0.8063  0.7899  0.5187
 3769SOL     OW22942   2.048   3.877  16.042 -0.0972  0.1175  0.2296
 3769SOL    HW122943   2.128   3.890  16.093 -0.0056  2.0734 -0.4080
 3769SOL    HW222944   2.022   3.800  16.093 -0.1076 -0.0483 -0.0238
 3770SOL     OW22945   2.506   1.173   1.590 -0.5080  0.0215 -0.2597
 3770SOL    HW122946   2.456   1.141   1.515 -1.1772 -1.7487  0.9453
 3770SOL    HW222947   2.591   1.160   1.547 -0.0513  1.3368  0.2374
 3771SOL     OW22948   1.837   0.691   6.668  0.7052 -0.2130 -0.2800
 3771SOL    HW122949   1.889   0.640   6.730 -0.6769 -0.9588  0.2650
 3771SOL    HW222950   1.753   0.692   6.713  0.3549  0.1455 -0.9348
 3772SOL     OW22951   3.210   1.582   0.858 -0.1821 -0.0132  0.0311
 3772SOL    HW122952   3.116   1.564   0.865  0.1533 -0.6735  2.7885
 3772SOL    HW222953   3.212   1.677   0.862 -1.5428 -0.0766  2.0875
 3773SOL     OW22954   1.571   2.881  10.025  0.2677 -0.0606 -0.2133
 3773SOL    HW122955   1.545   2.965  10.062  0.0482 -0.8216  1.3529
 3773SOL    HW222956   1.545   2.905   9.936  0.6449 -0.5378 -0.4546
 3774SOL     OW22957   3.063   2.352   8.207 -0.0057  0.4859 -0.6470
 3774SOL    HW122958   3.014   2.419   8.254  0.5976  0.6876 -0.3069
 3774SOL    HW222959   2.989   2.297   8.183  1.2324 -2.0742  1.3062
 3775SOL     OW22960   3.838   3.900   8.483 -0.3924  0.1121  0.0417
 3775SOL    HW122961   3.775   3.876   8.551  0.2470 -0.5528  0.4047
 3775SOL    HW222962   3.784   3.956   8.427 -0.3093  2.9044  2.7492
 3776SOL     OW22963   2.190   2.480  16.033 -0.1371  0.0054 -0.0326
 3776SOL    HW122964   2.119   2.473  16.097 -1.3175  1.7274 -1.1788
 3776SOL    HW222965   2.217   2.571  16.041  0.8499 -0.3703  0.9087
 3777SOL     OW22966   1.001   1.988   9.472  0.6021  0.4778 -0.1469
 3777SOL    HW122967   0.990   2.019   9.562 -1.4751  0.9693 -0.5684
 3777SOL    HW222968   1.031   1.897   9.476 -3.0286 -0.7791 -0.6859
 3778SOL     OW22969   2.583   1.903   9.321  0.2905  0.0071 -0.6875
 3778SOL    HW122970   2.564   1.997   9.317 -2.1488 -0.5376 -1.3687
 3778SOL    HW222971   2.493   1.872   9.316  1.0143 -2.1763 -0.0835
 3779SOL     OW22972   4.515   0.608   9.850 -0.4299 -0.0530 -0.0177
 3779SOL    HW122973   4.487   0.517   9.838 -3.4646  0.9109 -0.2414
 3779SOL    HW222974   4.492   0.608   9.943 -0.1463 -1.2443  0.0597
 3780SOL     OW22975   2.447   0.983   6.767 -0.2500  0.4513  0.6212
 3780SOL    HW122976   2.517   0.992   6.702 -1.0777  0.5532 -0.2763
 3780SOL    HW222977   2.467   0.891   6.783 -0.6238  0.0076 -1.3767
 3781SOL     OW22978   3.692   1.333  17.206  0.4680 -0.5082  0.0283
 3781SOL    HW122979   3.748   1.398  17.248 -0.3643  0.1246  0.1555
 3781SOL    HW222980   3.739   1.308  17.126 -2.2383 -2.4506 -0.9553
 3782SOL     OW22981   2.852   3.676   7.334 -1.2855 -0.1798  0.3551
 3782SOL    HW122982   2.833   3.752   7.388 -1.2540  0.4988 -0.5789
 3782SOL    HW222983   2.948   3.674   7.328 -1.4229 -0.5418 -1.8601
 3783SOL     OW22984   0.782   3.508   5.114 -0.0417  0.4372 -0.5343
 3783SOL    HW122985   0.726   3.479   5.042  0.1476  0.4707 -0.6971
 3783SOL    HW222986   0.831   3.572   5.061  0.4772  1.7134  1.4862
 3784SOL     OW22987   1.010   2.376   4.723 -0.3205  0.3971  0.3883
 3784SOL    HW122988   0.961   2.296   4.742 -1.0094  0.5490 -0.7414
 3784SOL    HW222989   1.089   2.360   4.775 -0.0481 -0.4504 -0.2849
 3785SOL     OW22990   0.613   3.805  13.977 -0.0662  0.1344  0.4186
 3785SOL    HW122991   0.703   3.784  13.952  0.7141  0.5270  2.8423
 3785SOL    HW222992   0.573   3.719  13.974  3.7104 -1.6250  0.0927
 3786SOL     OW22993   4.588   2.520   5.587 -0.1311 -0.0713 -0.2131
 3786SOL    HW122994   4.643   2.444   5.605 -1.3644 -0.5166  1.6377
 3786SOL    HW222995   4.499   2.487   5.603  0.1071 -0.8200 -0.4330
 3787SOL     OW22996   2.468   4.317   3.758 -0.2996 -0.3700 -0.2509
 3787SOL    HW122997   2.407   4.305   3.830  1.9453 -0.2890  1.6719
 3787SOL    HW222998   2.530   4.245   3.773  0.1135  0.0008 -0.1947
 3788SOL     OW22999   3.999   1.669   2.871  0.4270 -0.1999 -0.4894
 3788SOL    HW123000   4.066   1.643   2.934 -1.0742 -0.0881  1.1493
 3788SOL    HW223001   3.955   1.584   2.874  0.3614 -0.1074  1.1577
 3789SOL     OW23002   1.958   1.065   2.449  0.1987  0.1399 -0.8802
 3789SOL    HW123003   2.000   1.026   2.525  1.1586  0.1233 -1.4282
 3789SOL    HW223004   1.886   1.111   2.493  0.4267  0.6753 -1.0655
 3790SOL     OW23005   0.556   1.510  15.326 -0.4145 -0.4265 -0.2916
 3790SOL    HW123006   0.569   1.580  15.391  0.5462 -0.0800 -0.8597
 3790SOL    HW223007   0.551   1.428  15.374 -0.4181 -1.0658 -1.3886
 3791SOL     OW23008   0.395   0.952   1.643 -0.0050  0.4038  0.5043
 3791SOL    HW123009   0.372   1.045   1.649  0.6220  0.5865  0.1566
 3791SOL    HW223010   0.346   0.927   1.565 -0.0211 -0.6655  0.8548
 3792SOL     OW23011   2.866   3.734   5.068  0.1659 -0.7529 -0.0641
 3792SOL    HW123012   2.878   3.695   5.155 -2.1491 -2.5122 -0.5418
 3792SOL    HW223013   2.952   3.766   5.042  0.2168  0.1369  1.1768
 3793SOL     OW23014   0.454   1.972   8.323  0.3432  0.5081 -0.8343
 3793SOL    HW123015   0.406   1.918   8.385  2.4119  0.7244  0.9460
 3793SOL    HW223016   0.504   2.030   8.380 -2.3598  0.3357  1.6932
 3794SOL     OW23017   0.162   2.643  11.391  0.4922  0.0201  0.2042
 3794SOL    HW123018   0.212   2.720  11.363 -1.4561  0.9975 -0.5975
 3794SOL    HW223019   0.221   2.567  11.385 -0.8261 -1.0226  0.4050
 3795SOL     OW23020   4.031   0.753   5.446 -0.0255  0.2468 -0.1458
 3795SOL    HW123021   4.097   0.710   5.391 -0.3198  0.4251 -0.6433
 3795SOL    HW223022   4.005   0.688   5.511 -0.3953  1.1849  0.6480
 3796SOL     OW23023   4.713   0.311   7.747 -0.0650  0.3436  0.5606
 3796SOL    HW123024   4.720   0.405   7.729  3.2298  0.3786  2.0383
 3796SOL    HW223025   0.032   0.297   7.824  0.3974 -2.9706 -0.3885
 3797SOL     OW23026   0.743   2.653   1.843 -0.0922 -0.0866 -0.2626
 3797SOL    HW123027   0.727   2.728   1.786 -0.6866 -2.1110 -2.7726
 3797SOL    HW223028   0.648   2.636   1.845 -0.1391  0.0497 -1.3932
 3798SOL     OW23029   4.645   0.309   3.687  0.2850 -0.3997  0.3725
 3798SOL    HW123030   0.001   0.295   3.709  0.5000  1.0496  0.4187
 3798SOL    HW223031   4.649   0.305   3.592  0.6858 -0.4105  0.3887
 3799SOL     OW23032   0.262   0.624   5.369  0.0683 -0.6400  0.1820
 3799SOL    HW123033   0.265   0.626   5.464 -0.0086  1.2987  0.1373
 3799SOL    HW223034   0.195   0.559   5.350 -3.5332  2.4686  2.4728
 3800SOL     OW23035   2.563   1.738  16.705 -0.2927  0.8224  0.6676
 3800SOL    HW123036   2.582   1.794  16.631  0.6984  0.7206  0.8491
 3800SOL    HW223037   2.480   1.779  16.731 -0.0143  2.1782 -0.6206
 3801SOL     OW23038   0.955   1.806   8.923 -0.0339  1.0271  0.1378
 3801SOL    HW123039   1.021   1.847   8.978  0.0739  0.8296  0.1548
 3801SOL    HW223040   0.996   1.722   8.902  0.0966  0.9270  0.8026
 3802SOL     OW23041   1.538   4.573  15.695 -0.6051 -0.9681  0.1775
 3802SOL    HW123042   1.463   4.621  15.662 -0.7405 -1.5945 -0.4294
 3802SOL    HW223043   1.621   4.614  15.669 -1.2818  0.2143 -0.0754
 3803SOL     OW23044   0.100   2.679   5.533 -0.2821 -0.5614 -0.1442
 3803SOL    HW123045   0.084   2.764   5.574 -1.2002  0.1365 -1.9492
 3803SOL    HW223046   0.020   2.630   5.553 -0.7282 -0.3543 -1.4231
 3804SOL     OW23047   4.438   2.040   7.074  0.6079  0.3407 -0.1006
 3804SOL    HW123048   4.418   2.045   6.980  0.3293  2.8183  0.0976
 3804SOL    HW223049   4.533   2.033   7.081  0.5763 -0.0549 -0.0490
 3805SOL     OW23050   2.778   3.529   2.973  0.3879 -0.0231  0.1305
 3805SOL    HW123051   2.699   3.574   3.002  0.2284  0.5610 -1.2124
 3805SOL    HW223052   2.834   3.545   3.049  0.8603 -0.7011 -0.0774
 3806SOL     OW23053   3.968   0.673  12.695 -0.9137 -0.0980 -0.3902
 3806SOL    HW123054   4.001   0.630  12.774  0.7106  1.1679 -0.3701
 3806SOL    HW223055   3.905   0.614  12.655 -0.1004 -0.3952 -1.2466
 3807SOL     OW23056   4.550   2.323   4.531  0.5416  0.4612  0.3453
 3807SOL    HW123057   4.458   2.333   4.507  0.3412  1.1241  1.3467
 3807SOL    HW223058   4.578   2.264   4.461 -0.5424 -0.0843  0.3767
 3808SOL     OW23059   4.393   0.930   9.207  0.2314 -0.0908 -0.2706
 3808SOL    HW123060   4.407   0.854   9.263 -0.8419 -0.3883 -0.3979
 3808SOL    HW223061   4.470   0.978   9.235 -0.0772 -0.0459  0.4956
 3809SOL     OW23062   4.024   4.415   5.816  0.4249  0.5602 -0.1581
 3809SOL    HW123063   4.113   4.450   5.809  0.4996  0.1091 -1.4413
 3809SOL    HW223064   3.986   4.483   5.872  2.2775  0.2312  1.5270
 3810SOL     OW23065   4.627   4.042   6.051 -0.8096 -0.5569  0.1234
 3810SOL    HW123066   4.657   3.952   6.043 -0.6882 -0.6849  1.8534
 3810SOL    HW223067   4.548   4.027   6.103 -0.5072  0.9689  1.0488
 3811SOL     OW23068   2.696   2.218  16.575  0.4696 -0.2110  0.5614
 3811SOL    HW123069   2.681   2.126  16.595 -0.9498  0.2073  1.4249
 3811SOL    HW223070   2.752   2.218  16.497  0.5530 -2.7844  0.6362
 3812SOL     OW23071   1.929   4.148   1.526 -0.5936  0.4323 -0.4892
 3812SOL    HW123072   1.882   4.141   1.609 -0.8489  0.4391 -0.6335
 3812SOL    HW223073   2.016   4.181   1.550 -0.9878  1.2323 -0.1581
 3813SOL     OW23074   0.747   4.056  17.672 -0.1554  0.1473  0.1243
 3813SOL    HW123075   0.811   4.095  17.732  1.7568  0.5364 -2.1574
 3813SOL    HW223076   0.798   3.984  17.635 -0.0681 -0.1241  0.7831
 3814SOL     OW23077   2.954   0.077   9.318 -0.0540  0.0124  0.7361
 3814SOL    HW123078   3.024   0.085   9.254 -0.9434 -0.0333 -0.2447
 3814SOL    HW223079   2.897   0.026   9.260 -0.1931 -0.7984  1.5762
 3815SOL     OW23080   3.858   1.806  12.226  0.6267 -0.2227  0.1342
 3815SOL    HW123081   3.827   1.768  12.144 -3.1809  1.6886  0.6833
 3815SOL    HW223082   3.950   1.823  12.206  0.7704  1.3824  2.2186
 3816SOL     OW23083   4.721   2.727   2.125  0.4058  0.0095  0.7094
 3816SOL    HW123084   4.694   2.818   2.136  3.4603  0.8623  1.1033
 3816SOL    HW223085   4.685   2.686   2.203 -0.5359  3.4991  2.1247
 3817SOL     OW23086   4.359   3.703  15.378  0.1617  0.1350 -0.3878
 3817SOL    HW123087   4.402   3.753  15.308 -0.3670  0.9729 -0.1165
 3817SOL    HW223088   4.311   3.638  15.327  0.6645 -0.9876  0.5750
 3818SOL     OW23089   1.304   2.723   0.296 -1.2442 -0.2162  0.2185
 3818SOL    HW123090   1.288   2.721   0.391 -1.1011 -0.5294  0.2394
 3818SOL    HW223091   1.370   2.654   0.285  0.3065  1.1235  1.1486
 3819SOL     OW23092   2.826   1.302   9.046 -0.0850 -0.4489  0.1328
 3819SOL    HW123093   2.874   1.379   9.075  1.2897 -1.3430  0.2207
 3819SOL    HW223094   2.866   1.281   8.962 -0.1397  0.7349 -0.1869
 3820SOL     OW23095   2.182   4.111   0.432 -0.6049  0.6772  0.1011
 3820SOL    HW123096   2.108   4.156   0.472  1.4791  2.1728  2.2659
 3820SOL    HW223097   2.254   4.123   0.495  0.8898 -1.6816 -1.1488
 3821SOL     OW23098   1.574   2.192   4.342  0.0026  0.4716 -0.0211
 3821SOL    HW123099   1.567   2.163   4.251  0.5618  1.6304 -0.4297
 3821SOL    HW223100   1.490   2.165   4.380  0.0803  2.6282  1.6664
 3822SOL     OW23101   0.005   3.935   7.710  0.0130  0.1453 -0.5186
 3822SOL    HW123102   0.066   3.920   7.782  0.9962  3.3761 -0.6593
 3822SOL    HW223103   4.658   3.932   7.758  1.5995  0.5394  2.2771
 3823SOL     OW23104   3.275   0.854   7.139  0.6433 -0.3840  0.1521
 3823SOL    HW123105   3.297   0.761   7.150 -0.5894 -0.7727 -0.6577
 3823SOL    HW223106   3.289   0.881   7.230 -0.8317  2.0654 -0.3574
 3824SOL     OW23107   0.401   3.580   7.053 -0.1526 -0.6009 -0.0738
 3824SOL    HW123108   0.355   3.506   7.011  0.0580 -0.7037 -0.1223
 3824SOL    HW223109   0.404   3.552   7.144 -1.1469 -0.1940  0.0815
 3825SOL     OW23110   3.991   1.589   8.339  0.6235  0.2987 -0.4196
 3825SOL    HW123111   4.027   1.601   8.251 -0.7642  3.2771 -0.5837
 3825SOL    HW223112   3.899   1.605   8.318  0.2950 -2.7162 -1.3020
 3826SOL     OW23113   2.851   2.500  10.508 -0.3182 -0.3912  0.2268
 3826SOL    HW123114   2.930   2.453  10.536  0.4280  1.2134  0.8502
 3826SOL    HW223115   2.818   2.553  10.581 -0.0874 -0.3723  0.3173
 3827SOL     OW23116   0.010   2.294   2.096 -0.2173  0.6086 -0.3835
 3827SOL    HW123117   0.037   2.204   2.114  1.6870  0.8984 -1.7402
 3827SOL    HW223118   0.060   2.306   2.015  1.1788  1.7617  0.6466
 3828SOL     OW23119   0.782   0.603   6.468  0.0316 -0.1876 -0.3985
 3828SOL    HW123120   0.830   0.644   6.396 -0.6320  0.8764 -0.2367
 3828SOL    HW223121   0.727   0.680   6.478  0.5379  0.1394 -0.1191
 3829SOL     OW23122   2.943   0.171  12.240  0.9600  0.7813 -0.1076
 3829SOL    HW123123   2.919   0.200  12.152  1.9812  0.2910 -0.5563
 3829SOL    HW223124   2.930   0.251  12.289  1.4941  0.9410 -0.2219
 3830SOL     OW23125   4.122   2.081   7.196  0.6613 -0.5274  0.0675
 3830SOL    HW123126   4.067   2.063   7.272  2.2185  1.7158  1.7131
 3830SOL    HW223127   4.198   2.117   7.241  0.7616  0.6805 -1.0579
 3831SOL     OW23128   0.918   1.872   1.970 -0.6197 -0.6411 -0.5024
 3831SOL    HW123129   0.949   1.963   1.963 -1.0241 -0.3761  1.0692
 3831SOL    HW223130   0.836   1.892   2.014 -0.1495  2.3809 -0.9427
 3832SOL     OW23131   3.155   2.034   7.762 -0.5944 -0.2213 -0.1058
 3832SOL    HW123132   3.151   2.023   7.857  1.7861 -0.7083 -0.0501
 3832SOL    HW223133   3.226   1.974   7.738  0.8805  0.3361  2.7554
 3833SOL     OW23134   3.212   0.195  16.199  0.3513  0.1851 -0.2630
 3833SOL    HW123135   3.305   0.202  16.221  0.6608 -0.6289 -1.3094
 3833SOL    HW223136   3.211   0.286  16.169 -0.3905 -0.1027 -1.1367
 3834SOL     OW23137   3.417   3.072   7.729  0.1599 -0.3769  0.0170
 3834SOL    HW123138   3.470   3.004   7.687 -1.8063 -0.9117 -1.5945
 3834SOL    HW223139   3.345   3.080   7.666 -1.5273 -3.8480  1.4784
 3835SOL     OW23140   3.592   0.488   7.157  0.2638 -0.1261 -0.6770
 3835SOL    HW123141   3.611   0.406   7.202  0.0583 -0.1623 -0.6593
 3835SOL    HW223142   3.629   0.458   7.073 -0.4370  0.6964 -1.2826
 3836SOL     OW23143   2.850   2.804   8.121  0.1852  0.1443  0.2313
 3836SOL    HW123144   2.886   2.860   8.053  0.3840 -0.4509 -0.1480
 3836SOL    HW223145   2.768   2.847   8.149 -0.6409 -0.3847 -1.4127
 3837SOL     OW23146   1.425   2.390   5.452 -0.2902 -0.3044 -0.0628
 3837SOL    HW123147   1.341   2.433   5.466 -0.3848 -0.5079 -0.0129
 3837SOL    HW223148   1.394   2.318   5.398  0.8006  0.0529 -1.1499
 3838SOL     OW23149   4.275   2.832   4.528 -0.0687  0.3307  0.1498
 3838SOL    HW123150   4.235   2.749   4.555  0.2741  0.3021  0.5742
 3838SOL    HW223151   4.366   2.823   4.556 -0.3419  0.2166  1.0227
 3839SOL     OW23152   3.936   0.314  17.454 -0.0035  0.0450 -0.0896
 3839SOL    HW123153   3.876   0.312  17.380 -0.3271  1.6582  0.1171
 3839SOL    HW223154   3.954   0.220  17.463  0.4189  0.1429  0.0717
 3840SOL     OW23155   3.475   2.921   7.082 -0.0785  0.2551 -0.1608
 3840SOL    HW123156   3.489   2.851   7.146 -0.0518  0.7004  0.3246
 3840SOL    HW223157   3.549   2.976   7.108  0.9235 -0.7228 -0.9657
 3841SOL     OW23158   0.034   0.406   6.692  0.6419 -0.2852  0.1980
 3841SOL    HW123159   0.126   0.432   6.690  1.4030 -2.9420  0.6428
 3841SOL    HW223160   4.729   0.447   6.616 -0.0389  0.0749  0.7624
 3842SOL     OW23161   3.140   4.393   8.127  0.1165 -0.2116 -0.1544
 3842SOL    HW123162   3.184   4.360   8.048  1.0423 -0.2675  0.3829
 3842SOL    HW223163   3.202   4.372   8.197  0.9111 -1.6918 -1.3070
 3843SOL     OW23164   0.941   2.083   2.334 -0.1355 -0.3726 -0.1832
 3843SOL    HW123165   0.934   2.073   2.429 -2.0413 -0.8785 -0.3692
 3843SOL    HW223166   0.931   1.991   2.309 -3.3532  0.6674 -2.5886
 3844SOL     OW23167   1.902   4.244  11.012  0.0484 -0.7064  0.8430
 3844SOL    HW123168   1.812   4.239  11.043 -1.0074  1.6070 -1.8560
 3844SOL    HW223169   1.896   4.276  10.922  0.4584 -0.8043  0.7797
 3845SOL     OW23170   3.991   3.586   9.656  0.5704  0.1607  1.1289
 3845SOL    HW123171   3.921   3.642   9.691  0.3222 -0.1943  1.2035
 3845SOL    HW223172   4.002   3.532   9.735 -0.5056 -0.1332  1.0748
 3846SOL     OW23173   3.811   1.997   3.579  0.2049 -0.1645  0.2943
 3846SOL    HW123174   3.816   2.000   3.674  2.2509 -0.1127  0.1914
 3846SOL    HW223175   3.794   2.091   3.567 -1.4932 -0.5574 -0.3310
 3847SOL     OW23176   3.443   3.154   4.269  0.0851 -0.2885  0.2453
 3847SOL    HW123177   3.362   3.159   4.219  0.6697  0.0327 -0.6874
 3847SOL    HW223178   3.505   3.144   4.196  0.9483 -1.9296  1.2098
 3848SOL     OW23179   2.708   4.252   8.655 -0.7113  0.3616  0.5225
 3848SOL    HW123180   2.764   4.230   8.581 -0.2097  0.0248  1.0007
 3848SOL    HW223181   2.627   4.205   8.635 -1.2999  1.0965  1.1599
 3849SOL     OW23182   3.830   3.244   0.497  0.2398  0.2256 -0.4164
 3849SOL    HW123183   3.922   3.234   0.522 -0.2682 -0.5122  1.1689
 3849SOL    HW223184   3.810   3.167   0.444 -0.6560 -0.0544  0.3355
 3850SOL     OW23185   4.582   0.977   7.778 -0.2612 -0.0576  0.0987
 3850SOL    HW123186   4.610   0.893   7.740 -1.5983 -0.4702  0.0250
 3850SOL    HW223187   4.588   1.042   7.708  1.2641 -0.9540 -0.6168
 3851SOL     OW23188   0.118   3.970  13.965 -0.2129 -0.4944 -0.4223
 3851SOL    HW123189   0.146   4.062  13.957 -1.2254 -0.0831  0.6975
 3851SOL    HW223190   0.196   3.922  13.937 -0.4235 -1.7445  1.1779
 3852SOL     OW23191   1.461   0.859   5.724 -0.0242  0.1858 -0.3542
 3852SOL    HW123192   1.438   0.776   5.765  0.7620 -0.0327 -0.3478
 3852SOL    HW223193   1.387   0.881   5.668  1.9730 -1.5686 -3.6720
 3853SOL     OW23194   4.627   4.178   2.180 -0.1892  0.0293  0.1756
 3853SOL    HW123195   4.676   4.101   2.211  0.5914 -1.0087 -3.6549
 3853SOL    HW223196   4.567   4.196   2.252 -0.4039 -0.7723  0.1974
 3854SOL     OW23197   2.108   0.165   7.841 -0.1470 -0.1826 -0.4454
 3854SOL    HW123198   2.110   0.244   7.895  0.7532 -0.5762  0.0944
 3854SOL    HW223199   2.067   0.198   7.761 -0.7369 -1.0775 -0.5171
 3855SOL     OW23200   4.288   0.187   6.252 -0.0611  0.3555 -0.2663
 3855SOL    HW123201   4.203   0.224   6.276 -0.7684 -1.5189  0.0964
 3855SOL    HW223202   4.316   0.155   6.338 -0.4955 -0.4090 -0.4204
 3856SOL     OW23203   0.265   1.409   7.557  0.2611  0.4457  0.1130
 3856SOL    HW123204   0.299   1.490   7.595  1.9308 -0.2237  0.0346
 3856SOL    HW223205   0.336   1.350   7.581  1.1229  1.1835 -0.6201
 3857SOL     OW23206   1.686   0.634   5.297 -0.4115 -0.2471  0.4169
 3857SOL    HW123207   1.775   0.598   5.288 -0.6478 -1.4532  3.0834
 3857SOL    HW223208   1.673   0.675   5.212  0.8032 -1.5352 -0.4046
 3858SOL     OW23209   4.092   2.936   9.525 -0.1858 -0.5131 -0.2451
 3858SOL    HW123210   4.025   2.963   9.462  0.1655  0.9415  0.0058
 3858SOL    HW223211   4.148   3.013   9.529 -0.9890  0.0463  0.4335
 3859SOL     OW23212   0.281   4.690   6.406 -0.3060 -0.4841  0.5173
 3859SOL    HW123213   0.202   4.658   6.451 -0.7906 -2.4427 -1.7834
 3859SOL    HW223214   0.253   4.685   6.315  0.3628  2.3551  0.1618
 3860SOL     OW23215   4.020   3.448   0.729 -0.4892 -0.2660  0.2966
 3860SOL    HW123216   4.023   3.375   0.791 -0.4448  0.9117  1.6661
 3860SOL    HW223217   4.106   3.463   0.690  0.1659  0.5512  2.0458
 3861SOL     OW23218   1.845   2.293   1.109  0.7089 -0.0624  0.3345
 3861SOL    HW123219   1.840   2.388   1.115  1.1266  0.0345 -0.8469
 3861SOL    HW223220   1.930   2.280   1.066  0.3567  2.6257 -1.1793
 3862SOL     OW23221   0.513   2.023  10.874 -0.2001  0.7158 -0.2258
 3862SOL    HW123222   0.604   1.997  10.860 -1.3453 -1.9020 -2.7614
 3862SOL    HW223223   0.488   2.084  10.805  2.0105  1.0983 -0.6892
 3863SOL     OW23224   3.465   1.061  12.726  0.4067  0.8277 -0.1977
 3863SOL    HW123225   3.519   0.984  12.744 -1.2012 -0.7659 -2.2575
 3863SOL    HW223226   3.386   1.033  12.682  2.7298 -3.3604 -1.6323
 3864SOL     OW23227   1.014   0.863   7.805 -0.7536 -0.0505  0.4006
 3864SOL    HW123228   0.920   0.847   7.801 -0.3235 -2.8399  1.7211
 3864SOL    HW223229   1.039   0.771   7.811  0.0501  0.0250 -1.6905
 3865SOL     OW23230   0.868   4.717   3.467 -0.1396 -0.0063 -0.1440
 3865SOL    HW123231   0.841   0.065   3.504 -0.0461  0.5829 -1.4096
 3865SOL    HW223232   0.947   0.009   3.419  0.3939 -1.2874 -0.0069
 3866SOL     OW23233   2.679   2.819   7.693 -0.1644 -0.1546 -0.0548
 3866SOL    HW123234   2.775   2.812   7.693 -0.1605 -0.1730  1.1959
 3866SOL    HW223235   2.659   2.885   7.760  1.2986  1.3482 -1.0910
 3867SOL     OW23236   2.623   4.731  17.242 -0.3750  0.2229 -0.2549
 3867SOL    HW123237   2.662   4.684  17.316  1.4783  0.2729 -1.2228
 3867SOL    HW223238   2.572   0.055  17.297  1.2327  0.5684  0.8573
 3868SOL     OW23239   4.178   2.556   7.582 -0.0119  0.3718  0.7965
 3868SOL    HW123240   4.199   2.579   7.672 -0.0702  0.7286  0.7202
 3868SOL    HW223241   4.171   2.637   7.532  0.2218 -1.6400 -2.4787
 3869SOL     OW23242   1.213   4.326   9.648  0.1132  0.2607 -0.0145
 3869SOL    HW123243   1.125   4.358   9.667  0.0503 -0.4766  0.9464
 3869SOL    HW223244   1.201   4.236   9.678  1.0687  0.3255  0.5475
 3870SOL     OW23245   0.786   1.899  10.181  0.0665  0.3107 -0.0838
 3870SOL    HW123246   0.783   1.807  10.205  2.4114  0.5731  1.2616
 3870SOL    HW223247   0.719   1.910  10.114 -1.1754  0.6728  1.2088
 3871SOL     OW23248   1.674   2.902   6.074  0.4443 -0.1755  0.6335
 3871SOL    HW123249   1.623   2.888   6.154 -0.0776 -1.1992  0.1115
 3871SOL    HW223250   1.664   2.821   6.025  1.8225 -1.3097  2.2355
 3872SOL     OW23251   2.308   0.922   7.055 -0.5700  0.4389 -0.1218
 3872SOL    HW123252   2.370   0.972   7.001  2.0057 -2.4696  0.1581
 3872SOL    HW223253   2.309   0.840   7.007 -0.7111  0.0131  0.5949
 3873SOL     OW23254   3.318   0.051   4.502  0.9272  0.5955 -0.4548
 3873SOL    HW123255   3.313   0.004   4.419  0.4481  0.3868 -0.3070
 3873SOL    HW223256   3.373   4.724   4.549  0.3196  1.1252  0.9712
 3874SOL     OW23257   1.043   3.383   8.270  0.1489 -0.3279  0.6543
 3874SOL    HW123258   1.062   3.391   8.177  1.6868  0.0153  1.0034
 3874SOL    HW223259   1.127   3.346   8.298  0.8556  0.4603 -0.4454
 3875SOL     OW23260   4.437   2.013   5.210  0.0108 -0.7897  0.2989
 3875SOL    HW123261   4.461   1.943   5.150 -2.9316 -1.4822 -0.0952
 3875SOL    HW223262   4.345   2.034   5.191  0.6074  1.7427  0.1907
 3876SOL     OW23263   0.451   1.078   1.138 -0.1211 -0.8539  0.0780
 3876SOL    HW123264   0.440   1.130   1.058 -0.9034  0.4377  1.0221
 3876SOL    HW223265   0.522   1.017   1.119  0.6370 -0.1855  0.7940
 3877SOL     OW23266   0.345   3.679   8.032 -0.1519  0.1691  0.3054
 3877SOL    HW123267   0.264   3.630   8.050 -0.2423  0.0879 -0.2996
 3877SOL    HW223268   0.312   3.768   8.021 -0.4023  0.4235  3.1197
 3878SOL     OW23269   0.022   2.612   9.488  0.1665  0.1011  0.0792
 3878SOL    HW123270   0.075   2.652   9.557 -1.7410  0.1254  1.5128
 3878SOL    HW223271   0.071   2.530   9.481  0.9838  0.7293 -1.5960
 3879SOL     OW23272   0.510   1.993  15.460  0.2426 -0.2003 -0.1485
 3879SOL    HW123273   0.446   2.023  15.396  1.8701  0.6232 -1.3998
 3879SOL    HW223274   0.587   2.043  15.431  1.0753 -1.2466  0.2779
 3880SOL     OW23275   0.306   4.296   1.523  0.3408  0.4192  0.6003
 3880SOL    HW123276   0.230   4.347   1.554 -1.9261 -0.7893 -2.9853
 3880SOL    HW223277   0.267   4.211   1.501 -0.7888  0.5855  1.9298
 3881SOL     OW23278   3.217   1.749   7.094 -0.0726 -0.0438 -0.1349
 3881SOL    HW123279   3.203   1.844   7.097  3.6634  0.5667 -1.7476
 3881SOL    HW223280   3.155   1.728   7.024 -1.6954 -0.2731  1.3628
 3882SOL     OW23281   0.204   1.859   3.366  0.2376 -0.1744 -0.7065
 3882SOL    HW123282   0.236   1.776   3.401 -2.7929 -1.8516 -1.9332
 3882SOL    HW223283   0.269   1.867   3.296 -0.5894  1.6168 -1.2670
 3883SOL     OW23284   0.118   0.769  13.717  0.2262 -0.2199 -0.2820
 3883SOL    HW123285   0.157   0.704  13.775  2.5597  1.5671  0.1637
 3883SOL    HW223286   0.025   0.749  13.731 -0.2393  0.4348 -2.3349
 3884SOL     OW23287   1.288   2.653   5.531 -0.0572  0.0627 -0.0928
 3884SOL    HW123288   1.293   2.653   5.435 -0.2460  1.6529 -0.1060
 3884SOL    HW223289   1.379   2.662   5.559 -0.5241  1.8860  0.8366
 3885SOL     OW23290   1.275   2.721   9.538  0.3338  0.3730 -0.1011
 3885SOL    HW123291   1.248   2.755   9.453  0.0905  2.0797  0.6615
 3885SOL    HW223292   1.345   2.658   9.519  0.4875  0.8377 -1.0434
 3886SOL     OW23293   2.954   1.240   3.787  0.2246  0.1694  0.3907
 3886SOL    HW123294   2.874   1.257   3.738 -0.1670 -1.6214  0.4110
 3886SOL    HW223295   2.933   1.182   3.860  1.8677 -2.0705 -0.9148
 3887SOL     OW23296   2.610   2.652   8.926 -0.5086  1.0644  0.4095
 3887SOL    HW123297   2.632   2.726   8.869  0.4058  1.5179  1.3475
 3887SOL    HW223298   2.701   2.645   8.954  0.6239  1.2398 -3.2016
 3888SOL     OW23299   3.317   4.520  12.518  0.0273 -0.3414  0.2376
 3888SOL    HW123300   3.344   4.595  12.571 -0.8626  0.1077  0.0466
 3888SOL    HW223301   3.223   4.519  12.534 -0.1030 -0.4202 -0.5239
 3889SOL     OW23302   4.040   3.284   7.747  0.3258 -0.6902  0.1456
 3889SOL    HW123303   4.008   3.374   7.746  1.0621 -0.4367 -0.4558
 3889SOL    HW223304   4.086   3.291   7.831  1.5568 -0.2283 -0.5806
 3890SOL     OW23305   0.287   1.339   2.583 -0.2993  0.4018 -0.1090
 3890SOL    HW123306   0.241   1.257   2.599 -3.7012  2.3516 -0.0134
 3890SOL    HW223307   0.375   1.321   2.618 -1.2531 -2.1416  0.9776
 3891SOL     OW23308   0.926   0.638   9.540  0.0152  0.0803  0.1209
 3891SOL    HW123309   0.944   0.623   9.633  0.7529  1.1687  0.1550
 3891SOL    HW223310   0.970   0.561   9.504  0.3184  0.6726 -0.7414
 3892SOL     OW23311   1.065   3.310  12.489  0.0867 -0.0959  0.1959
 3892SOL    HW123312   1.123   3.257  12.544  2.5109  2.3805  0.0272
 3892SOL    HW223313   1.079   3.265  12.406 -1.6737 -1.2318  0.5152
 3893SOL     OW23314   1.765   0.669   3.452  0.5428  0.3026  0.1548
 3893SOL    HW123315   1.742   0.655   3.360 -0.1750 -0.0448  0.3838
 3893SOL    HW223316   1.860   0.668   3.463  0.6614  1.7590 -0.7628
 3894SOL     OW23317   1.353   3.620   2.930 -0.1548 -0.0324  0.0167
 3894SOL    HW123318   1.417   3.591   2.995 -0.0762 -0.7097 -0.3726
 3894SOL    HW223319   1.343   3.710   2.961 -1.7105 -0.1321 -0.2099
 3895SOL     OW23320   4.048   3.225   2.310 -0.1512 -0.7289 -0.1540
 3895SOL    HW123321   3.998   3.252   2.387  1.8179  1.7576  0.2583
 3895SOL    HW223322   4.081   3.310   2.283 -0.7070  0.5780  3.2754
 3896SOL     OW23323   1.172   3.417   5.320 -0.2452  0.0439  0.7806
 3896SOL    HW123324   1.200   3.390   5.233 -0.8734 -1.0019  0.8999
 3896SOL    HW223325   1.086   3.376   5.323  0.7331 -2.0352 -0.0641
 3897SOL     OW23326   1.268   3.445   3.641 -0.6297  0.8746 -0.4428
 3897SOL    HW123327   1.177   3.420   3.662 -0.2371 -0.3891 -0.2216
 3897SOL    HW223328   1.308   3.372   3.688  1.1473  0.4005 -2.7069
 3898SOL     OW23329   2.762   4.466   5.573  0.4563  0.1214 -0.2300
 3898SOL    HW123330   2.793   4.483   5.484  0.1369 -0.8227 -0.5225
 3898SOL    HW223331   2.699   4.395   5.562 -0.2259  0.4759  1.3916
 3899SOL     OW23332   4.013   1.539  17.513 -0.2974 -0.0772  0.6352
 3899SOL    HW123333   3.989   1.506  17.600  0.1428  1.7642  1.4470
 3899SOL    HW223334   4.070   1.465  17.493  0.1060  0.4480 -0.1327
 3900SOL     OW23335   4.560   1.517  13.148 -0.0040 -0.1629  0.4987
 3900SOL    HW123336   4.468   1.533  13.166 -0.0417 -0.2051  0.3401
 3900SOL    HW223337   4.556   1.433  13.101  4.0320 -0.3066  0.3623
 3901SOL     OW23338   0.459   1.340   5.038 -0.6408 -0.0910  0.5559
 3901SOL    HW123339   0.374   1.295   5.033 -0.2237 -0.6915 -1.1708
 3901SOL    HW223340   0.515   1.264   5.051  0.7166  1.1654  2.0329
 3902SOL     OW23341   2.736   3.193  15.362  0.3679  0.2447  0.3598
 3902SOL    HW123342   2.697   3.125  15.308 -1.3954  0.7323  1.0232
 3902SOL    HW223343   2.764   3.255  15.295  0.6941 -1.2101 -0.8498
 3903SOL     OW23344   3.001   1.205   3.140  0.0806 -0.3371  0.4942
 3903SOL    HW123345   2.975   1.296   3.127  0.2299 -0.1689  1.3650
 3903SOL    HW223346   3.050   1.200   3.058  1.7183  1.9251  1.3520
 3904SOL     OW23347   3.037   3.798   8.107 -0.4419  0.3540 -0.2847
 3904SOL    HW123348   3.064   3.714   8.144  0.0060  0.0357 -1.3446
 3904SOL    HW223349   3.114   3.848   8.082  0.0631  0.6193  1.7431
 3905SOL     OW23350   0.409   0.172   6.494  0.6418  0.6126  0.0785
 3905SOL    HW123351   0.422   0.230   6.419 -1.2068 -0.0381 -0.7252
 3905SOL    HW223352   0.363   0.100   6.452 -0.8953  1.4518  0.3208
 3906SOL     OW23353   4.187   3.307   9.371 -0.9189 -0.3531 -0.2835
 3906SOL    HW123354   4.223   3.295   9.458 -0.7490 -0.4294 -0.3641
 3906SOL    HW223355   4.141   3.222   9.368  0.8264 -1.2546 -1.5150
 3907SOL     OW23356   2.681   3.590  15.541  0.8264  0.5525 -0.0647
 3907SOL    HW123357   2.679   3.544  15.625  1.5129  2.5614  1.0503
 3907SOL    HW223358   2.591   3.620  15.531  0.3676 -0.6295  0.4745
 3908SOL     OW23359   2.977   4.507  13.881 -0.2276  0.0455  0.0876
 3908SOL    HW123360   3.070   4.508  13.902 -0.3890  0.3290  0.7856
 3908SOL    HW223361   2.992   4.516  13.786  1.4822  0.0902  0.3590
 3909SOL     OW23362   1.844   3.246  11.370  0.2943  0.3261  0.7835
 3909SOL    HW123363   1.927   3.199  11.375  0.3315  0.4729  1.4862
 3909SOL    HW223364   1.814   3.240  11.460  0.7994 -0.6084  0.8896
 3910SOL     OW23365   4.108   0.192   5.554  0.3085 -0.1041  0.2519
 3910SOL    HW123366   4.159   0.205   5.474  1.0951  0.4708  0.8463
 3910SOL    HW223367   4.143   0.265   5.604 -0.8082 -0.1114  1.0565
 3911SOL     OW23368   1.293   0.381  17.238 -0.2736  0.1866  0.4225
 3911SOL    HW123369   1.316   0.450  17.176  2.7331 -2.1009 -1.0019
 3911SOL    HW223370   1.340   0.420  17.313  0.7513 -1.0011  0.3915
 3912SOL     OW23371   0.977   3.792  12.858  0.1659 -1.0274  0.4518
 3912SOL    HW123372   0.935   3.832  12.782  2.5331  2.7516  1.1240
 3912SOL    HW223373   1.069   3.816  12.849  0.2587 -1.6915 -0.4013
 3913SOL     OW23374   3.548   2.186  10.514  0.1798  0.1982  0.4341
 3913SOL    HW123375   3.633   2.224  10.538  1.2044 -2.0190  0.3285
 3913SOL    HW223376   3.489   2.245  10.560 -0.3414  0.4457 -0.5494
 3914SOL     OW23377   4.142   0.690   3.551  0.5597 -0.1175  0.3428
 3914SOL    HW123378   4.221   0.644   3.578  0.4697  0.1202  1.0222
 3914SOL    HW223379   4.071   0.627   3.543 -0.2786  0.7559  0.9179
 3915SOL     OW23380   1.153   1.188   3.997  0.2098  0.5338  0.2875
 3915SOL    HW123381   1.108   1.104   3.989 -1.0421  1.1036  1.2386
 3915SOL    HW223382   1.202   1.182   3.916  0.2819  0.9571  0.3011
 3916SOL     OW23383   1.547   0.553   3.545 -0.4530  0.6960 -0.1483
 3916SOL    HW123384   1.599   0.571   3.623  3.3176 -3.5039 -1.7132
 3916SOL    HW223385   1.615   0.588   3.488 -1.4358 -0.4338 -2.0228
 3917SOL     OW23386   0.998   0.131   5.370  0.6888  0.2457  0.2541
 3917SOL    HW123387   1.058   0.059   5.351  0.6759  0.8609 -2.0865
 3917SOL    HW223388   1.057   0.206   5.361  0.3781  0.6012  1.1640
 3918SOL     OW23389   0.219   4.265  14.036 -0.2438 -0.3574 -0.8388
 3918SOL    HW123390   0.266   4.243  14.116 -2.3734  3.7210  1.5355
 3918SOL    HW223391   0.183   4.354  14.037  0.2212 -0.1839  0.1684
 3919SOL     OW23392   1.331   0.472  10.408  0.7926 -0.3062  0.1546
 3919SOL    HW123393   1.305   0.558  10.376  0.7639  0.2320  1.6529
 3919SOL    HW223394   1.315   0.415  10.333 -0.0986 -1.6832  1.3887
 3920SOL     OW23395   0.938   0.885   4.303  0.0154 -0.3465 -0.0731
 3920SOL    HW123396   0.877   0.814   4.284 -0.3573 -0.1531  0.4145
 3920SOL    HW223397   0.970   0.862   4.391 -2.2569 -1.1990  0.5255
 3921SOL     OW23398   3.284   3.597  17.010 -0.6602 -0.4651 -0.5176
 3921SOL    HW123399   3.264   3.685  16.979 -0.5748 -0.0452  0.6255
 3921SOL    HW223400   3.229   3.597  17.089 -1.6096 -1.2686 -1.1730
 3922SOL     OW23401   0.057   2.999   3.061  0.3702 -0.4097 -0.4651
 3922SOL    HW123402   0.002   2.922   3.079 -1.1317  0.8321  0.3099
 3922SOL    HW223403   0.001   3.056   3.010  0.0598  1.0514  1.5093
 3923SOL     OW23404   1.461   1.548   1.687 -0.4026  0.2272 -0.0773
 3923SOL    HW123405   1.512   1.513   1.614  1.0478  2.1777  0.0268
 3923SOL    HW223406   1.489   1.496   1.762  0.5284  0.7157 -0.0861
 3924SOL     OW23407   2.162   3.520   5.761 -0.0300 -0.1406 -0.6207
 3924SOL    HW123408   2.072   3.548   5.744 -0.2387 -0.4393 -0.0103
 3924SOL    HW223409   2.182   3.485   5.674 -0.4753  0.1827 -0.8503
 3925SOL     OW23410   0.137   3.997  14.245  0.4123  0.2003  0.0653
 3925SOL    HW123411   0.213   4.055  14.254  1.8456 -1.6904  0.1312
 3925SOL    HW223412   0.129   3.986  14.150  1.0741 -1.2561  0.1731
 3926SOL     OW23413   3.667   1.930   4.384  0.6016 -0.1722 -0.0899
 3926SOL    HW123414   3.657   1.909   4.477  2.7045 -0.5816  0.0332
 3926SOL    HW223415   3.666   2.026   4.382 -1.4343 -0.1726  0.6373
 3927SOL     OW23416   1.003   2.701   5.075  0.1666 -0.3823 -0.4653
 3927SOL    HW123417   1.049   2.618   5.062  1.9954  0.4486  0.6366
 3927SOL    HW223418   0.981   2.722   4.985  0.0121 -2.4648 -0.9041
 3928SOL     OW23419   1.870   4.088  15.425  0.5157 -0.5753  0.6458
 3928SOL    HW123420   1.909   4.065  15.341 -0.9803  0.6550 -0.3800
 3928SOL    HW223421   1.931   4.156  15.455  0.4660  0.7302 -2.2795
 3929SOL     OW23422   2.227   0.557   4.113 -0.1639 -0.4857 -0.7178
 3929SOL    HW123423   2.226   0.468   4.079  0.6074 -1.5142  1.9019
 3929SOL    HW223424   2.314   0.560   4.154 -0.2396  0.9086 -0.6576
 3930SOL     OW23425   2.649   3.655   6.905 -0.2443 -0.1358 -0.1260
 3930SOL    HW123426   2.702   3.583   6.871  0.5555 -0.3365  1.5550
 3930SOL    HW223427   2.653   3.704   6.824  0.6416 -0.4358 -0.2664
 3931SOL     OW23428   2.501   0.270  12.714 -0.3580  0.2250 -0.5547
 3931SOL    HW123429   2.502   0.188  12.665 -1.8108  0.6951 -1.3632
 3931SOL    HW223430   2.419   0.270  12.763 -0.5230 -3.1951 -0.8349
 3932SOL     OW23431   0.481   4.393  14.265 -0.4144  0.3125  0.3774
 3932SOL    HW123432   0.485   4.449  14.342  4.4378  1.3452 -0.6157
 3932SOL    HW223433   0.505   4.460  14.201 -0.8569  2.1708  2.1585
 3933SOL     OW23434   4.190   2.449   5.880  0.2748 -0.1792  1.0143
 3933SOL    HW123435   4.110   2.458   5.826  0.4471  1.8570  1.1125
 3933SOL    HW223436   4.251   2.431   5.808 -0.9251  1.8204 -0.5252
 3934SOL     OW23437   2.578   2.745  11.480 -0.3383 -0.5155 -0.1788
 3934SOL    HW123438   2.511   2.701  11.428 -0.3451 -0.6714 -0.0391
 3934SOL    HW223439   2.645   2.763  11.415  0.5268 -2.4423  0.1773
 3935SOL     OW23440   3.800   3.962   7.540 -0.0924 -0.7265 -0.0589
 3935SOL    HW123441   3.710   3.994   7.538  0.4944  0.9784  1.4941
 3935SOL    HW223442   3.811   3.954   7.635 -0.2601  0.1392  0.0332
 3936SOL     OW23443   2.058   2.143   3.643  0.5255  0.1910 -0.6020
 3936SOL    HW123444   2.000   2.066   3.645  1.1301 -0.2924 -1.8068
 3936SOL    HW223445   2.091   2.137   3.553  2.2933 -2.2716  0.2215
 3937SOL     OW23446   3.703   4.260   7.900  0.1233  0.5569  0.5857
 3937SOL    HW123447   3.780   4.210   7.927 -1.0942 -2.3546 -1.3121
 3937SOL    HW223448   3.629   4.199   7.904 -0.5298  1.2630 -0.7251
 3938SOL     OW23449   1.169   1.214   4.476  0.0595 -0.2994  0.2373
 3938SOL    HW123450   1.114   1.232   4.552 -0.6793 -0.9001 -0.1585
 3938SOL    HW223451   1.159   1.292   4.421 -0.6323 -1.9903 -2.0520
 3939SOL     OW23452   0.020   3.362   9.520 -0.0336  0.2228 -0.2878
 3939SOL    HW123453   4.710   3.314   9.589  1.6226 -0.4673  0.3367
 3939SOL    HW223454   4.725   3.311   9.445 -1.6981  0.7652  0.0219
 3940SOL     OW23455   4.052   2.295   4.751  0.1613 -0.1930  0.3815
 3940SOL    HW123456   4.046   2.247   4.834  1.2151 -0.0188  0.5522
 3940SOL    HW223457   3.970   2.267   4.710  0.2203 -0.8278  0.7087
 3941SOL     OW23458   0.987   0.352   5.168 -0.2116  0.0372  1.1387
 3941SOL    HW123459   0.933   0.332   5.244 -0.5192  3.1884  1.7420
 3941SOL    HW223460   1.069   0.346   5.217  0.4061  1.7923  0.3688
 3942SOL     OW23461   1.655   1.695  11.328 -0.7550  0.1860  0.3395
 3942SOL    HW123462   1.636   1.713  11.236 -0.5359  1.0480  0.4633
 3942SOL    HW223463   1.618   1.770  11.374 -0.4214  0.6033 -0.0740
 3943SOL     OW23464   4.724   1.897   0.813  0.0924  0.0528 -0.2809
 3943SOL    HW123465   4.728   1.883   0.718  0.1576 -0.5817 -0.1821
 3943SOL    HW223466   4.668   1.822   0.829 -0.0606  0.0425 -0.8579
 3944SOL     OW23467   1.651   1.859   9.640 -0.1778  0.8142  0.0517
 3944SOL    HW123468   1.622   1.780   9.685 -0.8316  0.6533 -0.6514
 3944SOL    HW223469   1.742   1.866   9.672  0.4080 -1.7879 -1.0330
 3945SOL     OW23470   3.028   2.190   3.460  0.2374 -0.6717 -0.6155
 3945SOL    HW123471   3.118   2.177   3.489  0.4031 -0.1534 -0.9080
 3945SOL    HW223472   2.987   2.143   3.532  1.6932 -0.2147  0.5100
 3946SOL     OW23473   3.495   0.274   8.310  0.1144  0.1352 -0.7897
 3946SOL    HW123474   3.509   0.339   8.379  2.3764  0.6285 -1.7221
 3946SOL    HW223475   3.443   0.322   8.245  0.2624  1.2535 -0.0717
 3947SOL     OW23476   4.475   3.115   6.635 -0.6530  0.2101 -0.5737
 3947SOL    HW123477   4.496   3.197   6.590 -0.6034  1.1608  1.1702
 3947SOL    HW223478   4.404   3.078   6.583 -1.0984 -0.1539  0.3117
 3948SOL     OW23479   2.441   3.415   7.253 -0.1561 -0.2060 -0.2778
 3948SOL    HW123480   2.433   3.476   7.327 -0.2778 -0.2765 -0.2330
 3948SOL    HW223481   2.517   3.455   7.211  1.7054 -2.9873  0.4441
 3949SOL     OW23482   1.152   0.055   7.125  0.2186  0.1026  0.2091
 3949SOL    HW123483   1.233   0.091   7.089 -0.7379  0.3313 -1.7057
 3949SOL    HW223484   1.191   4.727   7.184 -1.4591 -0.8618  0.2663
 3950SOL     OW23485   0.137   0.481   2.887  0.2962  0.2729  0.1422
 3950SOL    HW123486   0.071   0.473   2.818  0.4279 -0.2422  0.0730
 3950SOL    HW223487   0.222   0.490   2.843  0.3042 -0.1795  0.0612
 3951SOL     OW23488   2.138   1.012   8.209  0.1677 -0.2221 -0.0247
 3951SOL    HW123489   2.207   0.973   8.155  0.3747  0.2717 -0.1184
 3951SOL    HW223490   2.153   1.105   8.190 -1.7707 -0.1665 -1.1962
 3952SOL     OW23491   1.247   4.236   3.893  0.4823  0.0608 -0.3829
 3952SOL    HW123492   1.342   4.251   3.891  0.4991  0.0662  0.5537
 3952SOL    HW223493   1.223   4.291   3.819 -1.0814  1.3437  1.0735
 3953SOL     OW23494   2.615   1.159  10.832 -0.2112 -0.0443  0.2805
 3953SOL    HW123495   2.598   1.122  10.919  0.8877 -0.0679  0.4913
 3953SOL    HW223496   2.558   1.099  10.785 -1.3095 -0.5367  2.2422
 3954SOL     OW23497   3.480   4.343   2.949  0.0606 -0.3927 -0.2591
 3954SOL    HW123498   3.440   4.262   2.981 -1.0987 -0.1507 -1.1048
 3954SOL    HW223499   3.572   4.320   2.964  0.0887 -1.1873 -1.6753
 3955SOL     OW23500   4.595   0.786   5.410 -0.4414 -0.0453 -0.5092
 3955SOL    HW123501   4.615   0.722   5.341  0.7414  0.2597 -0.4522
 3955SOL    HW223502   4.555   0.856   5.359  1.2661  0.7046 -0.8298
 3956SOL     OW23503   3.569   0.016   4.015  0.0894 -0.2657 -0.2005
 3956SOL    HW123504   3.649   0.030   3.966 -0.9718  0.9310 -1.6027
 3956SOL    HW223505   3.511   4.724   3.944  0.0161 -2.0238  0.5459
 3957SOL     OW23506   2.870   2.422   1.742  0.1051 -0.5428  0.1046
 3957SOL    HW123507   2.917   2.365   1.803  0.1391 -1.1797 -0.5174
 3957SOL    HW223508   2.897   2.373   1.664  1.1209 -0.8086  0.6252
 3958SOL     OW23509   1.156   0.290   7.422  0.3253  0.0517  0.1135
 3958SOL    HW123510   1.162   0.203   7.460 -1.5759  0.3066  0.9827
 3958SOL    HW223511   1.062   0.290   7.404  0.3829  0.2327 -0.1838
 3959SOL     OW23512   4.268   0.688   5.298  0.0269 -0.4107  0.3724
 3959SOL    HW123513   4.296   0.602   5.267  1.1779 -0.3389  1.2174
 3959SOL    HW223514   4.315   0.753   5.246 -0.4233  0.2868  0.8374
 3960SOL     OW23515   1.637   0.734  11.634  0.1787  0.1949 -0.2397
 3960SOL    HW123516   1.655   0.767  11.546  0.8790 -1.0510 -0.5603
 3960SOL    HW223517   1.716   0.682  11.645 -0.2137 -0.5880 -1.1747
 3961SOL     OW23518   3.378   3.239  16.722  0.6401  0.2524  0.0622
 3961SOL    HW123519   3.381   3.144  16.710 -3.2968  0.0700  0.5314
 3961SOL    HW223520   3.336   3.258  16.805  2.1429  1.6783  0.4842
 3962SOL     OW23521   3.254   3.970   6.503 -0.1634 -0.1168  0.7526
 3962SOL    HW123522   3.345   3.961   6.473 -0.4799 -1.6434  0.2904
 3962SOL    HW223523   3.252   4.051   6.554 -1.4710  1.1497 -1.3124
 3963SOL     OW23524   0.512   0.139   3.344  0.0856  0.0756 -0.4719
 3963SOL    HW123525   0.497   0.208   3.409 -1.3639  0.1542 -0.8881
 3963SOL    HW223526   0.430   0.147   3.295  0.0689  0.3561 -0.3938
 3964SOL     OW23527   0.939   3.589   2.453 -0.5029 -0.0666  0.1656
 3964SOL    HW123528   1.025   3.575   2.493 -1.3607 -0.9654  1.6809
 3964SOL    HW223529   0.952   3.627   2.366 -1.5461  1.0877  0.5060
 3965SOL     OW23530   3.116   4.716   6.375 -0.0640 -0.5056 -0.1189
 3965SOL    HW123531   3.054   0.035   6.422  1.2738  0.6946  0.2402
 3965SOL    HW223532   3.187   4.708   6.438 -1.5652 -0.7612  1.5266
 3966SOL     OW23533   4.300   1.360   4.451  0.1678  0.1056  0.4587
 3966SOL    HW123534   4.364   1.289   4.443 -0.9095 -0.8358  0.1922
 3966SOL    HW223535   4.304   1.377   4.545  0.3705 -0.8887  0.6380
 3967SOL     OW23536   2.910   4.642   5.219 -0.2490 -0.3106 -0.5006
 3967SOL    HW123537   2.998   4.666   5.191 -0.4313  0.4072 -0.4617
 3967SOL    HW223538   2.929   4.656   5.312  1.4353 -0.0234 -0.9038
 3968SOL     OW23539   3.416   2.078  13.187 -0.6098 -0.7072 -0.2955
 3968SOL    HW123540   3.390   2.127  13.265 -1.9692  0.1106 -1.2710
 3968SOL    HW223541   3.451   2.157  13.145 -2.6815  1.3869  1.9169
 3969SOL     OW23542   4.346   3.511  10.763  0.0066  0.6495  0.2417
 3969SOL    HW123543   4.275   3.508  10.699  1.2245 -1.8553 -0.9918
 3969SOL    HW223544   4.416   3.455  10.730  0.1345  1.0830 -0.2350
 3970SOL     OW23545   4.221   2.485  11.404 -0.0111  0.1492  0.2381
 3970SOL    HW123546   4.254   2.406  11.360  0.3774  1.0866 -1.1505
 3970SOL    HW223547   4.127   2.480  11.384  0.5424 -2.3423 -1.7500
 3971SOL     OW23548   1.111   3.313   9.123  0.3148  0.4864 -0.5148
 3971SOL    HW123549   1.034   3.338   9.072  0.0653 -1.5235 -1.1229
 3971SOL    HW223550   1.151   3.400   9.125 -0.1492  0.7020 -0.6905
 3972SOL     OW23551   3.688   1.779   9.500  0.2848  0.2044  0.0011
 3972SOL    HW123552   3.780   1.787   9.526  1.0757 -1.0415 -2.4652
 3972SOL    HW223553   3.695   1.715   9.429  0.3974  0.6879 -0.4207
 3973SOL     OW23554   4.414   0.195   2.698  0.5131 -0.1571  0.4700
 3973SOL    HW123555   4.428   0.250   2.621  0.4247 -0.9365 -0.0929
 3973SOL    HW223556   4.338   0.142   2.676 -0.3887  2.5384 -2.8295
 3974SOL     OW23557   3.207   0.762  11.076 -0.3641  0.5040 -0.1659
 3974SOL    HW123558   3.160   0.721  11.004 -1.0270 -0.0355  0.5775
 3974SOL    HW223559   3.151   0.750  11.153  1.1475  1.3293  1.0681
 3975SOL     OW23560   1.562   1.297  16.746 -0.5446 -0.6852 -0.0898
 3975SOL    HW123561   1.592   1.209  16.769  2.2092  0.2788  0.0381
 3975SOL    HW223562   1.580   1.352  16.822  0.9613 -0.2058 -0.8020
 3976SOL     OW23563   1.227   3.490  11.996 -0.5155 -0.2604 -0.0916
 3976SOL    HW123564   1.233   3.495  11.901  1.4247 -0.7138  0.0182
 3976SOL    HW223565   1.137   3.511  12.022 -0.3300 -0.7866  0.9560
 3977SOL     OW23566   3.730   3.705   8.173 -0.0049  0.2203 -0.0228
 3977SOL    HW123567   3.674   3.635   8.207 -0.8604  1.0066  0.2144
 3977SOL    HW223568   3.816   3.664   8.175  0.8489  1.9787 -0.6747
 3978SOL     OW23569   1.351   4.282   9.383 -0.3990  0.6216 -0.0067
 3978SOL    HW123570   1.329   4.321   9.468 -0.3588  0.7991 -0.0774
 3978SOL    HW223571   1.378   4.360   9.335  4.3883 -1.4498 -0.6885
 3979SOL     OW23572   3.525   1.643   5.946  0.1990  0.1606  0.2539
 3979SOL    HW123573   3.508   1.573   5.883 -1.9772  0.1639  0.8584
 3979SOL    HW223574   3.617   1.666   5.928 -0.3316  2.0599 -0.0265
 3980SOL     OW23575   4.682   0.031   7.677 -0.5751  0.0315  0.2800
 3980SOL    HW123576   4.640   0.071   7.601  0.7164 -1.1068 -1.0299
 3980SOL    HW223577   4.711   0.112   7.719 -0.5781  0.9460 -1.4841
 3981SOL     OW23578   0.760   2.418   8.631  0.3590  1.0361  1.1439
 3981SOL    HW123579   0.767   2.406   8.726 -3.0844 -1.0956  1.1362
 3981SOL    HW223580   0.812   2.344   8.600  0.4643  1.2284  0.8639
 3982SOL     OW23581   4.618   2.478   9.135 -0.4287  0.0773  0.4576
 3982SOL    HW123582   4.619   2.562   9.181  2.6604  0.1879  0.1838
 3982SOL    HW223583   4.709   2.472   9.104 -0.8507 -1.2405 -0.5486
 3983SOL     OW23584   0.796   4.336   4.485 -0.1745 -0.3091  0.0415
 3983SOL    HW123585   0.769   4.382   4.406 -0.7989 -0.2601  0.2849
 3983SOL    HW223586   0.796   4.409   4.548 -0.2734 -0.5937  0.3740
 3984SOL     OW23587   1.030   2.313   2.642  0.5643  0.2005  0.1072
 3984SOL    HW123588   1.007   2.227   2.607 -1.3406  0.3695  0.9161
 3984SOL    HW223589   1.027   2.305   2.738  2.9330 -0.1304  0.1461
 3985SOL     OW23590   3.410   4.113  11.189 -0.3357  0.5964  0.0165
 3985SOL    HW123591   3.360   4.032  11.200 -1.5655  1.3095 -0.4342
 3985SOL    HW223592   3.452   4.096  11.104 -0.7977  0.2570 -0.1429
 3986SOL     OW23593   4.178   2.386   8.879  0.4705 -0.2464  0.4314
 3986SOL    HW123594   4.205   2.318   8.941 -1.9885 -0.9581  0.7389
 3986SOL    HW223595   4.178   2.459   8.941 -0.4018 -1.8879  2.3478
 3987SOL     OW23596   2.711   0.254  17.448 -0.1209  0.2334  0.1666
 3987SOL    HW123597   2.682   0.344  17.434  0.1734  0.7005  2.7010
 3987SOL    HW223598   2.639   0.191  17.445  1.2010 -1.2402 -0.3068
 3988SOL     OW23599   0.122   3.731   7.393 -0.0507 -0.4646  0.3459
 3988SOL    HW123600   0.033   3.708   7.418 -0.8404  2.6700  0.4132
 3988SOL    HW223601   0.117   3.822   7.421  1.9840  0.1316 -1.2787
 3989SOL     OW23602   4.591   0.975   0.133 -0.2199  0.6112  0.4574
 3989SOL    HW123603   4.569   0.892   0.092  0.4328  1.7049 -2.1436
 3989SOL    HW223604   4.534   0.971   0.209  1.0594 -0.6595  1.3521
 3990SOL     OW23605   0.391   4.147   3.963  0.2239  0.3147  0.0728
 3990SOL    HW123606   0.321   4.187   3.911 -1.1108 -1.5475  0.4806
 3990SOL    HW223607   0.460   4.145   3.896  2.1299 -0.7049  2.0912
 3991SOL     OW23608   4.719   2.972   6.602  0.3870 -0.1706 -0.7336
 3991SOL    HW123609   0.052   2.975   6.668 -0.4232  1.3696  0.0451
 3991SOL    HW223610   4.658   3.039   6.633 -0.5919 -0.8057 -1.2939
 3992SOL     OW23611   4.252   0.431   5.658  0.0018  0.3881  0.3038
 3992SOL    HW123612   4.295   0.514   5.636  1.9678 -0.4427  1.0562
 3992SOL    HW223613   4.303   0.396   5.731 -0.4086 -0.3954  0.2116
 3993SOL     OW23614   2.887   1.781   4.495 -0.4210 -0.6124 -1.1802
 3993SOL    HW123615   2.949   1.709   4.507 -1.2018 -0.7252  2.2869
 3993SOL    HW223616   2.803   1.737   4.505  0.2448 -1.1018  2.3028
 3994SOL     OW23617   0.616   2.742   8.115 -0.2224  0.1208  0.3771
 3994SOL    HW123618   0.604   2.781   8.201 -0.9771  1.0182 -0.1217
 3994SOL    HW223619   0.526   2.742   8.080 -0.1473 -0.4565  0.1953
 3995SOL     OW23620   1.538   3.275   7.548  0.5546  0.6222 -0.4141
 3995SOL    HW123621   1.512   3.365   7.528 -2.2007 -0.0185  0.2951
 3995SOL    HW223622   1.628   3.289   7.577  1.4278 -0.7839 -2.4652
 3996SOL     OW23623   0.384   3.720   7.429  0.1636 -0.2953 -0.3045
 3996SOL    HW123624   0.290   3.717   7.413  0.3081 -1.4429 -0.8681
 3996SOL    HW223625   0.375   3.811   7.458  1.9998  0.5806 -2.5152
 3997SOL     OW23626   1.510   0.744   7.341 -0.3689 -0.6144  0.3145
 3997SOL    HW123627   1.478   0.670   7.392  1.4068 -1.1868  0.5606
 3997SOL    HW223628   1.525   0.711   7.252  0.7856  1.6405 -0.3188
 3998SOL     OW23629   4.717   0.809   6.678 -0.3672  0.5070  0.6157
 3998SOL    HW123630   0.008   0.875   6.614  2.9092  0.9975  2.5002
 3998SOL    HW223631   0.033   0.843   6.751  2.2175 -0.8682 -0.6066
 3999SOL     OW23632   3.166   1.245  14.243 -0.3339 -0.3430  0.1956
 3999SOL    HW123633   3.238   1.226  14.304 -0.2264  0.2355  0.2531
 3999SOL    HW223634   3.179   1.340  14.236  0.6263 -0.5374 -0.7071
 4000SOL     OW23635   4.377   4.730   2.126 -0.3894  0.2444  0.4888
 4000SOL    HW123636   4.464   4.693   2.144  0.1587  1.5297  0.4980
 4000SOL    HW223637   4.405   0.068   2.072  2.0687 -1.3200 -0.3851
 4001SOL     OW23638   2.919   2.679  15.530 -0.1193 -0.8607 -0.4009
 4001SOL    HW123639   2.985   2.627  15.483 -0.5470 -2.4364  0.7436
 4001SOL    HW223640   2.844   2.677  15.471  1.8162  1.4273 -2.9098
 4002SOL     OW23641   1.911   3.255   2.759  0.0222 -0.4290 -0.4085
 4002SOL    HW123642   1.932   3.172   2.800  0.8920 -0.5493 -1.1026
 4002SOL    HW223643   1.818   3.267   2.777  0.2531 -0.5604  0.8865
 4003SOL     OW23644   0.570   4.675  17.368 -0.3794  0.2786 -0.5193
 4003SOL    HW123645   0.578   0.014  17.427 -1.9408  0.0623 -0.0564
 4003SOL    HW223646   0.639   4.703  17.307  0.2991  1.7757  0.9252
 4004SOL     OW23647   3.612   4.719   5.775 -0.1210 -0.5813 -0.5970
 4004SOL    HW123648   3.589   0.038   5.700 -0.1199 -0.4196 -0.4765
 4004SOL    HW223649   3.592   4.628   5.752 -0.2384 -0.6357 -0.2833
 4005SOL     OW23650   2.045   0.734   9.506 -0.4343  0.0647  0.1313
 4005SOL    HW123651   2.092   0.657   9.537 -1.5863 -1.1106 -1.0639
 4005SOL    HW223652   2.109   0.791   9.464 -0.7200  0.5820  0.3920
 4006SOL     OW23653   2.601   1.070   5.852  0.1992  0.5215 -0.4186
 4006SOL    HW123654   2.607   1.122   5.932 -0.3863  1.7556 -1.1834
 4006SOL    HW223655   2.695   1.072   5.831  0.0921  1.3387 -0.7921
 4007SOL     OW23656   3.852   4.636   4.135 -0.1805 -0.2071  0.5315
 4007SOL    HW123657   3.827   4.635   4.043 -1.0957  0.7103  0.7770
 4007SOL    HW223658   3.909   4.560   4.130 -0.1432 -0.2036  0.8670
 4008SOL     OW23659   3.130   2.847   1.226  0.0325  0.7759 -0.5180
 4008SOL    HW123660   3.130   2.754   1.203  1.1842  0.7459 -0.3656
 4008SOL    HW223661   3.184   2.849   1.305 -0.0083 -1.5904 -0.4223
 4009SOL     OW23662   4.637   0.644   6.182 -0.0074 -0.3975 -0.6219
 4009SOL    HW123663   4.597   0.731   6.186  0.0114 -0.3750 -0.9703
 4009SOL    HW223664   4.568   0.583   6.210 -0.8609  0.3949 -0.9876
 4010SOL     OW23665   1.643   3.890   4.514  0.5961 -0.1083  0.2046
 4010SOL    HW123666   1.701   3.858   4.444 -2.1913 -1.1196 -1.6184
 4010SOL    HW223667   1.593   3.815   4.547 -0.6005  0.6683  0.1253
 4011SOL     OW23668   0.926   2.592   2.800  0.2453  0.2223 -0.1335
 4011SOL    HW123669   1.015   2.559   2.796  0.3540  0.5223 -0.1596
 4011SOL    HW223670   0.914   2.600   2.895 -0.2036 -1.8940 -0.0128
 4012SOL     OW23671   0.700   0.235  13.246 -0.1652  0.1051 -0.0864
 4012SOL    HW123672   0.776   0.179  13.263  0.5315  1.2169  0.4426
 4012SOL    HW223673   0.659   0.245  13.332 -0.5322  3.2044 -0.6170
 4013SOL     OW23674   2.169   1.209   2.351  0.3295  0.1588  0.0450
 4013SOL    HW123675   2.106   1.151   2.392 -1.1168 -0.2010 -2.6435
 4013SOL    HW223676   2.112   1.279   2.321 -1.4191 -1.2894  0.0161
 4014SOL     OW23677   0.500   4.429   8.587 -0.6744  0.2760 -0.2179
 4014SOL    HW123678   0.556   4.372   8.640 -1.4329 -1.6487 -1.4871
 4014SOL    HW223679   0.517   4.406   8.496 -0.2556 -0.5466  0.0722
 4015SOL     OW23680   2.359   1.730   3.526  0.3014  0.2898 -0.7533
 4015SOL    HW123681   2.269   1.707   3.551  1.0714 -3.2935 -1.1887
 4015SOL    HW223682   2.368   1.658   3.462 -1.6621  0.0958 -0.8070
 4016SOL     OW23683   0.497   3.775   8.669  0.1904  0.7234 -0.3550
 4016SOL    HW123684   0.466   3.835   8.600  1.1782  2.0234  0.3409
 4016SOL    HW223685   0.516   3.692   8.626 -1.8903 -1.0426  2.1885
 4017SOL     OW23686   3.625   4.356   8.287 -0.4315 -0.1331  0.1810
 4017SOL    HW123687   3.574   4.305   8.223  0.1639 -0.6257  0.0993
 4017SOL    HW223688   3.596   4.325   8.373 -1.6098 -1.3458 -0.6453
 4018SOL     OW23689   2.335   4.290   5.104 -0.4429 -0.0583 -0.3564
 4018SOL    HW123690   2.375   4.373   5.130  0.4423 -0.7811  0.5792
 4018SOL    HW223691   2.413   4.234   5.101  0.1146  0.6673  0.4158
 4019SOL     OW23692   2.325   4.324  11.225  0.0312 -0.5484  0.2257
 4019SOL    HW123693   2.291   4.379  11.296 -2.2450 -1.5681 -0.0988
 4019SOL    HW223694   2.291   4.237  11.248 -1.4571 -0.0344 -0.0468
 4020SOL     OW23695   2.684   2.287  10.374 -0.0196 -0.0025 -0.0204
 4020SOL    HW123696   2.692   2.378  10.404  1.5023 -0.6971  1.6420
 4020SOL    HW223697   2.774   2.278  10.343 -0.4460 -0.1558 -1.1962
 4021SOL     OW23698   2.454   2.842   4.046 -0.2249  0.0452  0.2544
 4021SOL    HW123699   2.470   2.769   4.106  1.1159 -0.5355 -0.8103
 4021SOL    HW223700   2.456   2.922   4.098  2.7969  0.4571 -0.4825
 4022SOL     OW23701   1.021   0.078   3.930  0.6723  0.6132 -0.2740
 4022SOL    HW123702   1.087   0.146   3.919 -0.0101  1.2805 -0.2815
 4022SOL    HW223703   0.960   0.118   3.992  1.0985  1.2825 -0.2913
 4023SOL     OW23704   2.266   4.426  14.473  0.1627 -0.4511  0.5939
 4023SOL    HW123705   2.209   4.354  14.448 -0.5350 -0.1482  1.3291
 4023SOL    HW223706   2.315   4.424  14.390 -0.8913  0.6121 -0.0644
 4024SOL     OW23707   0.352   4.150  14.241 -0.0753 -0.3731  0.4534
 4024SOL    HW123708   0.420   4.089  14.212 -0.1606 -0.0034 -0.5212
 4024SOL    HW223709   0.405   4.226  14.264 -0.9814 -0.0802  1.5767
 4025SOL     OW23710   2.288   2.018   6.792 -0.2205  0.1534  0.1818
 4025SOL    HW123711   2.334   1.992   6.872 -0.7674  1.9173  1.0528
 4025SOL    HW223712   2.322   1.955   6.728 -1.9763 -1.4191  0.8054
 4026SOL     OW23713   3.276   4.069   3.268  0.3270 -0.0082  0.1082
 4026SOL    HW123714   3.328   4.142   3.299  1.2127 -0.5755 -0.0414
 4026SOL    HW223715   3.281   4.082   3.173 -1.3313  1.0977  0.1793
 4027SOL     OW23716   3.960   3.670   7.128  0.1419 -0.3762 -0.2571
 4027SOL    HW123717   3.900   3.595   7.124 -1.3086  0.6991  0.8778
 4027SOL    HW223718   4.033   3.640   7.182 -0.7413  0.3524  1.3694
 4028SOL     OW23719   0.494   1.660   1.405  0.3094  0.0141  0.5983
 4028SOL    HW123720   0.492   1.570   1.439  3.0612  0.8019  2.8500
 4028SOL    HW223721   0.409   1.680   1.366  0.3112 -3.1613 -1.1047
 4029SOL     OW23722   2.158   0.715   6.845 -0.1367  0.5676 -0.0192
 4029SOL    HW123723   2.217   0.645   6.817  0.0989  0.5763  0.4604
 4029SOL    HW223724   2.105   0.661   6.904 -1.0749 -0.1961 -1.5562
 4030SOL     OW23725   2.140   1.403   4.270  0.4033  0.1781 -0.2440
 4030SOL    HW123726   2.228   1.399   4.308  1.2776  0.9952 -2.1944
 4030SOL    HW223727   2.157   1.366   4.184  1.0022  1.7995 -0.8281
 4031SOL     OW23728   4.148   0.960  12.119  1.1726  0.1151 -0.5371
 4031SOL    HW123729   4.095   1.019  12.066 -0.1771  0.1251  0.8085
 4031SOL    HW223730   4.155   0.872  12.084  0.2355 -0.8206  1.6121
 4032SOL     OW23731   2.756   3.160  14.764 -0.4437 -0.2407  0.2910
 4032SOL    HW123732   2.805   3.213  14.827  0.0628  1.3107 -1.4329
 4032SOL    HW223733   2.820   3.142  14.695  0.8715  2.8767  0.7007
 4033SOL     OW23734   1.850   2.421   4.783 -0.1769  0.0200 -0.1719
 4033SOL    HW123735   1.775   2.371   4.753 -0.7193  0.1926  0.8907
 4033SOL    HW223736   1.883   2.361   4.850  0.3626 -1.0048 -1.3812
 4034SOL     OW23737   4.226   2.202   9.773  0.0490  0.5970 -0.2451
 4034SOL    HW123738   4.138   2.224   9.741  0.3743  2.5041  0.1994
 4034SOL    HW223739   4.245   2.279   9.826 -0.4596  1.2398 -0.9777
 4035SOL     OW23740   3.113   4.350  10.603 -0.3936 -0.4001 -0.1217
 4035SOL    HW123741   3.125   4.310  10.517  0.6575  0.0649 -0.1888
 4035SOL    HW223742   3.156   4.436  10.598  1.6277 -1.4329 -0.4104
 4036SOL     OW23743   3.345   2.341   5.449 -0.5016 -0.2751 -0.1081
 4036SOL    HW123744   3.331   2.346   5.354  1.4204 -2.5569 -0.5140
 4036SOL    HW223745   3.437   2.316   5.443 -0.1840  1.0065 -0.5540
 4037SOL     OW23746   1.892   3.678  15.395 -0.0356 -0.5939 -0.1031
 4037SOL    HW123747   1.944   3.709  15.322 -1.3850  0.6578 -0.5373
 4037SOL    HW223748   1.947   3.706  15.468  0.2955 -0.4673 -0.4061
 4038SOL     OW23749   3.783   1.241   6.316 -0.4091  0.6203  0.0815
 4038SOL    HW123750   3.772   1.285   6.400 -1.6533  0.0402  0.2314
 4038SOL    HW223751   3.692   1.242   6.286 -0.6113 -1.5417  0.5646
 4039SOL     OW23752   0.198   0.954   1.912 -0.7017  0.5206  0.2162
 4039SOL    HW123753   0.266   1.015   1.941 -0.1902  1.1300 -2.2408
 4039SOL    HW223754   0.125   1.008   1.882  1.1590  2.1630 -1.3079
 4040SOL     OW23755   3.230   3.246   1.677 -0.2383  0.0493  0.1278
 4040SOL    HW123756   3.256   3.324   1.628 -0.0539 -0.4085 -0.5007
 4040SOL    HW223757   3.176   3.290   1.742  2.4312  1.8327  1.1366
 4041SOL     OW23758   0.307   1.531   6.758 -0.6113 -0.0191 -0.2147
 4041SOL    HW123759   0.236   1.550   6.697  1.4615  3.4731 -1.5494
 4041SOL    HW223760   0.278   1.448   6.797 -0.5408  0.3527  0.6189
 4042SOL     OW23761   1.359   3.300  11.044 -0.5496  0.2011 -0.5176
 4042SOL    HW123762   1.415   3.273  10.972  0.2447 -0.5103  0.3755
 4042SOL    HW223763   1.383   3.392  11.055 -0.0144 -0.1594  1.2038
 4043SOL     OW23764   3.621   0.983   6.396 -0.0287  0.5935 -0.4697
 4043SOL    HW123765   3.662   0.901   6.422  1.2378  0.8689 -1.5887
 4043SOL    HW223766   3.690   1.046   6.416 -0.2734  0.6388  0.2376
 4044SOL     OW23767   1.212   1.578   7.860 -0.1899  0.0165  0.3202
 4044SOL    HW123768   1.302   1.545   7.848 -0.1919  0.2829 -0.4501
 4044SOL    HW223769   1.164   1.508   7.816 -0.7662 -0.6090  1.9552
 4045SOL     OW23770   3.436   3.084   3.343 -0.6804  0.5152 -0.2945
 4045SOL    HW123771   3.447   3.157   3.282 -3.8762  0.6110 -0.7611
 4045SOL    HW223772   3.343   3.095   3.361 -0.6251  2.6892 -1.3559
 4046SOL     OW23773   3.550   0.775   8.524 -0.2035 -0.0326  0.0852
 4046SOL    HW123774   3.535   0.848   8.464 -0.1504  1.3712  1.7798
 4046SOL    HW223775   3.559   0.706   8.458 -0.1858 -1.2221  1.3366
 4047SOL     OW23776   4.639   1.660   9.836 -0.5099  0.3284  0.1022
 4047SOL    HW123777   4.618   1.646   9.929 -4.5026 -0.4743 -0.9266
 4047SOL    HW223778   4.656   1.754   9.835  0.2879  0.2193  2.2062
 4048SOL     OW23779   0.294   3.528   6.677  0.7124 -0.1795 -0.3961
 4048SOL    HW123780   0.358   3.493   6.739  1.5238 -0.4442 -1.3961
 4048SOL    HW223781   0.217   3.479   6.705  0.2814  0.4416 -0.4801
 4049SOL     OW23782   0.161   1.903   7.079  0.6300 -0.4205 -0.2398
 4049SOL    HW123783   0.137   1.855   7.158  0.7642  1.6527  1.0766
 4049SOL    HW223784   0.229   1.955   7.123  1.6982 -0.2893 -2.0615
 4050SOL     OW23785   3.158   4.673   5.116  0.6779 -0.0430  0.3616
 4050SOL    HW123786   3.209   0.017   5.126  0.0759  0.7009 -2.4091
 4050SOL    HW223787   3.226   4.606   5.116  0.7144 -0.0083 -1.1954
 4051SOL     OW23788   4.222   3.412  11.703 -0.2809  0.1372  0.3226
 4051SOL    HW123789   4.188   3.391  11.791  0.2846  1.1438  0.7768
 4051SOL    HW223790   4.144   3.455  11.669 -0.9405 -0.9729  0.4246
 4052SOL     OW23791   4.208   2.176   8.674 -0.3390  0.2337  0.4627
 4052SOL    HW123792   4.224   2.217   8.758  0.8422  1.4358 -0.3519
 4052SOL    HW223793   4.179   2.089   8.702 -2.8557  0.8130 -0.3450
 4053SOL     OW23794   0.136   0.123   8.378  0.7017  0.1231  0.4535
 4053SOL    HW123795   0.188   0.195   8.414 -0.1321  1.3617 -0.8218
 4053SOL    HW223796   0.064   0.170   8.336  2.2618  0.0589 -2.3237
 4054SOL     OW23797   0.336   4.699   7.608  0.9227  0.1687  0.3780
 4054SOL    HW123798   0.408   4.719   7.548  0.9467 -0.5289  0.1738
 4054SOL    HW223799   0.361   4.613   7.643  0.2491 -0.4608 -0.6774
 4055SOL     OW23800   2.499   0.314   7.717 -0.4035  0.3319  0.1720
 4055SOL    HW123801   2.521   0.407   7.719  1.0434 -0.0661  3.0240
 4055SOL    HW223802   2.529   0.286   7.803  0.3231  2.1057  0.5087
 4056SOL     OW23803   3.523   3.406   1.656 -0.3193  0.1478 -0.0899
 4056SOL    HW123804   3.565   3.370   1.578 -0.5903  1.5785 -0.9042
 4056SOL    HW223805   3.487   3.322   1.686  1.2002 -0.3031  0.4527
 4057SOL     OW23806   2.200   1.793   3.191  0.0569 -0.8680 -0.1227
 4057SOL    HW123807   2.164   1.751   3.112  1.9588  2.2070 -2.6106
 4057SOL    HW223808   2.138   1.754   3.253  0.9631  0.3553  1.5595
 4058SOL     OW23809   3.564   1.795   0.386  0.1168 -0.3157  0.6986
 4058SOL    HW123810   3.603   1.816   0.301  0.7733  2.2945  1.6570
 4058SOL    HW223811   3.486   1.745   0.360 -0.2670  0.7518 -0.2088
 4059SOL     OW23812   1.048   1.461   8.138  0.3405 -0.4958  0.3647
 4059SOL    HW123813   0.988   1.391   8.112 -0.3097 -0.0199  0.5958
 4059SOL    HW223814   1.128   1.431   8.095 -0.5598 -1.1386 -0.8490
 4060SOL     OW23815   1.056   0.404  13.125  0.6577  0.2457  0.3427
 4060SOL    HW123816   0.966   0.435  13.135 -0.2201 -2.2528  0.2397
 4060SOL    HW223817   1.059   0.395  13.030  0.8449 -1.3048  0.4923
 4061SOL     OW23818   1.570   3.225  15.418 -0.1554 -0.1953 -0.1884
 4061SOL    HW123819   1.539   3.180  15.497  2.8810 -1.7715  0.1130
 4061SOL    HW223820   1.496   3.213  15.358 -0.5770  0.6401  0.1571
 4062SOL     OW23821   0.131   2.055   6.503 -0.3584 -0.2219  0.1170
 4062SOL    HW123822   0.061   2.058   6.438 -0.2508  0.2319  0.0209
 4062SOL    HW223823   0.136   2.150   6.494  2.5910 -0.5263 -1.6314
 4063SOL     OW23824   1.503   0.079   2.332 -0.2162  0.0764  0.0856
 4063SOL    HW123825   1.410   0.103   2.338 -0.8806 -2.2794 -0.7981
 4063SOL    HW223826   1.531   0.125   2.253  0.1161 -1.0188 -0.4265
 4064SOL     OW23827   0.418   4.555   3.779  0.0147  0.4852  0.2489
 4064SOL    HW123828   0.436   4.631   3.724  0.9990  0.2279  0.2132
 4064SOL    HW223829   0.326   4.581   3.789  0.5753  1.9463  1.5878
 4065SOL     OW23830   2.533   1.577   6.823  0.1651 -0.2234  0.4051
 4065SOL    HW123831   2.494   1.579   6.736 -2.6256  1.1921  1.6656
 4065SOL    HW223832   2.611   1.632   6.813 -0.4907  0.9227  1.4665
 4066SOL     OW23833   4.541   0.414  14.288  0.3144 -0.2313  0.3570
 4066SOL    HW123834   4.565   0.340  14.231 -0.6222  0.5087 -1.0096
 4066SOL    HW223835   4.542   0.483  14.222 -2.0420 -0.0764  0.5126
 4067SOL     OW23836   2.038   4.559   3.659 -0.3607  0.4587  0.1689
 4067SOL    HW123837   2.015   4.599   3.575 -0.3190 -0.2310 -0.1722
 4067SOL    HW223838   2.086   4.480   3.635 -1.1300 -0.2072  0.8265
 4068SOL     OW23839   0.123   1.987   3.087  0.0366 -0.5093 -0.1815
 4068SOL    HW123840   0.159   2.002   3.000 -1.8339  1.1263 -0.6823
 4068SOL    HW223841   0.204   1.962   3.131  0.8316  1.3938 -0.5482
 4069SOL     OW23842   3.583   2.986   8.594  0.4256  0.1426  0.3038
 4069SOL    HW123843   3.526   2.936   8.653  0.1398  0.3560  0.2102
 4069SOL    HW223844   3.526   2.983   8.518 -0.0555  0.4629  0.6527
 4070SOL     OW23845   1.037   0.192   6.333 -0.5645 -0.0831 -0.4162
 4070SOL    HW123846   1.118   0.141   6.331 -1.2142 -1.1617  1.3844
 4070SOL    HW223847   0.984   0.127   6.379 -1.1191 -1.3339 -2.8287
 4071SOL     OW23848   1.766   1.286   7.760  0.6273  0.5957 -0.0449
 4071SOL    HW123849   1.862   1.282   7.762  0.6229  0.8476  0.8564
 4071SOL    HW223850   1.740   1.220   7.824  0.1547 -0.4708 -1.3346
 4072SOL     OW23851   3.034   0.608   3.105  0.1148  0.5448 -0.2637
 4072SOL    HW123852   3.110   0.595   3.161  0.4134 -0.9215 -1.0197
 4072SOL    HW223853   2.990   0.677   3.155 -0.9347 -0.6003  0.4151
 4073SOL     OW23854   1.450   4.317  11.285  0.1542  0.0883 -0.0800
 4073SOL    HW123855   1.499   4.287  11.362  0.8517  3.5282  0.7861
 4073SOL    HW223856   1.403   4.386  11.331 -0.5859  0.8051 -1.9113
 4074SOL     OW23857   0.364   1.018   3.657 -0.4181  0.2818  0.3636
 4074SOL    HW123858   0.275   0.989   3.674  0.1444 -1.2634  0.6739
 4074SOL    HW223859   0.407   0.932   3.659  0.0518  0.5032 -0.1001
 4075SOL     OW23860   0.610   4.175   5.347 -0.1646  0.3505  0.7044
 4075SOL    HW123861   0.635   4.157   5.437  0.5968 -2.0664  0.0142
 4075SOL    HW223862   0.625   4.091   5.305 -0.9845  0.9049 -0.7215
 4076SOL     OW23863   4.146   1.012   5.976  0.1800  0.7869 -0.1627
 4076SOL    HW123864   4.157   1.105   5.994 -0.6060  0.6544  1.0058
 4076SOL    HW223865   4.168   0.984   6.065 -1.1777 -0.7612 -0.3071
 4077SOL     OW23866   2.763   4.686  12.695  0.0783  0.3050  0.5014
 4077SOL    HW123867   2.809   0.028  12.663  1.3480 -0.0090  1.5338
 4077SOL    HW223868   2.747   4.719  12.783 -0.3475  0.1970  0.4630
 4078SOL     OW23869   2.550   3.530   3.919  0.2668 -0.5654  0.3788
 4078SOL    HW123870   2.504   3.510   4.001  0.5955  0.7914  0.8959
 4078SOL    HW223871   2.630   3.561   3.961  0.7942 -0.2700 -0.8527
 4079SOL     OW23872   0.028   1.929   5.361  0.0079 -0.0646 -0.2304
 4079SOL    HW123873   0.023   1.968   5.448  0.3993 -0.3909 -0.0574
 4079SOL    HW223874   4.713   1.848   5.362 -0.8176  0.4755  0.5791
 4080SOL     OW23875   0.463   1.070   7.564  0.1910 -0.1337 -0.5450
 4080SOL    HW123876   0.453   0.995   7.622 -0.7187 -0.6543 -1.3729
 4080SOL    HW223877   0.475   1.141   7.626 -0.5181  0.9213 -1.6112
 4081SOL     OW23878   3.441   2.458   9.427  0.1995 -0.4744  0.2598
 4081SOL    HW123879   3.441   2.363   9.410 -0.3251  0.0354 -2.5476
 4081SOL    HW223880   3.491   2.487   9.351 -1.0832  1.5233  0.1986
 4082SOL     OW23881   4.238   4.673   4.473  0.1941  0.5293  0.0800
 4082SOL    HW123882   4.238   0.013   4.532  0.1075 -0.3026  1.1553
 4082SOL    HW223883   4.145   4.654   4.466  0.0889  1.0200  0.1434
 4083SOL     OW23884   0.741   0.005   0.931  0.9097  0.0534  0.1458
 4083SOL    HW123885   0.750   4.711   0.840  1.8401  2.1875 -0.4607
 4083SOL    HW223886   0.796   0.083   0.932  1.3409 -0.2920  2.1627
 4084SOL     OW23887   3.937   2.173   6.247  0.3318  0.3842 -0.7076
 4084SOL    HW123888   3.842   2.159   6.256  0.1748  1.6891 -0.3449
 4084SOL    HW223889   3.933   2.193   6.154  0.5203  2.1387 -0.3336
 4085SOL     OW23890   0.421   1.012   3.183 -0.9693  0.3713  0.2432
 4085SOL    HW123891   0.383   0.985   3.267 -1.3728  0.8155  0.2042
 4085SOL    HW223892   0.377   1.096   3.171 -3.5717 -0.8502  1.1687
 4086SOL     OW23893   1.391   0.600  15.416 -0.2256  0.4949 -0.0877
 4086SOL    HW123894   1.466   0.586  15.358  0.4245  0.1537  0.8455
 4086SOL    HW223895   1.336   0.634  15.345 -1.8912 -1.4685  0.2806
 4087SOL     OW23896   4.709   3.448   8.471 -0.0116 -0.1082  0.2025
 4087SOL    HW123897   4.686   3.534   8.435 -3.5142 -1.2909 -0.3585
 4087SOL    HW223898   0.030   3.468   8.545  1.1021  2.9457 -1.4462
 4088SOL     OW23899   0.066   4.228   8.963 -0.0488 -0.2941 -0.2182
 4088SOL    HW123900   0.113   4.268   8.890 -1.2463 -0.0884 -0.8717
 4088SOL    HW223901   0.057   4.302   9.024  0.7169  0.5344 -1.1032
 4089SOL     OW23902   1.787   1.667   2.293 -0.0706 -0.2128  0.3541
 4089SOL    HW123903   1.730   1.724   2.241 -0.4983  0.6916  1.8395
 4089SOL    HW223904   1.798   1.724   2.369 -2.3044  0.8301 -0.1085
 4090SOL     OW23905   3.072   1.908   2.834 -0.2783  0.0603  0.1379
 4090SOL    HW123906   3.074   1.816   2.808  1.7561 -0.0271  0.6008
 4090SOL    HW223907   3.136   1.894   2.904  1.7749 -1.8130 -2.1185
 4091SOL     OW23908   1.331   3.607   9.725  0.2643 -0.1267  0.0920
 4091SOL    HW123909   1.289   3.527   9.693  0.2604 -0.5720  1.1942
 4091SOL    HW223910   1.416   3.566   9.711 -0.3595 -1.4440  0.1622
 4092SOL     OW23911   0.869   3.774   3.242  0.0013 -0.3871  0.5766
 4092SOL    HW123912   0.794   3.816   3.285  0.3750 -0.3394  1.1829
 4092SOL    HW223913   0.886   3.821   3.160 -2.1793  1.8640  1.3821
 4093SOL     OW23914   1.779   1.267   7.445 -0.0512 -0.2336  0.5242
 4093SOL    HW123915   1.851   1.209   7.472 -0.8239 -2.2076 -1.6916
 4093SOL    HW223916   1.703   1.209   7.455 -0.6096  0.3041 -0.6404
 4094SOL     OW23917   2.655   1.542   3.156 -0.3083 -0.3809 -0.3496
 4094SOL    HW123918   2.698   1.625   3.177  0.8544 -1.1249  0.1552
 4094SOL    HW223919   2.567   1.572   3.181  1.2887  3.7076  0.4461
 4095SOL     OW23920   2.631   1.648   4.526  0.9059  0.2448  0.2030
 4095SOL    HW123921   2.565   1.686   4.584  1.7976  2.2002 -0.0602
 4095SOL    HW223922   2.590   1.635   4.441 -0.3266 -1.5232  1.0814
 4096SOL     OW23923   3.838   0.522   2.520  0.0579  0.1260  0.3952
 4096SOL    HW123924   3.856   0.556   2.432 -2.5325  1.8797  0.5406
 4096SOL    HW223925   3.795   0.602   2.550 -1.1331  0.0430 -1.0499
 4097SOL     OW23926   2.520   0.314   4.725  0.0646  0.1568  0.6647
 4097SOL    HW123927   2.483   0.233   4.762 -2.1056  0.1768 -1.4106
 4097SOL    HW223928   2.615   0.308   4.734  0.3663  0.7750 -2.2994
 4098SOL     OW23929   2.514   4.401   8.275 -0.4175 -0.3907 -0.7818
 4098SOL    HW123930   2.571   4.336   8.235  0.3761 -0.3237  0.2265
 4098SOL    HW223931   2.427   4.368   8.253  0.0605 -1.8543 -0.5159
 4099SOL     OW23932   1.993   3.500   5.000  0.0655  0.6518  0.5049
 4099SOL    HW123933   1.961   3.449   5.075  1.9068 -1.0336  0.1402
 4099SOL    HW223934   2.047   3.564   5.048  1.9640  0.6727 -1.6695
 4100SOL     OW23935   1.770   1.876   4.559 -0.5835  0.1540 -0.5675
 4100SOL    HW123936   1.681   1.892   4.528  0.6565 -0.7064 -4.5296
 4100SOL    HW223937   1.784   1.800   4.502  1.7449 -1.5828  2.3064
 4101SOL     OW23938   2.682   4.678  12.111 -0.1714 -0.5401 -0.5583
 4101SOL    HW123939   2.631   4.599  12.127  0.1878 -0.7216 -0.3007
 4101SOL    HW223940   2.657   4.697  12.021  0.6239  0.1019 -0.6421
 4102SOL     OW23941   2.382   4.166  17.256  0.3778 -0.3937  1.1278
 4102SOL    HW123942   2.444   4.205  17.319 -0.4833 -1.3061  2.5318
 4102SOL    HW223943   2.394   4.222  17.179  0.8229 -1.2821  0.5570
 4103SOL     OW23944   0.977   3.487  12.046  0.0432  0.1171  0.0458
 4103SOL    HW123945   0.916   3.476  12.119 -0.9241  1.0622 -0.6178
 4103SOL    HW223946   0.923   3.453  11.974 -0.7279  3.4641 -0.9987
 4104SOL     OW23947   1.941   4.427  14.369  0.0649  0.7822 -0.2446
 4104SOL    HW123948   2.006   4.494  14.353  0.3480  0.5244 -0.1747
 4104SOL    HW223949   1.895   4.410  14.287 -5.2864  0.5363  2.7667
 4105SOL     OW23950   1.976   0.269   7.621 -0.0568  0.2235  0.2253
 4105SOL    HW123951   1.962   0.254   7.527  3.1026  0.7639 -0.3130
 4105SOL    HW223952   1.936   0.354   7.635 -0.2383  0.9048 -4.2473
 4106SOL     OW23953   0.175   1.936   1.479 -0.6777  0.1622 -0.6824
 4106SOL    HW123954   0.182   2.019   1.433 -1.0955 -0.8409 -2.5374
 4106SOL    HW223955   0.163   1.969   1.569  1.5700 -0.4188 -0.1756
 4107SOL     OW23956   2.246   0.221   5.549  0.1292  0.0650 -0.0197
 4107SOL    HW123957   2.220   0.288   5.485 -1.1303 -0.3323  0.0798
 4107SOL    HW223958   2.329   0.256   5.582  1.6419 -2.6431 -1.0151
 4108SOL     OW23959   0.582   1.706   8.648  0.2355 -0.7796  0.6409
 4108SOL    HW123960   0.672   1.707   8.614 -0.6236  1.2179 -1.5892
 4108SOL    HW223961   0.597   1.736   8.738 -0.5364 -2.0602  1.1804
 4109SOL     OW23962   0.499   2.812  12.772 -0.1675 -0.1394 -0.5883
 4109SOL    HW123963   0.501   2.874  12.699 -0.2642  0.0749 -0.4110
 4109SOL    HW223964   0.582   2.826  12.817 -2.7967 -0.0862  4.3146
 4110SOL     OW23965   0.308   0.209   6.754 -0.3616  0.3072 -0.1795
 4110SOL    HW123966   0.298   0.304   6.769 -2.0439  0.0674  0.3320
 4110SOL    HW223967   0.306   0.213   6.659  0.5038  1.0103 -0.1631
 4111SOL     OW23968   1.407   0.865   5.150  0.3063  0.1621 -0.7945
 4111SOL    HW123969   1.338   0.928   5.173  0.7662  0.5545 -0.5135
 4111SOL    HW223970   1.384   0.842   5.060 -0.9540  0.7431 -0.6240
 4112SOL     OW23971   3.318   2.159  15.529 -0.0147  0.4727  0.2364
 4112SOL    HW123972   3.407   2.128  15.515  0.0282  2.3527 -3.7662
 4112SOL    HW223973   3.263   2.090  15.492  1.6659 -0.2719 -0.8326
 4113SOL     OW23974   0.302   2.117  13.939  0.0858 -0.0989  0.0808
 4113SOL    HW123975   0.226   2.165  13.907 -0.9191 -1.4674  0.4147
 4113SOL    HW223976   0.268   2.039  13.984 -0.0695  0.3841  0.7992
 4114SOL     OW23977   0.129   0.919   2.242  0.1903  0.3881  0.3243
 4114SOL    HW123978   0.057   0.891   2.186  0.8795  0.3694 -0.5663
 4114SOL    HW223979   0.190   0.937   2.170  0.6606 -0.4151  0.5163
 4115SOL     OW23980   2.179   1.568   4.873  0.1699  0.2800  0.2285
 4115SOL    HW123981   2.095   1.556   4.917 -0.4067 -1.5748 -1.4144
 4115SOL    HW223982   2.166   1.643   4.815  0.7085 -0.5450 -0.9302
 4116SOL     OW23983   2.511   2.444   2.513  0.2720  0.5746  0.1026
 4116SOL    HW123984   2.509   2.448   2.609 -0.0025  2.0104  0.0428
 4116SOL    HW223985   2.536   2.534   2.490 -0.5659  0.9680  0.7112
 4117SOL     OW23986   3.944   2.470   7.435  0.2509 -0.3652  0.4113
 4117SOL    HW123987   4.035   2.498   7.448 -0.3460  1.3302  0.8973
 4117SOL    HW223988   3.899   2.553   7.449  1.7611  0.4685  0.2986
 4118SOL     OW23989   1.003   0.780   6.289 -0.2569  0.3254 -0.4632
 4118SOL    HW123990   1.053   0.855   6.256 -1.3607  1.0330 -0.5251
 4118SOL    HW223991   0.984   0.816   6.375  0.9602 -0.2756  0.0509
 4119SOL     OW23992   3.031   3.779   6.132 -0.1676  0.1365 -0.1359
 4119SOL    HW123993   2.949   3.749   6.093  1.0896 -1.2421 -1.7174
 4119SOL    HW223994   3.027   3.872   6.109 -3.8225 -0.1513 -0.6145
 4120SOL     OW23995   2.984   1.468   3.131 -0.3618 -0.4116 -0.1139
 4120SOL    HW123996   2.981   1.559   3.100  2.0521 -0.2552  0.1465
 4120SOL    HW223997   3.047   1.431   3.069 -1.8643  0.9407 -2.4454
 4121SOL     OW23998   2.608   0.685   1.864  0.1953 -0.2340 -0.0935
 4121SOL    HW123999   2.693   0.662   1.827  0.6304 -2.2293  2.0905
 4121SOL    HW224000   2.603   0.616   1.931 -2.3967  0.7885  0.7912
 4122SOL     OW24001   4.051   2.741  11.549  0.1306  0.3411 -0.0294
 4122SOL    HW124002   3.976   2.735  11.608 -1.0059 -0.7929 -1.5640
 4122SOL    HW224003   4.107   2.670  11.579  0.1138  0.2575 -0.1931
 4123SOL     OW24004   3.960   4.676   4.439  0.0378  0.7983 -0.1666
 4123SOL    HW124005   3.911   0.009   4.484  0.3882  0.7318  0.3132
 4123SOL    HW224006   3.947   4.704   4.348 -1.6365  2.1913  0.5074
 4124SOL     OW24007   1.911   0.902   8.807  0.7846  0.5375 -0.1734
 4124SOL    HW124008   1.874   0.913   8.895 -2.3015 -1.2470 -1.2504
 4124SOL    HW224009   1.998   0.935   8.828  1.2422 -0.1089 -1.0553
 4125SOL     OW24010   0.019   2.603   7.961  0.2663 -0.0795  0.3440
 4125SOL    HW124011   0.062   2.603   8.047 -1.5812 -1.7907  1.2648
 4125SOL    HW224012   4.672   2.642   7.988  0.5637  0.2316  0.8334
 4126SOL     OW24013   2.198   2.142   5.958  0.1901  0.3870  0.5293
 4126SOL    HW124014   2.118   2.168   6.004 -0.0553 -0.4957  0.6017
 4126SOL    HW224015   2.233   2.080   6.022 -0.9982  0.5784  1.3874
 4127SOL     OW24016   3.985   1.240   0.837 -0.1258 -0.8606 -0.5033
 4127SOL    HW124017   4.078   1.249   0.853 -0.4900  2.2882 -0.1682
 4127SOL    HW224018   3.957   1.284   0.917 -0.0271 -1.6444 -0.0428
 4128SOL     OW24019   2.343   3.094   2.691 -0.1685  0.0300  0.1696
 4128SOL    HW124020   2.286   3.167   2.716 -0.0444  0.5382 -1.0272
 4128SOL    HW224021   2.318   3.033   2.760 -1.2393  0.5956  0.2967
 4129SOL     OW24022   1.927   4.590  13.475 -0.0348 -0.4053 -1.0681
 4129SOL    HW124023   1.951   4.651  13.545 -1.7916 -1.5954  0.5928
 4129SOL    HW224024   1.940   4.507  13.521 -0.2230 -0.4050 -1.0163
 4130SOL     OW24025   3.434   3.776   4.492  0.1627 -0.2981  0.0419
 4130SOL    HW124026   3.503   3.746   4.551  0.9859  0.6836 -0.4166
 4130SOL    HW224027   3.376   3.700   4.501 -1.2430  0.7414 -0.1714
 4131SOL     OW24028   0.141   0.426   8.527 -0.7075  0.3727 -0.5403
 4131SOL    HW124029   0.131   0.385   8.613 -2.6951  1.4978 -0.2268
 4131SOL    HW224030   0.063   0.482   8.524 -1.8748 -1.1984  0.1587
 4132SOL     OW24031   0.822   4.323   0.063  0.1464 -0.1599 -0.2399
 4132SOL    HW124032   0.852   4.249   0.116  1.8063  1.1329  0.5971
 4132SOL    HW224033   0.857   4.397   0.112 -0.3630  1.1925 -1.9160
 4133SOL     OW24034   0.742   4.453   8.315 -0.1843 -0.3098 -0.3731
 4133SOL    HW124035   0.657   4.412   8.295 -1.7440  0.8649  3.8634
 4133SOL    HW224036   0.712   4.515   8.381 -1.3610  0.1511 -1.3355
 4134SOL     OW24037   0.458   2.694  17.538 -0.0942 -0.0115 -0.2427
 4134SOL    HW124038   0.394   2.764  17.527 -2.4000 -2.2630 -1.1109
 4134SOL    HW224039   0.419   2.622  17.488  3.1479 -1.6891 -0.3384
 4135SOL     OW24040   2.826   3.928   6.540 -0.1975  0.1292  0.1880
 4135SOL    HW124041   2.905   3.954   6.586 -0.3853 -0.7848  1.0200
 4135SOL    HW224042   2.842   3.960   6.451  1.2403 -1.3989 -0.0915
 4136SOL     OW24043   3.072   1.303   6.357  0.3050 -0.0339 -0.3082
 4136SOL    HW124044   3.112   1.386   6.329 -2.0593  1.7876  1.6597
 4136SOL    HW224045   3.137   1.288   6.425  1.3605  0.0079 -1.3151
 4137SOL     OW24046   1.305   3.510   0.530 -0.0803 -0.3939 -0.1096
 4137SOL    HW124047   1.275   3.455   0.602 -1.3483 -0.6589 -0.8405
 4137SOL    HW224048   1.282   3.450   0.459 -0.4358 -1.3564  0.8255
 4138SOL     OW24049   1.993   0.035   4.754  0.5978  0.1927  0.1933
 4138SOL    HW124050   1.945   0.007   4.832 -0.4271  0.0614 -0.4802
 4138SOL    HW224051   1.951   0.120   4.747 -0.3644 -0.2042  1.1561
 4139SOL     OW24052   4.261   1.506   6.778 -0.2612 -0.3638 -0.0928
 4139SOL    HW124053   4.342   1.553   6.761 -0.9477  1.2142  1.0714
 4139SOL    HW224054   4.292   1.416   6.789 -1.3284 -0.5931  0.9917
 4140SOL     OW24055   1.021   3.687   5.793  0.0598  0.2029  0.3525
 4140SOL    HW124056   1.026   3.592   5.784 -0.3961  0.2023  0.1103
 4140SOL    HW224057   0.927   3.700   5.787  0.0497 -0.9742 -2.1338
 4141SOL     OW24058   3.221   4.233  15.338  0.0085  0.0088  0.0553
 4141SOL    HW124059   3.204   4.314  15.288  0.6547  0.0316 -0.1191
 4141SOL    HW224060   3.311   4.244  15.369  0.3215  0.3877 -0.9834
 4142SOL     OW24061   3.417   3.680  15.533  0.2205  0.5609  0.4084
 4142SOL    HW124062   3.343   3.727  15.495 -1.7379 -1.2115  2.0278
 4142SOL    HW224063   3.400   3.703  15.625 -0.0422  1.2003  0.1993
 4143SOL     OW24064   4.624   0.083   2.326 -0.2541 -0.5959 -0.9669
 4143SOL    HW124065   4.625   0.037   2.410 -0.0739 -0.0136 -0.6466
 4143SOL    HW224066   4.697   0.030   2.293  0.9860  0.9344 -0.6957
 4144SOL     OW24067   2.886   2.099   6.397  0.1755  0.1681 -0.0723
 4144SOL    HW124068   2.978   2.122   6.387  0.6594 -2.2595 -1.0552
 4144SOL    HW224069   2.890   2.025   6.458  2.7838 -0.4839 -1.0505
 4145SOL     OW24070   1.499   0.362   1.840  0.2384 -0.0197  0.0485
 4145SOL    HW124071   1.409   0.392   1.833  0.2041 -0.1686 -0.1493
 4145SOL    HW224072   1.557   0.437   1.850 -0.5204  0.6727 -0.8778
 4146SOL     OW24073   3.990   1.100  11.425 -0.4154 -0.0913 -0.2164
 4146SOL    HW124074   3.924   1.061  11.483 -0.4604  0.2501 -0.0392
 4146SOL    HW224075   4.005   1.179  11.477  0.3235  0.8666 -1.9123
 4147SOL     OW24076   1.502   2.579   3.792 -0.1466  0.6115 -0.2540
 4147SOL    HW124077   1.576   2.587   3.852 -0.9622  0.0792  0.8436
 4147SOL    HW224078   1.430   2.556   3.852  1.7728 -0.6932  1.5361
 4148SOL     OW24079   0.209   3.287   9.190  0.7035 -0.0677 -0.6988
 4148SOL    HW124080   0.260   3.266   9.269  2.1492 -0.0200 -1.6104
 4148SOL    HW224081   0.276   3.337   9.142  1.8019 -0.3082  0.5808
 4149SOL     OW24082   3.999   3.622  15.511  0.2322  0.3735  0.6658
 4149SOL    HW124083   3.978   3.684  15.441  0.7003  0.1890  0.3599
 4149SOL    HW224084   3.913   3.586  15.531 -1.0343  3.2298  0.3528
 4150SOL     OW24085   1.455   3.155  10.506  0.1709 -0.3248  0.4790
 4150SOL    HW124086   1.461   3.164  10.411  1.3150 -2.8446  0.2943
 4150SOL    HW224087   1.360   3.148  10.514  0.3537 -0.7686  2.4601
 4151SOL     OW24088   1.323   2.037  12.741  0.3885  0.6717  0.1162
 4151SOL    HW124089   1.309   2.083  12.824 -0.8275 -1.5387  1.1271
 4151SOL    HW224090   1.419   2.032  12.739  0.3712  1.3662 -2.2298
 4152SOL     OW24091   1.837   1.151   2.895  0.1525 -0.2280 -0.4926
 4152SOL    HW124092   1.877   1.068   2.870 -1.1399 -1.0764  0.2768
 4152SOL    HW224093   1.831   1.186   2.806 -1.7012 -1.0103 -0.6614
 4153SOL     OW24094   1.457   4.228   4.373  0.5480 -0.0751  0.4135
 4153SOL    HW124095   1.478   4.297   4.435 -0.2967  1.7299 -1.3007
 4153SOL    HW224096   1.434   4.159   4.435  2.8004 -1.3292 -0.1384
 4154SOL     OW24097   0.257   1.805   8.817 -0.4569  1.3053 -0.3009
 4154SOL    HW124098   0.225   1.801   8.907 -1.8409 -1.6431 -0.9343
 4154SOL    HW224099   0.244   1.899   8.805  0.0578  1.4263  0.0927
 4155SOL     OW24100   4.249   0.343  15.881  0.1968  0.0432 -0.0560
 4155SOL    HW124101   4.180   0.405  15.861  0.1328 -0.3901 -1.2274
 4155SOL    HW224102   4.292   0.400  15.944  0.8474  0.0561 -0.5062
 4156SOL     OW24103   1.872   1.497   6.188  0.2290 -0.6057  0.5217
 4156SOL    HW124104   1.912   1.565   6.133  0.9928 -1.6925 -0.2606
 4156SOL    HW224105   1.788   1.542   6.200 -0.2499 -1.1378 -0.8394
 4157SOL     OW24106   1.291   0.644   3.353  0.3949  0.3357 -0.4289
 4157SOL    HW124107   1.381   0.612   3.345  0.2501 -0.5888  1.6991
 4157SOL    HW224108   1.307   0.704   3.426  0.7855  0.0237 -0.2595
 4158SOL     OW24109   0.572   0.342  14.157  0.0097 -0.5859 -0.2327
 4158SOL    HW124110   0.594   0.290  14.079  0.9743 -0.6095  0.0500
 4158SOL    HW224111   0.639   0.411  14.149 -0.0372 -0.5332 -0.1687
 4159SOL     OW24112   1.831   0.423   6.048  0.2853  0.2259 -0.2409
 4159SOL    HW124113   1.828   0.453   5.957 -1.4693  0.6483 -0.0463
 4159SOL    HW224114   1.892   0.350   6.046 -0.8407 -0.6650 -1.7992
 4160SOL     OW24115   1.377   3.146   9.146 -0.0361  0.0853  0.2238
 4160SOL    HW124116   1.450   3.206   9.130  0.2640 -0.5201 -0.6566
 4160SOL    HW224117   1.304   3.207   9.144  0.9007  1.2073 -0.0033
 4161SOL     OW24118   0.043   2.031  13.614  0.3368 -0.7517  0.1787
 4161SOL    HW124119   0.031   2.049  13.707 -1.3452 -1.6895  0.1398
 4161SOL    HW224120   4.692   2.049  13.579  0.3225  1.2905  1.2834
 4162SOL     OW24121   2.848   3.758   9.234  0.4538  0.0024 -0.5993
 4162SOL    HW124122   2.906   3.682   9.242  0.0440 -0.2993 -0.4913
 4162SOL    HW224123   2.767   3.707   9.227  0.7319 -0.4445 -0.5420
 4163SOL     OW24124   2.437   2.525   2.749  0.2182 -0.5316  0.2725
 4163SOL    HW124125   2.495   2.517   2.825 -0.6589 -1.9415  0.7984
 4163SOL    HW224126   2.398   2.611   2.762 -0.2186 -0.8812  1.2834
 4164SOL     OW24127   2.623   1.935   4.243  0.2821 -0.4549 -0.4360
 4164SOL    HW124128   2.628   1.879   4.320 -1.7167 -3.5296 -2.4945
 4164SOL    HW224129   2.555   1.999   4.265 -0.1331 -0.7545 -0.8392
 4165SOL     OW24130   1.295   0.037   8.417  0.5776 -0.1274  0.5583
 4165SOL    HW124131   1.351   0.002   8.486 -0.0278 -1.7736  0.2156
 4165SOL    HW224132   1.341   0.012   8.338 -0.3457 -3.3731  1.0331
 4166SOL     OW24133   0.863   0.063  13.371 -0.4761  0.1021  0.5549
 4166SOL    HW124134   0.941   0.068  13.315  0.4871  0.2659  1.9278
 4166SOL    HW224135   0.895   0.105  13.450  0.9488 -1.4280  0.7952
 4167SOL     OW24136   2.452   0.494   4.953 -0.2931 -0.3052  0.9501
 4167SOL    HW124137   2.376   0.543   4.983 -1.3477 -1.2875 -0.1287
 4167SOL    HW224138   2.444   0.492   4.858 -1.9535  0.7141  1.0750
 4168SOL     OW24139   3.763   2.859   3.829  0.4836  0.1508 -1.0523
 4168SOL    HW124140   3.827   2.907   3.881 -0.0994 -0.0473 -0.1434
 4168SOL    HW224141   3.788   2.776   3.869 -0.7805  0.0684 -0.4265
 4169SOL     OW24142   0.004   0.129   4.566 -0.4639 -0.2457 -0.0695
 4169SOL    HW124143   4.693   0.129   4.649  0.7469  0.0183  0.6063
 4169SOL    HW224144   0.093   0.149   4.596 -0.2544 -1.1966 -0.0548
 4170SOL     OW24145   0.283   1.556   8.892  0.5846  0.5025 -0.2308
 4170SOL    HW124146   0.372   1.527   8.915  1.2635  1.9205 -1.0573
 4170SOL    HW224147   0.296   1.646   8.860  1.4871  0.2858 -0.4724
 4171SOL     OW24148   1.247   3.439   8.775 -0.2859 -0.2258  0.3755
 4171SOL    HW124149   1.312   3.451   8.844 -0.8665  0.6303  0.7679
 4171SOL    HW224150   1.297   3.386   8.713 -0.4572  3.0540 -2.5482
 4172SOL     OW24151   0.292   2.919   9.916 -0.4859 -0.3075  0.1531
 4172SOL    HW124152   0.387   2.931   9.910 -0.1284 -3.0877  0.3810
 4172SOL    HW224153   0.279   2.905  10.010 -0.4089 -2.6384 -0.1975
 4173SOL     OW24154   2.693   1.174   3.039  0.3311  0.0869  0.0483
 4173SOL    HW124155   2.728   1.136   3.119 -0.4598 -0.8240 -0.0338
 4173SOL    HW224156   2.623   1.114   3.014  0.7202 -1.2615  2.1655
 4174SOL     OW24157   0.475   0.985   2.056 -0.4856 -0.0305 -0.2577
 4174SOL    HW124158   0.466   0.952   2.145  2.8231 -0.4261 -0.0992
 4174SOL    HW224159   0.423   1.066   2.057 -1.2209 -0.4773 -1.7582
 4175SOL     OW24160   2.729   3.126  10.427 -0.3290 -0.3687  0.0219
 4175SOL    HW124161   2.693   3.145  10.513 -0.6888 -0.1600 -0.1731
 4175SOL    HW224162   2.652   3.132  10.371  0.6469 -1.6823 -1.4562
 4176SOL     OW24163   1.777   3.202   6.917 -0.3307  0.6584  0.1438
 4176SOL    HW124164   1.740   3.281   6.876  0.3162  0.7663 -0.2313
 4176SOL    HW224165   1.850   3.244   6.961  1.7987 -2.0234 -0.8412
 4177SOL     OW24166   0.200   1.102   1.207 -1.1150 -0.2889  0.1537
 4177SOL    HW124167   0.199   1.177   1.266  3.2617  0.3094 -0.5541
 4177SOL    HW224168   0.295   1.091   1.205 -1.0669 -0.0752  1.4487
 4178SOL     OW24169   3.016   1.398   5.988  0.4774 -0.1655  0.2904
 4178SOL    HW124170   2.927   1.416   6.019 -0.3144 -2.8457 -0.4210
 4178SOL    HW224171   3.007   1.314   5.942  2.7226  0.3241 -1.0185
 4179SOL     OW24172   3.691   2.206  13.647 -0.1815 -0.6081 -0.6362
 4179SOL    HW124173   3.691   2.300  13.664 -1.0561 -0.6068 -0.6508
 4179SOL    HW224174   3.603   2.183  13.678  0.1284 -0.3452  0.4283
 4180SOL     OW24175   2.676   2.508   2.954 -0.0854 -0.0700 -0.4092
 4180SOL    HW124176   2.768   2.502   2.929  0.6094 -3.0148  2.8487
 4180SOL    HW224177   2.651   2.417   2.941 -0.4482  0.0521 -0.5587
 4181SOL     OW24178   4.677   1.680   6.256 -0.1861 -0.2188 -0.4173
 4181SOL    HW124179   0.006   1.611   6.241  0.6978  0.6251 -0.4516
 4181SOL    HW224180   4.709   1.763   6.220  1.8920 -0.2839  1.2824
 4182SOL     OW24181   3.736   4.642   6.969 -0.6132 -0.5045 -0.0983
 4182SOL    HW124182   3.665   4.670   7.027 -1.4150 -2.9154  0.0718
 4182SOL    HW224183   3.795   4.606   7.035 -0.8161 -1.4224 -0.4280
 4183SOL     OW24184   0.627   4.219   6.756 -0.3165  0.0127  0.4259
 4183SOL    HW124185   0.610   4.311   6.776  1.1825  0.4023 -0.1051
 4183SOL    HW224186   0.587   4.183   6.835  1.5456 -1.3792  0.7440
 4184SOL     OW24187   2.619   2.784   3.432  0.2961 -0.2503  0.7604
 4184SOL    HW124188   2.655   2.738   3.356  1.0576  0.1478  0.8810
 4184SOL    HW224189   2.547   2.727   3.460  0.8123 -1.2523  0.0234
 4185SOL     OW24190   3.727   1.152  12.477 -0.5088  0.3133 -0.1421
 4185SOL    HW124191   3.676   1.187  12.550 -3.6714  0.8288 -2.6570
 4185SOL    HW224192   3.787   1.088  12.517 -1.5311 -0.1138  0.7084
 4186SOL     OW24193   0.418   2.441   8.290 -0.2350  0.1034  0.2230
 4186SOL    HW124194   0.385   2.531   8.301  0.5501  0.5329 -0.9055
 4186SOL    HW224195   0.374   2.397   8.362 -0.9074  0.5135  0.0628
 4187SOL     OW24196   4.402   2.217   7.679  0.1917  0.5966  0.1377
 4187SOL    HW124197   4.321   2.190   7.636  1.1747  0.3880 -1.5972
 4187SOL    HW224198   4.460   2.148   7.646 -2.1790 -0.7652 -1.1761
 4188SOL     OW24199   2.584   4.330  11.907 -0.0295  0.0975 -0.0666
 4188SOL    HW124200   2.559   4.402  11.964 -1.9562  0.7633 -1.7559
 4188SOL    HW224201   2.553   4.376  11.829  0.6366  1.2283  0.3236
 4189SOL     OW24202   3.868   1.122   6.935  0.2646  0.3758 -0.1169
 4189SOL    HW124203   3.870   1.212   6.905  0.1025  0.5158  0.3018
 4189SOL    HW224204   3.775   1.118   6.955  0.5234  2.4309  1.4465
 4190SOL     OW24205   2.210   4.630   4.024  0.0836  0.0699  0.7406
 4190SOL    HW124206   2.145   4.674   4.080  0.8006 -1.6809  2.9708
 4190SOL    HW224207   2.154   4.565   3.983  0.0238 -0.6795  1.9948
 4191SOL     OW24208   1.947   2.541   5.468 -0.5047 -0.2697  0.6781
 4191SOL    HW124209   2.038   2.566   5.486  0.0829 -1.2406 -0.8569
 4191SOL    HW224210   1.914   2.579   5.549 -1.5853  0.2909 -0.0226
 4192SOL     OW24211   1.086   0.556   8.581  0.5456 -1.0718 -0.4438
 4192SOL    HW124212   1.031   0.616   8.531  3.0751  1.7976  0.2565
 4192SOL    HW224213   1.045   0.474   8.555 -0.1376 -0.8088 -0.2086
 4193SOL     OW24214   2.064   3.915  10.507 -1.0513 -0.7403  0.4267
 4193SOL    HW124215   2.044   3.976  10.437 -0.1208 -1.0061 -0.0655
 4193SOL    HW224216   2.097   3.844  10.451  0.2552 -0.1201  0.4201
 4194SOL     OW24217   2.507   2.784  15.249 -0.4844  0.0442  0.3544
 4194SOL    HW124218   2.516   2.703  15.198 -0.6498 -0.9989  1.9714
 4194SOL    HW224219   2.436   2.752  15.305 -0.2883 -2.4610 -0.8305
 4195SOL     OW24220   0.773   0.077  17.256 -0.2498 -0.1772  0.2259
 4195SOL    HW124221   0.746   0.129  17.180  0.2986 -1.8654 -1.1285
 4195SOL    HW224222   0.828   0.015  17.207 -0.8526  1.7769 -2.9270
 4196SOL     OW24223   2.522   0.856   6.262  0.0877 -0.6434 -0.1621
 4196SOL    HW124224   2.525   0.944   6.300 -0.1619  0.5088 -2.7481
 4196SOL    HW224225   2.492   0.870   6.172 -0.8183 -0.4817  0.1564
 4197SOL     OW24226   2.288   3.692   2.418  0.5054 -0.2890  0.1151
 4197SOL    HW124227   2.358   3.720   2.477  0.2808 -0.8549  0.6515
 4197SOL    HW224228   2.296   3.747   2.340  0.7825  1.4487  1.3600
 4198SOL     OW24229   2.649   3.570   7.482 -0.0879  0.1064 -0.2378
 4198SOL    HW124230   2.723   3.590   7.424  1.5464  1.3329  2.2236
 4198SOL    HW224231   2.694   3.570   7.567  2.6403  2.3146 -1.6887
 4199SOL     OW24232   0.663   1.728   6.110 -0.4532 -0.9302 -0.6439
 4199SOL    HW124233   0.676   1.666   6.182 -3.3042 -0.2281  0.4857
 4199SOL    HW224234   0.657   1.813   6.152 -2.6870 -0.0680 -2.7050
 4200SOL     OW24235   1.587   0.972  13.991  0.0420  0.3085  0.0721
 4200SOL    HW124236   1.507   0.922  13.978 -0.7214  1.3888  0.6618
 4200SOL    HW224237   1.642   0.909  14.037 -1.3210 -0.9069  0.0171
 4201SOL     OW24238   0.383   0.619   4.037 -0.0233  0.1366 -0.0370
 4201SOL    HW124239   0.300   0.646   4.077 -0.4765 -0.1245 -0.7948
 4201SOL    HW224240   0.421   0.702   4.008 -0.8763 -0.2614 -2.2709
 4202SOL     OW24241   1.693   3.432   0.156  0.6656  0.3586  0.1282
 4202SOL    HW124242   1.783   3.414   0.182  0.2814 -0.5202  0.8486
 4202SOL    HW224243   1.662   3.346   0.129 -1.1128  1.0693 -0.0996
 4203SOL     OW24244   3.466   2.949   8.035 -0.2799 -0.5911 -0.0633
 4203SOL    HW124245   3.411   2.954   7.957 -0.5213  0.7495  0.1955
 4203SOL    HW224246   3.423   2.875   8.078  0.9801  0.2450  2.6424
 4204SOL     OW24247   2.482   2.857  16.002  0.0560  0.1816 -0.4007
 4204SOL    HW124248   2.417   2.792  16.029  0.3562 -0.5225 -1.3543
 4204SOL    HW224249   2.429   2.924  15.959  0.5125 -0.4662 -1.9724
 4205SOL     OW24250   4.116   0.843   3.019 -0.0574  0.3859 -0.6973
 4205SOL    HW124251   4.094   0.935   3.035 -2.4980  0.0306 -1.9413
 4205SOL    HW224252   4.051   0.819   2.952  0.1699  2.3777 -1.6239
 4206SOL     OW24253   3.803   1.968  13.648  0.1158  0.5570 -0.7352
 4206SOL    HW124254   3.852   1.956  13.729 -1.6087 -0.2604  0.1792
 4206SOL    HW224255   3.787   2.062  13.641  0.1792  0.4282 -2.5447
 4207SOL     OW24256   4.447   2.797  12.086  0.4486 -0.3113 -0.5059
 4207SOL    HW124257   4.451   2.724  12.023  0.9561 -0.6161 -0.1218
 4207SOL    HW224258   4.516   2.765  12.144  0.1077  2.7222  1.5532
 4208SOL     OW24259   4.332   2.386   0.303 -0.1013  0.0990  0.9127
 4208SOL    HW124260   4.363   2.442   0.232  0.6422 -0.5022  0.7712
 4208SOL    HW224261   4.333   2.446   0.378  0.1162  0.6761  0.4480
 4209SOL     OW24262   3.124   1.957   8.244  0.5447  0.0916  0.5919
 4209SOL    HW124263   3.150   2.023   8.309  3.5613 -0.6171  0.1319
 4209SOL    HW224264   3.050   1.924   8.294 -0.7280  0.5870 -0.9523
 4210SOL     OW24265   3.066   2.568   6.730 -0.0600 -0.8310 -0.2627
 4210SOL    HW124266   3.125   2.598   6.661 -1.0213 -0.5621 -0.9747
 4210SOL    HW224267   2.996   2.515   6.692 -0.5305 -0.3136 -0.1160
 4211SOL     OW24268   3.291   3.231   7.931 -0.1175 -0.2251 -0.0581
 4211SOL    HW124269   3.268   3.167   7.865  0.4331 -0.3523 -0.1290
 4211SOL    HW224270   3.380   3.258   7.908 -0.1945  0.5442  0.5329
 4212SOL     OW24271   0.849   3.236  14.510 -0.4093 -0.8560 -0.8988
 4212SOL    HW124272   0.938   3.253  14.477 -0.1517 -0.0083  0.2337
 4212SOL    HW224273   0.875   3.213  14.599 -0.8750  2.6014  0.1342
 4213SOL     OW24274   4.052   1.688   5.548  0.5370  0.2024  0.0093
 4213SOL    HW124275   4.012   1.629   5.485 -1.0644  0.9508  0.3164
 4213SOL    HW224276   4.003   1.769   5.533 -1.2653 -0.9221 -0.0858
 4214SOL     OW24277   0.845   4.013   4.247 -0.2136 -0.2593 -0.0998
 4214SOL    HW124278   0.868   3.980   4.334  0.5109 -1.0221 -0.5787
 4214SOL    HW224279   0.923   4.066   4.229  0.0466 -0.3500  0.7637
 4215SOL     OW24280   1.991   2.049   6.341 -0.1816  0.3935  0.3698
 4215SOL    HW124281   1.963   1.962   6.368 -0.6518  1.2694  2.6455
 4215SOL    HW224282   1.996   2.052   6.245  0.2581 -1.4305  0.3301
 4216SOL     OW24283   0.444   1.870   7.900 -0.1860 -0.0765 -0.4141
 4216SOL    HW124284   0.352   1.871   7.872 -0.2134 -0.2326 -0.3331
 4216SOL    HW224285   0.465   1.962   7.916  0.1824 -0.4547  1.2898
 4217SOL     OW24286   4.468   2.673   7.383  0.4189  0.7096 -0.5127
 4217SOL    HW124287   4.406   2.655   7.312 -0.7252  2.8353 -0.0306
 4217SOL    HW224288   4.469   2.592   7.434  0.0645  0.5666 -0.7332
 4218SOL     OW24289   1.595   3.894   5.823 -0.5637 -0.6008 -0.0965
 4218SOL    HW124290   1.604   3.800   5.835  0.5181 -0.3211  1.3365
 4218SOL    HW224291   1.613   3.913   5.915  2.8427  1.3835 -1.1876
 4219SOL     OW24292   2.095   0.938   8.511  0.1408 -0.5326 -0.0136
 4219SOL    HW124293   2.084   0.847   8.484 -0.1440 -1.4378  3.1722
 4219SOL    HW224294   2.103   0.974   8.423 -1.4245  1.0771  0.5086
 4220SOL     OW24295   3.958   3.585   3.446  0.6863  0.0071 -0.0344
 4220SOL    HW124296   3.934   3.549   3.360 -1.5232  1.4379 -0.0203
 4220SOL    HW224297   4.004   3.664   3.419 -1.2812  0.9097 -0.7833
 4221SOL     OW24298   2.211   0.374   9.891 -0.2076 -0.6373  0.6567
 4221SOL    HW124299   2.119   0.376   9.865  0.0029  0.0661 -0.0540
 4221SOL    HW224300   2.235   0.467   9.887 -2.2126 -0.1795 -0.4598
 4222SOL     OW24301   0.858   1.717   8.572  0.6111  0.4014  0.5245
 4222SOL    HW124302   0.923   1.788   8.569 -0.1978  0.9876 -2.9933
 4222SOL    HW224303   0.903   1.635   8.555  0.0147 -0.2612  2.1677
 4223SOL     OW24304   3.086   0.360   2.717 -0.0213  0.2138 -0.0657
 4223SOL    HW124305   3.021   0.324   2.657 -0.2528  1.0704 -0.3142
 4223SOL    HW224306   3.140   0.284   2.741  3.5302  2.7130 -0.1693
 4224SOL     OW24307   0.161   2.663   7.099  0.0859 -0.1455 -0.0074
 4224SOL    HW124308   0.097   2.680   7.030  1.8973 -0.9207 -1.8815
 4224SOL    HW224309   0.102   2.676   7.173  1.6418 -2.5649  1.6521
 4225SOL     OW24310   1.123   2.652  10.099  0.2449  0.0612  0.7522
 4225SOL    HW124311   1.205   2.646  10.051  0.0499  3.4201 -0.0292
 4225SOL    HW224312   1.081   2.734  10.071  0.6332  0.1740  0.5024
 4226SOL     OW24313   0.331   3.054   8.300 -0.0743  0.0387  0.2327
 4226SOL    HW124314   0.422   3.061   8.270 -0.1026 -2.5615 -0.4754
 4226SOL    HW224315   0.302   2.973   8.258  0.0829  0.2311 -0.2535
 4227SOL     OW24316   0.195   2.641   3.460 -0.3091 -0.0588  0.7919
 4227SOL    HW124317   0.227   2.690   3.536  1.9048  0.7689 -0.6662
 4227SOL    HW224318   0.215   2.550   3.481 -3.9292 -1.9627 -4.0541
 4228SOL     OW24319   3.956   3.304   8.471  0.4576 -0.0236  0.4505
 4228SOL    HW124320   3.878   3.292   8.417  2.0732 -0.8065 -1.7186
 4228SOL    HW224321   3.982   3.212   8.470 -1.8825 -0.6891  0.4975
 4229SOL     OW24322   4.142   0.700  10.889  0.2527 -0.1813 -0.1909
 4229SOL    HW124323   4.127   0.764  10.959 -0.5683 -0.8393  0.2245
 4229SOL    HW224324   4.088   0.741  10.822  0.6876  2.0204  0.8121
 4230SOL     OW24325   4.656   4.374   7.908 -0.2954 -0.2377  0.0628
 4230SOL    HW124326   4.705   4.426   7.845  0.1122  0.5668  1.0324
 4230SOL    HW224327   4.595   4.433   7.952  1.2102  0.0804  1.7609
 4231SOL     OW24328   0.458   3.918   4.071  0.4654 -0.5509 -0.7405
 4231SOL    HW124329   0.424   4.004   4.050 -1.2007 -1.0536 -0.1599
 4231SOL    HW224330   0.375   3.876   4.097  1.9955 -1.4751  2.7541
 4232SOL     OW24331   3.342   4.482   5.853  0.1478 -0.4366  0.0474
 4232SOL    HW124332   3.418   4.463   5.907  1.0453 -1.6764 -1.6584
 4232SOL    HW224333   3.384   4.515   5.773 -0.1013  1.1902  0.5872
 4233SOL     OW24334   1.519   0.108  10.421 -0.1012  0.3146 -0.2678
 4233SOL    HW124335   1.604   0.063  10.418 -1.0642 -1.4714 -0.7485
 4233SOL    HW224336   1.510   0.109  10.516 -1.6937 -0.8917 -0.4030
 4234SOL     OW24337   1.451   2.445   9.836  0.0865  0.2195 -0.6398
 4234SOL    HW124338   1.431   2.408   9.923  0.8008 -1.1487 -1.0612
 4234SOL    HW224339   1.497   2.364   9.816  1.8693  0.8444  0.9077
 4235SOL     OW24340   1.308   4.310   5.307 -0.0277 -0.3843 -0.2187
 4235SOL    HW124341   1.343   4.255   5.377  1.3089  0.5517 -0.1576
 4235SOL    HW224342   1.285   4.244   5.242  0.4485 -1.5643  0.8021
 4236SOL     OW24343   4.051   3.648   6.598 -0.2914  0.3128  0.0492
 4236SOL    HW124344   3.983   3.698   6.553  0.8119 -0.8581 -2.9184
 4236SOL    HW224345   4.034   3.558   6.572 -0.9505 -0.0864  1.8397
 4237SOL     OW24346   0.139   4.275   9.399 -0.5844  0.1388  0.2240
 4237SOL    HW124347   0.098   4.261   9.485 -1.1183 -0.4646 -0.1376
 4237SOL    HW224348   0.180   4.189   9.398 -2.3222 -0.7187  2.1806
 4238SOL     OW24349   3.403   0.958   8.983  0.8446 -0.3212 -0.2936
 4238SOL    HW124350   3.344   0.899   9.030 -2.0681  0.2593 -3.1755
 4238SOL    HW224351   3.481   0.903   8.977  0.7050 -0.6381  0.9311
 4239SOL     OW24352   2.705   0.798  16.584  0.0423  0.4183  0.9799
 4239SOL    HW124353   2.782   0.748  16.609  0.4834  0.5032 -0.2013
 4239SOL    HW224354   2.701   0.757  16.498  0.4480 -0.3696  1.3427
 4240SOL     OW24355   0.677   3.801   6.758  0.2333  0.1433 -0.1196
 4240SOL    HW124356   0.667   3.711   6.790 -0.7751  0.2320 -0.1924
 4240SOL    HW224357   0.698   3.851   6.837 -0.3987  0.9463 -0.4693
 4241SOL     OW24358   3.343   1.494  13.422  0.4858  0.1368 -0.4748
 4241SOL    HW124359   3.299   1.575  13.446  2.2025  0.9849 -0.1829
 4241SOL    HW224360   3.272   1.440  13.386  1.3396 -0.0257 -1.9247
 4242SOL     OW24361   4.511   3.273   5.146  0.2149  0.0586  0.2682
 4242SOL    HW124362   4.574   3.308   5.083 -1.2063 -0.3095 -1.3285
 4242SOL    HW224363   4.574   3.253   5.216 -0.6933 -2.0091  0.4793
 4243SOL     OW24364   4.558   0.112   8.477 -0.4995 -0.2382  0.1766
 4243SOL    HW124365   4.588   0.189   8.430 -0.1700  0.0994  0.9420
 4243SOL    HW224366   4.570   0.140   8.568  0.6216 -1.9777  0.5674
 4244SOL     OW24367   1.125   1.156  12.456  0.1926  0.8636 -0.0111
 4244SOL    HW124368   1.050   1.130  12.403 -0.2485  1.3710  0.3697
 4244SOL    HW224369   1.183   1.200  12.395  0.4418  1.4416  0.6398
 4245SOL     OW24370   0.528   1.460   1.640 -0.2303  0.2364 -0.4062
 4245SOL    HW124371   0.501   1.378   1.682  1.7604  0.3186  1.0175
 4245SOL    HW224372   0.587   1.432   1.570 -1.1861  2.8660 -2.2602
 4246SOL     OW24373   2.404   0.207   7.040 -0.5856  0.3621  0.3227
 4246SOL    HW124374   2.483   0.198   7.093 -1.4370 -2.0100  1.1762
 4246SOL    HW224375   2.354   0.264   7.098  2.2359  1.9993  1.1225
 4247SOL     OW24376   0.169   3.198  11.738 -0.3317  0.1408  0.3924
 4247SOL    HW124377   0.151   3.292  11.737  0.2118  0.2284 -1.4190
 4247SOL    HW224378   0.234   3.186  11.668  0.3887 -2.9300  1.5833
 4248SOL     OW24379   2.911   2.071   5.525 -0.1987  0.0676  0.4937
 4248SOL    HW124380   2.956   2.155   5.512  1.2665 -0.8031 -0.0939
 4248SOL    HW224381   2.902   2.062   5.620  0.3571 -0.1056  0.5339
 4249SOL     OW24382   4.550   0.541   3.830  0.3215 -1.2973  0.3027
 4249SOL    HW124383   4.576   0.457   3.792  0.6388 -0.6238 -0.9621
 4249SOL    HW224384   4.558   0.607   3.761  1.1851 -0.9841  0.7096
 4250SOL     OW24385   0.355   3.749   9.843 -0.1325 -0.0453  0.4145
 4250SOL    HW124386   0.261   3.741   9.828  0.2085 -2.7150 -0.3486
 4250SOL    HW224387   0.394   3.683   9.785  4.2480  3.1537 -0.3043
 4251SOL     OW24388   0.341   1.866   8.530 -0.1604 -0.0936  0.1685
 4251SOL    HW124389   0.276   1.820   8.583 -1.2881 -1.1391 -2.1542
 4251SOL    HW224390   0.415   1.810   8.556 -0.3438 -0.1612  0.5452
 4252SOL     OW24391   1.645   2.026   1.607 -0.2539  0.0379  0.0772
 4252SOL    HW124392   1.661   2.107   1.558  0.3025 -0.4546 -0.5576
 4252SOL    HW224393   1.562   1.995   1.573  1.0268 -1.9933 -1.1489
 4253SOL     OW24394   4.379   0.840   5.993  0.4605  0.1295 -0.0970
 4253SOL    HW124395   4.309   0.885   5.946  0.8009  0.6176 -0.1405
 4253SOL    HW224396   4.353   0.750   5.975  1.0282 -0.1528  0.4867
 4254SOL     OW24397   2.321   0.509   2.976 -0.1763 -0.5178  0.3980
 4254SOL    HW124398   2.245   0.450   2.974 -0.3664 -0.2370 -0.3036
 4254SOL    HW224399   2.389   0.446   3.001 -0.0404 -0.6063 -0.2158
 4255SOL     OW24400   1.073   0.401   6.157  0.5095 -0.2192  0.1133
 4255SOL    HW124401   1.101   0.453   6.233 -1.7661  0.7608  0.2921
 4255SOL    HW224402   1.070   0.315   6.199 -0.5863  0.9350  2.4202
 4256SOL     OW24403   4.432   0.851   2.525  0.0449 -0.8103 -0.4188
 4256SOL    HW124404   4.411   0.944   2.514  2.6708 -0.0828  0.5575
 4256SOL    HW224405   4.371   0.831   2.596 -0.7029  1.5092 -0.4164
 4257SOL     OW24406   4.200   0.601   2.263  0.1167 -0.4839 -0.5521
 4257SOL    HW124407   4.264   0.533   2.282 -0.2241 -1.2995 -2.2986
 4257SOL    HW224408   4.194   0.604   2.168  0.9530 -2.3067 -0.6749
 4258SOL     OW24409   0.498   3.122   2.224 -0.1880  0.6713  0.0247
 4258SOL    HW124410   0.424   3.138   2.166  1.3232  2.9685 -1.2436
 4258SOL    HW224411   0.524   3.207   2.260  0.4129  0.6540 -0.3571
 4259SOL     OW24412   0.096   3.170   8.155 -0.0626  0.2117 -0.9529
 4259SOL    HW124413   0.120   3.225   8.080  1.1435  0.9503 -0.0212
 4259SOL    HW224414   0.178   3.144   8.197 -0.2461  0.0091 -0.7223
 4260SOL     OW24415   0.440   3.484   4.542  0.3043 -0.0601 -0.4318
 4260SOL    HW124416   0.357   3.470   4.587  0.1209 -0.6437 -0.9592
 4260SOL    HW224417   0.453   3.577   4.560  0.9960 -0.5912  1.8092
 4261SOL     OW24418   2.306   2.697   7.178 -0.3670  0.5065 -0.4502
 4261SOL    HW124419   2.366   2.771   7.178  0.2143  0.0372  1.1710
 4261SOL    HW224420   2.229   2.739   7.217  0.7044  1.8829  0.1778
 4262SOL     OW24421   1.172   0.631   8.133  0.2825 -0.3028  0.5640
 4262SOL    HW124422   1.135   0.641   8.221 -0.7409  0.7099  0.0138
 4262SOL    HW224423   1.217   0.713   8.116  0.6956 -0.6083  0.1907
 4263SOL     OW24424   3.510   1.157   6.210 -0.0055 -0.0493 -0.3293
 4263SOL    HW124425   3.531   1.099   6.284  0.0257 -0.1303 -0.4015
 4263SOL    HW224426   3.493   1.234   6.263 -0.8360 -0.0893 -0.5326
 4264SOL     OW24427   3.945   0.762   8.249 -0.3308 -0.0596 -0.5926
 4264SOL    HW124428   3.856   0.796   8.261 -1.2616 -2.3709 -0.9615
 4264SOL    HW224429   3.937   0.673   8.285  2.8845  0.2695  0.9545
 4265SOL     OW24430   4.413   3.905   2.397 -0.0647 -0.3682 -0.6944
 4265SOL    HW124431   4.506   3.915   2.377  0.1468 -0.8167  0.0970
 4265SOL    HW224432   4.411   3.814   2.427 -1.4310  0.4254  1.6038
 4266SOL     OW24433   2.007   3.881   5.549  0.6499 -0.5245  0.0287
 4266SOL    HW124434   2.091   3.843   5.575  0.7474 -0.8739 -0.8006
 4266SOL    HW224435   1.963   3.895   5.633 -2.6931 -0.2948 -1.7344
 4267SOL     OW24436   4.252   3.877   8.334 -0.1522  0.4111 -0.1472
 4267SOL    HW124437   4.182   3.871   8.399  0.6049  0.8281  0.6997
 4267SOL    HW224438   4.257   3.972   8.345  4.4105  0.2991 -1.1973
 4268SOL     OW24439   0.052   0.415   4.313 -0.0813  0.5718 -0.1425
 4268SOL    HW124440   0.063   0.469   4.235 -0.2273  1.0275  0.1520
 4268SOL    HW224441   0.055   0.333   4.264  1.4395  1.6151 -1.7864
 4269SOL     OW24442   2.913   0.542  10.528  0.2836  0.6431 -0.0239
 4269SOL    HW124443   2.950   0.601  10.594  1.7932 -0.4031  0.0725
 4269SOL    HW224444   2.927   0.602  10.455 -0.4211  0.2885 -0.4487
 4270SOL     OW24445   1.956   4.100   5.978  0.5060  0.2405 -0.1218
 4270SOL    HW124446   2.049   4.090   5.960  0.5831 -0.1287  0.4624
 4270SOL    HW224447   1.956   4.052   6.061  0.5428 -2.8805 -1.9276
 4271SOL     OW24448   1.626   4.218  15.518  0.5119  0.3769 -0.0986
 4271SOL    HW124449   1.670   4.160  15.455  1.5788  0.0021  1.0011
 4271SOL    HW224450   1.681   4.220  15.596 -1.8408  0.4285  1.5707
 4272SOL     OW24451   0.972   2.154   1.893  0.4843  0.5620 -0.4493
 4272SOL    HW124452   1.058   2.192   1.910  0.6501  0.0454 -0.1297
 4272SOL    HW224453   0.916   2.230   1.902 -2.5947 -1.5561 -1.5489
 4273SOL     OW24454   3.858   2.157   7.790  0.3523 -0.2036 -0.2051
 4273SOL    HW124455   3.812   2.224   7.841  2.0369  0.2397  0.7444
 4273SOL    HW224456   3.923   2.213   7.747  0.1433  1.1888  1.2972
 4274SOL     OW24457   0.767   3.530   4.687  0.0960  0.4672  0.1241
 4274SOL    HW124458   0.760   3.464   4.618 -0.1759  1.8783 -1.1758
 4274SOL    HW224459   0.751   3.612   4.640  2.4569  1.4046  0.9580
 4275SOL     OW24460   4.275   0.123   2.377  0.3108 -0.3685 -0.0128
 4275SOL    HW124461   4.299   0.136   2.285  0.5705 -2.0014 -0.1648
 4275SOL    HW224462   4.270   0.210   2.418  0.5253 -0.2097 -0.3206
 4276SOL     OW24463   1.831   2.371   2.945 -0.1168  0.1984  0.5554
 4276SOL    HW124464   1.878   2.452   2.926  0.4220 -0.4780 -0.9489
 4276SOL    HW224465   1.875   2.304   2.894 -0.2827  0.8972 -0.5106
 4277SOL     OW24466   1.277   0.841   2.632  0.4180 -0.2058  0.4758
 4277SOL    HW124467   1.199   0.887   2.662  2.4787  1.8946  2.6927
 4277SOL    HW224468   1.327   0.911   2.590 -0.5933 -0.1535 -0.6169
 4278SOL     OW24469   3.574   3.200  10.651  0.0015  0.3880 -0.1028
 4278SOL    HW124470   3.622   3.137  10.597 -0.0618  0.9606 -0.8310
 4278SOL    HW224471   3.576   3.158  10.737 -0.6877  1.3182  0.3677
 4279SOL     OW24472   2.229   2.447   5.499 -0.8407  0.7723  0.0919
 4279SOL    HW124473   2.321   2.421   5.492 -0.6868  0.8361  1.8441
 4279SOL    HW224474   2.236   2.507   5.573 -1.4935 -0.1624  0.9171
 4280SOL     OW24475   0.070   3.654   8.117  0.0332 -0.3201  0.1049
 4280SOL    HW124476   0.006   3.698   8.172  3.4823  3.2855  1.2081
 4280SOL    HW224477   0.040   3.682   8.030 -1.5532  0.4537  0.9151
 4281SOL     OW24478   0.425   2.486   5.474  0.3493 -0.0538  0.1164
 4281SOL    HW124479   0.347   2.432   5.458  1.7464 -2.5112  1.5333
 4281SOL    HW224480   0.412   2.534   5.556 -1.9225 -0.7284  0.1395
 4282SOL     OW24481   0.157   3.167   1.247 -0.3179  0.0341  0.1994
 4282SOL    HW124482   0.066   3.143   1.266 -0.4696  0.5420  0.1176
 4282SOL    HW224483   0.174   3.250   1.292 -0.0566  0.1540 -0.1234
 4283SOL     OW24484   2.424   4.338   0.146 -0.2858 -0.1146  0.0148
 4283SOL    HW124485   2.472   4.256   0.143 -0.2462 -0.1223  0.7533
 4283SOL    HW224486   2.478   4.385   0.210  0.1211  2.7219 -2.4546
 4284SOL     OW24487   4.694   2.646   8.370 -0.1777 -0.2003  0.7354
 4284SOL    HW124488   4.617   2.662   8.425 -0.0807  1.8108  0.2606
 4284SOL    HW224489   4.652   2.641   8.284  1.1986 -1.2060  0.1148
 4285SOL     OW24490   3.129   2.964   4.396  0.2236 -0.3996 -0.1675
 4285SOL    HW124491   3.220   2.946   4.417 -0.5332 -3.0849  0.8030
 4285SOL    HW224492   3.092   2.889   4.443 -2.6687 -0.2856 -2.1874
 4286SOL     OW24493   3.365   0.967   9.394 -0.5048 -0.3179  0.2651
 4286SOL    HW124494   3.281   0.957   9.350 -0.6745 -1.9539  0.9620
 4286SOL    HW224495   3.400   0.880   9.374 -3.4763 -1.7873  1.5202
 4287SOL     OW24496   1.005   0.675  11.853  0.2814 -0.3256 -0.1860
 4287SOL    HW124497   0.930   0.735  11.856  0.1407 -0.5958  2.1096
 4287SOL    HW224498   1.062   0.716  11.917  1.5656 -3.1553  0.4901
 4288SOL     OW24499   0.910   0.718   8.442  0.1548 -0.4705 -0.1205
 4288SOL    HW124500   0.865   0.675   8.369  0.0608  0.2280 -0.4701
 4288SOL    HW224501   0.954   0.793   8.402 -1.6356  0.8322  0.3862
 4289SOL     OW24502   0.097   4.186  17.197 -0.4601  0.1523  0.3160
 4289SOL    HW124503   0.164   4.135  17.152 -0.4412  0.3900  0.0746
 4289SOL    HW224504   0.103   4.271  17.154 -0.1562 -1.1551 -2.2299
 4290SOL     OW24505   1.505   0.865  17.160 -0.2526 -0.2944  0.2113
 4290SOL    HW124506   1.475   0.780  17.126 -0.4672 -0.4647  0.8307
 4290SOL    HW224507   1.595   0.845  17.184 -0.2113 -0.1330  0.1845
 4291SOL     OW24508   0.817   2.197   6.111 -0.4229  1.0343 -0.2809
 4291SOL    HW124509   0.780   2.223   6.196 -0.6247 -0.3658  0.0487
 4291SOL    HW224510   0.802   2.278   6.062  0.0685  0.5971 -1.1369
 4292SOL     OW24511   4.264   2.800   0.400  0.0951  0.1094  0.1313
 4292SOL    HW124512   4.322   2.775   0.328 -0.7513 -1.2569 -0.0692
 4292SOL    HW224513   4.216   2.719   0.415  0.8181 -0.0550  1.5528
 4293SOL     OW24514   0.227   4.553   0.526 -0.0440 -0.1105 -0.2948
 4293SOL    HW124515   0.155   4.491   0.538  0.3196 -0.5417 -0.3279
 4293SOL    HW224516   0.255   4.575   0.615  2.3141 -1.5930 -0.6737
 4294SOL     OW24517   3.074   4.690   3.698 -0.8283 -0.1319 -0.4731
 4294SOL    HW124518   3.032   4.604   3.692  1.8208 -1.6009  2.0539
 4294SOL    HW224519   3.166   4.664   3.707 -0.8161  0.2948  0.7063
 4295SOL     OW24520   4.670   0.303   9.392  0.2576  0.3434 -0.2561
 4295SOL    HW124521   4.602   0.236   9.393 -0.1360  0.7696  2.0277
 4295SOL    HW224522   0.012   0.251   9.372 -0.7164 -0.6278 -1.5326
 4296SOL     OW24523   2.351   3.508   2.088  0.0352 -0.2383 -0.5523
 4296SOL    HW124524   2.293   3.472   2.020 -1.5527 -0.5606  0.9582
 4296SOL    HW224525   2.379   3.431   2.138  1.7229 -0.3392 -1.6718
 4297SOL     OW24526   3.276   0.356   6.448  0.0229 -0.0855 -0.6086
 4297SOL    HW124527   3.334   0.318   6.381  0.3147 -2.2548  0.8785
 4297SOL    HW224528   3.340   0.399   6.505 -1.1674 -0.8553  1.2892
 4298SOL     OW24529   2.055   3.870   9.528  0.5838  0.2083 -0.4158
 4298SOL    HW124530   2.023   3.793   9.481 -0.2020  1.0421 -1.2274
 4298SOL    HW224531   1.981   3.880   9.588 -0.2693 -0.4156 -1.3561
 4299SOL     OW24532   3.512   1.221  11.181  0.4859  0.0436  0.1121
 4299SOL    HW124533   3.463   1.297  11.150  0.0291 -0.0717  0.5507
 4299SOL    HW224534   3.490   1.147  11.124 -0.0821  0.0255  0.3602
 4300SOL     OW24535   3.281   3.428   7.264 -0.0312 -0.7147 -0.2760
 4300SOL    HW124536   3.296   3.422   7.169  0.8835 -0.6418 -0.1319
 4300SOL    HW224537   3.203   3.371   7.264 -1.3092  1.0548  0.9181
 4301SOL     OW24538   1.739   4.576   1.312  0.2482  0.1941  0.3329
 4301SOL    HW124539   1.695   4.496   1.338  0.9373 -0.6772 -1.1502
 4301SOL    HW224540   1.744   4.628   1.392 -0.5486 -0.4782  0.8097
 4302SOL     OW24541   2.508   2.414   1.692 -0.1757  0.5444 -0.4798
 4302SOL    HW124542   2.548   2.496   1.722  1.1351 -0.1762 -0.2593
 4302SOL    HW224543   2.564   2.406   1.615 -1.5353 -1.4546 -1.2542
 4303SOL     OW24544   2.101   2.699   9.237  0.1882 -0.2266 -0.0152
 4303SOL    HW124545   2.089   2.710   9.143 -1.7917 -0.3581  0.2238
 4303SOL    HW224546   2.135   2.786   9.254  0.8578 -0.7716  1.4634
 4304SOL     OW24547   3.714   4.161   3.856  0.2874 -0.0966  0.0714
 4304SOL    HW124548   3.748   4.231   3.912  2.2626 -1.7445  0.9119
 4304SOL    HW224549   3.621   4.184   3.861  0.4740  0.7848 -0.4876
 4305SOL     OW24550   2.336   3.868   8.820  0.5065 -0.2441 -0.1022
 4305SOL    HW124551   2.250   3.853   8.860  0.3698  0.1666 -0.2457
 4305SOL    HW224552   2.391   3.807   8.869 -1.1011 -0.6470  1.2325
 4306SOL     OW24553   1.066   2.893  10.574 -0.4399  0.2201  0.3418
 4306SOL    HW124554   1.101   2.812  10.611 -0.9375  0.4198  1.2614
 4306SOL    HW224555   1.037   2.860  10.489  0.6262  0.3318 -0.0601
 4307SOL     OW24556   3.495   0.793   8.058 -0.2623  0.6473  0.0262
 4307SOL    HW124557   3.565   0.730   8.076 -0.2642  0.5227 -0.4062
 4307SOL    HW224558   3.520   0.818   7.969 -2.9914  1.1053 -0.6177
 4308SOL     OW24559   0.739   2.991   7.723 -0.0927 -0.3398 -0.1771
 4308SOL    HW124560   0.820   2.965   7.679 -0.6749 -1.3636 -0.6165
 4308SOL    HW224561   0.745   2.942   7.805 -0.9626 -0.4384 -0.1746
 4309SOL     OW24562   0.869   0.147  16.452  0.1935  0.4445 -0.2779
 4309SOL    HW124563   0.877   0.240  16.473  0.2253  0.3568  0.0950
 4309SOL    HW224564   0.798   0.120  16.511 -0.9455 -0.8109 -2.2069
 4310SOL     OW24565   2.264   4.412   8.534 -0.1107 -0.1799 -0.5438
 4310SOL    HW124566   2.226   4.386   8.451  2.4683 -0.1754 -1.7084
 4310SOL    HW224567   2.232   4.335   8.582  0.6654  0.3127  0.7830
 4311SOL     OW24568   2.763   0.187   7.649 -0.2515 -0.4539  0.0289
 4311SOL    HW124569   2.682   0.184   7.700 -1.7428  0.5577 -2.2776
 4311SOL    HW224570   2.755   0.102   7.606 -0.7714  0.3982 -1.5512
 4312SOL     OW24571   3.110   3.262   9.259 -0.3664 -0.3037 -0.5985
 4312SOL    HW124572   3.041   3.316   9.298 -0.0345 -0.7749  0.6597
 4312SOL    HW224573   3.173   3.326   9.228 -1.2469  0.1040 -1.5299
 4313SOL     OW24574   2.126   2.945   5.332 -0.4866 -0.1316 -0.0834
 4313SOL    HW124575   2.099   2.975   5.419  0.1518  1.1679 -0.3381
 4313SOL    HW224576   2.053   2.884   5.320  0.1181 -1.3121  2.3767
 4314SOL     OW24577   2.845   1.822   4.100 -0.0229  0.2552  0.2815
 4314SOL    HW124578   2.775   1.874   4.137  0.5667  1.3451 -0.1417
 4314SOL    HW224579   2.828   1.737   4.141  3.5270 -1.2468 -1.2897
 4315SOL     OW24580   4.555   2.691  11.533 -0.2245  0.2145  0.4499
 4315SOL    HW124581   4.487   2.656  11.590 -1.1735  0.2772 -0.6679
 4315SOL    HW224582   4.537   2.782  11.556 -0.3053  0.4856 -0.7316
 4316SOL     OW24583   0.522   1.329   7.671  1.0037  0.4884 -0.0800
 4316SOL    HW124584   0.557   1.324   7.760  0.2962 -1.3216  0.1001
 4316SOL    HW224585   0.581   1.393   7.630  0.2853  1.4777  0.4127
 4317SOL     OW24586   2.097   4.307   3.513  0.1455 -0.4200 -0.3892
 4317SOL    HW124587   2.190   4.329   3.505  0.2362 -2.0420 -3.5772
 4317SOL    HW224588   2.092   4.213   3.532 -3.1702  0.1517  1.6176
 4318SOL     OW24589   0.458   0.391   3.007  1.1521  0.4387  0.2500
 4318SOL    HW124590   0.438   0.478   3.042  1.4029  0.1230  1.1853
 4318SOL    HW224591   0.425   0.393   2.917  1.7395  2.3574  0.0859
 4319SOL     OW24592   4.150   2.776   2.888  0.2778 -0.0435 -0.0185
 4319SOL    HW124593   4.195   2.721   2.952 -1.3334 -1.1104  0.1751
 4319SOL    HW224594   4.146   2.859   2.936 -3.5940 -0.8716  1.0450
 4320SOL     OW24595   0.313   4.521   5.311  0.6072  0.0092  0.1367
 4320SOL    HW124596   0.266   4.478   5.240 -0.2779 -1.3050  1.5100
 4320SOL    HW224597   0.377   4.457   5.342 -0.7034 -1.8192 -0.9172
 4321SOL     OW24598   3.878   0.301  10.998 -0.3126 -0.2712 -0.6925
 4321SOL    HW124599   3.856   0.324  11.088  0.8362  1.1952 -0.7803
 4321SOL    HW224600   3.950   0.360  10.977  0.0742 -0.5916 -0.2585
 4322SOL     OW24601   0.406   2.596   2.944 -0.3328 -0.1585  0.0315
 4322SOL    HW124602   0.380   2.629   3.030  0.9575  0.3225  0.2438
 4322SOL    HW224603   0.363   2.510   2.949 -1.3772  0.4190  0.7357
 4323SOL     OW24604   0.339   2.909   3.933 -0.1365  0.7606  0.0880
 4323SOL    HW124605   0.355   2.980   3.872  0.5889  0.7781  0.3071
 4323SOL    HW224606   0.339   2.951   4.019  0.0580  3.2079 -1.1236
 4324SOL     OW24607   2.953   2.403   5.224 -0.0947  0.0371  0.1222
 4324SOL    HW124608   2.865   2.430   5.197 -1.0634 -2.3087  0.9031
 4324SOL    HW224609   2.979   2.349   5.149  1.9774  1.6181 -0.2859
 4325SOL     OW24610   2.632   1.308   4.923  0.0008 -0.0214 -0.1378
 4325SOL    HW124611   2.574   1.367   4.971 -0.3729 -1.3817  1.0603
 4325SOL    HW224612   2.708   1.306   4.980  0.2511 -2.0367 -0.5610
 4326SOL     OW24613   1.036   0.662  17.256  0.3450  0.3928  0.3377
 4326SOL    HW124614   0.960   0.622  17.214  0.6125 -1.8723  2.0411
 4326SOL    HW224615   1.004   0.648  17.345  0.0345 -1.1351 -0.0175
 4327SOL     OW24616   0.853   0.552   2.537  0.4575 -0.1456  0.6547
 4327SOL    HW124617   0.834   0.550   2.631 -3.0250 -0.3438 -0.0419
 4327SOL    HW224618   0.947   0.539   2.543  0.3250 -0.4751  1.9773
 4328SOL     OW24619   1.703   2.283   1.484 -0.5965 -0.1820  0.2002
 4328SOL    HW124620   1.755   2.332   1.548  2.6375 -2.8663 -0.3825
 4328SOL    HW224621   1.641   2.347   1.448 -0.2624 -0.2698 -0.5216
 4329SOL     OW24622   2.228   1.648  17.076  0.1537 -0.0738  0.5035
 4329SOL    HW124623   2.184   1.592  17.012  1.1254  0.6361 -0.7686
 4329SOL    HW224624   2.289   1.583  17.109  0.4101 -0.3904 -0.5995
 4330SOL     OW24625   1.317   1.116  16.818  0.1265 -0.1379  0.5597
 4330SOL    HW124626   1.361   1.200  16.827  1.4027 -0.9889  2.2288
 4330SOL    HW224627   1.257   1.127  16.892 -1.3194 -0.7178 -0.5177
 4331SOL     OW24628   3.842   3.151   1.861 -0.3161 -0.1581  0.0855
 4331SOL    HW124629   3.886   3.190   1.937  0.8123  2.3099 -1.8441
 4331SOL    HW224630   3.853   3.218   1.795  1.6484  0.9828  1.5448
 4332SOL     OW24631   0.692   0.080   2.555 -0.0871 -0.1218 -0.0342
 4332SOL    HW124632   0.720   0.131   2.632  1.2949  0.2419 -0.7758
 4332SOL    HW224633   0.635   0.020   2.603  0.1873  0.4432  1.0035
 4333SOL     OW24634   0.646   0.001   8.595 -0.7249  0.1034 -0.8864
 4333SOL    HW124635   0.621   4.729   8.687  1.0041 -3.2224 -0.6906
 4333SOL    HW224636   0.738   4.711   8.601 -1.1437 -1.4561 -1.2516
 4334SOL     OW24637   1.660   4.116  17.541 -0.3526  0.0745 -0.1849
 4334SOL    HW124638   1.674   4.061  17.619  0.0318  1.4844  0.7351
 4334SOL    HW224639   1.693   4.199  17.576 -1.3394  0.0400  0.8190
 4335SOL     OW24640   3.656   4.500  13.326 -0.2517  0.1557 -0.2329
 4335SOL    HW124641   3.581   4.551  13.297 -1.4460 -1.5806 -0.2246
 4335SOL    HW224642   3.690   4.471  13.241  0.0630 -0.4684  0.1025
 4336SOL     OW24643   1.144   1.454  10.758 -0.5005 -0.1621 -0.2770
 4336SOL    HW124644   1.092   1.423  10.684 -2.1761 -1.5509  1.5011
 4336SOL    HW224645   1.074   1.497  10.808 -0.6395 -0.7250  0.0091
 4337SOL     OW24646   3.440   2.296  13.858  0.0479  0.1322 -0.3086
 4337SOL    HW124647   3.373   2.362  13.838 -0.5110 -0.8135 -1.5534
 4337SOL    HW224648   3.508   2.323  13.797  3.9799  1.5088  4.7269
 4338SOL     OW24649   2.498   4.583  11.034 -0.4201  0.4324  0.0291
 4338SOL    HW124650   2.566   4.545  10.978 -0.3614 -0.8176  0.9641
 4338SOL    HW224651   2.541   4.652  11.085 -0.7802  0.7082 -0.0380
 4339SOL     OW24652   2.823   3.978  17.423 -0.3451 -0.1793 -0.1585
 4339SOL    HW124653   2.810   4.060  17.376  1.7434  0.2138 -0.0547
 4339SOL    HW224654   2.878   4.017  17.491 -0.7255  1.6162 -0.8980
 4340SOL     OW24655   3.005   0.006  16.143 -0.1754 -0.1663 -0.1502
 4340SOL    HW124656   2.983   0.038  16.055  0.3098 -1.5250 -0.7586
 4340SOL    HW224657   3.054   0.084  16.170  1.0839 -0.7235 -0.7926
 4341SOL     OW24658   1.233   0.165   8.033  0.6404 -0.4859  0.3892
 4341SOL    HW124659   1.243   0.223   8.109 -0.7095  3.6492 -2.5697
 4341SOL    HW224660   1.145   0.196   8.009  1.7693  0.9374 -1.8866
 4342SOL     OW24661   0.560   0.171   2.335 -0.8606  0.6659  0.2008
 4342SOL    HW124662   0.605   0.255   2.340 -1.3726  0.8467  1.8236
 4342SOL    HW224663   0.597   0.135   2.416  2.6008  1.9570 -0.8282
 4343SOL     OW24664   3.050   2.062   3.195  0.1996 -0.1263 -0.1958
 4343SOL    HW124665   2.955   2.051   3.193  0.4028 -2.2509  0.9513
 4343SOL    HW224666   3.057   2.119   3.272  2.9203 -0.1674 -0.4347
 4344SOL     OW24667   1.999   0.294   9.014 -0.4556 -0.4176 -0.3988
 4344SOL    HW124668   1.931   0.235   8.982 -0.6874 -0.7331  0.6891
 4344SOL    HW224669   2.067   0.244   8.968  0.5082  0.2364  0.3055
 4345SOL     OW24670   1.722   4.160   0.213 -0.0184 -0.2771  0.3100
 4345SOL    HW124671   1.793   4.097   0.219  0.9981  0.6367 -1.8261
 4345SOL    HW224672   1.668   4.107   0.153 -0.2129  1.2995 -0.9228
 4346SOL     OW24673   1.118   3.574   6.419  0.1467  0.0211 -0.1453
 4346SOL    HW124674   1.027   3.594   6.397 -0.4708 -2.2315  0.3839
 4346SOL    HW224675   1.142   3.656   6.464  1.5782 -1.4425  1.7487
 4347SOL     OW24676   1.544   2.012   4.766 -0.8013 -0.5188 -0.2616
 4347SOL    HW124677   1.520   2.099   4.736 -0.5842 -0.5439 -0.5129
 4347SOL    HW224678   1.638   2.025   4.780 -1.0090 -0.9325  1.5847
 4348SOL     OW24679   0.444   2.943   6.959 -0.0222 -0.5316  0.5863
 4348SOL    HW124680   0.533   2.973   6.978  0.4030 -1.0317 -0.5667
 4348SOL    HW224681   0.424   2.892   7.037 -0.8541 -2.5218 -0.9106
 4349SOL     OW24682   0.871   0.129   1.286  0.2394 -0.0278  0.4028
 4349SOL    HW124683   0.793   0.073   1.285  0.6321 -0.5914  2.5576
 4349SOL    HW224684   0.924   0.099   1.360 -0.8404 -1.1916  0.7114
 4350SOL     OW24685   2.534   3.507  11.645  0.2781 -0.0763 -0.1198
 4350SOL    HW124686   2.457   3.458  11.619 -1.2327  2.8592 -1.1654
 4350SOL    HW224687   2.523   3.574  11.577 -1.6796  0.4119  0.6712
 4351SOL     OW24688   3.900   2.331   6.024  0.1055 -0.5027  0.4407
 4351SOL    HW124689   3.919   2.278   5.946  0.8018  1.1620 -0.5128
 4351SOL    HW224690   3.837   2.396   5.992 -0.1979 -0.4268  1.1858
 4352SOL     OW24691   2.671   2.614   1.781 -0.7083  0.0819 -0.3928
 4352SOL    HW124692   2.680   2.652   1.694 -2.4945 -1.4156 -1.2305
 4352SOL    HW224693   2.736   2.543   1.772  0.0883  0.4870  2.0881
 4353SOL     OW24694   4.510   0.286   9.621  0.3496  0.1155  0.3311
 4353SOL    HW124695   4.571   0.299   9.549 -1.7275  1.9443 -1.1038
 4353SOL    HW224696   4.418   0.291   9.594 -0.1160  0.2137  1.9591
 4354SOL     OW24697   4.180   3.500   8.384 -0.1876 -0.0472 -0.3740
 4354SOL    HW124698   4.118   3.428   8.397 -0.3310  0.6941  3.0557
 4354SOL    HW224699   4.118   3.572   8.376 -0.2023 -0.4006 -3.3072
 4355SOL     OW24700   3.802   4.423  11.260 -0.0079 -0.2444 -0.2875
 4355SOL    HW124701   3.711   4.395  11.272  0.2821 -1.0327  0.0872
 4355SOL    HW224702   3.832   4.347  11.209 -0.4340  0.4660 -1.5904
 4356SOL     OW24703   1.518   1.830   4.437 -0.3223 -0.7431 -0.2682
 4356SOL    HW124704   1.472   1.751   4.411  0.5830 -2.9595  4.7165
 4356SOL    HW224705   1.558   1.851   4.353 -1.5997 -1.9875 -1.1714
 4357SOL     OW24706   0.789   0.778   2.934  0.1708 -0.1620  0.3310
 4357SOL    HW124707   0.874   0.810   2.964 -0.3589  2.2476 -0.6787
 4357SOL    HW224708   0.731   0.810   3.003 -0.3819  2.0553 -1.1592
 4358SOL     OW24709   2.731   4.183  14.470  0.0900 -0.1057 -0.3181
 4358SOL    HW124710   2.730   4.087  14.465 -0.9978 -0.0606 -0.9565
 4358SOL    HW224711   2.773   4.204  14.553  0.5679 -0.7634 -0.3926
 4359SOL     OW24712   2.690   0.443   2.558 -0.2683 -0.1553 -0.3928
 4359SOL    HW124713   2.696   0.496   2.479 -0.1245 -0.0804 -0.3303
 4359SOL    HW224714   2.595   0.449   2.569 -0.4477 -0.3234 -1.8899
 4360SOL     OW24715   4.431   3.066   3.059 -0.1035  0.2699  0.4132
 4360SOL    HW124716   4.458   3.014   2.983 -1.2736 -1.4602  1.1650
 4360SOL    HW224717   4.337   3.047   3.071 -0.0057  0.7184  1.8829
 4361SOL     OW24718   1.537   3.166   1.629 -0.0830 -0.0449  0.4057
 4361SOL    HW124719   1.557   3.116   1.550 -1.5428  1.4421 -0.9150
 4361SOL    HW224720   1.451   3.129   1.649 -0.9250  1.4492 -0.4275
 4362SOL     OW24721   3.596   2.343   7.615 -0.4856  0.0232  0.1583
 4362SOL    HW124722   3.594   2.248   7.603 -0.2991  0.1496 -0.9178
 4362SOL    HW224723   3.593   2.378   7.526 -0.0952 -0.8551 -0.1923
 4363SOL     OW24724   3.570   0.713   2.291 -0.2393 -0.1003  0.1786
 4363SOL    HW124725   3.656   0.754   2.298  0.9372 -2.2711 -1.8130
 4363SOL    HW224726   3.517   0.771   2.346 -2.2367 -0.8596 -0.9351
 4364SOL     OW24727   0.662   2.113   7.333  0.0681  0.1352  0.2626
 4364SOL    HW124728   0.609   2.084   7.407  1.2900  1.3503  1.6208
 4364SOL    HW224729   0.704   2.183   7.383 -0.0084  0.2844  0.1192
 4365SOL     OW24730   3.532   3.522   5.305 -0.0494  0.4402 -0.3151
 4365SOL    HW124731   3.569   3.472   5.378 -1.9346  0.5236  0.6960
 4365SOL    HW224732   3.451   3.474   5.291  1.1651 -1.4863 -0.7733
 4366SOL     OW24733   4.020   3.897   3.646 -0.1810  0.2614 -0.8295
 4366SOL    HW124734   4.067   3.879   3.565  0.0174  0.0388 -0.6675
 4366SOL    HW224735   3.932   3.922   3.617 -0.8194  1.6302  2.3499
 4367SOL     OW24736   4.508   2.244   3.381  0.1044  0.2391  0.2649
 4367SOL    HW124737   4.586   2.197   3.353 -0.7214  0.5349 -2.5599
 4367SOL    HW224738   4.508   2.323   3.327 -0.3179  0.1781  0.1740
 4368SOL     OW24739   3.618   1.107   2.745  0.3416 -0.2296 -0.8008
 4368SOL    HW124740   3.680   1.115   2.818 -0.3828 -0.5791 -0.1413
 4368SOL    HW224741   3.583   1.019   2.758  1.0202 -0.5675 -1.2700
 4369SOL     OW24742   1.873   1.329   5.169  0.9225  0.1371  0.0374
 4369SOL    HW124743   1.778   1.328   5.179  0.9450 -0.6553  0.1797
 4369SOL    HW224744   1.902   1.273   5.241  1.2753  0.1724 -0.0806
 4370SOL     OW24745   0.012   4.682   2.883 -0.9460  0.1674 -0.0846
 4370SOL    HW124746   4.654   4.692   2.896 -0.6068 -0.5134  2.8965
 4370SOL    HW224747   0.027   0.009   2.813  1.2889  0.2674  0.4591
 4371SOL     OW24748   3.863   1.708   5.302  0.4111  0.1485 -0.3424
 4371SOL    HW124749   3.929   1.720   5.233 -0.8454 -0.1372 -1.5827
 4371SOL    HW224750   3.897   1.624   5.333 -1.4436  0.7876  3.3640
 4372SOL     OW24751   4.254   3.112   8.617  0.1491  0.4139  0.4485
 4372SOL    HW124752   4.174   3.071   8.582  0.4625 -1.6739  2.1741
 4372SOL    HW224753   4.308   3.142   8.544  1.1542 -0.9279  0.6232
 4373SOL     OW24754   4.142   3.793   1.912 -0.2130  0.6639  0.1562
 4373SOL    HW124755   4.104   3.868   1.867  1.5264  1.4522  0.0440
 4373SOL    HW224756   4.065   3.757   1.957  0.8457 -0.6136  0.9379
 4374SOL     OW24757   1.719   2.602  13.471  0.3161 -0.1389  0.1590
 4374SOL    HW124758   1.737   2.518  13.513 -5.1365  0.2608  3.3703
 4374SOL    HW224759   1.806   2.641  13.482  0.6943 -1.6150  2.3205
 4375SOL     OW24760   0.102   3.532   9.084  0.3345 -0.0768 -0.1026
 4375SOL    HW124761   0.154   3.530   9.164 -1.1433 -2.2865  0.8015
 4375SOL    HW224762   0.091   3.627   9.078 -2.4470 -0.4701 -1.3606
 4376SOL     OW24763   1.078   0.610   7.863 -0.0220  0.1749  0.0310
 4376SOL    HW124764   1.084   0.586   7.955  3.1377  0.1098 -0.1993
 4376SOL    HW224765   1.010   0.545   7.841 -0.9724  1.5346 -1.0394
 4377SOL     OW24766   3.474   1.338  17.370  0.3699  0.0524 -0.1782
 4377SOL    HW124767   3.535   1.317  17.300  0.7605  1.7907 -0.3713
 4377SOL    HW224768   3.532   1.362  17.443 -1.4630  0.7535  1.0734
 4378SOL     OW24769   3.506   3.169  15.257  0.6104  0.1162 -0.3845
 4378SOL    HW124770   3.499   3.116  15.335  0.4086  1.4665  0.5202
 4378SOL    HW224771   3.596   3.149  15.231  0.5734 -0.2512 -0.2171
 4379SOL     OW24772   4.179   2.592  13.933  0.5967 -0.3335 -0.1540
 4379SOL    HW124773   4.204   2.602  13.841  2.7493 -2.1851  0.2102
 4379SOL    HW224774   4.093   2.551  13.922  0.2925  1.1976 -3.4933
 4380SOL     OW24775   3.091   1.008   6.478  0.4412  0.0404 -0.8861
 4380SOL    HW124776   3.175   0.971   6.504  0.5757 -0.4696 -2.0701
 4380SOL    HW224777   3.081   1.074   6.547 -0.6072  0.4020 -1.3754
 4381SOL     OW24778   2.179   1.260   8.125  0.5073  0.6107 -0.6771
 4381SOL    HW124779   2.219   1.332   8.174  0.5427  0.3866 -0.3738
 4381SOL    HW224780   2.097   1.296   8.093  0.3945  0.7470 -0.2410
 4382SOL     OW24781   1.274   0.928   8.538 -0.2860  0.1074 -0.4255
 4382SOL    HW124782   1.313   1.011   8.511 -0.0732 -0.4048 -1.7023
 4382SOL    HW224783   1.357   0.882   8.544 -0.7559 -0.6807  0.0216
 4383SOL     OW24784   4.218   0.860   4.233  0.5887  0.3149 -0.2582
 4383SOL    HW124785   4.185   0.805   4.161  2.4954 -1.3550  0.1526
 4383SOL    HW224786   4.201   0.798   4.305  1.4275 -1.6748 -1.7612
 4384SOL     OW24787   4.143   4.061   7.618 -0.3292 -0.1678 -0.0205
 4384SOL    HW124788   4.210   3.995   7.600  2.8645  2.7742  1.1080
 4384SOL    HW224789   4.065   4.022   7.579  0.1819 -0.2230 -0.9839
 4385SOL     OW24790   2.336   1.991   7.680  0.7449  0.3123  0.1456
 4385SOL    HW124791   2.269   2.041   7.633  0.7009 -2.0375 -2.2876
 4385SOL    HW224792   2.308   2.026   7.764 -2.2177  3.2794 -2.0468
 4386SOL     OW24793   1.569   3.729   4.822  0.3725  0.8324  0.2859
 4386SOL    HW124794   1.534   3.719   4.733  0.4784 -0.7151  0.4221
 4386SOL    HW224795   1.643   3.669   4.828  0.4634  0.7448 -1.5988
 4387SOL     OW24796   0.964   3.667  13.609 -0.1980  0.0797 -0.1689
 4387SOL    HW124797   1.020   3.716  13.549  0.1544  0.0890  0.1675
 4387SOL    HW224798   0.979   3.579  13.576 -2.2637 -0.6988  0.9212
 4388SOL     OW24799   0.169   1.244   5.864 -0.1904  0.2601 -0.6459
 4388SOL    HW124800   0.137   1.226   5.952  2.8460 -0.1569  0.3766
 4388SOL    HW224801   0.151   1.160   5.821  0.0571 -0.5203  0.8020
 4389SOL     OW24802   2.341   1.706  14.790  0.2717  0.5439  0.4835
 4389SOL    HW124803   2.424   1.665  14.767 -0.7864 -2.7448  2.5275
 4389SOL    HW224804   2.289   1.628  14.811  1.6452 -1.3101 -2.9734
 4390SOL     OW24805   4.222   0.293   9.607  0.5191 -0.2427  0.2384
 4390SOL    HW124806   4.210   0.245   9.525 -0.6861 -1.0845  0.9100
 4390SOL    HW224807   4.179   0.229   9.664  0.0474 -1.2901 -1.2955
 4391SOL     OW24808   0.255   0.882   1.397 -0.5482  0.4353  0.0578
 4391SOL    HW124809   0.207   0.952   1.353  0.8450  1.3802  0.0578
 4391SOL    HW224810   0.191   0.819   1.362 -1.7622  1.9018 -0.3646
 4392SOL     OW24811   0.395   3.383   9.834  0.2380 -0.7710 -0.1687
 4392SOL    HW124812   0.429   3.471   9.817  0.2773 -0.8829 -0.6795
 4392SOL    HW224813   0.324   3.377   9.770 -1.0408  2.0091  0.9617
 4393SOL     OW24814   0.921   4.140   4.634 -0.1682  0.0596  0.0887
 4393SOL    HW124815   0.994   4.186   4.674 -0.2515  2.1403 -2.1412
 4393SOL    HW224816   0.875   4.211   4.589  1.1253 -0.1998 -1.6348
 4394SOL     OW24817   4.147   1.205   7.578 -0.1306  0.3195  0.1367
 4394SOL    HW124818   4.070   1.230   7.630  0.2720  1.3408  0.2584
 4394SOL    HW224819   4.223   1.243   7.624 -0.1981  0.0619  0.4610
 4395SOL     OW24820   2.043   4.266   2.109 -0.1419 -0.0342  0.1125
 4395SOL    HW124821   2.035   4.359   2.128 -2.0792 -0.3756  0.9679
 4395SOL    HW224822   1.966   4.223   2.147 -0.8861  2.0506  0.9663
 4396SOL     OW24823   4.404   1.742   2.979  0.0488 -0.1899  0.7674
 4396SOL    HW124824   4.355   1.806   2.927  1.5773 -0.5548 -1.1194
 4396SOL    HW224825   4.471   1.802   3.011  2.5903 -2.3171 -0.6361
 4397SOL     OW24826   4.104   4.703  17.193 -0.1446  0.5974 -0.4001
 4397SOL    HW124827   4.167   0.038  17.206  0.5030 -0.0709  0.0952
 4397SOL    HW224828   4.138   4.663  17.113 -1.9426  1.2554 -1.5002
 4398SOL     OW24829   2.672   3.527   8.495  0.1390  0.0541 -0.2104
 4398SOL    HW124830   2.619   3.453   8.525  0.5501  0.2585  1.0487
 4398SOL    HW224831   2.602   3.579   8.458 -0.8404 -0.3283  1.0966
 4399SOL     OW24832   2.182   0.990   9.447  0.1644 -0.5996  0.1552
 4399SOL    HW124833   2.220   0.955   9.527  0.9613  0.7943  0.3879
 4399SOL    HW224834   2.093   0.989   9.481 -0.0850  2.0483 -0.4541
 4400SOL     OW24835   2.401   0.515   8.576  0.0489  0.2644 -0.2758
 4400SOL    HW124836   2.402   0.463   8.657  0.4981  0.1326 -0.3675
 4400SOL    HW224837   2.472   0.575   8.597  0.5923 -0.4316 -0.1135
 4401SOL     OW24838   0.884   1.642   1.823 -0.4652  0.1117  0.1210
 4401SOL    HW124839   0.895   1.685   1.908 -2.5093 -1.1702  1.0151
 4401SOL    HW224840   0.913   1.551   1.834  0.6320  0.3510 -0.7221
 4402SOL     OW24841   4.723   2.681  16.107 -0.5005  0.0581 -0.1143
 4402SOL    HW124842   0.038   2.656  16.184 -2.1630  0.8347  1.2570
 4402SOL    HW224843   4.675   2.755  16.144  2.2406  3.5994 -3.7801
 4403SOL     OW24844   2.277   3.818   9.977  0.1979  0.0067  0.1111
 4403SOL    HW124845   2.189   3.786   9.997  0.2544  0.2217  0.6962
 4403SOL    HW224846   2.311   3.841  10.063  0.1536  2.1207 -0.4251
 4404SOL     OW24847   2.435   0.031  12.606 -0.0343  0.1164  0.4326
 4404SOL    HW124848   2.344   0.002  12.614 -0.0523  0.2597  0.7302
 4404SOL    HW224849   2.486   4.693  12.574  0.9887  1.2031 -0.4833
 4405SOL     OW24850   1.471   2.453   4.837 -0.0440  0.1230  0.3729
 4405SOL    HW124851   1.555   2.429   4.875 -0.8338 -1.5729  1.0161
 4405SOL    HW224852   1.491   2.520   4.771 -1.5788  0.2713  0.0507
 4406SOL     OW24853   4.327   0.498  13.487  0.2655 -0.9679  0.1932
 4406SOL    HW124854   4.278   0.569  13.444  2.7321  0.0377 -0.9583
 4406SOL    HW224855   4.420   0.514  13.470 -0.5866  2.2106 -1.5503
 4407SOL     OW24856   0.277   3.567   9.322 -0.7815  0.3923 -0.2498
 4407SOL    HW124857   0.259   3.492   9.379  1.4879 -0.0910 -0.1836
 4407SOL    HW224858   0.260   3.647   9.372 -0.1570  0.3667  0.0007
 4408SOL     OW24859   2.548   2.402   7.859  0.5019  0.5190  0.1155
 4408SOL    HW124860   2.488   2.371   7.928 -0.4153  1.2794 -0.3409
 4408SOL    HW224861   2.503   2.481   7.830  0.7965  0.0437 -1.6413
 4409SOL     OW24862   0.918   2.864  11.958 -0.3287  0.6081  0.5736
 4409SOL    HW124863   0.859   2.845  11.885  1.5454  1.9691 -1.2936
 4409SOL    HW224864   0.992   2.893  11.905 -0.5353 -1.2672 -0.7145
 4410SOL     OW24865   3.133   0.492   8.858  0.5152 -0.2200  0.0507
 4410SOL    HW124866   3.082   0.455   8.930  1.9852 -1.1051  0.6470
 4410SOL    HW224867   3.075   0.490   8.782  0.2008  0.3023  0.2748
 4411SOL     OW24868   3.778   1.615  16.718  0.1741 -0.0802 -0.5355
 4411SOL    HW124869   3.867   1.648  16.717  0.7241 -1.5237  0.6140
 4411SOL    HW224870   3.779   1.565  16.800  1.6544  0.3610 -0.2981
 4412SOL     OW24871   4.358   4.288  12.323  0.0618 -0.1354 -0.1579
 4412SOL    HW124872   4.417   4.230  12.372  0.5367  0.1444 -0.4000
 4412SOL    HW224873   4.324   4.330  12.402  1.2571 -2.3600  1.5336
 4413SOL     OW24874   4.598   0.439   8.089  0.0266 -0.5912  0.1585
 4413SOL    HW124875   4.575   0.472   8.002 -1.3080  2.2154  1.5504
 4413SOL    HW224876   4.542   0.497   8.142  0.0180  1.2822 -1.9149
 4414SOL     OW24877   4.090   3.151   0.580  0.0099  0.6406 -0.2851
 4414SOL    HW124878   4.061   3.075   0.631  0.8156  1.7844  1.8620
 4414SOL    HW224879   4.185   3.150   0.591 -0.0719  0.8643  0.4210
 4415SOL     OW24880   1.136   2.271  10.835 -0.3531  0.1479 -0.4468
 4415SOL    HW124881   1.206   2.294  10.774 -0.4798 -1.3440 -1.1425
 4415SOL    HW224882   1.103   2.358  10.859 -2.7591 -0.5641 -1.1159
 4416SOL     OW24883   4.156   3.983   6.489 -0.1553  0.3319  0.1566
 4416SOL    HW124884   4.224   3.943   6.545 -0.5056  0.2241  0.5045
 4416SOL    HW224885   4.138   3.920   6.420 -3.0746  2.8298 -1.3550
 4417SOL     OW24886   3.595   2.195   3.808 -0.3838  0.3375  0.1976
 4417SOL    HW124887   3.596   2.102   3.785 -1.2746 -0.2898  2.6397
 4417SOL    HW224888   3.650   2.198   3.887 -0.6191  1.6075  0.3118
 4418SOL     OW24889   2.806   1.766  15.402 -0.1643  0.0360 -0.3480
 4418SOL    HW124890   2.896   1.793  15.418  1.1185 -3.1137 -2.2578
 4418SOL    HW224891   2.781   1.705  15.471  1.0564 -0.5649 -0.4294
 4419SOL     OW24892   4.462   3.252   1.150 -0.1522  0.3040 -0.2013
 4419SOL    HW124893   4.406   3.323   1.119 -1.4123 -1.3971 -1.8308
 4419SOL    HW224894   4.434   3.188   1.084  0.2763  1.1082 -1.1766
 4420SOL     OW24895   2.581   1.754   2.259  0.2277  0.2136 -0.2585
 4420SOL    HW124896   2.549   1.761   2.348  1.6972 -0.6568  0.3296
 4420SOL    HW224897   2.617   1.842   2.249  0.9102 -0.2451 -1.8972
 4421SOL     OW24898   3.573   1.487   5.208  0.0093  0.8540  0.0876
 4421SOL    HW124899   3.477   1.489   5.199 -0.0367  1.5287  0.6771
 4421SOL    HW224900   3.576   1.494   5.303 -1.9186  1.5185  0.1080
 4422SOL     OW24901   1.873   1.800   2.547  0.4882  0.3265  0.0544
 4422SOL    HW124902   1.916   1.878   2.581 -0.0438  0.3982  0.5722
 4422SOL    HW224903   1.801   1.792   2.609  0.3503 -2.7233 -0.5124
 4423SOL     OW24904   2.131   3.357   0.767  0.4801  0.2623  0.2211
 4423SOL    HW124905   2.082   3.275   0.764  1.1437 -0.1494  0.6744
 4423SOL    HW224906   2.210   3.337   0.817 -1.0405  2.0187  3.3639
 4424SOL     OW24907   0.215   2.294   2.973  0.6486  0.4480 -0.3524
 4424SOL    HW124908   0.270   2.225   3.010  1.7621  1.2771 -0.4797
 4424SOL    HW224909   0.269   2.315   2.897  1.2810  1.7074  0.4493
 4425SOL     OW24910   3.161   0.101   6.786 -0.1065 -0.6857 -0.3846
 4425SOL    HW124911   3.186   0.194   6.783  0.5821 -0.8522  0.2224
 4425SOL    HW224912   3.231   0.063   6.732 -0.0188 -0.0863 -0.6960
 4426SOL     OW24913   0.257   2.933  15.134  0.0097 -0.3788 -0.3106
 4426SOL    HW124914   0.317   3.006  15.116  2.1187 -1.7943  0.8639
 4426SOL    HW224915   0.321   2.869  15.102 -0.7103 -0.6305 -1.2267
 4427SOL     OW24916   0.124   4.361   4.516  0.8353 -0.4045 -0.3377
 4427SOL    HW124917   0.084   4.344   4.431 -1.5905 -3.0384  1.3335
 4427SOL    HW224918   0.081   4.445   4.532 -1.0144 -1.8484  2.1498
 4428SOL     OW24919   0.371   1.525  14.867  0.1999  0.2810  0.1244
 4428SOL    HW124920   0.447   1.488  14.822 -0.4677 -0.6069 -0.2637
 4428SOL    HW224921   0.302   1.466  14.837 -0.4316  1.6737 -1.1586
 4429SOL     OW24922   2.824   3.331   9.092 -0.5202  0.1051  0.1668
 4429SOL    HW124923   2.896   3.272   9.115 -0.3643  0.3625  0.3410
 4429SOL    HW224924   2.859   3.411   9.053 -0.7179 -0.2649 -0.7727
 4430SOL     OW24925   1.070   4.198  10.297 -0.3803  0.5349 -0.1147
 4430SOL    HW124926   1.046   4.219  10.206 -1.6315  0.6831  0.2477
 4430SOL    HW224927   1.136   4.128  10.289 -0.8216  0.0158  0.8471
 4431SOL     OW24928   3.815   0.581   3.905  0.2031  0.1164 -0.2081
 4431SOL    HW124929   3.734   0.570   3.857  2.0412 -3.4107 -2.4979
 4431SOL    HW224930   3.849   0.492   3.893  0.1946 -0.1538  1.7550
 4432SOL     OW24931   0.550   1.817  14.838 -0.3163 -0.5104  0.1985
 4432SOL    HW124932   0.640   1.843  14.822 -0.4724 -0.9514 -1.3920
 4432SOL    HW224933   0.563   1.764  14.917 -1.1220 -1.0937 -0.0563
 4433SOL     OW24934   2.393   1.276   8.487  0.4960  0.0168 -0.1414
 4433SOL    HW124935   2.448   1.236   8.420  1.4344  0.0376  0.6217
 4433SOL    HW224936   2.341   1.329   8.426  1.8007  0.4545 -0.8877
 4434SOL     OW24937   1.615   1.346   2.963 -0.1693  0.0667  0.0625
 4434SOL    HW124938   1.700   1.304   2.949  0.1637  0.8090 -0.1466
 4434SOL    HW224939   1.604   1.397   2.883  0.6187 -1.3470 -0.9257
 4435SOL     OW24940   3.741   2.517   6.377  0.2902 -0.5015 -0.6706
 4435SOL    HW124941   3.706   2.491   6.291  1.1020 -1.4358 -0.7174
 4435SOL    HW224942   3.784   2.600   6.356  2.6063 -1.3049  0.8800
 4436SOL     OW24943   3.923   2.684   3.258  0.4397 -0.2102  0.2440
 4436SOL    HW124944   4.007   2.729   3.257  0.8686 -0.9928  0.6333
 4436SOL    HW224945   3.920   2.647   3.170 -3.2792  0.7583 -0.0365
 4437SOL     OW24946   1.812   2.840   4.408  0.8754  0.5868  0.5594
 4437SOL    HW124947   1.748   2.771   4.389  1.3850  0.0822  0.6756
 4437SOL    HW224948   1.803   2.858   4.501 -1.1788  0.9837  0.2928
 4438SOL     OW24949   0.464   1.407   2.113  0.3658  0.3841 -0.0377
 4438SOL    HW124950   0.394   1.473   2.117  1.9262  2.1499 -1.7607
 4438SOL    HW224951   0.489   1.404   2.205  0.2615  1.7920  0.0319
 4439SOL     OW24952   0.092   3.190   3.379 -0.7117  0.2095  0.4718
 4439SOL    HW124953   0.079   3.096   3.374  1.0539 -0.0974  1.7406
 4439SOL    HW224954   0.010   3.218   3.420 -0.4883 -0.5335  1.3979
 4440SOL     OW24955   0.818   3.197   8.574  0.1560 -0.3974  0.3493
 4440SOL    HW124956   0.864   3.118   8.544  0.4620  0.4254 -1.3502
 4440SOL    HW224957   0.892   3.232   8.622 -1.6796  1.2054  2.0270
 4441SOL     OW24958   4.260   3.854   6.963 -1.1902 -0.1355 -0.2791
 4441SOL    HW124959   4.319   3.783   6.988 -0.8147  0.6774  1.1172
 4441SOL    HW224960   4.260   3.858   6.868 -3.0753  2.6060 -0.1406
 4442SOL     OW24961   2.377   2.533   2.037 -0.2990  0.0455  0.1338
 4442SOL    HW124962   2.451   2.487   2.075  0.8052 -1.0852 -3.3424
 4442SOL    HW224963   2.414   2.621   2.034 -0.0984 -0.0613 -0.6444
 4443SOL     OW24964   0.678   2.449   5.177 -0.8107 -0.4084  0.0395
 4443SOL    HW124965   0.619   2.397   5.232 -0.2154  0.1312  1.1887
 4443SOL    HW224966   0.719   2.502   5.246 -1.0864 -0.5263  0.2948
 4444SOL     OW24967   2.887   1.335   8.456 -0.0461 -0.2422 -0.0270
 4444SOL    HW124968   2.847   1.279   8.390 -1.2895  0.4399  0.1440
 4444SOL    HW224969   2.978   1.309   8.442  0.0501  0.9509 -1.5628
 4445SOL     OW24970   2.265   3.374   7.023  0.0779  0.2185 -0.0122
 4445SOL    HW124971   2.347   3.354   6.976  1.4759  0.8891  2.1299
 4445SOL    HW224972   2.292   3.381   7.115 -1.5052  1.8134  0.3174
 4446SOL     OW24973   1.506   2.261   5.790  0.0089  0.4833 -0.2069
 4446SOL    HW124974   1.486   2.168   5.800 -2.5582  1.1993  1.2977
 4446SOL    HW224975   1.451   2.304   5.856 -0.1907 -2.0418  1.2588
 4447SOL     OW24976   2.729   1.971   2.570 -0.0440 -0.0890  0.1997
 4447SOL    HW124977   2.635   1.987   2.585  0.0344  2.0652 -1.6350
 4447SOL    HW224978   2.742   2.017   2.487 -1.9836 -2.5083 -1.4562
 4448SOL     OW24979   2.802   3.094   8.150  0.2701  0.6882 -0.2566
 4448SOL    HW124980   2.857   3.042   8.092  0.7867  2.6953 -1.5906
 4448SOL    HW224981   2.718   3.079   8.107  0.2677 -1.3597  0.4791
 4449SOL     OW24982   3.360   4.537   7.250  0.0455 -0.5603  0.1581
 4449SOL    HW124983   3.384   4.532   7.158 -2.6069  3.3920 -0.7743
 4449SOL    HW224984   3.269   4.510   7.266  0.1118 -0.3871  0.8513
 4450SOL     OW24985   2.013   2.041   1.677 -0.3412  0.1415 -0.3958
 4450SOL    HW124986   2.007   2.124   1.630 -1.8036  0.3508  0.1834
 4450SOL    HW224987   2.025   2.065   1.768  1.4126 -1.7276 -0.1328
 4451SOL     OW24988   3.427   0.713   6.810 -0.3221  0.2473 -0.0219
 4451SOL    HW124989   3.356   0.696   6.871  0.3222 -1.1893  0.3390
 4451SOL    HW224990   3.402   0.799   6.776  1.8219  0.4230 -1.1704
 4452SOL     OW24991   0.810   2.537  10.417  0.6077 -0.2607  0.0963
 4452SOL    HW124992   0.758   2.576  10.347 -1.2853 -1.4517  0.8394
 4452SOL    HW224993   0.749   2.467  10.438 -0.0389  0.4417  0.5580
 4453SOL     OW24994   4.007   4.196   4.355  0.3532 -0.0625  0.7753
 4453SOL    HW124995   3.958   4.257   4.410 -2.4926  0.1445 -1.9753
 4453SOL    HW224996   4.057   4.139   4.413 -0.7240 -1.6216  0.2107
 4454SOL     OW24997   1.266   4.501   8.181 -0.0168  0.1965  0.3513
 4454SOL    HW124998   1.320   4.435   8.137 -0.9647 -0.4855  0.2037
 4454SOL    HW224999   1.312   4.506   8.264 -0.6206 -2.9430  0.8709
 4455SOL     OW25000   3.711   0.936   2.261 -0.1297 -0.1119  0.0907
 4455SOL    HW125001   3.645   0.963   2.325  1.0616  0.1702  1.2012
 4455SOL    HW225002   3.787   0.991   2.283  0.7464 -0.8092 -1.1931
 4456SOL     OW25003   3.808   1.073   6.623 -0.3848  0.2079 -0.6192
 4456SOL    HW125004   3.896   1.091   6.656 -1.7228 -2.2543  4.3446
 4456SOL    HW225005   3.826   0.982   6.596  1.0837  0.1520  0.5731
 4457SOL     OW25006   0.136   3.449   0.363  0.0297  0.0764 -0.5173
 4457SOL    HW125007   0.062   3.504   0.389  0.4078 -0.5029  1.7919
 4457SOL    HW225008   0.179   3.501   0.295 -0.1570  0.9948  0.0733
 4458SOL     OW25009   2.390   3.204   8.356 -0.3513 -0.4226  0.1836
 4458SOL    HW125010   2.408   3.252   8.275  0.4417 -0.8951  0.0798
 4458SOL    HW225011   2.331   3.133   8.328 -2.6523  0.9234  1.5992
 4459SOL     OW25012   2.612   3.175   4.416  0.2320  0.2221 -0.1550
 4459SOL    HW125013   2.576   3.088   4.432  0.7455 -0.1144 -0.8204
 4459SOL    HW225014   2.656   3.196   4.498  0.3720 -0.9052  0.0564
 4460SOL     OW25015   1.851   1.847   1.708  0.1273  0.3626  0.5099
 4460SOL    HW125016   1.898   1.930   1.695  0.8086  0.0824  1.1928
 4460SOL    HW225017   1.766   1.882   1.681  0.0595 -0.0235  0.2146
 4461SOL     OW25018   2.024   2.023   2.681  0.0440  0.2613  0.0601
 4461SOL    HW125019   2.038   2.091   2.747 -0.5264 -1.6918  2.1789
 4461SOL    HW225020   2.063   2.050   2.598 -0.3535  0.4847 -0.0583
 4462SOL     OW25021   0.528   4.399   1.673  0.4890  0.3088 -0.1717
 4462SOL    HW125022   0.509   4.394   1.767  2.8119 -3.2308  0.1027
 4462SOL    HW225023   0.446   4.362   1.639 -0.8588  0.6827  2.6958
 4463SOL     OW25024   2.785   0.392   4.449  0.2208 -0.2540 -0.1357
 4463SOL    HW125025   2.838   0.472   4.446  1.1958 -0.8724  0.7499
 4463SOL    HW225026   2.791   0.376   4.543 -1.8608  0.1002  0.0647
 4464SOL     OW25027   4.278   3.738   5.086 -0.2742 -0.4191  0.0042
 4464SOL    HW125028   4.191   3.745   5.047 -1.5734 -2.6818  2.4946
 4464SOL    HW225029   4.327   3.690   5.019  2.0463  0.8864  0.8016
 4465SOL     OW25030   0.812   0.845   5.691 -0.0241  0.0350 -0.4346
 4465SOL    HW125031   0.755   0.780   5.732 -0.7467  1.6490  1.1119
 4465SOL    HW225032   0.846   0.883   5.772  1.6955  2.3914 -2.2568
 4466SOL     OW25033   4.292   4.280   4.315  0.2041  0.3043 -0.6810
 4466SOL    HW125034   4.282   4.304   4.407  2.2153  1.1477 -0.6811
 4466SOL    HW225035   4.200   4.260   4.294 -0.4660  0.6886  1.8510
 4467SOL     OW25036   3.538   2.647   5.447 -0.0822 -0.0148 -0.4596
 4467SOL    HW125037   3.514   2.734   5.414  1.2821  0.2731 -0.7204
 4467SOL    HW225038   3.627   2.665   5.478 -0.7440  0.1277  1.3065
 4468SOL     OW25039   1.963   2.699  17.357  0.0038  0.2527 -1.0309
 4468SOL    HW125040   2.042   2.749  17.379 -0.4421  1.4659 -2.1833
 4468SOL    HW225041   1.910   2.779  17.351 -0.9323 -0.4857 -2.4627
 4469SOL     OW25042   3.590   3.959   9.737  0.0698 -0.0834 -0.0944
 4469SOL    HW125043   3.567   3.907   9.659 -2.2742  2.3090 -0.9896
 4469SOL    HW225044   3.515   3.951   9.796 -1.4365  1.5256 -1.8063
 4470SOL     OW25045   3.311   4.301   9.652  0.6366  0.2142 -0.0254
 4470SOL    HW125046   3.266   4.218   9.667 -0.6457  0.6377 -1.4681
 4470SOL    HW225047   3.312   4.308   9.556 -1.7882 -1.4311 -0.1577
 4471SOL     OW25048   2.918   3.506   0.473 -0.3296  0.2570  0.0127
 4471SOL    HW125049   2.907   3.432   0.533 -0.1464 -0.1521 -0.4582
 4471SOL    HW225050   2.897   3.580   0.529  0.1807 -0.6966  1.4753
 4472SOL     OW25051   2.000   4.151   0.651  0.2339 -0.4294  0.7916
 4472SOL    HW125052   1.976   4.100   0.729  1.7548  0.0079  1.5342
 4472SOL    HW225053   1.931   4.116   0.594  1.3544 -4.8421  2.1422
 4473SOL     OW25054   2.030   0.044   4.237 -0.2818  0.1281  0.2740
 4473SOL    HW125055   2.007   0.099   4.312  0.0129 -1.8716  1.8326
 4473SOL    HW225056   1.991   0.104   4.173 -0.3959  0.4296  0.6277
 4474SOL     OW25057   2.827   4.248   7.346 -0.1568 -0.4511 -0.5113
 4474SOL    HW125058   2.894   4.241   7.279 -2.1680  0.6318 -2.6211
 4474SOL    HW225059   2.880   4.246   7.426 -2.2102 -0.2359  0.8619
 4475SOL     OW25060   4.561   2.520   4.731  0.2960 -0.5961  0.1877
 4475SOL    HW125061   4.569   2.440   4.679 -1.0966  0.4042 -1.5615
 4475SOL    HW225062   4.536   2.576   4.658 -0.4631  0.7433  1.4610
 4476SOL     OW25063   2.144   4.530   7.251  0.2055 -0.2868  0.2444
 4476SOL    HW125064   2.096   4.574   7.322 -1.0812 -0.8347 -0.2940
 4476SOL    HW225065   2.168   4.607   7.200  1.3042  0.6255  2.1212
 4477SOL     OW25066   3.024   4.551  16.336  0.2047  0.2196  0.1713
 4477SOL    HW125067   2.977   4.595  16.407 -1.0941 -0.5922 -0.1857
 4477SOL    HW225068   3.013   4.616  16.266 -1.6921 -0.0344  0.2314
 4478SOL     OW25069   4.376   2.133   2.632 -0.2749 -0.2245  0.3195
 4478SOL    HW125070   4.398   2.147   2.540  0.4016  0.5386  0.5942
 4478SOL    HW225071   4.412   2.218   2.659  1.2804 -1.2380  1.4589
 4479SOL     OW25072   1.615   0.008   6.083  0.3507 -0.1235  0.1259
 4479SOL    HW125073   1.674   0.027   6.010  0.8738  1.1927  0.8921
 4479SOL    HW225074   1.566   0.088   6.099 -2.6861 -1.6337 -1.5817
 4480SOL     OW25075   2.781   3.967   3.518 -0.0361  0.4677  0.1794
 4480SOL    HW125076   2.875   3.973   3.530  0.2540 -2.7483 -0.6725
 4480SOL    HW225077   2.765   3.874   3.532 -1.1056  0.4751 -0.9948
 4481SOL     OW25078   4.682   2.771   7.235 -0.2995  0.0268 -0.3133
 4481SOL    HW125079   4.647   2.728   7.157  0.7986 -1.6406  0.1043
 4481SOL    HW225080   4.619   2.743   7.302  0.6586  1.1092  1.0458
 4482SOL     OW25081   3.566   2.595   9.650 -0.0997  0.2756 -0.6103
 4482SOL    HW125082   3.602   2.657   9.587  1.6833  0.5466  0.6750
 4482SOL    HW225083   3.531   2.531   9.589  0.7424  0.9932 -1.8425
 4483SOL     OW25084   3.853   0.694  13.031 -0.2021  0.2235 -0.0738
 4483SOL    HW125085   3.806   0.649  13.101  1.4777  0.4019  1.1705
 4483SOL    HW225086   3.840   0.624  12.966 -0.3625  0.7372 -0.5986
 4484SOL     OW25087   4.439   0.203  15.680 -0.6555 -0.3170 -0.5926
 4484SOL    HW125088   4.372   0.251  15.729  1.1834  0.8057  0.8488
 4484SOL    HW225089   4.412   0.112  15.687 -0.9689 -0.3200 -1.8991
 4485SOL     OW25090   4.315   2.538   7.151  0.2720  0.4113  0.7390
 4485SOL    HW125091   4.389   2.532   7.091  0.4364  0.5961  0.9269
 4485SOL    HW225092   4.320   2.450   7.189  0.9864  0.2288  0.2261
 4486SOL     OW25093   4.144   0.795   7.790  0.1933 -0.2816 -0.1192
 4486SOL    HW125094   4.120   0.738   7.863 -1.0404  0.5211  0.1067
 4486SOL    HW225095   4.059   0.833   7.769  0.9948  1.9575  0.6369
 4487SOL     OW25096   2.328   3.740  16.961  0.1257 -0.4393  0.0662
 4487SOL    HW125097   2.234   3.733  16.943  0.3929  0.0773 -1.6101
 4487SOL    HW225098   2.332   3.703  17.049  3.0729  0.9860  0.5324
 4488SOL     OW25099   3.197   2.960  12.930  0.4394  0.1111  0.0876
 4488SOL    HW125100   3.154   2.955  13.015  1.2727  0.3933  0.5273
 4488SOL    HW225101   3.290   2.959  12.951  0.5141 -1.8137 -0.3032
 4489SOL     OW25102   1.790   1.835  12.581  0.1665  0.0474  0.3714
 4489SOL    HW125103   1.822   1.921  12.555  1.1281 -0.6979 -0.8624
 4489SOL    HW225104   1.852   1.776  12.539 -1.4034 -0.5676 -1.0880
 4490SOL     OW25105   2.667   1.062  12.422 -0.4215  0.0472 -0.5271
 4490SOL    HW125106   2.653   1.130  12.488  1.4371 -0.6730  0.5941
 4490SOL    HW225107   2.658   0.990  12.485  2.8730 -0.5402 -0.7478
 4491SOL     OW25108   2.584   0.134   4.332 -0.0980 -0.0041  0.4341
 4491SOL    HW125109   2.552   0.098   4.249 -2.0129  3.4950 -0.3395
 4491SOL    HW225110   2.513   0.198   4.340  0.6893  0.8329  0.7465
 4492SOL     OW25111   2.366   4.237   2.145 -0.2047 -0.2254 -0.9128
 4492SOL    HW125112   2.388   4.190   2.065  0.6752 -1.8097  0.2724
 4492SOL    HW225113   2.278   4.201   2.157  0.7417 -2.7736 -1.5882
 4493SOL     OW25114   1.668   0.215   3.960 -0.7801  0.2358 -0.9203
 4493SOL    HW125115   1.657   0.309   3.945 -1.5577 -0.2023 -3.0660
 4493SOL    HW225116   1.576   0.190   3.966 -0.6950  0.5974  1.8869
 4494SOL     OW25117   4.586   4.008   2.935 -0.1011  1.2206 -0.3188
 4494SOL    HW125118   4.676   3.989   2.959 -0.2967 -0.4780 -0.9294
 4494SOL    HW225119   4.586   3.968   2.848 -3.0393 -1.8366  1.0404
 4495SOL     OW25120   1.330   0.629   5.770  0.3976  0.3407 -0.1408
 4495SOL    HW125121   1.238   0.624   5.745 -0.3694 -1.3808  2.9782
 4495SOL    HW225122   1.355   0.537   5.756  2.2514  0.6326  1.2666
 4496SOL     OW25123   3.765   0.638   6.220  0.4205  0.3530 -0.2990
 4496SOL    HW125124   3.856   0.644   6.190  0.1070  0.2888 -1.2549
 4496SOL    HW225125   3.755   0.718   6.272  2.6204 -0.1419  0.8877
 4497SOL     OW25126   3.592   2.441   5.293 -0.3562  0.2095  0.5554
 4497SOL    HW125127   3.598   2.491   5.212 -1.7804  1.3181  1.1560
 4497SOL    HW225128   3.547   2.504   5.348 -0.4725  1.4996 -1.0272
 4498SOL     OW25129   2.546   0.352   3.030 -0.3294  0.2487  0.3350
 4498SOL    HW125130   2.615   0.321   3.089  1.0102 -0.7353 -1.7572
 4498SOL    HW225131   2.594   0.379   2.952  0.9344 -1.4260  0.5364
 4499SOL     OW25132   2.899   4.450   8.035  0.5826 -0.6355 -0.0981
 4499SOL    HW125133   2.974   4.422   8.088  0.9439  0.4790 -0.0134
 4499SOL    HW225134   2.852   4.366   8.033  1.7218 -1.3072  1.4385
 4500SOL     OW25135   0.105   0.938  12.427 -0.2234  0.2660  0.4433
 4500SOL    HW125136   0.146   0.933  12.513  2.2641 -0.1515 -0.7588
 4500SOL    HW225137   0.169   0.902  12.366 -1.0126  2.0494 -1.4323
 4501SOL     OW25138   2.409   1.070  11.230 -0.1869 -0.1453 -0.1074
 4501SOL    HW125139   2.454   1.135  11.176  1.2160 -1.6091 -0.7354
 4501SOL    HW225140   2.326   1.113  11.247  0.0238 -0.3214  1.3807
 4502SOL     OW25141   0.981   1.470   6.870 -0.2558  0.0422  0.0244
 4502SOL    HW125142   1.010   1.559   6.847 -0.8522 -0.1413 -1.4524
 4502SOL    HW225143   0.942   1.483   6.957  1.3732  0.1856  0.7221
 4503SOL     OW25144   2.121   4.143   2.814  0.3755 -0.1131 -0.5420
 4503SOL    HW125145   2.048   4.083   2.832 -0.9796  1.3133 -1.3042
 4503SOL    HW225146   2.195   4.091   2.847 -0.1415 -0.8681 -0.5716
 4504SOL     OW25147   0.644   4.567   6.738 -0.3398 -0.0937  0.3787
 4504SOL    HW125148   0.636   4.632   6.668  0.7942  0.1421  0.4617
 4504SOL    HW225149   0.739   4.572   6.750 -0.6715  0.0782  2.9750
 4505SOL     OW25150   0.532   3.546   5.818 -0.1009 -0.2826  0.1144
 4505SOL    HW125151   0.494   3.607   5.881  1.5533  1.0082 -0.1318
 4505SOL    HW225152   0.575   3.612   5.765  0.4359  0.6456  1.7089
 4506SOL     OW25153   3.830   2.247   8.855 -0.3466  0.1460 -0.6313
 4506SOL    HW125154   3.887   2.317   8.887  0.4922 -1.2943  1.0233
 4506SOL    HW225155   3.864   2.243   8.766  1.7374 -1.8019  0.2304
 4507SOL     OW25156   0.326   2.698   3.212  0.5498  0.1390  0.6107
 4507SOL    HW125157   0.294   2.686   3.302 -0.0181 -0.5066  0.3267
 4507SOL    HW225158   0.246   2.692   3.159 -0.2277 -0.7208  1.8870
 4508SOL     OW25159   0.930   3.947   7.780 -0.5290  1.1908  0.5626
 4508SOL    HW125160   1.002   3.997   7.818  0.3993 -2.2948  3.4004
 4508SOL    HW225161   0.939   3.945   7.685 -1.2020 -0.2486  0.5209
 4509SOL     OW25162   3.993   2.333  12.901  0.1697 -0.2598  0.1096
 4509SOL    HW125163   4.083   2.359  12.918 -0.1156 -0.2587  1.6185
 4509SOL    HW225164   3.974   2.296  12.987 -0.2547 -1.7870 -0.6373
 4510SOL     OW25165   3.087   0.928   9.308 -0.2590 -0.6556  0.6147
 4510SOL    HW125166   3.037   0.944   9.388 -3.3695 -2.0637 -1.0716
 4510SOL    HW225167   3.031   0.963   9.239  1.2075  1.6219  0.5682
 4511SOL     OW25168   4.560   0.876   4.645 -0.0088 -0.0873  0.0562
 4511SOL    HW125169   4.597   0.950   4.595  1.3305 -0.7053  0.1300
 4511SOL    HW225170   4.552   0.814   4.573  0.4997  0.4516 -0.4718
 4512SOL     OW25171   0.699   1.253   5.228  0.0951 -0.4027  0.0818
 4512SOL    HW125172   0.612   1.233   5.195  0.6860 -0.2033 -1.5987
 4512SOL    HW225173   0.710   1.187   5.296  1.2747 -0.0545  0.2284
 4513SOL     OW25174   3.151   2.465   9.026 -0.2523 -0.3101  0.2984
 4513SOL    HW125175   3.058   2.478   9.009 -0.0846 -2.3248 -2.0871
 4513SOL    HW225176   3.167   2.516   9.106 -0.1136 -0.5604  0.4302
 4514SOL     OW25177   1.690   0.134   4.272  0.5221  0.1377  0.1880
 4514SOL    HW125178   1.781   0.160   4.288  1.2209 -1.2752 -1.5940
 4514SOL    HW225179   1.676   0.128   4.178 -0.6259  0.5041  0.3344
 4515SOL     OW25180   2.988   0.774  15.602  0.1992  0.9703  0.4226
 4515SOL    HW125181   3.000   0.839  15.533 -1.2271 -0.3522 -1.0586
 4515SOL    HW225182   2.960   0.695  15.555 -0.9754  1.1160  0.8851
 4516SOL     OW25183   1.714   2.285   6.270  0.4165  0.3079  0.3384
 4516SOL    HW125184   1.741   2.273   6.361  2.2768  0.2321 -0.2261
 4516SOL    HW225185   1.645   2.219   6.260 -0.2762  0.8072  1.8394
 4517SOL     OW25186   3.804   3.546   3.686 -0.6134  0.0434 -0.0028
 4517SOL    HW125187   3.856   3.581   3.613 -3.6990 -2.8671 -3.5804
 4517SOL    HW225188   3.834   3.456   3.696 -1.9712 -0.2743  1.1026
 4518SOL     OW25189   2.051   1.291   7.243  0.1363 -0.8798  0.3364
 4518SOL    HW125190   2.140   1.289   7.207 -0.9570  0.1197 -2.3782
 4518SOL    HW225191   2.048   1.227   7.315  0.8989 -1.7419 -0.3870
 4519SOL     OW25192   1.276   3.502   9.236 -0.0523 -0.0167  0.0468
 4519SOL    HW125193   1.236   3.504   9.322 -0.4263  1.4155 -0.1665
 4519SOL    HW225194   1.349   3.441   9.249  0.5103  1.1625  2.4162
 4520SOL     OW25195   4.253   0.600   6.905 -0.3513  0.0815  0.6592
 4520SOL    HW125196   4.262   0.624   6.997  0.9809  1.5989  0.1246
 4520SOL    HW225197   4.344   0.613   6.880 -0.4076  0.3532  0.5949
 4521SOL     OW25198   4.108   2.882   3.552 -0.6730  1.0090 -0.1227
 4521SOL    HW125199   4.168   2.937   3.503  1.5146  0.7996  2.3089
 4521SOL    HW225200   4.029   2.935   3.552 -1.4678 -0.1502  2.1753
 4522SOL     OW25201   3.818   1.740   0.446  0.5361 -0.1074 -0.5215
 4522SOL    HW125202   3.847   1.756   0.536 -0.8113  2.1798 -0.4860
 4522SOL    HW225203   3.722   1.739   0.452  0.6844  1.1537  2.1785
 4523SOL     OW25204   2.899   0.956  15.411  0.2536 -0.3492  0.1491
 4523SOL    HW125205   2.887   0.916  15.325  1.9622 -0.2079 -0.1513
 4523SOL    HW225206   2.952   1.034  15.397 -0.7688  0.2985 -0.1237
 4524SOL     OW25207   3.822   1.958   6.933  1.2769  0.1154  0.3950
 4524SOL    HW125208   3.768   1.946   7.012 -1.5554  1.2724 -1.3695
 4524SOL    HW225209   3.913   1.955   6.960  0.6850  1.8715  2.6277
 4525SOL     OW25210   3.270   3.644   5.221 -0.9633  0.0583 -0.2816
 4525SOL    HW125211   3.332   3.683   5.159  0.8304 -0.7009  1.0269
 4525SOL    HW225212   3.259   3.560   5.177 -0.9721  0.7676 -1.6274
 4526SOL     OW25213   0.721   3.581  13.745 -0.3195  0.4149  0.4390
 4526SOL    HW125214   0.767   3.589  13.828  3.4902  3.1341 -1.9240
 4526SOL    HW225215   0.800   3.612  13.701 -1.1307  3.3266  1.0472
 4527SOL     OW25216   1.128   1.901   0.960 -0.1642  0.5181  0.2277
 4527SOL    HW125217   1.093   1.975   1.010 -0.8166 -0.6424  1.4742
 4527SOL    HW225218   1.050   1.880   0.909 -0.2561 -2.2881  1.4994
 4528SOL     OW25219   3.147   1.533   6.816  0.4009 -0.3938 -0.1755
 4528SOL    HW125220   3.243   1.534   6.808  0.4195  2.0152  0.2882
 4528SOL    HW225221   3.130   1.466   6.882  1.4627 -1.5945 -1.1114
 4529SOL     OW25222   4.412   3.193  13.744  0.0387 -0.3695  0.1140
 4529SOL    HW125223   4.433   3.282  13.717 -0.1422 -0.0529  1.0135
 4529SOL    HW225224   4.342   3.213  13.806  0.9357  1.4937  0.5274
 4530SOL     OW25225   3.008   2.821   6.312  0.4989 -0.1518  0.3539
 4530SOL    HW125226   2.917   2.852   6.311  0.4263 -0.3908 -0.1654
 4530SOL    HW225227   3.004   2.738   6.359 -0.7075 -0.3697 -0.1538
 4531SOL     OW25228   4.013   4.720   6.183 -0.4607  0.4713  0.2957
 4531SOL    HW125229   3.984   4.718   6.092 -1.2312  1.1607  0.5236
 4531SOL    HW225230   4.090   4.663   6.182 -0.3664  0.6145 -0.7043
 4532SOL     OW25231   2.320   1.865   5.702 -0.1207 -0.7505 -0.3380
 4532SOL    HW125232   2.402   1.896   5.741  0.9099 -1.2333 -2.1110
 4532SOL    HW225233   2.286   1.950   5.673 -0.5482 -0.4604  1.0266
 4533SOL     OW25234   0.173   2.237   8.723 -0.0272  0.1892  0.0701
 4533SOL    HW125235   0.114   2.167   8.696  2.1406 -0.8861 -1.8848
 4533SOL    HW225236   0.186   2.206   8.813 -1.6211 -0.4120  0.0853
 4534SOL     OW25237   3.980   0.813  10.667 -0.0117  0.7642  0.1180
 4534SOL    HW125238   3.906   0.768  10.625 -0.2305 -0.9136  2.3039
 4534SOL    HW225239   3.972   0.903  10.637 -0.6273  0.9192  0.7354
 4535SOL     OW25240   1.065   3.721   6.163 -0.0234  0.1696  0.0991
 4535SOL    HW125241   1.128   3.656   6.193  0.9732  0.9766 -0.2396
 4535SOL    HW225242   1.099   3.808   6.181 -1.0975  0.2087  1.9004
 4536SOL     OW25243   3.102   3.552   9.560 -0.0746 -0.6543  0.5868
 4536SOL    HW125244   3.047   3.581   9.633  0.6446  2.8509 -0.2258
 4536SOL    HW225245   3.163   3.492   9.601 -0.5475 -2.2708 -1.0775
 4537SOL     OW25246   1.887   4.623   3.162 -0.0308  0.3259 -0.2111
 4537SOL    HW125247   1.950   4.554   3.148  1.2071  0.9833  2.0816
 4537SOL    HW225248   1.802   4.587   3.137  0.0129 -0.5284  0.8525
 4538SOL     OW25249   2.669   0.377   6.067  0.0806 -0.3079 -0.4721
 4538SOL    HW125250   2.745   0.430   6.042  0.8169 -1.2001 -0.1394
 4538SOL    HW225251   2.605   0.444   6.087 -0.5787 -0.5867 -1.6208
 4539SOL     OW25252   2.573   3.448  11.009 -0.1354  0.4097 -0.5497
 4539SOL    HW125253   2.507   3.502  10.965 -1.2094  1.0497  1.8448
 4539SOL    HW225254   2.603   3.387  10.941 -0.9805  2.6981 -2.9974
 4540SOL     OW25255   2.328   3.397   1.431 -0.4848 -0.1961  0.0875
 4540SOL    HW125256   2.278   3.352   1.364 -4.1361  3.6461  0.2503
 4540SOL    HW225257   2.295   3.351   1.508 -0.1931 -0.0034  0.3295
 4541SOL     OW25258   0.322   3.115   7.914 -0.2955 -0.4084 -0.5858
 4541SOL    HW125259   0.403   3.118   7.965 -0.5297 -0.3103 -0.2209
 4541SOL    HW225260   0.302   3.204   7.885  0.0406  0.4110  1.7263
 4542SOL     OW25261   4.376   2.573   5.042  0.1857  0.0752 -0.5493
 4542SOL    HW125262   4.389   2.667   5.058 -0.3357  0.0898 -0.2016
 4542SOL    HW225263   4.465   2.540   5.033 -0.0693 -0.3876 -1.3451
 4543SOL     OW25264   0.337   3.627   3.402 -0.0989  0.7111 -0.2028
 4543SOL    HW125265   0.415   3.618   3.455  1.0906  0.0287 -2.0583
 4543SOL    HW225266   0.279   3.658   3.472  0.6076  0.1237  0.6401
 4544SOL     OW25267   0.916   1.518   2.282 -0.9204 -0.2044 -0.4113
 4544SOL    HW125268   0.929   1.424   2.271 -0.0473 -0.1374  0.1052
 4544SOL    HW225269   0.842   1.528   2.222 -0.1974 -2.2756 -1.6725
 4545SOL     OW25270   1.208   1.102  16.574 -0.2498  0.2475 -0.4222
 4545SOL    HW125271   1.235   1.100  16.665 -1.5942  0.6797 -0.0156
 4545SOL    HW225272   1.157   1.021  16.576 -1.0901  0.8207  1.2447
 4546SOL     OW25273   3.257   2.775  14.777 -0.1845 -0.3240  0.3202
 4546SOL    HW125274   3.292   2.746  14.693 -1.0407 -1.0872  0.2257
 4546SOL    HW225275   3.301   2.859  14.789 -0.2808 -0.4413  1.5129
 4547SOL     OW25276   2.876   1.358   6.967  0.4784  0.4098  0.7870
 4547SOL    HW125277   2.920   1.362   7.052 -1.6377 -1.1188  1.9621
 4547SOL    HW225278   2.786   1.337   6.992 -0.5275  2.8533 -0.8338
 4548SOL     OW25279   2.756   4.393   5.159 -0.0548 -0.1566  0.0091
 4548SOL    HW125280   2.722   4.462   5.101 -0.0932  0.7844  1.1556
 4548SOL    HW225281   2.833   4.441   5.190 -1.0035  1.1910  0.2987
 4549SOL     OW25282   3.444   0.708   7.490 -0.1948  0.5195 -0.0335
 4549SOL    HW125283   3.535   0.730   7.474 -0.9723  2.8986 -1.2629
 4549SOL    HW225284   3.448   0.685   7.583 -1.1497  2.0796  0.4142
 4550SOL     OW25285   1.889   3.876   5.098 -0.5589  0.1364  0.1661
 4550SOL    HW125286   1.857   3.898   5.010  1.5819  0.3084 -0.5729
 4550SOL    HW225287   1.971   3.926   5.099 -0.1005 -0.6171  0.3025
 4551SOL     OW25288   2.302   0.046  10.130 -0.4612 -0.4330 -0.0191
 4551SOL    HW125289   2.379   0.009  10.173  0.3736  0.0241 -1.0947
 4551SOL    HW225290   2.328   0.022  10.041  1.7536 -2.5068  1.1879
 4552SOL     OW25291   3.789   3.224   0.807  0.5581 -0.3463  0.4042
 4552SOL    HW125292   3.847   3.159   0.847  1.9125  0.6395  0.0242
 4552SOL    HW225293   3.796   3.202   0.714  0.7000  0.6459  0.1851
 4553SOL     OW25294   1.805   3.704   2.041 -0.4271 -0.2203 -0.5014
 4553SOL    HW125295   1.810   3.610   2.021 -2.6269  0.1853 -2.9260
 4553SOL    HW225296   1.865   3.682   2.113 -0.1279  2.5349  0.0854
 4554SOL     OW25297   3.167   1.495  11.839  0.0920  0.0736  0.4926
 4554SOL    HW125298   3.152   1.402  11.821 -0.7734  0.4761 -0.8434
 4554SOL    HW225299   3.106   1.532  11.775 -0.5692 -1.2476  0.3531
 4555SOL     OW25300   4.521   3.697   3.018 -0.1576 -0.4663  0.0160
 4555SOL    HW125301   4.563   3.754   3.082  0.5903  2.0286 -2.6980
 4555SOL    HW225302   4.492   3.763   2.955 -0.8868 -2.1334 -1.4226
 4556SOL     OW25303   4.428   2.550   8.549 -0.1308  0.3004 -0.5716
 4556SOL    HW125304   4.423   2.645   8.539  1.8789  0.6613  1.7994
 4556SOL    HW225305   4.492   2.537   8.619 -0.8260 -0.0555  0.0043
 4557SOL     OW25306   1.614   2.271   4.621 -0.1385  0.6716  0.0564
 4557SOL    HW125307   1.539   2.330   4.617 -0.8164 -0.3093 -1.6147
 4557SOL    HW225308   1.613   2.226   4.537 -1.6147 -0.3180  0.6137
 4558SOL     OW25309   1.748   1.104   7.957  0.1015 -0.0741  0.6199
 4558SOL    HW125310   1.818   1.043   7.936  0.4670  0.0671  1.4443
 4558SOL    HW225311   1.785   1.171   8.014  1.8079 -0.2596 -0.2587
 4559SOL     OW25312   0.629   2.657   9.393 -0.0803  0.0025 -0.0139
 4559SOL    HW125313   0.620   2.575   9.442  2.6693 -0.9405 -1.1132
 4559SOL    HW225314   0.618   2.722   9.462 -1.3030 -0.7117  0.4738
 4560SOL     OW25315   1.717   0.011   8.530  0.0789 -0.0269 -0.2256
 4560SOL    HW125316   1.690   0.048   8.446 -1.9414 -0.5256  0.2117
 4560SOL    HW225317   1.776   0.082   8.557  0.1753 -0.7172  1.3618
 4561SOL     OW25318   3.250   1.476   5.932  0.2365  0.0893  0.3964
 4561SOL    HW125319   3.273   1.431   5.850 -0.7165  2.0773 -0.9538
 4561SOL    HW225320   3.161   1.450   5.957  0.6225 -0.7987  0.8455
 4562SOL     OW25321   3.949   3.506   2.930  0.0289  0.0964  0.7515
 4562SOL    HW125322   3.902   3.570   2.877  1.8712 -1.3405 -2.6429
 4562SOL    HW225323   3.943   3.431   2.870  2.5576 -1.4270  2.3703
 4563SOL     OW25324   0.765   3.456  12.463 -0.6957  0.2228  0.8109
 4563SOL    HW125325   0.772   3.546  12.431  3.1130  0.2146  1.6228
 4563SOL    HW225326   0.821   3.416  12.396  0.0656  0.3098  1.3869
 4564SOL     OW25327   1.465   0.416   1.494  0.1089 -0.2187 -0.0714
 4564SOL    HW125328   1.457   0.446   1.403 -1.6309 -0.4136  0.0279
 4564SOL    HW225329   1.433   0.327   1.478  0.3521 -0.6637  1.8662
 4565SOL     OW25330   1.863   0.722  12.525 -0.2469 -0.4822  0.3450
 4565SOL    HW125331   1.849   0.682  12.611 -1.5939 -2.0319 -0.6019
 4565SOL    HW225332   1.876   0.815  12.541  1.1868 -0.5399 -0.4936
 4566SOL     OW25333   3.990   1.103   3.031 -0.3339 -0.4617 -0.5331
 4566SOL    HW125334   4.005   1.179   3.087  1.7882 -0.8136 -0.6417
 4566SOL    HW225335   3.900   1.124   3.008 -0.5708 -0.7416  0.1125
 4567SOL     OW25336   2.997   1.288   4.365  0.0538 -0.3972 -0.6072
 4567SOL    HW125337   3.028   1.291   4.455 -0.7234  0.7146 -0.3746
 4567SOL    HW225338   2.904   1.280   4.388  0.1084  0.9288  0.0657
 4568SOL     OW25339   2.022   4.413   3.082 -0.3018  0.0914  0.2587
 4568SOL    HW125340   2.099   4.467   3.097 -0.9759  1.4176 -1.1689
 4568SOL    HW225341   2.040   4.395   2.990  0.5008 -1.4868  0.7125
 4569SOL     OW25342   2.102   2.926   7.789  0.3483 -0.4045  0.6058
 4569SOL    HW125343   2.008   2.918   7.809  0.2998 -1.0851  0.0925
 4569SOL    HW225344   2.102   3.016   7.756 -1.1055  0.0559  1.8536
 4570SOL     OW25345   1.383   4.094   8.201 -0.0298 -0.1304 -0.1328
 4570SOL    HW125346   1.447   4.120   8.268  3.5517 -1.8642 -2.8450
 4570SOL    HW225347   1.302   4.084   8.250 -0.0302  1.6603  0.2362
 4571SOL     OW25348   0.853   4.311   6.501 -0.8653 -0.5528  0.2925
 4571SOL    HW125349   0.809   4.280   6.422 -0.0243 -1.6052  0.2340
 4571SOL    HW225350   0.800   4.387   6.526  0.1156  0.5679 -1.0461
 4572SOL     OW25351   1.604   3.899   8.894  0.2294 -0.1677 -0.6497
 4572SOL    HW125352   1.686   3.871   8.935 -0.1518 -0.3477  0.0019
 4572SOL    HW225353   1.538   3.858   8.950 -0.6317  1.2975 -0.5969
 4573SOL     OW25354   1.607   4.403   0.166  0.0914 -0.3618  0.4590
 4573SOL    HW125355   1.655   4.322   0.185  0.1606 -0.4333 -0.0159
 4573SOL    HW225356   1.615   4.447   0.250  0.0878 -0.6466  0.6108
 4574SOL     OW25357   4.352   4.139  17.579 -0.3136  0.1306 -0.2589
 4574SOL    HW125358   4.406   4.061  17.566  0.4691  0.0034  3.9203
 4574SOL    HW225359   4.263   4.105  17.574 -0.2901  0.2388 -1.5719
 4575SOL     OW25360   4.215   2.131  11.941 -0.3010 -0.0004  0.4762
 4575SOL    HW125361   4.207   2.119  11.847 -0.7638  1.5204  0.3310
 4575SOL    HW225362   4.304   2.164  11.951 -1.1736  2.6690 -0.6137
 4576SOL     OW25363   1.516   0.730   1.927 -0.1358  0.3608 -0.7774
 4576SOL    HW125364   1.485   0.808   1.881 -0.0739  1.3766  0.8986
 4576SOL    HW225365   1.545   0.674   1.855 -1.5695  0.6728 -1.5984
 4577SOL     OW25366   4.074   4.589   8.087  0.4888 -0.0070 -0.2866
 4577SOL    HW125367   4.073   4.683   8.107 -1.8375  0.2732 -1.7518
 4577SOL    HW225368   4.023   4.592   8.006  0.1289 -1.7480 -0.1341
 4578SOL     OW25369   2.072   4.663   1.664 -0.3544  0.0862  0.0441
 4578SOL    HW125370   2.165   4.644   1.678 -0.4719  0.7274  1.7566
 4578SOL    HW225371   2.086   0.022   1.664 -3.0394  0.4642 -0.6405
 4579SOL     OW25372   1.197   0.607  13.817  0.4952 -0.1332  0.5634
 4579SOL    HW125373   1.155   0.659  13.749 -1.5073  0.5517  2.3234
 4579SOL    HW225374   1.264   0.560  13.767  0.8048 -0.0383  0.8926
 4580SOL     OW25375   0.409   3.127   7.440 -0.2090 -0.2082 -0.6637
 4580SOL    HW125376   0.401   3.060   7.508  1.1335 -0.6438 -0.9320
 4580SOL    HW225377   0.497   3.107   7.407 -0.7860  0.5683 -2.6017
 4581SOL     OW25378   4.660   3.056  10.061  0.2263 -0.0329  0.3205
 4581SOL    HW125379   4.679   3.015  10.146  0.8654  0.5038  0.4381
 4581SOL    HW225380   4.593   3.121  10.083 -0.7142 -1.0164  0.3529
 4582SOL     OW25381   2.787   0.323   4.732  0.6123 -0.2782 -0.2382
 4582SOL    HW125382   2.819   0.341   4.821  0.7333 -0.2907 -0.2784
 4582SOL    HW225383   2.805   0.229   4.733  0.3843 -0.3400 -1.7806
 4583SOL     OW25384   1.294   3.206   3.775  0.6055  0.2773  0.5424
 4583SOL    HW125385   1.359   3.233   3.840  0.0517  0.7745  0.8860
 4583SOL    HW225386   1.354   3.162   3.715 -0.1258 -0.1514  0.1348
 4584SOL     OW25387   1.862   3.871  15.648  0.0929  0.0471  0.3895
 4584SOL    HW125388   1.776   3.839  15.672 -0.1991  0.1392 -0.5345
 4584SOL    HW225389   1.848   3.965  15.636  3.4077  0.5765  0.7038
 4585SOL     OW25390   1.693   2.228   8.763  0.1564  0.0542  0.0382
 4585SOL    HW125391   1.636   2.173   8.817 -0.0527  0.1036 -0.1316
 4585SOL    HW225392   1.719   2.291   8.831 -1.0416  1.9301 -1.2229
 4586SOL     OW25393   3.890   2.994   4.033  0.3392 -0.3565 -0.0407
 4586SOL    HW125394   3.862   3.085   4.047 -0.5124 -0.4897 -0.9522
 4586SOL    HW225395   3.904   2.967   4.124 -1.8189  0.7756  0.6354
 4587SOL     OW25396   4.667   1.086   3.224 -0.0305  0.2581 -0.8321
 4587SOL    HW125397   4.717   1.133   3.157  2.4791 -0.1644  0.7222
 4587SOL    HW225398   4.653   1.012   3.165 -0.0932 -0.0036 -0.4866
 4588SOL     OW25399   1.118   0.668  15.561  0.3449 -0.2473 -0.2487
 4588SOL    HW125400   1.212   0.686  15.555  0.5624 -1.1742  0.5341
 4588SOL    HW225401   1.130   0.578  15.591 -1.5178 -0.7679 -1.0461
 4589SOL     OW25402   2.172   3.850   6.820  0.5647 -0.4577  0.1816
 4589SOL    HW125403   2.262   3.877   6.839  0.9646 -2.1816  0.6718
 4589SOL    HW225404   2.181   3.772   6.875 -0.7493 -1.2873 -0.7885
 4590SOL     OW25405   4.469   0.240   4.060 -0.2307  0.1328 -0.2792
 4590SOL    HW125406   4.440   0.255   4.150 -0.9286  1.9986 -0.8140
 4590SOL    HW225407   4.390   0.215   4.012 -2.0746 -0.5659  3.1464
 4591SOL     OW25408   3.816   1.982  16.802  0.0110  0.2255  0.1484
 4591SOL    HW125409   3.785   2.006  16.715  0.2890 -1.5669 -0.4559
 4591SOL    HW225410   3.746   1.943  16.855  2.5588 -1.9579  1.8520
 4592SOL     OW25411   3.579   3.370  14.189  0.0111  0.5684  0.4291
 4592SOL    HW125412   3.610   3.450  14.230  1.9703 -0.5396  1.1223
 4592SOL    HW225413   3.494   3.405  14.164 -0.2812  0.7118  1.6253
 4593SOL     OW25414   4.475   1.104  14.836  0.1654 -0.1207 -0.4099
 4593SOL    HW125415   4.404   1.107  14.772  0.0055  0.5279 -0.1979
 4593SOL    HW225416   4.506   1.017  14.810 -1.7651 -1.2065  0.9094
 4594SOL     OW25417   0.069   0.121   4.286 -0.2347  0.0112 -0.2746
 4594SOL    HW125418   0.058   0.117   4.381  1.7343 -0.0615 -0.0374
 4594SOL    HW225419   0.059   0.029   4.262 -1.1032  0.4321 -1.4756
 4595SOL     OW25420   1.473   0.845   4.701  0.1464 -0.2215 -0.4269
 4595SOL    HW125421   1.568   0.848   4.709  0.2440 -1.0358 -1.3187
 4595SOL    HW225422   1.442   0.935   4.717  3.8391  1.1736 -1.2398
 4596SOL     OW25423   1.226   2.910  10.222 -0.4853 -0.5390 -0.4121
 4596SOL    HW125424   1.135   2.899  10.248 -0.4265 -0.8976 -0.3616
 4596SOL    HW225425   1.269   2.850  10.283 -1.0035 -0.4593  0.0304
 4597SOL     OW25426   3.667   3.162   3.735  0.3962 -0.3039  0.1436
 4597SOL    HW125427   3.721   3.090   3.767  0.6496  0.4050  1.3089
 4597SOL    HW225428   3.614   3.106   3.678 -0.0578  1.4071 -1.1289
 4598SOL     OW25429   2.121   4.049   3.138  0.6235 -0.2566 -0.2550
 4598SOL    HW125430   2.041   4.050   3.084  0.1442  2.5668  0.5248
 4598SOL    HW225431   2.185   4.103   3.093  1.1951  0.7848  1.8149
 4599SOL     OW25432   4.672   3.481   3.087  0.7077  0.1450  0.2235
 4599SOL    HW125433   4.637   3.558   3.042 -2.3840 -0.8420  0.9239
 4599SOL    HW225434   4.701   3.524   3.167  1.2313  0.6839 -0.2602
 4600SOL     OW25435   3.241   2.025  14.455  0.1774  0.0144  0.3947
 4600SOL    HW125436   3.297   2.060  14.386  0.2741  1.2784  1.1097
 4600SOL    HW225437   3.312   1.990  14.508 -0.2044 -1.2635  0.0537
 4601SOL     OW25438   0.166   2.549  10.189  0.5587  0.2094 -0.1007
 4601SOL    HW125439   0.085   2.556  10.238  0.7979 -2.6806  0.6988
 4601SOL    HW225440   0.125   2.498  10.120 -0.9730  3.9666 -1.9918
 4602SOL     OW25441   2.290   4.459   2.329 -0.5050  0.8477  0.2994
 4602SOL    HW125442   2.384   4.459   2.348 -0.5733  3.6779  0.6150
 4602SOL    HW225443   2.284   4.383   2.271 -1.8633  0.1612  1.3329
 4603SOL     OW25444   2.676   0.100   5.183 -0.2480 -0.4078 -0.2140
 4603SOL    HW125445   2.743   0.032   5.189  1.6626  1.4035 -1.1232
 4603SOL    HW225446   2.602   0.069   5.237  0.2669 -0.5320  0.4196
 4604SOL     OW25447   4.668   2.424   6.759 -0.1933  0.6025 -0.0104
 4604SOL    HW125448   4.624   2.368   6.694  0.2700 -1.3532  1.3506
 4604SOL    HW225449   0.014   2.450   6.718 -0.2346 -0.3330 -0.6848
 4605SOL     OW25450   3.071   4.035   6.002 -0.2078  0.4546 -0.2900
 4605SOL    HW125451   3.156   4.056   6.042 -0.1910  0.4133 -0.3047
 4605SOL    HW225452   3.041   4.119   5.967  0.6671  0.2284 -1.5814
 4606SOL     OW25453   1.466   3.473  12.123 -0.5447  0.3459 -0.4048
 4606SOL    HW125454   1.495   3.550  12.074 -2.7647  0.9537 -0.7799
 4606SOL    HW225455   1.392   3.452  12.065 -0.8932 -0.6960  0.4234
 4607SOL     OW25456   2.796   3.689   4.308  0.0331  0.2224 -0.4559
 4607SOL    HW125457   2.890   3.670   4.309 -0.4336 -2.0879 -0.8484
 4607SOL    HW225458   2.766   3.625   4.372  1.5993  0.2123  0.2897
 4608SOL     OW25459   1.800   4.130  16.758 -0.2386 -0.1721 -0.4661
 4608SOL    HW125460   1.719   4.181  16.762 -0.1404 -0.0669  0.2268
 4608SOL    HW225461   1.816   4.099  16.669 -1.0365 -2.4550  0.1907
 4609SOL     OW25462   2.849   1.030   7.821  0.4034  0.1762 -0.0032
 4609SOL    HW125463   2.784   1.091   7.786  0.7739  0.8943  0.5527
 4609SOL    HW225464   2.871   0.980   7.743  0.6296  0.2319  0.0257
 4610SOL     OW25465   1.558   4.603   6.669  0.2190 -0.9725  0.5850
 4610SOL    HW125466   1.590   4.684   6.711  1.1021  0.5196 -2.9588
 4610SOL    HW225467   1.541   4.639   6.582  2.4467 -1.3659 -0.0163
 4611SOL     OW25468   0.293   0.644   4.631  0.0422 -0.2903 -0.3969
 4611SOL    HW125469   0.271   0.553   4.654  0.0301 -0.5924 -1.6072
 4611SOL    HW225470   0.280   0.644   4.537  1.6394 -0.5737 -0.6192
 4612SOL     OW25471   4.482   1.766   7.426  0.5928 -0.8056  0.2411
 4612SOL    HW125472   4.511   1.731   7.341 -0.9064 -0.6996 -0.3081
 4612SOL    HW225473   4.484   1.685   7.477 -1.5817  0.2152  1.9283
 4613SOL     OW25474   0.161   3.090  16.431 -0.2818  0.2093 -0.0281
 4613SOL    HW125475   0.201   3.140  16.360 -0.2140  0.5257  0.2328
 4613SOL    HW225476   0.158   3.154  16.503 -3.1967 -2.9569  2.6530
 4614SOL     OW25477   1.463   3.598   6.861  0.8863 -0.3564  0.3702
 4614SOL    HW125478   1.485   3.612   6.769  1.0951  1.7105  0.7288
 4614SOL    HW225479   1.444   3.505   6.867 -2.8440  0.4272  0.4219
 4615SOL     OW25480   1.723   3.137   6.267 -0.0887  0.3386 -0.1556
 4615SOL    HW125481   1.734   3.043   6.285 -1.1527  0.3703  0.7093
 4615SOL    HW225482   1.816   3.146   6.249  0.0884  0.1359  0.6522
 4616SOL     OW25483   4.127   3.292   3.202 -0.0092  0.6520 -0.3519
 4616SOL    HW125484   4.054   3.345   3.233 -1.0788 -1.1976  0.2667
 4616SOL    HW225485   4.190   3.363   3.189 -0.4606  1.3664  1.3766
 4617SOL     OW25486   4.663   0.229  13.769 -0.3109 -0.1397 -0.0174
 4617SOL    HW125487   4.647   0.323  13.760 -1.9831 -0.2135  2.0258
 4617SOL    HW225488   4.576   0.192  13.750 -1.5499  2.6560  0.2627
 4618SOL     OW25489   4.511   0.677   6.800 -0.2955  0.4825  0.4688
 4618SOL    HW125490   4.580   0.685   6.734  1.2768 -0.1764  2.0323
 4618SOL    HW225491   4.547   0.605   6.852 -1.8342 -2.5117 -2.5857
 4619SOL     OW25492   2.931   0.576   9.344  0.4994  0.2422  0.4355
 4619SOL    HW125493   2.867   0.622   9.289 -1.7275 -2.6754  0.6087
 4619SOL    HW225494   2.893   0.488   9.339 -1.1028  0.9275  0.3639
 4620SOL     OW25495   4.583   4.407   7.250  0.4838  0.4358  0.8632
 4620SOL    HW125496   4.539   4.457   7.181  0.5111 -0.5485  0.1345
 4620SOL    HW225497   4.543   4.321   7.234  0.2678  0.4544  1.2849
 4621SOL     OW25498   1.484   1.753   4.704  0.5390 -0.5974 -0.1797
 4621SOL    HW125499   1.492   1.763   4.609  0.9871  0.6047 -0.0174
 4621SOL    HW225500   1.490   1.844   4.734 -0.4274 -0.2092 -1.1467
 4622SOL     OW25501   3.902   0.332   5.338  0.5093  0.0141  0.3771
 4622SOL    HW125502   3.889   0.315   5.245 -1.0022  2.3872  0.1549
 4622SOL    HW225503   3.998   0.328   5.345  0.4059 -0.8366  1.4064
 4623SOL     OW25504   4.317   1.855   8.160  0.0651 -0.4457  0.1374
 4623SOL    HW125505   4.369   1.920   8.114 -1.6471  0.3247 -0.7072
 4623SOL    HW225506   4.319   1.781   8.099 -2.1610 -0.2602 -0.1435
 4624SOL     OW25507   3.898   1.804   0.745  0.1408 -0.7906  0.4605
 4624SOL    HW125508   3.931   1.820   0.834 -0.1482  0.9645  0.2587
 4624SOL    HW225509   3.806   1.792   0.769 -0.2942  1.1615 -0.2017
 4625SOL     OW25510   0.121   1.960   9.248 -0.3641 -0.0113 -0.0236
 4625SOL    HW125511   0.156   1.875   9.223 -1.1295 -0.4971  0.6047
 4625SOL    HW225512   0.174   1.972   9.326 -0.6508 -2.6551  0.5715
 4626SOL     OW25513   2.768   2.186   5.772 -0.1771  0.2082 -0.1756
 4626SOL    HW125514   2.848   2.226   5.805  0.0035 -0.2265 -0.0873
 4626SOL    HW225515   2.733   2.270   5.741  0.0633  0.1253 -0.6612
 4627SOL     OW25516   4.228   1.545   0.889 -0.3682  0.1880 -0.4848
 4627SOL    HW125517   4.173   1.573   0.815  1.4507 -1.9389 -2.6379
 4627SOL    HW225518   4.261   1.458   0.865  0.4024  0.6642 -1.1233
 4628SOL     OW25519   0.837   0.823   6.711  0.4839  0.0563  0.1181
 4628SOL    HW125520   0.918   0.871   6.695  0.8581 -0.7173 -0.2803
 4628SOL    HW225521   0.831   0.818   6.806 -2.1428 -0.3197 -0.0691
 4629SOL     OW25522   2.743   4.726   7.361 -0.0927  0.6745  0.3872
 4629SOL    HW125523   2.713   4.689   7.444 -0.0440 -2.3563 -0.9683
 4629SOL    HW225524   2.718   4.649   7.310 -1.0281 -0.4989  2.5753
 4630SOL     OW25525   0.728   2.351  11.578  0.0441  0.3372  0.1599
 4630SOL    HW125526   0.663   2.297  11.623 -0.9991  2.5891  1.3248
 4630SOL    HW225527   0.731   2.301  11.496 -1.2597  1.8640 -0.8119
 4631SOL     OW25528   4.458   0.911   8.848 -0.0694 -0.4463 -0.0924
 4631SOL    HW125529   4.403   0.985   8.874 -2.7751 -1.5745 -2.5934
 4631SOL    HW225530   4.462   0.858   8.927  0.6744  0.1244  0.2561
 4632SOL     OW25531   0.443   3.942   5.250 -0.2183 -0.4317  0.1257
 4632SOL    HW125532   0.539   3.937   5.242 -0.1905 -0.4668  0.5169
 4632SOL    HW225533   0.424   4.030   5.219 -0.2173 -0.8092 -0.9585
 4633SOL     OW25534   0.047   1.736   4.984  0.2336 -0.0024  0.1685
 4633SOL    HW125535   0.053   1.829   5.004  0.0307 -0.0284  0.3539
 4633SOL    HW225536   0.134   1.708   4.957  1.6751 -1.0574  5.7778
 4634SOL     OW25537   4.453   1.576  16.895  0.5571  0.5199  0.0726
 4634SOL    HW125538   4.463   1.589  16.990  4.6225  3.1057 -0.7029
 4634SOL    HW225539   4.518   1.508  16.878  1.6423  1.5761  0.0212
 4635SOL     OW25540   3.161   3.635   8.512 -0.4590 -0.2305 -0.2452
 4635SOL    HW125541   3.080   3.586   8.497 -1.1595  0.8415  0.1022
 4635SOL    HW225542   3.217   3.558   8.529 -0.0947 -0.3005 -1.7527
 4636SOL     OW25543   3.868   4.469   1.979  0.1086 -0.4228  0.9685
 4636SOL    HW125544   3.897   4.470   2.070 -1.3410  3.4943  1.3995
 4636SOL    HW225545   3.937   4.529   1.950 -0.8018  0.8365  1.4092
 4637SOL     OW25546   2.653   0.393  16.537  0.2787 -0.2001  0.0507
 4637SOL    HW125547   2.714   0.400  16.464  1.2426  1.5115  0.9979
 4637SOL    HW225548   2.594   0.464  16.511 -0.6413 -1.3324 -0.9035
 4638SOL     OW25549   4.393   4.278   9.225  0.1579  0.6147 -0.2375
 4638SOL    HW125550   4.322   4.225   9.259  1.0548 -0.4040  0.0594
 4638SOL    HW225551   4.472   4.237   9.262  0.7778  1.9775 -0.0497
 4639SOL     OW25552   0.063   1.909   6.139 -0.2174  0.6037 -0.2556
 4639SOL    HW125553   0.110   1.931   6.058  0.4822  0.0125 -0.0141
 4639SOL    HW225554   0.143   1.889   6.187 -0.2560  2.0324  0.4093
 4640SOL     OW25555   2.212   0.853   6.199  0.0383  0.5817 -0.0287
 4640SOL    HW125556   2.275   0.863   6.127 -0.0852 -1.1924 -0.3772
 4640SOL    HW225557   2.142   0.814   6.147 -0.2473 -0.9821  1.5400
 4641SOL     OW25558   0.581   0.623   2.575 -0.2656  0.1900 -0.6476
 4641SOL    HW125559   0.672   0.599   2.557 -0.0164  0.2661  0.5265
 4641SOL    HW225560   0.601   0.715   2.588 -0.8790  0.2716 -0.3257
 4642SOL     OW25561   0.004   3.925  16.069 -0.3984  0.3365 -0.8575
 4642SOL    HW125562   0.045   3.922  15.983  0.1465 -0.1018 -0.5900
 4642SOL    HW225563   0.047   3.999  16.113  1.9930 -0.2792 -2.1463
 4643SOL     OW25564   1.173   0.418   9.856  0.0857 -0.3498  0.2465
 4643SOL    HW125565   1.097   0.456   9.812 -0.2628 -1.3187  0.0191
 4643SOL    HW225566   1.147   0.443   9.945 -0.3246 -0.8636  0.2704
 4644SOL     OW25567   4.429   1.708   3.654  0.0694  0.6884 -0.0741
 4644SOL    HW125568   4.403   1.718   3.563 -1.4960  1.3119  0.4560
 4644SOL    HW225569   4.442   1.613   3.658 -0.3487  0.6849  1.2174
 4645SOL     OW25570   3.102   2.237  12.927  0.4567 -0.1063 -0.3017
 4645SOL    HW125571   3.149   2.224  12.844 -1.3985  1.3071 -1.5735
 4645SOL    HW225572   3.056   2.153  12.929  1.2997 -0.5926 -1.1629
 4646SOL     OW25573   4.195   0.311   1.980  0.2387  0.1315 -0.0374
 4646SOL    HW125574   4.126   0.297   1.916  0.2870 -0.2190 -0.0103
 4646SOL    HW225575   4.268   0.279   1.927 -1.2467 -0.2610 -1.8112
 4647SOL     OW25576   2.131   0.725   8.350  0.7115  0.4517 -0.8451
 4647SOL    HW125577   2.184   0.647   8.334  2.1381  0.8826  1.8023
 4647SOL    HW225578   2.196   0.785   8.314  1.4721 -0.2053 -0.5612
 4648SOL     OW25579   0.012   1.858  10.565 -0.0017 -0.7568  0.4617
 4648SOL    HW125580   0.041   1.935  10.612  0.2497 -0.4888 -0.1310
 4648SOL    HW225581   4.705   1.803  10.631 -0.4637 -1.0365 -0.0680
 4649SOL     OW25582   0.438   1.227   1.687  0.5132  0.6436 -0.1730
 4649SOL    HW125583   0.469   1.241   1.598  0.3211  2.7505  0.1064
 4649SOL    HW225584   0.347   1.205   1.669  0.6084  0.2196 -0.1495
 4650SOL     OW25585   3.891   2.179  16.091  0.0665 -0.2092 -0.5013
 4650SOL    HW125586   3.931   2.240  16.029 -1.2844  1.8769  0.6937
 4650SOL    HW225587   3.815   2.138  16.050  1.0933 -0.9363 -1.6777
 4651SOL     OW25588   2.564   0.508   2.076 -0.5299 -0.1098 -0.4030
 4651SOL    HW125589   2.506   0.434   2.057  0.5535 -1.0055 -0.2238
 4651SOL    HW225590   2.508   0.578   2.108  1.4044  0.2178  2.1854
 4652SOL     OW25591   4.212   1.881   9.438 -0.2089 -0.0120 -0.5889
 4652SOL    HW125592   4.214   1.942   9.364  2.1139 -1.4942 -1.7660
 4652SOL    HW225593   4.293   1.902   9.486 -1.1220 -0.6841  1.2414
 4653SOL     OW25594   0.340   1.799  15.070  0.1181  0.0508  0.3315
 4653SOL    HW125595   0.404   1.793  14.999  0.6654 -0.2407  0.8515
 4653SOL    HW225596   0.345   1.723  15.128  1.9839  0.4875  0.7301
 4654SOL     OW25597   0.139   0.160   5.451 -0.0672 -0.1876 -0.6680
 4654SOL    HW125598   0.199   0.111   5.395 -0.5650 -1.9528  0.3091
 4654SOL    HW225599   0.119   0.242   5.407  0.1705  0.0807 -0.2680
 4655SOL     OW25600   1.880   1.828   3.812  0.1563  0.0750  0.7803
 4655SOL    HW125601   1.898   1.879   3.891 -1.4536  0.7580  0.7243
 4655SOL    HW225602   1.884   1.891   3.740  1.5098  0.5561  1.2954
 4656SOL     OW25603   2.834   1.402   4.024 -0.2381  1.0695  0.1081
 4656SOL    HW125604   2.917   1.424   3.983 -0.1084  1.2210  0.4541
 4656SOL    HW225605   2.775   1.446   3.963  0.1823  1.1892 -0.2130
 4657SOL     OW25606   1.223   4.085  13.488 -0.0770  0.4498 -0.1738
 4657SOL    HW125607   1.308   4.075  13.444 -0.9906 -2.7088 -1.1833
 4657SOL    HW225608   1.191   4.172  13.464  0.8951  0.2889 -2.1302
 4658SOL     OW25609   2.358   3.941  17.727 -0.1692 -0.6691  0.5515
 4658SOL    HW125610   2.296   4.010  17.703  0.4111 -0.4000 -0.1754
 4658SOL    HW225611   2.317   3.918   0.068 -0.9185 -0.5904  0.2030
 4659SOL     OW25612   3.373   4.668  16.695  0.7660  0.2780  0.0295
 4659SOL    HW125613   3.460   4.630  16.706  1.3281  1.3333 -0.7424
 4659SOL    HW225614   3.388   4.695  16.604 -1.5824  1.8554  0.0894
 4660SOL     OW25615   1.129   0.621   2.523  0.3563 -0.3766 -0.1723
 4660SOL    HW125616   1.213   0.575   2.513 -0.0669 -0.9537 -1.0901
 4660SOL    HW225617   1.158   0.695   2.576 -0.3237 -1.1764  1.3167
 4661SOL     OW25618   2.848   2.710   2.829 -0.1490  0.0805  0.2253
 4661SOL    HW125619   2.760   2.725   2.862 -0.9918 -1.3865 -1.3589
 4661SOL    HW225620   2.884   2.657   2.901  1.2443 -0.0921 -0.5985
 4662SOL     OW25621   2.136   1.741   9.360  0.1489  0.4394  0.1878
 4662SOL    HW125622   2.131   1.652   9.324 -4.2811  1.1104 -0.8293
 4662SOL    HW225623   2.218   1.769   9.318  0.9709 -2.6946 -0.3381
 4663SOL     OW25624   0.704   2.944   8.930 -0.6477  0.7202 -0.3023
 4663SOL    HW125625   0.688   3.025   8.881  0.2583  1.1188  0.0784
 4663SOL    HW225626   0.785   2.974   8.970  0.3017 -1.5285 -0.5138
 4664SOL     OW25627   1.703   0.503   5.825 -0.3656 -0.5332  0.3515
 4664SOL    HW125628   1.704   0.497   5.730 -0.2285 -0.0116  0.3215
 4664SOL    HW225629   1.632   0.568   5.832  0.2791  0.1141  0.8717
 4665SOL     OW25630   0.553   1.135  13.115 -0.1956 -0.3021 -0.2051
 4665SOL    HW125631   0.479   1.196  13.116  1.7116  1.9982 -0.0231
 4665SOL    HW225632   0.583   1.151  13.205 -2.3151  1.8456  0.1216
 4666SOL     OW25633   1.014   3.722   7.075 -0.0888 -0.2939  0.1824
 4666SOL    HW125634   0.954   3.746   7.004  0.5361 -1.3864 -0.7148
 4666SOL    HW225635   1.057   3.648   7.031 -0.2654  0.4154 -1.1774
 4667SOL     OW25636   3.182   2.861   2.950  0.3016 -0.2941  0.4026
 4667SOL    HW125637   3.228   2.779   2.968  1.0379 -0.2156 -1.1266
 4667SOL    HW225638   3.262   2.913   2.939  1.3781 -2.2555 -1.0438
 4668SOL     OW25639   4.068   1.019   6.743  0.7416  0.6641  0.1871
 4668SOL    HW125640   4.147   0.989   6.789  1.9542  1.3845 -1.4320
 4668SOL    HW225641   4.008   1.025   6.817  0.4811  0.5596 -0.0194
 4669SOL     OW25642   2.113   2.964   3.918 -0.2799  0.1108  0.2333
 4669SOL    HW125643   2.120   3.027   3.990  1.6082 -1.4718  1.4114
 4669SOL    HW225644   2.202   2.978   3.887  0.4101  2.6827  3.2832
 4670SOL     OW25645   3.261   2.354   2.557  0.2951 -0.1665  0.0249
 4670SOL    HW125646   3.217   2.270   2.561 -1.2060  0.6420  0.2983
 4670SOL    HW225647   3.221   2.369   2.471 -1.3040  2.2022  1.1998
 4671SOL     OW25648   0.523   2.892   5.604  0.1532  0.1965 -0.7266
 4671SOL    HW125649   0.563   2.963   5.555  0.1786  0.7623  0.1262
 4671SOL    HW225650   0.577   2.816   5.580 -0.2429  0.2240 -1.7057
 4672SOL     OW25651   4.288   0.323  11.703  0.2700 -0.3812 -0.5617
 4672SOL    HW125652   4.242   0.318  11.787  0.6628 -2.3993 -0.4631
 4672SOL    HW225653   4.374   0.286  11.722  0.0437  0.3175  1.7626
 4673SOL     OW25654   3.075   3.920   0.609 -0.1317 -0.0938 -0.7401
 4673SOL    HW125655   2.995   3.873   0.629 -0.3785  0.3741 -0.6228
 4673SOL    HW225656   3.038   3.954   0.528 -1.7338  2.1108  0.9368
 4674SOL     OW25657   3.547   2.054  12.277  0.5181 -0.4761  0.0322
 4674SOL    HW125658   3.629   2.067  12.324  1.1123  0.3572 -1.2157
 4674SOL    HW225659   3.582   1.995  12.209  2.2179 -3.4696  3.5267
 4675SOL     OW25660   1.903   0.891   3.154 -0.6006  0.4625 -0.6287
 4675SOL    HW125661   1.944   0.916   3.071  0.5174  0.4398 -0.0882
 4675SOL    HW225662   1.816   0.931   3.158 -1.5773 -1.9141  1.6458
 4676SOL     OW25663   0.244   2.696   8.613  0.2427  0.1323 -0.2435
 4676SOL    HW125664   0.155   2.661   8.609 -0.2373  1.4038 -0.6663
 4676SOL    HW225665   0.247   2.745   8.696 -0.7562  0.5491 -0.4620
 4677SOL     OW25666   0.203   3.606  17.065 -0.2975  0.1305 -0.5645
 4677SOL    HW125667   0.261   3.533  17.042 -0.2472  0.2798 -0.9118
 4677SOL    HW225668   0.122   3.589  17.017 -0.5380  1.3547 -0.5847
 4678SOL     OW25669   2.650   1.078   9.510  0.9077 -0.5440  0.4818
 4678SOL    HW125670   2.666   1.151   9.570 -1.8234  1.2082 -0.9314
 4678SOL    HW225671   2.597   1.022   9.566 -0.4807  0.3009  0.0200
 4679SOL     OW25672   2.439   4.678  12.287  0.4245 -0.1242  0.5025
 4679SOL    HW125673   2.363   4.634  12.323 -0.4703  2.4164  1.7561
 4679SOL    HW225674   2.441   4.636  12.201  0.8035 -0.2449  0.5690
 4680SOL     OW25675   1.506   0.435   2.894  0.2200  0.1960  0.2336
 4680SOL    HW125676   1.462   0.487   2.826 -3.2028 -1.2151  1.3825
 4680SOL    HW225677   1.438   0.391   2.944 -0.3513  2.7588  1.7296
 4681SOL     OW25678   0.822   1.239   5.754 -0.0812 -0.4638 -0.4880
 4681SOL    HW125679   0.873   1.159   5.767  0.1090 -0.3357 -0.4481
 4681SOL    HW225680   0.880   1.299   5.802  0.7514 -1.2508 -0.5303
 4682SOL     OW25681   1.447   1.610   2.343 -0.0028  0.0215  0.1232
 4682SOL    HW125682   1.438   1.661   2.263  0.1856 -0.1349  0.0010
 4682SOL    HW225683   1.463   1.683   2.402 -2.2007  0.2021  0.4871
 4683SOL     OW25684   3.606   1.971   7.126 -0.0110  0.2805 -0.0676
 4683SOL    HW125685   3.649   1.967   7.211  0.4670  1.9082 -0.2415
 4683SOL    HW225686   3.535   2.032   7.148  0.2466  0.1184  1.1840
 4684SOL     OW25687   1.316   3.630   0.944  0.2353  0.5425 -0.6733
 4684SOL    HW125688   1.340   3.648   1.035  0.7940 -3.7102  0.0271
 4684SOL    HW225689   1.231   3.590   0.964  1.0688 -0.6826  0.4843
 4685SOL     OW25690   0.373   0.632   4.347  0.3031 -0.2820  0.6337
 4685SOL    HW125691   0.438   0.582   4.297  0.7249 -1.6949  2.5763
 4685SOL    HW225692   0.304   0.620   4.283  1.6149  0.4877 -0.9159
 4686SOL     OW25693   3.393   0.563   8.902  0.3019  0.5591  0.8764
 4686SOL    HW125694   3.414   0.501   8.832 -0.4208 -2.5350  3.3811
 4686SOL    HW225695   3.298   0.558   8.895  0.3824  1.5661 -1.0120
 4687SOL     OW25696   2.896   4.460  14.392 -0.4905  0.4439  0.3956
 4687SOL    HW125697   2.952   4.382  14.393 -0.3807  0.5075 -0.7355
 4687SOL    HW225698   2.875   4.456  14.299  0.1570  5.3334  0.0391
 4688SOL     OW25699   4.679   0.392   2.672 -0.0315 -0.9808 -0.6353
 4688SOL    HW125700   4.632   0.324   2.623 -1.3577  0.9933 -2.1002
 4688SOL    HW225701   4.606   0.450   2.693  0.7680  0.0330 -0.6959
 4689SOL     OW25702   4.465   0.186   1.971  0.0719 -0.2360  0.3941
 4689SOL    HW125703   4.520   0.180   1.892 -0.0191  0.9057  0.2328
 4689SOL    HW225704   4.532   0.205   2.037  0.1855 -2.4508  0.9144
 4690SOL     OW25705   2.298   0.404  15.616  0.1568 -0.2650  0.2206
 4690SOL    HW125706   2.275   0.364  15.533 -0.8535  1.1588 -0.1897
 4690SOL    HW225707   2.391   0.426  15.611 -0.0841 -0.1196 -3.0849
 4691SOL     OW25708   0.764   1.087   7.493 -0.9188 -0.2320  0.2546
 4691SOL    HW125709   0.748   1.080   7.399 -1.3709  0.0391  0.3150
 4691SOL    HW225710   0.678   1.081   7.534 -0.3068  0.0726  1.5775
 4692SOL     OW25711   2.767   4.024   3.014  0.8008 -0.6291  0.4927
 4692SOL    HW125712   2.751   4.001   3.106  1.3844  1.8372  1.2235
 4692SOL    HW225713   2.786   4.118   3.011  0.4582 -0.5177  1.7375
 4693SOL     OW25714   3.428   1.202   7.389  0.1372  0.0224 -0.1028
 4693SOL    HW125715   3.452   1.292   7.367 -1.6609  0.2108 -1.3080
 4693SOL    HW225716   3.477   1.154   7.323 -0.3128 -1.9856  1.0281
 4694SOL     OW25717   2.118   4.053   3.425 -0.3974  0.0277 -0.3483
 4694SOL    HW125718   2.210   4.028   3.413 -0.1148  0.0559  1.6468
 4694SOL    HW225719   2.082   4.055   3.337 -1.2751  0.5207  0.0208
 4695SOL     OW25720   3.466   4.098   4.142 -0.0734  0.4520 -0.2608
 4695SOL    HW125721   3.480   4.003   4.143  0.9581  0.6099  0.2154
 4695SOL    HW225722   3.438   4.119   4.053  0.6116 -0.9261 -0.8012
 4696SOL     OW25723   4.197   1.635   3.467 -0.0297 -0.5783 -0.1598
 4696SOL    HW125724   4.148   1.704   3.512  1.0667 -0.3946  0.7558
 4696SOL    HW225725   4.183   1.574   3.540 -0.9206 -1.4414 -1.0496
 4697SOL     OW25726   4.458   0.479   1.101  0.4836  0.0892  0.5368
 4697SOL    HW125727   4.480   0.483   1.194  2.4731 -1.5630  0.1259
 4697SOL    HW225728   4.364   0.500   1.094  0.2358 -1.4541 -0.6578
 4698SOL     OW25729   0.190   4.265   3.163 -0.1192  0.0299  0.4228
 4698SOL    HW125730   0.268   4.213   3.181 -0.8136 -1.1000  0.1513
 4698SOL    HW225731   0.214   4.358   3.167  1.6354 -0.4463  0.7248
 4699SOL     OW25732   4.710   0.799   9.397  0.6328  0.7171  0.2025
 4699SOL    HW125733   0.030   0.746   9.454  0.4148  0.6637  0.3708
 4699SOL    HW225734   4.630   0.748   9.386  2.3017 -1.7748 -0.2735
 4700SOL     OW25735   2.034   3.195  10.615  0.3741 -0.1289  0.3269
 4700SOL    HW125736   2.028   3.100  10.622 -1.8024  0.0491  0.8435
 4700SOL    HW225737   1.943   3.213  10.592 -0.0120 -1.8988  0.5112
 4701SOL     OW25738   4.265   4.391   2.082 -0.1577  0.0089 -0.4223
 4701SOL    HW125739   4.234   4.309   2.121 -2.9744  1.3397  0.1213
 4701SOL    HW225740   4.339   4.420   2.135 -0.0513  0.2221 -0.6914
 4702SOL     OW25741   3.145   2.855   8.536  0.1451 -0.3786  0.0707
 4702SOL    HW125742   3.119   2.889   8.451  1.8317  0.7434  0.0003
 4702SOL    HW225743   3.120   2.762   8.532  0.6140 -0.5700  1.4665
 4703SOL     OW25744   2.159   2.561  13.923 -0.1608 -0.3052  0.1184
 4703SOL    HW125745   2.171   2.510  14.003  1.0224 -1.3657 -0.7304
 4703SOL    HW225746   2.154   2.489  13.859 -0.0350  1.1270 -1.4974
 4704SOL     OW25747   1.859   2.834   7.869 -0.3002 -0.0424  0.0086
 4704SOL    HW125748   1.839   2.740   7.871 -1.9811  0.3185  0.3041
 4704SOL    HW225749   1.774   2.877   7.874  0.1450  0.8577 -0.0837
 4705SOL     OW25750   4.319   1.575   8.827 -0.2628  0.2632 -0.1438
 4705SOL    HW125751   4.382   1.505   8.810  2.4879  2.0682  2.6640
 4705SOL    HW225752   4.299   1.593   8.736  0.9611  0.3468 -0.3914
 4706SOL     OW25753   3.667   1.379   8.574  0.3890  0.0299  0.5562
 4706SOL    HW125754   3.748   1.341   8.540 -0.0322 -0.7349  0.4005
 4706SOL    HW225755   3.633   1.299   8.613  1.2248  0.9890  3.2523
 4707SOL     OW25756   2.253   0.059  17.734 -0.6477 -0.0653  0.6846
 4707SOL    HW125757   2.168   0.053  17.690 -0.2489  1.0398 -0.2170
 4707SOL    HW225758   2.262   0.154  17.739  0.7499 -0.1540 -0.2531
 4708SOL     OW25759   4.441   4.349   0.678 -0.5829  0.1357  0.2570
 4708SOL    HW125760   4.396   4.410   0.619  2.2688  2.3081  0.2915
 4708SOL    HW225761   4.521   4.398   0.696 -0.7067  1.5893 -3.1421
 4709SOL     OW25762   3.572   3.928   1.498  0.1274 -0.2376 -0.3065
 4709SOL    HW125763   3.616   3.981   1.564 -1.0282  1.8226 -1.1945
 4709SOL    HW225764   3.585   3.980   1.418  0.2076  0.7297  0.3466
 4710SOL     OW25765   0.321   3.877  16.406 -0.3445 -0.0760 -0.1348
 4710SOL    HW125766   0.301   3.964  16.372 -0.1727 -1.2589 -3.2230
 4710SOL    HW225767   0.278   3.822  16.340  0.7782 -1.0602 -0.0606
 4711SOL     OW25768   0.742   4.568   5.318  0.1078 -0.2783  0.2023
 4711SOL    HW125769   0.809   4.511   5.357 -0.3279 -0.4189  0.7453
 4711SOL    HW225770   0.663   4.531   5.357  2.0448 -1.7542  2.7195
 4712SOL     OW25771   1.335   0.618   6.719  0.5445  0.7152  0.5678
 4712SOL    HW125772   1.297   0.570   6.793 -0.6797  2.3300  0.9968
 4712SOL    HW225773   1.257   0.659   6.682 -0.9559 -2.6685 -0.0689
 4713SOL     OW25774   3.509   2.437   0.679  0.2275  0.1090 -0.4041
 4713SOL    HW125775   3.474   2.476   0.759  1.3629 -0.0982  0.1918
 4713SOL    HW225776   3.544   2.354   0.711  1.3793  0.5135 -0.6117
 4714SOL     OW25777   2.503   1.861  14.520  0.2715  0.1302  0.3430
 4714SOL    HW125778   2.596   1.839  14.511  0.0104 -1.3597  1.3791
 4714SOL    HW225779   2.500   1.957  14.517  2.3484  0.1064 -2.6033
 4715SOL     OW25780   4.378   1.223   3.468  0.1874  0.4188  0.2461
 4715SOL    HW125781   4.326   1.276   3.529 -1.3533 -1.2377  0.3596
 4715SOL    HW225782   4.378   1.133   3.498  0.0352 -0.3727 -2.0920
 4716SOL     OW25783   1.535   1.880  12.704 -1.1417  0.1581  0.1410
 4716SOL    HW125784   1.602   1.901  12.639 -1.3586 -0.5940 -0.3331
 4716SOL    HW225785   1.598   1.833  12.760 -0.6233  1.2987  0.5057
 4717SOL     OW25786   3.506   0.446   9.274 -0.0397 -0.0423 -0.6222
 4717SOL    HW125787   3.419   0.462   9.237 -1.9402 -1.8031  3.1060
 4717SOL    HW225788   3.488   0.481   9.361  3.2249 -0.8722  0.3655
 4718SOL     OW25789   4.607   0.926   3.024 -0.1050 -0.0837 -0.1373
 4718SOL    HW125790   4.511   0.921   3.028 -0.0833  0.0658  0.5089
 4718SOL    HW225791   4.616   0.959   2.935  0.0493 -1.6347 -0.6853
 4719SOL     OW25792   0.544   1.972   4.813 -0.6343 -0.0788  0.6020
 4719SOL    HW125793   0.526   2.045   4.872  1.7001  0.4369  0.6663
 4719SOL    HW225794   0.598   1.913   4.866  0.7160  0.3567 -0.2958
 4720SOL     OW25795   1.878   4.643   9.130  0.2294 -0.2247 -0.1028
 4720SOL    HW125796   1.805   4.585   9.106  1.5459 -1.9642  0.0353
 4720SOL    HW225797   1.879   4.633   9.225 -0.8332 -0.1993 -0.0878
 4721SOL     OW25798   0.619   3.085   4.722 -0.0956  0.0968 -0.2253
 4721SOL    HW125799   0.578   3.104   4.807  3.1496  1.1776  1.0761
 4721SOL    HW225800   0.623   2.990   4.726  0.3402  0.0578 -1.9852
 4722SOL     OW25801   4.704   2.822  17.582  0.2126 -0.1205 -0.4164
 4722SOL    HW125802   0.012   2.786  17.659  0.2785 -1.0179 -0.8734
 4722SOL    HW225803   4.646   2.752  17.552 -1.6323  0.9594  0.6425
 4723SOL     OW25804   2.441   3.760   7.023 -0.0549 -0.1495  0.0102
 4723SOL    HW125805   2.362   3.711   7.001 -0.7685  0.6155  0.8606
 4723SOL    HW225806   2.511   3.715   6.976 -0.1386 -1.5597  1.2092
 4724SOL     OW25807   4.694   1.876  15.756  0.3188 -0.6482 -0.0275
 4724SOL    HW125808   4.707   1.970  15.768 -0.9929 -0.4179 -0.4473
 4724SOL    HW225809   0.021   1.849  15.689  2.1315 -1.2361  1.9013
 4725SOL     OW25810   0.531   1.293  15.472 -0.4493  0.0654  0.2377
 4725SOL    HW125811   0.477   1.219  15.443 -1.9359  0.7185  1.3055
 4725SOL    HW225812   0.511   1.303  15.565  1.5208 -1.7022  0.8645
 4726SOL     OW25813   3.000   1.050   1.115  0.1696  0.0727 -0.4024
 4726SOL    HW125814   2.923   1.003   1.083  0.0517  0.4608 -0.6882
 4726SOL    HW225815   2.955   1.097   1.186 -0.3034 -2.5211  1.0159
 4727SOL     OW25816   1.273   3.510   6.006  0.2358 -0.0798  0.6976
 4727SOL    HW125817   1.313   3.596   5.992  2.0429 -1.1397 -0.4832
 4727SOL    HW225818   1.302   3.479   6.091 -0.4186 -1.3527  0.4527
 4728SOL     OW25819   1.795   0.608   3.911  0.2116  0.4308  0.4791
 4728SOL    HW125820   1.873   0.577   3.864 -0.0969  2.0435 -1.0833
 4728SOL    HW225821   1.826   0.682   3.963  0.4696 -0.4241  1.5533
 4729SOL     OW25822   2.019   0.416   9.261  0.1530 -0.1793 -0.2835
 4729SOL    HW125823   1.980   0.498   9.232  0.3399 -0.6687 -1.9553
 4729SOL    HW225824   2.014   0.364   9.181 -0.5583 -1.6325  0.6939
 4730SOL     OW25825   3.350   2.380  15.668 -0.6173  0.3664 -0.0682
 4730SOL    HW125826   3.318   2.301  15.625  1.1148 -0.8393  0.8777
 4730SOL    HW225827   3.350   2.446  15.599  2.1912 -0.2458 -0.6264
 4731SOL     OW25828   4.197   1.479   2.240  0.6563  0.4905  0.5845
 4731SOL    HW125829   4.162   1.505   2.325  1.2065  0.1132  0.9265
 4731SOL    HW225830   4.131   1.417   2.209  1.1816  0.8980 -1.3475
 4732SOL     OW25831   2.010   1.149   3.711  0.2215 -0.0316  0.8256
 4732SOL    HW125832   1.946   1.187   3.771 -0.3939  1.1849 -0.6155
 4732SOL    HW225833   1.965   1.064   3.707  2.1442 -0.8416 -3.5574
 4733SOL     OW25834   3.369   0.471   8.160 -0.1924  0.3367  0.1954
 4733SOL    HW125835   3.393   0.499   8.071 -0.1334 -2.0150 -0.5320
 4733SOL    HW225836   3.311   0.541   8.191  1.7194  2.0454 -0.0827
 4734SOL     OW25837   3.091   3.281   0.659 -0.2787 -0.4927  0.0675
 4734SOL    HW125838   3.044   3.361   0.682 -0.4519 -0.4421 -0.4688
 4734SOL    HW225839   3.149   3.305   0.587  1.0884 -1.3243  0.8747
 4735SOL     OW25840   3.045   3.507  14.423 -0.1592  0.1139  0.2874
 4735SOL    HW125841   2.992   3.517  14.344  0.2586 -2.3055 -0.2820
 4735SOL    HW225842   3.020   3.592  14.461  0.7948 -0.2270  1.6871
 4736SOL     OW25843   1.789   3.145  10.086  0.3142 -0.0047 -0.0400
 4736SOL    HW125844   1.733   3.160  10.009  0.2782 -1.3120 -0.2687
 4736SOL    HW225845   1.871   3.124  10.042 -1.2695 -1.5779 -2.2719
 4737SOL     OW25846   3.403   2.152   8.254  0.1671 -0.0640  0.0679
 4737SOL    HW125847   3.332   2.139   8.316 -0.0520 -0.9787 -0.3731
 4737SOL    HW225848   3.485   2.140   8.302 -1.0774  0.3889  2.2796
 4738SOL     OW25849   3.041   3.280   7.268 -0.2475  0.1013  0.0123
 4738SOL    HW125850   2.979   3.231   7.322 -2.0828  0.8133 -1.4619
 4738SOL    HW225851   3.063   3.200   7.220 -0.5166  2.6886 -4.3810
 4739SOL     OW25852   1.602   2.669   0.523  0.0645  0.3693 -0.4339
 4739SOL    HW125853   1.644   2.738   0.471  0.7458 -1.0141 -1.7145
 4739SOL    HW225854   1.514   2.694   0.494  0.0666 -0.2823 -1.0106
 4740SOL     OW25855   1.032   3.996   7.542 -0.2685  0.3429  0.0294
 4740SOL    HW125856   1.076   3.936   7.481  0.9157  1.5439 -0.2925
 4740SOL    HW225857   0.997   4.057   7.477  1.0900  0.5543 -0.5140
 4741SOL     OW25858   4.580   1.746   4.804  0.0294 -0.4928 -0.1817
 4741SOL    HW125859   4.665   1.719   4.837  1.3292  0.4975 -2.6961
 4741SOL    HW225860   4.569   1.674   4.741  1.5108  0.0631 -1.0873
 4742SOL     OW25861   3.428   3.787   7.156  0.0818 -0.6970 -0.2745
 4742SOL    HW125862   3.357   3.761   7.097  0.1947  1.5063 -1.3800
 4742SOL    HW225863   3.498   3.780   7.092 -0.8929 -0.6364 -1.3590
 4743SOL     OW25864   2.171   2.767   3.126 -0.2293  0.2448  0.0724
 4743SOL    HW125865   2.195   2.689   3.176  3.3001  2.4199  1.7791
 4743SOL    HW225866   2.111   2.814   3.185 -0.1692 -1.1067  1.2151
 4744SOL     OW25867   2.865   1.703   4.838 -0.6680  0.0811 -0.4130
 4744SOL    HW125868   2.854   1.691   4.744  0.6100 -0.7532 -0.4568
 4744SOL    HW225869   2.782   1.673   4.876 -1.3279  2.1991 -0.1924
 4745SOL     OW25870   2.207   1.013   5.402  0.9969  0.0874  0.2129
 4745SOL    HW125871   2.249   0.931   5.429  1.4437  0.7527  1.5240
 4745SOL    HW225872   2.141   1.027   5.470 -0.6097  1.6842 -1.6929
 4746SOL     OW25873   0.148   1.439   6.231 -0.3497  0.2161  0.4485
 4746SOL    HW125874   0.197   1.459   6.152 -1.5338 -1.4281 -0.7090
 4746SOL    HW225875   0.139   1.343   6.227 -0.4115  0.3281 -2.2570
 4747SOL     OW25876   1.702   3.657   1.126  0.1597 -0.1228  0.9510
 4747SOL    HW125877   1.758   3.646   1.204 -0.2516  3.9905  1.8014
 4747SOL    HW225878   1.713   3.750   1.108  1.1148 -0.6178 -1.0291
 4748SOL     OW25879   4.033   1.265   3.262  0.0021 -0.3944 -0.6009
 4748SOL    HW125880   4.062   1.221   3.342 -0.0335 -1.2177 -1.0360
 4748SOL    HW225881   3.949   1.304   3.287  0.9870  1.3077 -0.0294
 4749SOL     OW25882   3.514   0.154   6.717 -0.1565  0.3585  0.2815
 4749SOL    HW125883   3.557   0.152   6.802  1.8285  0.4335 -0.7080
 4749SOL    HW225884   3.553   0.235   6.684 -0.3521 -0.3310 -1.6785
 4750SOL     OW25885   0.242   1.821   0.677 -0.3516  0.2699  0.0954
 4750SOL    HW125886   0.198   1.750   0.630 -0.4204 -0.8687  1.9157
 4750SOL    HW225887   0.255   1.774   0.759 -0.3582 -0.4804 -0.3349
 4751SOL     OW25888   3.598   2.114   0.281  0.1631  0.3220  0.4749
 4751SOL    HW125889   3.598   2.021   0.258  0.6699  0.9339 -1.9766
 4751SOL    HW225890   3.532   2.139   0.216  1.5930 -0.4976 -1.2926
 4752SOL     OW25891   0.960   3.166   9.919  0.0604 -0.5061  0.5396
 4752SOL    HW125892   1.053   3.168   9.940  0.8418  0.4845 -2.9892
 4752SOL    HW225893   0.940   3.072   9.924 -3.2307  0.1429 -0.2207
 4753SOL     OW25894   0.900   0.994   3.290 -0.0594 -0.0827 -0.4025
 4753SOL    HW125895   0.990   1.016   3.316  0.2107  0.0758 -1.4818
 4753SOL    HW225896   0.864   1.071   3.247  1.2731  1.6442  1.5623
 4754SOL     OW25897   1.414   4.691   3.789  0.0887  0.2775  0.6209
 4754SOL    HW125898   1.379   4.626   3.729 -1.7698  1.2746  0.6247
 4754SOL    HW225899   1.496   4.646   3.809  0.8435  0.3723 -2.2816
 4755SOL     OW25900   4.720   4.555   6.913  0.5982  0.2956 -0.0203
 4755SOL    HW125901   4.723   4.477   6.969 -0.8045 -0.9116 -1.6466
 4755SOL    HW225902   0.022   4.617   6.975 -1.6467  1.0684  0.5523
 4756SOL     OW25903   2.099   3.975   2.551  0.4830  0.7026  0.3877
 4756SOL    HW125904   2.145   4.011   2.627 -0.3947  1.6901  0.4612
 4756SOL    HW225905   2.025   4.036   2.550 -0.3812 -0.3589 -0.5221
 4757SOL     OW25906   0.432   2.692  13.055 -0.6594  0.3223 -0.2730
 4757SOL    HW125907   0.369   2.747  13.103  1.4192  2.3334  0.1569
 4757SOL    HW225908   0.481   2.770  13.027  0.1732 -0.3711 -0.7495
 4758SOL     OW25909   1.655   4.076   4.254  0.6878 -0.5682  0.1586
 4758SOL    HW125910   1.581   4.055   4.198 -0.1821  2.1237  0.2781
 4758SOL    HW225911   1.618   4.134   4.321  2.2826  0.8607 -0.1888
 4759SOL     OW25912   1.158   1.634   8.322  0.3131 -0.3296  0.5578
 4759SOL    HW125913   1.125   1.579   8.251  1.2744 -1.0735  0.6925
 4759SOL    HW225914   1.155   1.569   8.392 -1.7448  0.7456  1.4694
 4760SOL     OW25915   2.067   0.035  16.563 -0.3091  0.5901  0.1101
 4760SOL    HW125916   2.143   0.086  16.535  0.3302  0.7702  2.2286
 4760SOL    HW225917   2.045   4.719  16.485 -0.0684  0.4213  0.1555
 4761SOL     OW25918   3.555   0.511  12.690 -0.2797  0.2594 -0.2226
 4761SOL    HW125919   3.507   0.485  12.611 -1.1035  1.5817 -0.1652
 4761SOL    HW225920   3.567   0.604  12.673 -5.5839  1.1232  0.8108
 4762SOL     OW25921   2.925   0.426   5.715  0.2470 -0.2417 -0.5211
 4762SOL    HW125922   3.015   0.426   5.682 -0.1170  0.4670 -1.5418
 4762SOL    HW225923   2.906   0.335   5.739 -0.6443  0.2367  0.5368
 4763SOL     OW25924   3.358   4.300   7.643  0.3981  0.2137  0.0629
 4763SOL    HW125925   3.325   4.281   7.555 -1.4059  0.8815  0.5938
 4763SOL    HW225926   3.446   4.317   7.609 -0.2446 -1.6190 -2.5210
 4764SOL     OW25927   2.671   3.175   5.308  0.6513 -0.4493  0.0319
 4764SOL    HW125928   2.610   3.153   5.239 -0.1262 -1.6720  1.1031
 4764SOL    HW225929   2.700   3.092   5.347  0.8679 -0.4540 -0.1391
 4765SOL     OW25930   4.472   1.485   2.985 -0.0621 -0.1971 -0.6757
 4765SOL    HW125931   4.444   1.575   2.968 -0.4658  0.3643  2.9532
 4765SOL    HW225932   4.380   1.458   2.984 -0.4106  0.9323  0.6340
 4766SOL     OW25933   3.267   3.619   2.598 -0.4081  0.1769  0.4235
 4766SOL    HW125934   3.225   3.585   2.519  0.2552  0.1136  0.0964
 4766SOL    HW225935   3.188   3.640   2.649  0.4639  1.0212  1.4188
 4767SOL     OW25936   4.300   2.841  12.994 -0.6654 -0.0084  0.3625
 4767SOL    HW125937   4.379   2.805  13.034  0.9232  1.9482 -0.9554
 4767SOL    HW225938   4.317   2.808  12.906 -1.3752 -1.6927  0.8639
 4768SOL     OW25939   0.065   0.368   5.685  0.3884 -0.4458 -0.3482
 4768SOL    HW125940   0.130   0.347   5.752  2.1707  1.1792 -1.5844
 4768SOL    HW225941   4.716   0.370   5.728  0.7787 -2.3147  0.5545
 4769SOL     OW25942   2.963   3.863  12.837 -0.1428 -0.3697  0.1391
 4769SOL    HW125943   2.928   3.782  12.876 -0.1790 -0.4494 -0.0592
 4769SOL    HW225944   3.001   3.899  12.918  1.4917 -1.4619 -0.1349
 4770SOL     OW25945   0.074   0.439   5.434 -0.3544 -0.6514  0.2322
 4770SOL    HW125946   0.069   0.412   5.526  0.1565 -1.3866  0.0424
 4770SOL    HW225947   4.732   0.494   5.437 -1.7538 -2.8029  2.7104
 4771SOL     OW25948   2.787   4.583   0.705  0.4451 -0.2407  0.3909
 4771SOL    HW125949   2.856   4.633   0.662  2.1433 -0.7607  2.5078
 4771SOL    HW225950   2.748   4.637   0.774 -0.5152  0.6279 -0.8260
 4772SOL     OW25951   0.412   0.325  15.312  0.1706 -0.1427 -0.2432
 4772SOL    HW125952   0.395   0.377  15.391  1.0556 -1.6825  0.9519
 4772SOL    HW225953   0.494   0.284  15.339  0.7037 -1.2148 -3.4695
 4773SOL     OW25954   4.564   1.846   5.806 -0.6003  0.0835 -0.8483
 4773SOL    HW125955   4.647   1.799   5.801 -0.8504 -0.3161 -1.2344
 4773SOL    HW225956   4.559   1.858   5.901 -1.7868  1.3012 -1.0659
 4774SOL     OW25957   2.656   0.490   6.410 -0.1062  0.3031  0.1862
 4774SOL    HW125958   2.636   0.581   6.429  2.7017  1.2990 -1.7994
 4774SOL    HW225959   2.722   0.504   6.343  0.8981  1.7498  1.4995
 4775SOL     OW25960   3.601   1.120   8.655 -0.0202 -0.3816  0.4898
 4775SOL    HW125961   3.568   1.069   8.581 -0.3615  0.8383 -0.1991
 4775SOL    HW225962   3.691   1.089   8.648  0.2338  0.4296  0.0496
 4776SOL     OW25963   2.303   2.305   2.280 -0.2044  0.0763 -0.5917
 4776SOL    HW125964   2.322   2.361   2.355 -0.9455 -1.1571  0.5045
 4776SOL    HW225965   2.391   2.268   2.273  0.6479  2.4130 -2.1805
 4777SOL     OW25966   3.868   0.848   7.677  0.1320  0.5569 -0.5535
 4777SOL    HW125967   3.849   0.800   7.757  0.7966 -1.2713 -1.4996
 4777SOL    HW225968   3.806   0.801   7.622 -0.3571 -0.3892  0.7976
 4778SOL     OW25969   3.947   0.946   5.797  0.5419 -0.5863  0.3052
 4778SOL    HW125970   3.928   1.028   5.751 -3.2984 -1.9419 -0.5492
 4778SOL    HW225971   4.009   0.960   5.868  1.4272  2.7962 -1.1327
 4779SOL     OW25972   1.825   2.989   9.640 -0.6031  0.3187  0.5979
 4779SOL    HW125973   1.842   2.921   9.706  0.5368 -0.0527 -0.0811
 4779SOL    HW225974   1.778   3.054   9.692  1.6452  3.2141 -0.9912
 4780SOL     OW25975   1.435   4.029   4.096 -0.3555  0.2463  0.2992
 4780SOL    HW125976   1.347   4.015   4.059 -0.5318  1.0406  0.4181
 4780SOL    HW225977   1.466   4.104   4.046 -1.0086 -0.2740 -0.8821
 4781SOL     OW25978   1.020   1.169   6.396 -0.5246 -0.0312 -0.0792
 4781SOL    HW125979   0.952   1.107   6.370  0.3244  0.1978 -2.8349
 4781SOL    HW225980   1.095   1.120   6.362  0.4423  0.9046  0.7269
 4782SOL     OW25981   0.788   3.361   4.329 -0.2642 -0.0788 -0.2913
 4782SOL    HW125982   0.752   3.295   4.390  0.5879 -2.6220 -2.5526
 4782SOL    HW225983   0.705   3.386   4.288 -0.6933 -0.8523  0.0937
 4783SOL     OW25984   1.607   1.523   2.726  0.9486 -1.3774  0.3202
 4783SOL    HW125985   1.619   1.617   2.734  0.0479 -1.1890 -0.5047
 4783SOL    HW225986   1.687   1.501   2.679  0.8184 -1.3854  0.1046
 4784SOL     OW25987   1.362   4.433   6.726 -0.3279 -0.0967 -0.3041
 4784SOL    HW125988   1.435   4.495   6.735  0.4310 -0.8961 -0.9699
 4784SOL    HW225989   1.410   4.350   6.722 -0.5399 -0.2719  0.8231
 4785SOL     OW25990   1.469   4.476   9.257 -0.5390  0.3595  0.0512
 4785SOL    HW125991   1.546   4.432   9.221  0.5497  1.1965  1.3324
 4785SOL    HW225992   1.484   4.569   9.238 -2.3382  0.5475 -0.3680
 4786SOL     OW25993   0.093   3.817  10.816  0.2172  0.2636 -0.1443
 4786SOL    HW125994   0.137   3.741  10.856 -1.3087 -0.5206  0.0484
 4786SOL    HW225995   0.151   3.889  10.840 -0.2718  0.7581 -0.4750
 4787SOL     OW25996   3.305   4.680   1.975 -0.7453  0.0345 -0.0188
 4787SOL    HW125997   3.239   4.611   1.968  0.6402 -1.0875 -1.9247
 4787SOL    HW225998   3.263   0.018   1.931  1.8551  1.7526  0.3764
 4788SOL     OW25999   1.081   3.048   6.997  0.3396  0.0704 -0.3446
 4788SOL    HW126000   1.011   3.041   6.932 -1.1181  1.6004  1.0750
 4788SOL    HW226001   1.022   3.030   7.070  0.2151  0.2335 -0.4054
 4789SOL     OW26002   3.324   1.018   8.280 -0.4347  0.4028  0.2523
 4789SOL    HW126003   3.313   0.994   8.188  0.6548  0.7075  0.0348
 4789SOL    HW226004   3.263   0.959   8.323 -0.1933 -0.2567 -0.3100
 4790SOL     OW26005   4.423   3.937   1.441 -0.3282 -0.0049  0.2696
 4790SOL    HW126006   4.347   3.994   1.429  0.7149  0.9753 -1.6591
 4790SOL    HW226007   4.396   3.876   1.509 -0.0078 -1.4592 -0.8947
 4791SOL     OW26008   2.708   1.386   4.664 -0.9862 -0.1812 -0.4425
 4791SOL    HW126009   2.660   1.354   4.741  0.3513 -0.0743  0.4433
 4791SOL    HW226010   2.697   1.481   4.669 -0.7253 -0.1952  0.4653
 4792SOL     OW26011   0.815   3.435   7.040  0.2320 -0.8155  0.0795
 4792SOL    HW126012   0.838   3.345   7.019  0.8744 -0.9480  1.3477
 4792SOL    HW226013   0.737   3.417   7.092 -0.3974  0.7856 -0.3008
 4793SOL     OW26014   0.207   3.649   3.646 -0.2303  0.0552  0.3906
 4793SOL    HW126015   0.280   3.630   3.704  0.9682  1.8365 -0.5147
 4793SOL    HW226016   0.140   3.663   3.712 -0.4707 -0.0859  0.1791
 4794SOL     OW26017   2.270   3.786   2.142 -0.0506  0.0735  0.2509
 4794SOL    HW126018   2.310   3.702   2.117  0.0786 -0.1039  1.0754
 4794SOL    HW226019   2.178   3.763   2.156 -0.3419  1.8863  1.2204
 4795SOL     OW26020   3.107   2.557  12.956 -0.0375 -0.0319  0.0497
 4795SOL    HW126021   3.088   2.488  13.020 -0.6064 -0.1860 -0.2859
 4795SOL    HW226022   3.118   2.497  12.882 -0.6692  0.8669 -0.7716
 4796SOL     OW26023   2.207   2.674   4.162  0.0468  0.1651 -0.1289
 4796SOL    HW126024   2.263   2.693   4.087  1.8487 -0.6334  0.9943
 4796SOL    HW226025   2.134   2.625   4.124  1.4177 -1.6339 -0.4629
 4797SOL     OW26026   1.215   4.451   5.851  0.4068 -0.3295  0.1048
 4797SOL    HW126027   1.155   4.476   5.781  0.6991 -1.7985 -0.6859
 4797SOL    HW226028   1.230   4.359   5.831 -1.4679 -0.9180  1.4907
 4798SOL     OW26029   0.250   2.984   4.468 -0.0652 -0.9403 -0.2555
 4798SOL    HW126030   0.313   3.055   4.480 -0.0747 -1.0471  0.4159
 4798SOL    HW226031   0.231   2.941   4.552  0.5040 -0.6486  0.0245
 4799SOL     OW26032   1.331   3.634  16.767 -0.0282 -0.1718 -0.3143
 4799SOL    HW126033   1.389   3.671  16.701 -1.0980 -0.0913 -1.2150
 4799SOL    HW226034   1.338   3.709  16.825  0.5279  0.2756 -0.9610
 4800SOL     OW26035   3.575   1.887  15.053 -0.2370  0.3491  0.1876
 4800SOL    HW126036   3.516   1.822  15.091 -1.3982  2.3576  1.8938
 4800SOL    HW226037   3.614   1.920  15.135 -0.1479 -0.0282  0.2943
 4801SOL     OW26038   3.189   4.681   3.236  0.8068  0.8932  0.6808
 4801SOL    HW126039   3.232   4.616   3.292 -0.6124  1.1392  2.0637
 4801SOL    HW226040   3.240   0.023   3.255  1.5372  0.1730  1.7052
 4802SOL     OW26041   0.034   2.765  15.044 -0.1212  0.5278  0.6277
 4802SOL    HW126042   0.045   2.748  14.950 -1.1079  0.6462  0.4892
 4802SOL    HW226043   0.118   2.806  15.065 -0.4092  1.3185  0.2564
 4803SOL     OW26044   1.003   2.070  10.199  0.2545 -0.7028  0.0388
 4803SOL    HW126045   0.987   2.116  10.282  1.8194  1.8386 -1.0855
 4803SOL    HW226046   0.929   2.010  10.206  0.2472 -0.6570  0.3657
 4804SOL     OW26047   2.831   3.169   6.860  0.0053  0.0737 -0.1900
 4804SOL    HW126048   2.766   3.119   6.909 -0.2076 -0.3904 -0.9545
 4804SOL    HW226049   2.910   3.156   6.913  0.1314 -2.0179 -0.8688
 4805SOL     OW26050   3.691   2.809   2.935  0.2730 -0.0896 -0.0978
 4805SOL    HW126051   3.664   2.718   2.942  0.5481 -0.0404  1.7812
 4805SOL    HW226052   3.659   2.837   3.021  2.9801  0.0702  0.8634
 4806SOL     OW26053   0.968   3.049   4.663 -1.0080 -0.4799 -0.6104
 4806SOL    HW126054   0.934   2.977   4.716 -0.2304 -0.0845  0.4143
 4806SOL    HW226055   1.060   3.025   4.653 -1.2418 -0.9595 -1.7154
 4807SOL     OW26056   2.823   3.083   6.571  0.5763 -0.6702  0.5164
 4807SOL    HW126057   2.746   3.046   6.528 -0.5258 -0.0140  1.9155
 4807SOL    HW226058   2.793   3.069   6.661 -0.1347  0.2016  0.4158
 4808SOL     OW26059   4.528   2.262   1.444  0.2439  0.2699 -0.1979
 4808SOL    HW126060   4.543   2.349   1.406 -0.9467  0.8416  0.6151
 4808SOL    HW226061   4.538   2.274   1.538 -1.2757  0.2621 -0.0391
 4809SOL     OW26062   0.524   4.194   4.405 -0.0412  0.2953  0.5100
 4809SOL    HW126063   0.597   4.233   4.453 -1.2015  2.1205  0.7952
 4809SOL    HW226064   0.456   4.198   4.473 -2.5422 -1.2207 -1.8649
 4810SOL     OW26065   1.791   2.070   6.888  0.0415 -0.2920  0.1072
 4810SOL    HW126066   1.695   2.080   6.890  0.1447  0.5659  0.7173
 4810SOL    HW226067   1.794   1.975   6.880 -0.0449 -0.5790  3.5991
 4811SOL     OW26068   4.638   3.101  17.441 -0.2164  0.2081  0.1170
 4811SOL    HW126069   4.659   3.011  17.465  0.9262  0.7910  1.3369
 4811SOL    HW226070   4.601   3.130  17.524 -0.9764 -0.5025  0.0260
 4812SOL     OW26071   0.086   3.436   2.434  0.3594 -0.1304 -0.0998
 4812SOL    HW126072   0.124   3.502   2.376  0.3789 -0.7149 -0.7513
 4812SOL    HW226073   0.138   3.439   2.514 -0.0970  1.7101  0.1305
 4813SOL     OW26074   4.505   1.393   5.237  0.2535  0.2927  0.3372
 4813SOL    HW126075   4.513   1.374   5.331 -0.9556 -1.5799  0.0693
 4813SOL    HW226076   4.590   1.432   5.217  1.2592 -1.6939  0.7378
 4814SOL     OW26077   2.068   3.668   1.271  0.1601 -0.3380  0.2133
 4814SOL    HW126078   2.142   3.727   1.282 -0.6485  0.6921  0.1817
 4814SOL    HW226079   2.064   3.693   1.179  2.6296  0.2592  0.2754
 4815SOL     OW26080   2.697   3.085   8.430  0.1726 -1.3352  0.1258
 4815SOL    HW126081   2.762   3.085   8.360 -1.1434 -1.6946 -1.0991
 4815SOL    HW226082   2.614   3.107   8.388  0.4572  1.8373  1.1968
 4816SOL     OW26083   4.363   3.446   3.257 -0.2374  0.3512  0.0154
 4816SOL    HW126084   4.436   3.425   3.198 -1.9242 -1.0527 -1.6044
 4816SOL    HW226085   4.363   3.541   3.257 -3.0164  0.3585 -0.4325
 4817SOL     OW26086   4.486   3.200  16.294 -0.4234  0.2246 -0.5487
 4817SOL    HW126087   4.458   3.212  16.203 -0.0201  0.6756 -0.6142
 4817SOL    HW226088   4.458   3.111  16.314  0.4811  0.0089 -0.2373
 4818SOL     OW26089   0.448   0.448  15.552 -0.2680 -0.4791 -0.7808
 4818SOL    HW126090   0.500   0.376  15.586 -0.8244  0.1328  1.3676
 4818SOL    HW226091   0.507   0.524  15.545 -0.0100 -0.5211  0.8528
 4819SOL     OW26092   4.477   1.539  17.178 -0.3116 -0.7899  0.5290
 4819SOL    HW126093   4.497   1.599  17.249  1.3080 -1.7291  0.8726
 4819SOL    HW226094   4.544   1.473  17.197  0.2505  0.0782  1.5972
 4820SOL     OW26095   1.224   1.422   6.933 -0.1784 -0.1721 -0.0562
 4820SOL    HW126096   1.140   1.402   6.894 -0.4175  1.7027 -0.5372
 4820SOL    HW226097   1.238   1.346   6.989 -0.6795  0.3972  0.8478
 4821SOL     OW26098   3.591   0.377   2.754 -0.2793 -0.1408  0.5649
 4821SOL    HW126099   3.546   0.395   2.836 -0.1193 -1.0688  0.8561
 4821SOL    HW226100   3.597   0.467   2.720  1.6138 -1.5098 -2.7750
 4822SOL     OW26101   3.674   3.403   5.883  0.1939 -0.1611  0.5192
 4822SOL    HW126102   3.627   3.320   5.874 -2.9467  1.6973 -0.1885
 4822SOL    HW226103   3.761   3.367   5.870  0.3564  0.7915 -1.1355
 4823SOL     OW26104   1.699   4.353   1.444  0.2736  0.7793  0.2701
 4823SOL    HW126105   1.625   4.293   1.456  0.1998  0.7268 -0.4587
 4823SOL    HW226106   1.769   4.300   1.483 -0.6562  0.9709  2.2058
 4824SOL     OW26107   3.279   3.896  11.044 -0.4159  0.1609  0.8528
 4824SOL    HW126108   3.196   3.854  11.070  0.7033 -1.1935  2.2674
 4824SOL    HW226109   3.340   3.829  11.074 -1.0712 -0.7438  0.1925
 4825SOL     OW26110   1.628   0.412   7.826 -0.1359 -0.5723 -0.0785
 4825SOL    HW126111   1.577   0.331   7.823  1.2220 -1.3648 -1.6062
 4825SOL    HW226112   1.566   0.483   7.841  2.2268  1.0931  1.8766
 4826SOL     OW26113   4.222   4.142   2.177  0.0866  0.2607  0.4991
 4826SOL    HW126114   4.139   4.102   2.202  0.4754 -1.4115 -0.8433
 4826SOL    HW226115   4.255   4.068   2.125  0.0074  0.1413  0.6205
 4827SOL     OW26116   3.856   1.261   9.032 -0.0230 -0.4716  0.0785
 4827SOL    HW126117   3.784   1.285   9.091 -1.2943  1.9711 -2.4420
 4827SOL    HW226118   3.857   1.167   9.047  0.3365 -0.3212  0.9838
 4828SOL     OW26119   4.234   1.070  11.287 -0.2250  0.2658  0.0096
 4828SOL    HW126120   4.166   1.087  11.352  2.2252  2.1152  2.1110
 4828SOL    HW226121   4.294   1.022  11.345  2.5795 -0.7974 -3.7609
 4829SOL     OW26122   0.593   1.173   0.420  0.3478  0.0242  0.1938
 4829SOL    HW126123   0.613   1.262   0.390  1.3679 -0.2735  0.0207
 4829SOL    HW226124   0.509   1.153   0.377 -1.0229  0.7138  2.5474
 4830SOL     OW26125   0.376   1.237  10.292  0.3370  0.2350  0.2060
 4830SOL    HW126126   0.315   1.307  10.274  1.0358  0.9512  0.6149
 4830SOL    HW226127   0.372   1.186  10.211 -1.1700 -1.9825  1.6923
 4831SOL     OW26128   4.628   3.100   1.293 -0.0877 -0.1821 -0.2521
 4831SOL    HW126129   4.569   3.164   1.253 -1.8195 -0.1011  2.3786
 4831SOL    HW226130   4.566   3.063   1.356 -0.6702  0.0131 -0.7180
 4832SOL     OW26131   3.649   4.085   6.629  0.7531  0.2571 -0.5697
 4832SOL    HW126132   3.684   4.059   6.714  1.2927 -0.3478 -0.9771
 4832SOL    HW226133   3.729   4.123   6.593  1.6759 -1.3797 -0.2386
 4833SOL     OW26134   1.639   2.849   5.762  0.2030  0.2829 -0.1819
 4833SOL    HW126135   1.713   2.901   5.795 -0.8918  1.8633 -0.2259
 4833SOL    HW226136   1.569   2.913   5.773 -1.9214 -2.1045  0.1102
 4834SOL     OW26137   2.092   1.658   3.876 -0.1222 -0.0463 -0.3055
 4834SOL    HW126138   2.028   1.723   3.845  0.1643  0.0969 -0.5928
 4834SOL    HW226139   2.055   1.570   3.881  1.4707 -0.5089  2.9675
 4835SOL     OW26140   3.805   4.563   8.970 -0.1568  0.3733 -0.7996
 4835SOL    HW126141   3.782   4.625   9.039 -0.9228  0.6551 -1.3045
 4835SOL    HW226142   3.872   4.612   8.922  1.2786 -1.4545 -0.6663
 4836SOL     OW26143   0.192   3.234  12.428  0.0627  0.1952 -0.0685
 4836SOL    HW126144   0.253   3.229  12.502  0.0273 -2.8938 -0.2597
 4836SOL    HW226145   0.242   3.208  12.350  0.8972  0.9574  0.2118
 4837SOL     OW26146   1.984   1.230  16.981  0.0343 -0.3736  0.0885
 4837SOL    HW126147   1.986   1.193  17.069  1.1838  0.1339  0.2729
 4837SOL    HW226148   2.042   1.305  16.992  1.6080 -1.4813 -0.7744
 4838SOL     OW26149   2.102   0.677   2.708 -0.0493 -0.1111  0.1746
 4838SOL    HW126150   2.050   0.608   2.667  0.0173 -1.1323  1.7860
 4838SOL    HW226151   2.087   0.753   2.652 -0.7105  0.9156  1.7337
 4839SOL     OW26152   1.400   0.275   9.778  0.2818  0.5759  0.4875
 4839SOL    HW126153   1.429   0.219   9.850  2.0555 -0.3460 -0.9285
 4839SOL    HW226154   1.317   0.309   9.812 -0.5567  1.3795 -2.3279
 4840SOL     OW26155   1.785   3.536   4.090 -0.6276  0.0438  0.4559
 4840SOL    HW126156   1.826   3.618   4.120 -0.4491  0.7083 -1.6064
 4840SOL    HW226157   1.748   3.566   4.007  1.4415 -0.8209 -0.7771
 4841SOL     OW26158   0.209   1.145   1.593  0.7249 -0.1518 -0.0463
 4841SOL    HW126159   0.133   1.111   1.641  1.2275 -0.8122  0.2874
 4841SOL    HW226160   0.175   1.192   1.516 -1.0566 -1.2857  0.0408
 4842SOL     OW26161   4.619   1.722   5.475 -0.1221  0.3182 -0.3688
 4842SOL    HW126162   4.670   1.645   5.449 -0.6262 -0.0207 -0.3485
 4842SOL    HW226163   4.639   1.717   5.569 -0.8969  1.0351 -0.1774
 4843SOL     OW26164   3.849   0.695   5.802 -0.0806  0.2801 -0.6220
 4843SOL    HW126165   3.902   0.653   5.734  0.9391 -0.3035  0.5221
 4843SOL    HW226166   3.891   0.780   5.807  0.0941  0.1170  0.8119
 4844SOL     OW26167   0.093   4.031   2.624  0.5987 -0.5492  0.2681
 4844SOL    HW126168   0.100   3.940   2.652  0.3170 -0.7272 -0.2423
 4844SOL    HW226169   0.134   4.077   2.697 -0.8939 -0.0702  0.7948
 4845SOL     OW26170   1.556   3.172   8.338  0.0611  0.5461 -0.2952
 4845SOL    HW126171   1.601   3.137   8.262 -2.2289 -1.9173 -0.5205
 4845SOL    HW226172   1.465   3.158   8.312  0.0137 -0.9646  0.7073
 4846SOL     OW26173   4.081   1.311   2.048  0.0776 -0.6798  0.2035
 4846SOL    HW126174   4.093   1.379   1.982  0.7619 -1.5197 -0.5419
 4846SOL    HW226175   4.161   1.264   2.023  1.7261  0.9183  2.5197
 4847SOL     OW26176   0.824   4.728  15.598  0.0689  0.6251 -0.0294
 4847SOL    HW126177   0.894   0.044  15.637 -1.1238  0.5890  2.1407
 4847SOL    HW226178   0.845   0.020  15.509 -1.8952  0.0768 -0.6680
 4848SOL     OW26179   0.527   0.795   0.557 -0.5095 -0.1401  0.2982
 4848SOL    HW126180   0.603   0.737   0.565 -0.8915 -0.6457  0.2515
 4848SOL    HW226181   0.470   0.747   0.498  1.4294  0.0304 -1.7103
 4849SOL     OW26182   1.579   1.356   3.876 -0.1652  0.6478  0.1542
 4849SOL    HW126183   1.596   1.430   3.817  0.8981  0.5518  0.3529
 4849SOL    HW226184   1.502   1.328   3.826  1.2519 -1.1414 -0.9994
 4850SOL     OW26185   3.799   3.524   0.385 -1.0447  0.5500 -0.6885
 4850SOL    HW126186   3.826   3.543   0.475  0.0577 -0.1220 -0.8783
 4850SOL    HW226187   3.847   3.442   0.379 -0.1193  0.8125  3.1988
 4851SOL     OW26188   0.730   2.350   3.621  0.3209  0.1505  0.2368
 4851SOL    HW126189   0.741   2.402   3.541 -0.4985 -0.9746 -0.6076
 4851SOL    HW226190   0.681   2.277   3.583 -1.2293  2.4178 -2.1075
 4852SOL     OW26191   3.337   3.805  15.775 -1.1439 -0.6073  0.2971
 4852SOL    HW126192   3.342   3.809  15.870 -1.5492  3.1402  0.1755
 4852SOL    HW226193   3.362   3.894  15.750 -0.6863 -0.8033  0.0564
 4853SOL     OW26194   2.410   3.577   8.076  0.4888  0.1518  0.1126
 4853SOL    HW126195   2.494   3.610   8.106  0.0493  0.5929  0.8456
 4853SOL    HW226196   2.347   3.594   8.146 -1.8782 -1.0858 -1.7169
 4854SOL     OW26197   2.436   1.773  15.158 -0.7065  0.6274 -0.6782
 4854SOL    HW126198   2.511   1.744  15.106 -0.0288 -1.1698  1.3225
 4854SOL    HW226199   2.436   1.869  15.154  0.5890  0.6456 -0.4878
 4855SOL     OW26200   2.773   1.753   9.193  0.5148 -0.6251 -0.4227
 4855SOL    HW126201   2.703   1.787   9.250 -0.3677 -0.0170 -1.8828
 4855SOL    HW226202   2.822   1.826   9.156  0.4103 -0.0374  0.5916
 4856SOL     OW26203   1.333   0.285  17.654  0.1038 -0.1454 -0.2292
 4856SOL    HW126204   1.327   0.316   0.001 -0.5272  0.1225 -0.3591
 4856SOL    HW226205   1.384   0.204  17.656 -2.2045 -1.5461  2.1162
 4857SOL     OW26206   4.565   2.888   3.658  0.2919  0.0266  0.1412
 4857SOL    HW126207   4.578   2.869   3.751  0.1261 -1.3860 -0.1157
 4857SOL    HW226208   4.512   2.812   3.635  1.1829 -0.1460 -1.3843
 4858SOL     OW26209   0.357   3.678  12.361  0.1571 -0.5552 -0.0714
 4858SOL    HW126210   0.369   3.747  12.296  0.6492 -0.0604  0.5561
 4858SOL    HW226211   0.418   3.610  12.330  3.0738  0.6387  3.0565
 4859SOL     OW26212   4.562   3.255  16.580  0.3397  0.4610  0.3205
 4859SOL    HW126213   4.563   3.187  16.513  1.6490  1.9970 -1.2275
 4859SOL    HW226214   4.496   3.210  16.632 -0.0458  1.6509  0.8585
 4860SOL     OW26215   3.457   0.313  10.842  0.0420  0.0579 -0.4004
 4860SOL    HW126216   3.423   0.246  10.903  1.5397  3.2714  3.9539
 4860SOL    HW226217   3.382   0.336  10.787 -0.8597 -1.3665  0.2162
 4861SOL     OW26218   3.735   2.739   8.093 -0.0045  0.5856  0.1486
 4861SOL    HW126219   3.775   2.686   8.025 -0.7749 -0.9730  0.9107
 4861SOL    HW226220   3.686   2.677   8.147  0.6114  0.2962  0.3722
 4862SOL     OW26221   3.573   0.132   2.598 -0.2370 -0.5320  0.6529
 4862SOL    HW126222   3.552   0.217   2.637  0.5030 -0.8080  1.6787
 4862SOL    HW226223   3.642   0.167   2.541 -1.1433 -1.7879 -1.1763
 4863SOL     OW26224   4.490   1.808  10.378 -0.0106 -0.8417 -0.6122
 4863SOL    HW126225   4.506   1.714  10.389  1.5613 -0.2883  1.9011
 4863SOL    HW226226   4.571   1.843  10.341 -0.8357  1.0416 -0.6191
 4864SOL     OW26227   1.397   3.345   6.812  0.0331  0.3006 -0.3940
 4864SOL    HW126228   1.440   3.263   6.835 -1.8705 -1.2897 -2.4742
 4864SOL    HW226229   1.390   3.349   6.716  1.0124 -1.2069 -0.5274
 4865SOL     OW26230   1.594   0.592   4.648 -0.3371  0.6262 -0.0969
 4865SOL    HW126231   1.610   0.668   4.591  0.7523 -0.8631 -1.7638
 4865SOL    HW226232   1.606   0.520   4.586  1.3654 -0.5470  1.5926
 4866SOL     OW26233   0.295   1.166   3.876  0.3523  0.0866  0.5385
 4866SOL    HW126234   0.205   1.150   3.903  1.1242 -0.6701  2.6871
 4866SOL    HW226235   0.288   1.135   3.786  0.6276 -0.0898  0.5772
 4867SOL     OW26236   0.925   0.227   7.125 -0.1381 -0.0674 -0.3245
 4867SOL    HW126237   1.006   0.181   7.106  0.0597  1.4339 -3.1526
 4867SOL    HW226238   0.881   0.210   7.042 -0.1320 -1.6941  0.0145
 4868SOL     OW26239   1.541   1.121  10.640 -0.0467  0.4726 -0.4937
 4868SOL    HW126240   1.622   1.170  10.648 -0.3839  0.4736  2.6850
 4868SOL    HW226241   1.565   1.068  10.563  0.6053  0.4166 -0.2497
 4869SOL     OW26242   0.576   3.486   8.039  0.5192 -0.3037 -0.2269
 4869SOL    HW126243   0.557   3.579   8.024  0.3495 -0.3229 -0.1352
 4869SOL    HW226244   0.498   3.449   7.998  1.8920 -2.8392 -0.5128
 4870SOL     OW26245   2.768   1.032   7.008 -0.0112  0.4256  0.9428
 4870SOL    HW126246   2.714   0.981   7.068 -1.9942  0.0332 -1.2084
 4870SOL    HW226247   2.759   1.117   7.051 -0.7394  1.4683 -1.3166
 4871SOL     OW26248   4.099   2.914   6.121  0.6061 -0.4689 -0.2003
 4871SOL    HW126249   4.149   2.842   6.161 -0.3809 -0.8860  0.2921
 4871SOL    HW226250   4.117   2.992   6.173 -0.8903 -0.4822  0.3283
 4872SOL     OW26251   4.106   4.116  11.497  0.4927 -0.5946 -0.2105
 4872SOL    HW126252   4.039   4.178  11.468  0.3828 -0.9205 -0.6471
 4872SOL    HW226253   4.156   4.178  11.551  1.3825 -1.9650  0.5263
 4873SOL     OW26254   0.984   4.516   6.000  0.1819  0.1825 -0.5762
 4873SOL    HW126255   0.974   4.481   6.088  1.4116  0.5668 -0.2882
 4873SOL    HW226256   1.060   4.464   5.975 -1.3998 -0.9844 -2.8891
 4874SOL     OW26257   4.625   0.594   5.217 -0.0366 -0.5986 -0.5131
 4874SOL    HW126258   4.688   0.593   5.145  1.7484  0.0534  1.0408
 4874SOL    HW226259   4.554   0.538   5.186  0.4161 -1.3632 -0.1689
 4875SOL     OW26260   2.268   3.044   8.632 -0.1201 -0.4898 -0.1741
 4875SOL    HW126261   2.202   3.112   8.614  0.4857  0.3604  0.8499
 4875SOL    HW226262   2.340   3.056   8.571 -1.2099  0.2250 -1.3380
 4876SOL     OW26263   1.337   0.254  12.502 -0.5209  0.2736 -0.5919
 4876SOL    HW126264   1.244   0.271  12.516 -0.4737  1.5025 -1.7603
 4876SOL    HW226265   1.340   0.232  12.408  2.2931  0.4061 -0.5219
 4877SOL     OW26266   2.257   2.311   6.941 -0.2551 -0.4611 -0.2487
 4877SOL    HW126267   2.163   2.305   6.923 -0.7181  0.5361  1.8227
 4877SOL    HW226268   2.282   2.240   6.882  1.1432  1.9079 -2.5091
 4878SOL     OW26269   4.434   1.975  10.927  0.2833  0.3376 -0.1383
 4878SOL    HW126270   4.351   1.933  10.905  0.5886  0.1461 -0.9440
 4878SOL    HW226271   4.480   1.896  10.953  0.8289  0.3780 -0.9852
 4879SOL     OW26272   3.765   1.573   2.282  0.2665  0.2250  0.5741
 4879SOL    HW126273   3.718   1.490   2.283 -0.0240  0.4071  1.7030
 4879SOL    HW226274   3.690   1.628   2.306 -0.4747 -0.6885  0.3709
 4880SOL     OW26275   3.920   0.464   6.876 -0.9233  0.0983  0.1520
 4880SOL    HW126276   3.984   0.452   6.806 -0.9387 -0.9473  0.3226
 4880SOL    HW226277   3.930   0.557   6.898  1.4843  0.1595 -1.2200
 4881SOL     OW26278   0.079   0.036   9.495 -0.8165  0.3454 -0.4692
 4881SOL    HW126279   0.046   0.061   9.582  0.9728  0.3261  0.2150
 4881SOL    HW226280   0.172   0.059   9.500 -0.6127  0.1282 -3.5531
 4882SOL     OW26281   4.066   1.481   2.478  0.4084  0.4007  0.1408
 4882SOL    HW126282   4.005   1.408   2.485  1.7401 -0.9919 -3.0101
 4882SOL    HW226283   4.005   1.550   2.501  0.0204 -0.5975  2.0818
 4883SOL     OW26284   3.194   0.591   8.521 -0.4566 -0.7465  0.0627
 4883SOL    HW126285   3.257   0.645   8.570  0.7718 -3.3954  1.4201
 4883SOL    HW226286   3.225   0.503   8.541  0.8705 -0.0819  0.9451
 4884SOL     OW26287   1.863   1.836   6.738  0.2898  0.0898  0.0171
 4884SOL    HW126288   1.840   1.865   6.650 -4.2819 -0.6326  0.9605
 4884SOL    HW226289   1.851   1.741   6.741  2.2981 -0.1723 -0.0520
 4885SOL     OW26290   0.951   2.686   1.073  0.1095 -0.0496 -0.5143
 4885SOL    HW126291   0.857   2.699   1.061  0.0113  1.9390  2.4540
 4885SOL    HW226292   0.971   2.763   1.126 -1.8375  1.6408 -2.2130
 4886SOL     OW26293   3.770   0.045   6.300  0.3679  0.1782 -0.0344
 4886SOL    HW126294   3.858   0.034   6.264  0.3744  0.8997 -0.2468
 4886SOL    HW226295   3.783   0.090   6.383  0.7534  1.9225 -1.0379
 4887SOL     OW26296   0.882   0.108   8.212  0.1469  0.2680 -0.4215
 4887SOL    HW126297   0.817   0.129   8.279 -0.6299  2.1749 -1.7563
 4887SOL    HW226298   0.913   0.196   8.191 -0.3615  0.4795 -0.3068
 4888SOL     OW26299   1.545   0.274   9.140  0.2399  0.1011 -0.0967
 4888SOL    HW126300   1.605   0.267   9.213  0.2330  1.1544  0.0111
 4888SOL    HW226301   1.568   0.362   9.111 -1.0318 -0.5426 -3.2007
 4889SOL     OW26302   2.028   3.614   6.413  0.1238  0.2493  0.9449
 4889SOL    HW126303   2.086   3.574   6.478 -0.5670  1.3136  2.2113
 4889SOL    HW226304   2.086   3.672   6.364 -0.7007  1.2153  1.1364
 4890SOL     OW26305   3.694   0.625   2.932 -0.0715  0.4832  0.2687
 4890SOL    HW126306   3.725   0.685   3.000  0.0468  1.5134 -0.6913
 4890SOL    HW226307   3.628   0.576   2.979  0.6799  0.5406  1.4011
 4891SOL     OW26308   4.488   3.862   4.877 -0.1353 -0.0784 -0.2590
 4891SOL    HW126309   4.514   3.772   4.898  0.7647  0.1193 -0.5168
 4891SOL    HW226310   4.513   3.869   4.785  4.1133 -1.6642  0.7772
 4892SOL     OW26311   4.607   3.883   7.455 -0.0247 -0.3294  0.0914
 4892SOL    HW126312   4.644   3.884   7.543 -1.6898  2.0174  0.7363
 4892SOL    HW226313   4.512   3.882   7.459  0.0312 -0.5681  1.4645
 4893SOL     OW26314   0.633   3.083   3.461 -0.1141 -0.5782  0.0260
 4893SOL    HW126315   0.564   3.118   3.517 -0.4904 -0.8773 -0.2551
 4893SOL    HW226316   0.651   3.165   3.415 -0.9727 -0.3886  0.0271
 4894SOL     OW26317   1.226   1.877   2.343 -0.0968 -0.0544  0.0922
 4894SOL    HW126318   1.252   1.836   2.261  0.2377  3.4781 -1.5656
 4894SOL    HW226319   1.131   1.891   2.333 -0.3567 -1.7955  0.0962
 4895SOL     OW26320   4.666   1.133   6.358 -0.1055  0.1450  0.1803
 4895SOL    HW126321   4.588   1.126   6.413 -0.1920 -1.1441 -0.1235
 4895SOL    HW226322   4.719   1.069   6.405  1.1842  1.2036  0.1999
 4896SOL     OW26323   0.647   1.161  10.282  0.3892  0.5327 -0.4686
 4896SOL    HW126324   0.689   1.212  10.212 -0.2305  0.2617 -1.0358
 4896SOL    HW226325   0.554   1.171  10.263  0.4777 -1.1440 -1.7662
 4897SOL     OW26326   4.724   4.593   4.486 -0.1905 -0.3225 -0.4908
 4897SOL    HW126327   4.637   4.587   4.525 -0.0585  1.3407  0.0657
 4897SOL    HW226328   0.011   4.679   4.521 -1.3247 -1.0125  1.9500
 4898SOL     OW26329   3.865   4.021   1.326  0.0038 -0.5963 -0.5775
 4898SOL    HW126330   3.839   3.993   1.238 -0.0746  0.0688 -0.7718
 4898SOL    HW226331   3.788   4.071   1.353  1.5415  0.9477  0.9132
 4899SOL     OW26332   2.393   1.365   3.739 -0.1361 -0.6781 -0.5139
 4899SOL    HW126333   2.394   1.315   3.657  1.4501 -0.0414 -0.8818
 4899SOL    HW226334   2.437   1.293   3.786 -0.4918 -0.2771  0.4243
 4900SOL     OW26335   4.058   4.330   3.866  0.1584 -0.2820 -0.2309
 4900SOL    HW126336   4.082   4.384   3.791 -1.1672  0.0835 -0.3894
 4900SOL    HW226337   4.075   4.241   3.835  0.6726 -0.5069  0.6963
 4901SOL     OW26338   4.197   0.270   5.311 -0.3427  0.3106 -0.4062
 4901SOL    HW126339   4.205   0.181   5.276  1.9936 -0.0614  1.0333
 4901SOL    HW226340   4.267   0.322   5.272 -0.8216 -0.1481 -1.8823
 4902SOL     OW26341   1.117   0.328   1.505  0.2412 -0.5550 -0.2356
 4902SOL    HW126342   1.114   0.251   1.448 -2.9264  1.4837 -2.8491
 4902SOL    HW226343   1.047   0.380   1.465  0.4624 -0.2544 -0.2230
 4903SOL     OW26344   3.936   4.695   5.093 -0.3107 -0.2642 -0.1284
 4903SOL    HW126345   3.942   4.627   5.026  2.7420 -1.5967  1.4765
 4903SOL    HW226346   4.001   0.022   5.060 -1.3194  0.1618 -1.3116
 4904SOL     OW26347   0.155   0.845   3.695  0.1933 -0.6205  0.0615
 4904SOL    HW126348   0.230   0.788   3.710  0.8490 -0.1454 -1.3469
 4904SOL    HW226349   0.091   0.794   3.646 -0.5921  1.1887 -0.8142
 4905SOL     OW26350   0.290   2.784   2.281 -0.0367 -0.0025  0.8315
 4905SOL    HW126351   0.362   2.791   2.218  1.3778 -2.7173  2.1483
 4905SOL    HW226352   0.325   2.832   2.356 -0.8121 -0.3570  1.4177
 4906SOL     OW26353   3.192   2.229  16.013 -0.3971  0.2601  0.1629
 4906SOL    HW126354   3.123   2.180  15.970  1.1527 -2.0061  0.2299
 4906SOL    HW226355   3.252   2.154  16.014  0.1869  0.7360  1.3904
 4907SOL     OW26356   2.986   4.527  16.922  0.2604  0.3627  0.2550
 4907SOL    HW126357   3.047   4.551  16.852  0.6721  1.4174  0.9676
 4907SOL    HW226358   2.954   4.616  16.939  1.4832  1.2832 -2.1817
 4908SOL     OW26359   3.726   1.060   9.662  0.3620 -0.1750  0.2988
 4908SOL    HW126360   3.673   1.140   9.658  1.0066  0.2534  0.2854
 4908SOL    HW226361   3.740   1.052   9.568 -0.8881  0.0916  0.0957
 4909SOL     OW26362   4.425   0.716  10.379 -0.4831  0.2357 -0.6715
 4909SOL    HW126363   4.360   0.726  10.448 -1.1179 -0.3712 -1.1806
 4909SOL    HW226364   4.510   0.718  10.425 -0.9341 -0.3775  0.2047
 4910SOL     OW26365   1.172   2.218   2.272  0.0386 -0.7378  0.7483
 4910SOL    HW126366   1.234   2.200   2.343 -0.8838 -2.4725  1.1065
 4910SOL    HW226367   1.092   2.173   2.300  0.3886 -1.4049  0.6607
 4911SOL     OW26368   3.987   1.079   8.163 -0.3811 -0.1066 -0.6047
 4911SOL    HW126369   4.051   1.149   8.148 -1.4324  0.9301 -0.2288
 4911SOL    HW226370   4.038   1.020   8.219  0.1848  0.2307 -0.7531
 4912SOL     OW26371   1.736   3.458   4.535  0.1624 -0.0733  0.0666
 4912SOL    HW126372   1.811   3.510   4.507 -1.4890  1.8662 -0.7530
 4912SOL    HW226373   1.744   3.496   4.622 -2.1013 -0.8954  0.6271
 4913SOL     OW26374   3.213   1.813   3.531  0.4004 -0.3797 -0.0678
 4913SOL    HW126375   3.157   1.885   3.502  0.2527  0.7714  3.1372
 4913SOL    HW226376   3.239   1.771   3.449  0.1741  0.0604 -0.3665
 4914SOL     OW26377   2.229   1.239  16.477 -0.2553  0.1911 -0.2295
 4914SOL    HW126378   2.148   1.288  16.489  1.4364  2.9443 -0.1450
 4914SOL    HW226379   2.199   1.154  16.509  0.6537  0.1753  0.5875
 4915SOL     OW26380   0.346   0.073   5.667  0.2562  0.1584 -0.2316
 4915SOL    HW126381   0.413   0.139   5.684 -2.0321  1.7652  2.3763
 4915SOL    HW226382   0.282   0.123   5.617  0.0058  0.6054  0.5278
 4916SOL     OW26383   0.962   3.207  11.185  0.1404  0.6136 -1.1927
 4916SOL    HW126384   0.904   3.225  11.259  0.4988 -0.3259 -0.6805
 4916SOL    HW226385   0.915   3.144  11.130  2.8086 -1.2409 -1.3642
 4917SOL     OW26386   0.067   3.589  14.464  0.1262  0.0600 -0.2881
 4917SOL    HW126387   4.723   3.629  14.497  0.5284 -0.2402  1.0812
 4917SOL    HW226388   0.110   3.671  14.441  3.0835 -0.7278  2.3446
 4918SOL     OW26389   0.543   4.308  17.712  0.1437  0.0875  0.1608
 4918SOL    HW126390   0.637   4.304  17.727  0.0844 -2.1560 -0.0438
 4918SOL    HW226391   0.543   4.373  17.641 -0.9269  0.0616  0.1327
 4919SOL     OW26392   2.116   4.419   0.738 -0.0839  0.0492  0.0063
 4919SOL    HW126393   2.054   4.346   0.734 -1.0337  0.9315 -1.2795
 4919SOL    HW226394   2.083   4.469   0.663  1.3306  0.1823 -0.5264
 4920SOL     OW26395   1.421   2.847   5.055 -0.3767  0.2423 -0.1547
 4920SOL    HW126396   1.394   2.770   5.004 -0.5754  0.8972 -1.0407
 4920SOL    HW226397   1.505   2.866   5.014  0.0533 -1.9332 -0.2954
 4921SOL     OW26398   3.053   0.027   7.407 -0.3629 -0.5627  0.2850
 4921SOL    HW126399   3.047   4.703   7.332  0.2149 -0.0890 -0.1483
 4921SOL    HW226400   2.961   0.041   7.425 -0.4008  0.1446 -0.4059
 4922SOL     OW26401   4.690   3.591   4.317  0.4738  0.0256 -0.3679
 4922SOL    HW126402   4.683   3.548   4.403 -2.9291  1.1108 -0.1391
 4922SOL    HW226403   4.646   3.675   4.328 -0.7721 -0.4871 -1.5052
 4923SOL     OW26404   1.700   3.229  14.885 -0.1926  0.1286  0.1256
 4923SOL    HW126405   1.787   3.223  14.925 -0.1114  1.1124  0.0882
 4923SOL    HW226406   1.718   3.313  14.843  0.8928 -0.6489 -0.9568
 4924SOL     OW26407   2.011   4.665   3.410  0.1664  0.1387 -0.1903
 4924SOL    HW126408   1.955   4.665   3.332  0.4130 -0.2566 -0.3620
 4924SOL    HW226409   2.098   4.652   3.374  0.6537 -0.1691  1.0934
 4925SOL     OW26410   4.405   4.135   7.363 -0.0770 -0.4338  0.3970
 4925SOL    HW126411   4.483   4.137   7.306  0.3182  1.0056  0.9827
 4925SOL    HW226412   4.338   4.154   7.297  0.7760 -1.5810 -0.7888
 4926SOL     OW26413   1.135   1.876   7.154  0.1417  0.2098  0.7589
 4926SOL    HW126414   1.226   1.907   7.159  0.7852 -1.2693 -1.9087
 4926SOL    HW226415   1.119   1.865   7.247 -0.8893  0.5471  0.6165
 4927SOL     OW26416   2.676   3.544   4.753  0.2763 -1.0016  0.3200
 4927SOL    HW126417   2.735   3.619   4.745  0.0086 -1.1648 -2.9095
 4927SOL    HW226418   2.601   3.572   4.701 -0.3609  1.6329  2.6650
 4928SOL     OW26419   2.399   3.572   7.509 -0.0592  0.3149 -0.3190
 4928SOL    HW126420   2.395   3.591   7.603 -4.0547 -0.5609 -0.3313
 4928SOL    HW226421   2.494   3.586   7.501 -0.0877  0.8804  0.3276
 4929SOL     OW26422   3.041   3.675   2.791  0.3610 -0.8588 -0.1236
 4929SOL    HW126423   2.954   3.645   2.766 -0.1307 -1.6772  2.5986
 4929SOL    HW226424   3.062   3.633   2.874  1.5517  0.3106  0.1698
 4930SOL     OW26425   2.896   2.206   8.863 -0.1410  0.0278  0.4996
 4930SOL    HW126426   2.866   2.286   8.907  2.1209  0.7226  0.7824
 4930SOL    HW226427   2.975   2.183   8.913 -2.0168 -5.7067  0.7789
 4931SOL     OW26428   4.718   1.136   0.371 -0.0449  0.0592 -0.9864
 4931SOL    HW126429   4.665   1.086   0.310  0.1136 -0.4934 -0.6704
 4931SOL    HW226430   4.706   1.080   0.447  0.6531  0.0047 -0.9111
 4932SOL     OW26431   1.452   4.209   8.464  0.0917  0.2356  0.3406
 4932SOL    HW126432   1.538   4.175   8.492  0.8607  0.8507 -1.3252
 4932SOL    HW226433   1.404   4.151   8.524 -2.8235  2.5706  0.2475
 4933SOL     OW26434   3.834   2.097   4.621 -0.0632  0.0844  0.0138
 4933SOL    HW126435   3.792   2.034   4.679  0.5074 -2.3787 -2.2251
 4933SOL    HW226436   3.924   2.064   4.621 -0.5041 -1.1301  0.4687
 4934SOL     OW26437   1.071   2.736   7.088  0.0608 -0.9350 -0.2299
 4934SOL    HW126438   1.067   2.656   7.036  0.8970 -1.2534  0.1864
 4934SOL    HW226439   1.031   2.796   7.025  2.8514  2.5782  1.3478
 4935SOL     OW26440   1.804   2.676   7.490 -0.6021 -0.8513  0.2285
 4935SOL    HW126441   1.773   2.600   7.539  0.1526  0.5652  2.9241
 4935SOL    HW226442   1.845   2.637   7.413  0.6559 -1.5481  1.2407
 4936SOL     OW26443   1.608   2.430   7.875 -0.0065  0.1944 -0.0280
 4936SOL    HW126444   1.584   2.364   7.940 -0.3487  0.3932  0.0469
 4936SOL    HW226445   1.522   2.463   7.850  0.6757  0.8399 -1.4988
 4937SOL     OW26446   3.357   4.720  12.700  0.3446  0.2326  0.2311
 4937SOL    HW126447   3.304   0.049  12.746  0.2151 -0.9909  1.8099
 4937SOL    HW226448   3.338   4.648  12.761 -0.2516  1.0632  1.0356
 4938SOL     OW26449   1.999   4.133  16.938  0.0609 -0.6742  0.4746
 4938SOL    HW126450   2.019   4.046  16.971  0.1425 -0.9301 -0.2582
 4938SOL    HW226451   1.929   4.121  16.873  0.2448  0.6250  0.0352
 4939SOL     OW26452   1.037   0.916   6.545  0.1085 -0.4181  0.0196
 4939SOL    HW126453   1.132   0.902   6.540  0.2813  0.0373  1.8573
 4939SOL    HW226454   1.047   1.009   6.566  1.8262 -0.7852  0.8510
 4940SOL     OW26455   4.271   3.593  16.915 -0.0613  0.3277  0.3152
 4940SOL    HW126456   4.331   3.639  16.974  0.1080  1.8195 -1.0314
 4940SOL    HW226457   4.303   3.503  16.903 -0.8639 -0.0622  1.1500
 4941SOL     OW26458   4.544   1.401   8.793 -0.2406  0.1468  0.0530
 4941SOL    HW126459   4.639   1.415   8.788 -0.4859  1.0414 -2.2969
 4941SOL    HW226460   4.524   1.360   8.708  0.2020  0.6438 -0.2925
 4942SOL     OW26461   4.575   2.030   8.234  0.2879 -0.0976 -0.7033
 4942SOL    HW126462   4.507   2.066   8.176 -0.5485 -1.3157 -0.4811
 4942SOL    HW226463   4.551   2.076   8.314 -0.4005 -1.2937 -0.2250
 4943SOL     OW26464   1.062   0.542   3.456 -0.2403 -0.4208 -0.4153
 4943SOL    HW126465   1.131   0.600   3.424  0.0907 -1.2158 -1.1623
 4943SOL    HW226466   0.991   0.606   3.462  0.1961  0.2349 -2.2490
 4944SOL     OW26467   4.302   0.946   3.572 -0.2197  0.5123  0.1190
 4944SOL    HW126468   4.289   0.910   3.660  3.3417 -0.5223  0.2257
 4944SOL    HW226469   4.255   0.884   3.516  0.2787  0.7828 -0.5993
 4945SOL     OW26470   3.489   4.053   4.529  0.2407  0.2935  0.3181
 4945SOL    HW126471   3.572   4.094   4.551  0.5696 -1.6049  2.7174
 4945SOL    HW226472   3.510   3.962   4.507 -1.3606  0.1808 -0.7234
 4946SOL     OW26473   3.214   3.050   5.272 -0.0757 -0.0809  0.0090
 4946SOL    HW126474   3.249   2.967   5.241  1.1379  0.6012 -0.4267
 4946SOL    HW226475   3.142   3.058   5.210 -0.1273 -1.2572 -0.0722
 4947SOL     OW26476   2.752   1.751   8.754 -0.6040  0.9578 -0.4017
 4947SOL    HW126477   2.755   1.672   8.701 -2.6657  1.6827 -1.6034
 4947SOL    HW226478   2.762   1.821   8.689  2.5409  0.3257 -0.6099
 4948SOL     OW26479   2.192   0.231   0.936 -0.3960 -0.0962 -0.7859
 4948SOL    HW126480   2.155   0.304   0.886 -0.4464  0.7138  0.4228
 4948SOL    HW226481   2.247   0.208   0.862  0.5943  0.3549 -0.1904
 4949SOL     OW26482   0.115   1.569   9.686  0.2578  0.3369  0.4508
 4949SOL    HW126483   0.034   1.600   9.728  0.3541 -0.8761  1.5380
 4949SOL    HW226484   0.095   1.476   9.677  1.1953  0.3793 -1.9488
 4950SOL     OW26485   1.599   4.339  10.150  0.2558 -1.0988 -0.6209
 4950SOL    HW126486   1.622   4.341  10.057 -3.5821 -0.2951 -1.5596
 4950SOL    HW226487   1.569   4.426  10.176  3.6538  0.6926 -2.6691
 4951SOL     OW26488   4.173   1.248   1.048 -0.1600 -0.1306  0.1301
 4951SOL    HW126489   4.265   1.239   1.073 -0.1654 -2.9355 -0.8681
 4951SOL    HW226490   4.142   1.300   1.123 -2.3620  1.0205 -1.5650
 4952SOL     OW26491   1.174   2.677  17.659  0.2765 -0.1226 -0.7179
 4952SOL    HW126492   1.124   2.602  17.626  2.6397 -1.5807 -0.9357
 4952SOL    HW226493   1.212   2.702  17.576 -0.3842  0.7177 -0.7701
 4953SOL     OW26494   3.029   0.089  12.532 -0.3109  0.1937 -0.6908
 4953SOL    HW126495   3.048   4.732  12.541 -2.0323 -0.3286 -2.3673
 4953SOL    HW226496   2.947   0.082  12.482 -1.5125 -0.2420  1.3252
 4954SOL     OW26497   0.422   4.627   4.863  0.1223  0.1078  0.3391
 4954SOL    HW126498   0.485   4.582   4.920 -0.0776 -0.2761  0.2557
 4954SOL    HW226499   0.473   4.707   4.849  0.6703 -0.3874 -0.5309
 4955SOL     OW26500   4.087   1.513   6.235 -0.0605  0.0743 -0.4562
 4955SOL    HW126501   4.141   1.541   6.162  0.0031 -0.0129 -0.4418
 4955SOL    HW226502   4.146   1.446   6.269  0.5205  0.9919  0.3664
 4956SOL     OW26503   0.835   4.549   1.953  0.1964 -0.4396 -0.1071
 4956SOL    HW126504   0.920   4.530   1.993  0.8752  0.5016 -1.0768
 4956SOL    HW226505   0.788   4.466   1.955 -0.7645 -0.0262 -4.2324
 4957SOL     OW26506   2.101   4.524   6.628 -0.5428 -0.4342  0.2039
 4957SOL    HW126507   2.123   4.617   6.630 -1.1242 -0.2824 -0.2101
 4957SOL    HW226508   2.099   4.501   6.535 -0.3988  0.3437  0.0130
 4958SOL     OW26509   4.205   1.205  13.792  0.6715 -0.2134 -1.1867
 4958SOL    HW126510   4.187   1.259  13.715  0.8900  0.4644 -0.7624
 4958SOL    HW226511   4.147   1.130  13.779  0.2012 -0.1127  0.3180
 4959SOL     OW26512   3.760   0.847   5.069  0.1958 -0.1105  0.2218
 4959SOL    HW126513   3.777   0.916   5.133  2.5531 -0.7209  0.2464
 4959SOL    HW226514   3.835   0.789   5.080 -0.3072 -0.7657  0.1315
 4960SOL     OW26515   2.292   1.514  11.779  0.1832  0.2853  0.0824
 4960SOL    HW126516   2.335   1.437  11.741 -1.5637 -1.0430  0.7610
 4960SOL    HW226517   2.205   1.478  11.800  0.0692  0.7680  0.4324
 4961SOL     OW26518   1.945   1.884   2.925 -0.2130 -0.2065  0.0290
 4961SOL    HW126519   1.976   1.925   2.845 -1.5479  0.2616 -0.2624
 4961SOL    HW226520   2.016   1.829   2.957 -0.2728  1.1025  2.3921
 4962SOL     OW26521   3.734   3.523   6.310  0.2664  0.0490 -0.0947
 4962SOL    HW126522   3.772   3.438   6.335  0.5609 -0.9640 -3.8774
 4962SOL    HW226523   3.756   3.535   6.217  1.1157 -1.6459 -0.1131
 4963SOL     OW26524   3.172   2.180   4.786 -0.0140 -0.0585  0.5754
 4963SOL    HW126525   3.268   2.182   4.788  0.0662  0.1266 -4.1841
 4963SOL    HW226526   3.156   2.153   4.695  0.9756 -2.0794  0.9940
 4964SOL     OW26527   0.042   4.654   5.293  0.3877 -0.6998  0.2969
 4964SOL    HW126528   0.136   4.645   5.286  0.0977 -2.2111 -1.4869
 4964SOL    HW226529   0.034   4.705   5.213  1.8522  0.5366  0.9367
 4965SOL     OW26530   0.585   1.944   6.294  0.0582  0.5294 -0.1537
 4965SOL    HW126531   0.678   1.963   6.306  0.5794 -1.9685 -0.3859
 4965SOL    HW226532   0.548   1.971   6.379 -1.1341  2.4765 -1.2718
 4966SOL     OW26533   0.408   3.186  12.189 -0.4418  0.3200  0.0354
 4966SOL    HW126534   0.336   3.185  12.126 -0.3059 -0.3549 -0.1084
 4966SOL    HW226535   0.454   3.107  12.160 -2.6875 -0.6065 -1.0116
 4967SOL     OW26536   3.505   3.361   9.243 -0.4864  0.2760  0.7634
 4967SOL    HW126537   3.578   3.423   9.233  0.5987 -0.4592  4.1146
 4967SOL    HW226538   3.447   3.389   9.172  0.0347 -1.1184 -0.2218
 4968SOL     OW26539   2.852   4.535   2.182  0.0223  0.6054 -0.5003
 4968SOL    HW126540   2.792   4.476   2.137 -1.8888  3.0116 -1.1118
 4968SOL    HW226541   2.917   4.477   2.220 -2.4529 -3.4895 -2.5518
 4969SOL     OW26542   2.013   2.486   1.410 -0.2349 -0.4135  0.1892
 4969SOL    HW126543   1.986   2.459   1.498  4.8285 -0.4313  1.6979
 4969SOL    HW226544   2.062   2.567   1.423 -0.7852 -0.2794  1.3962
 4970SOL     OW26545   4.539   3.947  13.275 -0.3807 -0.1926  0.1343
 4970SOL    HW126546   4.543   3.855  13.249 -0.8837 -0.3048  0.4570
 4970SOL    HW226547   4.610   3.993  13.232  1.2531  0.1071  3.1487
 4971SOL     OW26548   0.581   0.746   4.518 -0.1590 -0.0403 -0.2252
 4971SOL    HW126549   0.529   0.723   4.440 -1.1322  0.5069  0.2648
 4971SOL    HW226550   0.610   0.836   4.505 -0.6341  0.2458  0.7100
 4972SOL     OW26551   2.731   1.445   6.012 -0.2663  0.4673  0.2441
 4972SOL    HW126552   2.662   1.492   5.966  0.1480  0.3278 -0.5208
 4972SOL    HW226553   2.686   1.364   6.032  0.5914 -0.3976 -1.3198
 4973SOL     OW26554   3.303   3.641   0.775  0.0099 -0.4558  0.1758
 4973SOL    HW126555   3.388   3.608   0.744  0.2205 -0.9585  1.2772
 4973SOL    HW226556   3.308   3.641   0.871 -0.3215  0.1208  0.1917
 4974SOL     OW26557   2.311   2.238   5.110 -0.0507  0.4261 -0.4408
 4974SOL    HW126558   2.346   2.220   5.022 -1.7715  1.5231 -1.3367
 4974SOL    HW226559   2.351   2.324   5.122  2.6275 -0.6221 -1.7593
 4975SOL     OW26560   4.176   3.826   0.290 -0.1596  0.4300  0.0778
 4975SOL    HW126561   4.204   3.864   0.207  1.3736 -0.3226  0.2466
 4975SOL    HW226562   4.121   3.751   0.267  1.2941 -0.5284 -0.2648
 4976SOL     OW26563   3.505   3.099   2.696  0.2770  0.2612 -0.0286
 4976SOL    HW126564   3.464   3.184   2.677  2.6765  1.2949 -0.5799
 4976SOL    HW226565   3.474   3.044   2.624 -2.0388 -0.2489  1.3861
 4977SOL     OW26566   0.438   2.709   5.303 -0.0738  0.1613  0.1979
 4977SOL    HW126567   0.411   2.647   5.370  0.1399 -2.5394 -2.2132
 4977SOL    HW226568   0.421   2.655   5.226 -1.6603  0.8951  0.0350
 4978SOL     OW26569   4.069   2.005   4.163 -0.1780  0.2067  0.2548
 4978SOL    HW126570   4.092   2.056   4.086  1.3128 -1.7376 -0.5552
 4978SOL    HW226571   4.140   1.942   4.154 -2.3512 -2.6774  3.2719
 4979SOL     OW26572   4.512   0.185   1.417 -0.1989 -0.3028  0.3074
 4979SOL    HW126573   4.561   0.226   1.347  0.9745 -0.0197  1.2917
 4979SOL    HW226574   4.516   0.091   1.400 -2.6620 -0.4364  0.3864
 4980SOL     OW26575   3.206   0.935   4.570 -0.6026  0.2262 -0.0905
 4980SOL    HW126576   3.212   0.920   4.664  0.2301 -0.6383 -0.2797
 4980SOL    HW226577   3.283   0.886   4.542 -1.0994 -0.3469 -0.4633
 4981SOL     OW26578   2.153   1.595   8.411  0.3003  0.1685  0.0224
 4981SOL    HW126579   2.098   1.579   8.488  1.5064 -1.8614  0.4876
 4981SOL    HW226580   2.093   1.657   8.370 -0.9428 -1.1368 -0.1250
 4982SOL     OW26581   2.122   2.878   7.274 -0.2479 -0.0621  0.0443
 4982SOL    HW126582   2.082   2.852   7.358 -0.3212 -1.4205 -0.4194
 4982SOL    HW226583   2.119   2.974   7.280 -0.2873  0.0744 -2.3043
 4983SOL     OW26584   0.634   0.435   3.711 -0.2080 -0.3115 -0.4419
 4983SOL    HW126585   0.633   0.520   3.668  1.5750  0.7132  1.5586
 4983SOL    HW226586   0.691   0.461   3.783 -2.6142 -1.7293  1.9606
 4984SOL     OW26587   2.758   2.973   0.489 -0.0911  0.1576  0.3092
 4984SOL    HW126588   2.734   2.895   0.540  3.0425 -1.4801 -0.7070
 4984SOL    HW226589   2.844   2.936   0.468 -0.2559 -1.5442  2.6136
 4985SOL     OW26590   2.388   2.597   6.114  0.4318  0.6261  0.6221
 4985SOL    HW126591   2.393   2.520   6.057 -0.5193  0.4167  0.8116
 4985SOL    HW226592   2.446   2.567   6.183  0.6554 -1.1266 -0.3178
 4986SOL     OW26593   1.250   3.587   4.788 -0.1988 -0.0895  0.5213
 4986SOL    HW126594   1.251   3.558   4.697  0.5879 -0.0978  0.5276
 4986SOL    HW226595   1.251   3.498   4.825  0.7088 -1.4550 -2.8283
 4987SOL     OW26596   4.647   2.312   4.109  0.4122  0.0708 -0.3473
 4987SOL    HW126597   4.724   2.304   4.053  0.9684 -1.3896  0.6187
 4987SOL    HW226598   4.587   2.280   4.043 -0.7974  2.6440 -0.5057
 4988SOL     OW26599   4.029   0.634   9.554 -0.1150  0.3204 -0.1168
 4988SOL    HW126600   4.021   0.719   9.598  2.3301 -0.1295  1.2139
 4988SOL    HW226601   3.946   0.616   9.509 -0.0963  0.5215 -0.2289
 4989SOL     OW26602   1.645   3.453   2.154 -0.2457 -0.3193  0.1319
 4989SOL    HW126603   1.602   3.376   2.117 -0.3947 -0.7266  1.1817
 4989SOL    HW226604   1.690   3.418   2.230 -1.7607  0.8747  1.5849
 4990SOL     OW26605   0.468   4.376   1.953 -0.1591 -1.2373  0.3030
 4990SOL    HW126606   0.461   4.339   2.041 -2.7658  1.2727  1.1719
 4990SOL    HW226607   0.380   4.414   1.951  0.1655 -0.6181 -1.5460
 4991SOL     OW26608   1.814   4.029   0.525  0.1671  0.1267 -0.1594
 4991SOL    HW126609   1.720   4.031   0.511 -0.0408 -0.4190  1.1443
 4991SOL    HW226610   1.835   3.937   0.542 -0.9462 -0.1551 -0.3186
 4992SOL     OW26611   1.900   2.912   8.205 -0.0883 -0.0066 -0.1097
 4992SOL    HW126612   1.817   2.873   8.175  0.4656 -1.0463 -0.3003
 4992SOL    HW226613   1.934   2.950   8.124  1.5692 -1.4583 -0.0845
 4993SOL     OW26614   0.882   3.209  12.693  0.4036 -0.1566 -0.2247
 4993SOL    HW126615   0.839   3.289  12.722 -0.5553 -0.3383 -1.1781
 4993SOL    HW226616   0.942   3.246  12.628 -1.8844  0.1217 -2.1486
 4994SOL     OW26617   2.407   0.629   4.680 -0.3795  0.2661  0.2220
 4994SOL    HW126618   2.487   0.660   4.637  0.8757 -2.7047  0.3999
 4994SOL    HW226619   2.338   0.629   4.613  0.2950  1.4413 -0.4739
 4995SOL     OW26620   1.315   1.389  16.956  0.1119  0.8570 -0.0943
 4995SOL    HW126621   1.234   1.360  16.998  1.4059 -0.0720  1.7369
 4995SOL    HW226622   1.380   1.344  17.009 -0.9913 -1.1180 -0.4217
 4996SOL     OW26623   1.738   4.376   3.549  0.0206  0.1456 -0.0178
 4996SOL    HW126624   1.666   4.382   3.486  0.9918  1.5170 -0.9952
 4996SOL    HW226625   1.802   4.344   3.485  0.2053  1.5728 -0.5408
 4997SOL     OW26626   2.227   1.029  12.955  0.3000 -0.0739  0.5694
 4997SOL    HW126627   2.204   0.938  12.938 -1.6410  0.3833  0.6842
 4997SOL    HW226628   2.148   1.082  12.944  0.6685  0.0798 -1.4047
 4998SOL     OW26629   4.714   1.045   1.707 -0.3741 -0.6021  0.1556
 4998SOL    HW126630   4.634   1.053   1.760 -0.6108  2.4024 -0.6897
 4998SOL    HW226631   4.722   0.949   1.710  1.9238 -0.4281 -0.9803
 4999SOL     OW26632   4.408   1.928   9.610 -0.4843 -1.6011  0.0475
 4999SOL    HW126633   4.382   1.939   9.701 -1.1924  0.6568 -0.4111
 4999SOL    HW226634   4.448   2.014   9.592  0.6968 -2.2339 -0.3382
 5000SOL     OW26635   3.457   1.293   3.770  0.5007  0.4503  0.0719
 5000SOL    HW126636   3.439   1.225   3.705  2.2462  1.1327 -1.1266
 5000SOL    HW226637   3.377   1.284   3.822  0.8498 -1.6880  0.2251
 5001SOL     OW26638   2.111   1.877   8.911 -0.5097  0.3592 -0.0911
 5001SOL    HW126639   2.143   1.961   8.945  1.9681 -1.1990  1.4438
 5001SOL    HW226640   2.190   1.843   8.871 -1.1534 -0.1272 -0.9302
 5002SOL     OW26641   2.437   3.954   7.590 -0.5777  0.2014 -0.3064
 5002SOL    HW126642   2.372   3.897   7.549  0.9729 -1.1165 -0.9480
 5002SOL    HW226643   2.506   3.889   7.607  1.2167  1.8229 -1.4173
 5003SOL     OW26644   4.375   3.720   8.999  0.1047  0.4405  0.0446
 5003SOL    HW126645   4.317   3.644   8.991  0.1607  0.3789  0.2195
 5003SOL    HW226646   4.318   3.796   8.992 -2.3622 -1.6148 -2.1757
 5004SOL     OW26647   4.346   2.914  13.648  0.5862  0.3532 -0.0568
 5004SOL    HW126648   4.394   2.992  13.622  0.7638 -0.5197 -2.3141
 5004SOL    HW226649   4.323   2.932  13.739  1.7062 -0.6004  0.4077
 5005SOL     OW26650   0.780   4.661   8.021 -0.0536 -0.7975 -0.0008
 5005SOL    HW126651   0.805   0.010   7.986  1.6071 -1.9817 -1.7056
 5005SOL    HW226652   0.781   4.675   8.116  0.7156  1.4056 -0.3498
 5006SOL     OW26653   2.829   4.467  14.118  0.1264  0.2578 -0.4695
 5006SOL    HW126654   2.879   4.506  14.046  0.2947  0.8768 -0.0171
 5006SOL    HW226655   2.821   4.382  14.076 -1.7749  0.8880 -1.3779
 5007SOL     OW26656   1.095   1.059   8.020  0.0444  0.3517 -0.5826
 5007SOL    HW126657   1.080   1.005   7.942 -0.7558 -0.5429  0.2015
 5007SOL    HW226658   1.146   0.994   8.069  0.2318 -0.2778 -1.6097
 5008SOL     OW26659   3.291   0.445   5.282  0.0378 -0.2625 -0.1833
 5008SOL    HW126660   3.330   0.458   5.195  0.0719 -1.1791 -0.3057
 5008SOL    HW226661   3.364   0.483   5.330 -1.0699  1.6453  0.0086
 5009SOL     OW26662   3.301   2.072   3.476 -0.3075 -0.6067 -0.0860
 5009SOL    HW126663   3.387   2.047   3.443  0.6030  1.0350  1.0946
 5009SOL    HW226664   3.337   2.083   3.563  0.7741 -0.7643 -0.5203
 5010SOL     OW26665   4.719   1.548   4.079  0.1952  0.2354 -0.0631
 5010SOL    HW126666   4.668   1.628   4.066  1.6333  1.4251  1.7341
 5010SOL    HW226667   0.067   1.589   4.100  1.3237 -3.1879  2.0384
 5011SOL     OW26668   0.719   4.646   6.326  0.1816 -0.1012  0.1617
 5011SOL    HW126669   0.810   4.630   6.349  1.1158  0.7400 -2.9516
 5011SOL    HW226670   0.683   4.665   6.413 -3.1789 -0.3447 -1.1715
 5012SOL     OW26671   3.398   1.526   1.721  0.3982 -0.5806  0.4497
 5012SOL    HW126672   3.473   1.580   1.695 -0.8486 -0.0808 -2.1007
 5012SOL    HW226673   3.433   1.486   1.801 -0.7079 -0.3646  1.0301
 5013SOL     OW26674   2.489   4.398   0.394 -0.0172  0.0598 -0.0817
 5013SOL    HW126675   2.527   4.404   0.482 -0.8244  1.2385  0.1987
 5013SOL    HW226676   2.399   4.377   0.422 -0.1429  2.1612  1.0711
 5014SOL     OW26677   1.779   2.504   2.344  0.0995  0.9332  0.4011
 5014SOL    HW126678   1.872   2.496   2.366  0.3543 -0.4680 -1.1676
 5014SOL    HW226679   1.759   2.417   2.378  0.0245  0.7000 -0.2473
 5015SOL     OW26680   3.482   4.554   4.508 -0.7708  0.2146 -0.0711
 5015SOL    HW126681   3.525   4.578   4.426  2.0718 -1.9037  0.7979
 5015SOL    HW226682   3.469   4.461   4.490  0.0261 -0.6161  3.4690
 5016SOL     OW26683   4.213   3.542  15.220 -0.2967  0.6026 -0.1867
 5016SOL    HW126684   4.120   3.523  15.209 -0.5702  1.4827  0.6582
 5016SOL    HW226685   4.250   3.480  15.156 -1.8995 -1.6180  1.0187
 5017SOL     OW26686   2.122   0.063   8.338 -0.4238 -0.6512 -0.0360
 5017SOL    HW126687   2.113   0.042   8.245 -0.8202  1.4880 -0.4872
 5017SOL    HW226688   2.098   0.156   8.329 -2.6034 -1.0675  1.5162
 5018SOL     OW26689   0.555   2.354   6.960 -0.1026  0.4331  0.3809
 5018SOL    HW126690   0.492   2.310   6.903 -1.1039  2.0426  0.2317
 5018SOL    HW226691   0.636   2.309   6.939 -0.8647 -0.4417 -0.6472
 5019SOL     OW26692   2.592   4.206  11.145 -0.4827  0.6436  0.1853
 5019SOL    HW126693   2.516   4.264  11.152 -0.4133  0.8198 -0.5566
 5019SOL    HW226694   2.652   4.254  11.203  0.1083  2.0389 -1.5719
 5020SOL     OW26695   1.340   1.260   3.079  0.4079  0.1738 -0.3826
 5020SOL    HW126696   1.431   1.268   3.050  0.9911 -0.1058  1.3891
 5020SOL    HW226697   1.294   1.223   3.003  1.8491 -0.1817 -1.0932
 5021SOL     OW26698   0.012   0.573   7.699  0.5025 -0.1833  0.6093
 5021SOL    HW126699   0.049   0.660   7.714  0.6126 -0.2205  0.5507
 5021SOL    HW226700   4.684   0.596   7.631 -0.5796 -1.8059  1.0781
 5022SOL     OW26701   3.597   4.720  15.290  0.0423  0.0208 -0.6078
 5022SOL    HW126702   3.580   4.662  15.216  0.2584 -1.0649  0.1847
 5022SOL    HW226703   3.663   4.678  15.346 -0.2723 -0.0789 -0.3055
 5023SOL     OW26704   1.367   1.349   9.847 -0.0947 -0.3448  0.3434
 5023SOL    HW126705   1.308   1.423   9.859  3.2889  2.5090 -0.5428
 5023SOL    HW226706   1.380   1.324   9.939  1.5988  1.0346  0.4799
 5024SOL     OW26707   1.538   2.063   0.166 -0.3211 -0.0283 -0.1146
 5024SOL    HW126708   1.545   2.116   0.086 -2.0675 -0.4275 -0.5167
 5024SOL    HW226709   1.627   2.035   0.188  0.0431  0.7447 -0.5913
 5025SOL     OW26710   3.480   0.008   3.500  0.0469 -0.2311 -0.0324
 5025SOL    HW126711   3.499   4.704   3.415 -0.0796 -0.3816  0.0115
 5025SOL    HW226712   3.387   4.724   3.513  0.3841 -0.3204  2.2150
 5026SOL     OW26713   2.336   4.553   0.645  0.1348 -0.4053 -0.0402
 5026SOL    HW126714   2.292   4.563   0.560  2.4307  1.6519 -0.9886
 5026SOL    HW226715   2.275   4.497   0.693 -0.2606 -0.4482 -0.5845
 5027SOL     OW26716   3.345   3.867   3.436  0.3333  0.1750  0.6847
 5027SOL    HW126717   3.411   3.807   3.401  0.5338  0.2157  0.9934
 5027SOL    HW226718   3.316   3.919   3.361  0.0564  0.8972  1.2875
 5028SOL     OW26719   3.790   3.285   3.364 -0.1880 -0.0435 -0.1724
 5028SOL    HW126720   3.706   3.322   3.391  0.6989  1.3282  0.7092
 5028SOL    HW226721   3.801   3.310   3.273 -0.2509 -0.8291 -0.3942
 5029SOL     OW26722   0.262   0.958   0.852  0.0720  0.2110  0.0055
 5029SOL    HW126723   0.179   0.913   0.837  0.2825  0.1286 -0.8647
 5029SOL    HW226724   0.273   0.933   0.944  1.3225 -2.2692 -0.8204
 5030SOL     OW26725   2.250   2.142   5.667  0.3298  0.1348 -0.1116
 5030SOL    HW126726   2.264   2.166   5.758  0.7354  1.0019 -0.3970
 5030SOL    HW226727   2.161   2.170   5.645  0.4069 -0.1256 -0.7612
 5031SOL     OW26728   2.477   0.538  17.640  0.2200  0.0551 -0.0679
 5031SOL    HW126729   2.548   0.504  17.696  0.7899 -0.2021 -0.9491
 5031SOL    HW226730   2.523   0.556  17.558 -0.2836  1.5071 -0.0157
 5032SOL     OW26731   1.455   2.317   6.075 -0.3308 -0.0024  0.0727
 5032SOL    HW126732   1.478   2.389   6.134  1.7943 -0.7692  0.1754
 5032SOL    HW226733   1.373   2.348   6.035  1.4772  0.0962 -3.5824
 5033SOL     OW26734   2.142   3.466   8.487 -0.6690  0.5238 -0.4846
 5033SOL    HW126735   2.190   3.499   8.563  0.9291 -1.0524 -0.7895
 5033SOL    HW226736   2.110   3.381   8.518 -0.5511  0.5000 -0.4249
 5034SOL     OW26737   0.457   2.775  15.079 -0.0186  0.1169 -0.0699
 5034SOL    HW126738   0.475   2.681  15.065 -0.5492  0.0703 -0.4561
 5034SOL    HW226739   0.539   2.792  15.124 -1.7038  0.9118  2.6766
 5035SOL     OW26740   1.624   3.286   2.747  0.0555  0.5234  0.0240
 5035SOL    HW126741   1.601   3.294   2.840  0.3633  0.7300  0.0806
 5035SOL    HW226742   1.599   3.371   2.713  0.7908  0.4954 -0.5599
 5036SOL     OW26743   4.139   3.617   5.938  0.2104 -0.4928 -0.3892
 5036SOL    HW126744   4.067   3.561   5.966 -0.5357  0.4027 -0.5166
 5036SOL    HW226745   4.093   3.690   5.897  0.0061 -0.0389  0.6603
 5037SOL     OW26746   2.229   2.603   2.291 -0.0613  0.3340  0.5552
 5037SOL    HW126747   2.241   2.552   2.211 -0.6613  1.3007 -0.1467
 5037SOL    HW226748   2.305   2.662   2.292  0.2032  0.0133 -0.7748
 5038SOL     OW26749   1.479   1.802   9.313 -1.0603 -0.1029 -0.2574
 5038SOL    HW126750   1.487   1.792   9.218  0.2140  0.9525 -0.2519
 5038SOL    HW226751   1.385   1.789   9.326 -1.4059  3.4855  0.7022
 5039SOL     OW26752   4.041   1.005   1.207 -0.5412  0.3258 -0.0582
 5039SOL    HW126753   4.116   1.064   1.203  0.0699 -0.4590 -0.2360
 5039SOL    HW226754   3.970   1.068   1.207 -1.7956 -1.0932 -0.0721
 5040SOL     OW26755   1.541   0.490  12.944  0.5785 -0.1259 -0.1110
 5040SOL    HW126756   1.489   0.567  12.923  1.8716  0.1135 -2.3974
 5040SOL    HW226757   1.503   0.437  12.874  1.1044 -1.3648  0.5426
 5041SOL     OW26758   0.040   2.271   4.887  0.6410  0.1839 -0.7188
 5041SOL    HW126759   4.732   2.214   4.950 -0.2086  1.2115 -0.3842
 5041SOL    HW226760   0.078   2.203   4.831  1.0876  1.3775 -1.8744
 5042SOL     OW26761   3.277   3.682   2.120 -0.0279  0.3399 -0.7400
 5042SOL    HW126762   3.348   3.618   2.120 -0.6647 -0.3597  1.0667
 5042SOL    HW226763   3.205   3.621   2.104 -0.5545  0.5608  0.8187
 5043SOL     OW26764   0.758   4.640  13.610 -0.1550 -0.0163  0.0726
 5043SOL    HW126765   0.742   4.677  13.523  0.6365 -0.4450 -0.2530
 5043SOL    HW226766   0.832   4.690  13.645 -0.3585  1.7972 -2.0999
 5044SOL     OW26767   4.519   0.204   1.694 -0.4717 -0.5825 -0.2109
 5044SOL    HW126768   4.538   0.192   1.601 -0.8985  1.0864 -0.5129
 5044SOL    HW226769   4.584   0.139   1.720  0.1120 -0.3361 -1.0472
 5045SOL     OW26770   0.734   2.292  10.076  0.1695  0.0494  0.0426
 5045SOL    HW126771   0.779   2.372  10.050 -2.6558  1.5916 -0.1389
 5045SOL    HW226772   0.794   2.265  10.145  0.4124  0.1191 -0.1422
 5046SOL     OW26773   3.524   3.017  17.225  0.4671 -0.4634  0.4354
 5046SOL    HW126774   3.521   3.069  17.145 -0.1822  0.7598  1.2585
 5046SOL    HW226775   3.618   3.002  17.227  0.3016 -1.4114  1.4823
 5047SOL     OW26776   1.477   2.980   9.498 -0.1850  0.5965 -0.1763
 5047SOL    HW126777   1.392   2.974   9.454  0.2250 -1.4000 -0.6869
 5047SOL    HW226778   1.527   2.973   9.416 -1.5427  0.6296 -1.0168
 5048SOL     OW26779   1.730   3.399   6.724 -0.5288 -0.2314  0.1081
 5048SOL    HW126780   1.708   3.335   6.656  0.3712 -0.6952  0.2444
 5048SOL    HW226781   1.649   3.448   6.736 -2.1421 -2.3426 -2.1760
 5049SOL     OW26782   4.308   4.462  15.021 -0.3456  0.7807  0.0512
 5049SOL    HW126783   4.330   4.554  15.039  0.3840  0.9743 -1.7886
 5049SOL    HW226784   4.393   4.428  15.049 -0.0083 -0.4281 -2.4319
 5050SOL     OW26785   3.859   1.619   8.945 -0.2464 -0.3307  0.3237
 5050SOL    HW126786   3.892   1.689   9.002 -0.6749  0.5769 -0.5462
 5050SOL    HW226787   3.890   1.625   8.855 -0.4427 -3.5229  0.0581
 5051SOL     OW26788   1.822   1.974   4.129 -0.1971 -0.2717  0.0425
 5051SOL    HW126789   1.790   2.050   4.081  0.6488 -0.9450 -1.5598
 5051SOL    HW226790   1.911   1.970   4.095  0.2816  0.4673  1.2017
 5052SOL     OW26791   0.867   4.068   3.799  0.3731  0.1087 -0.1702
 5052SOL    HW126792   0.850   4.154   3.837  0.3037 -0.5050  1.1971
 5052SOL    HW226793   0.823   4.007   3.859 -1.0173 -2.1130 -3.4336
 5053SOL     OW26794   4.173   3.290   3.891  0.4234 -0.4342  0.3965
 5053SOL    HW126795   4.082   3.296   3.863  0.1047 -1.2587  1.2527
 5053SOL    HW226796   4.153   3.268   3.982  1.2214  0.8875  0.8884
 5054SOL     OW26797   2.615   2.071   7.667  0.0991 -0.2722  0.1906
 5054SOL    HW126798   2.617   2.060   7.572  0.2148 -2.0686  0.3916
 5054SOL    HW226799   2.523   2.051   7.685  0.1040 -0.7230 -0.2835
 5055SOL     OW26800   1.393   4.301   8.039  0.5159 -0.2829  0.3828
 5055SOL    HW126801   1.393   4.218   8.086  0.1554 -0.5406 -0.0644
 5055SOL    HW226802   1.363   4.277   7.951  1.8708 -0.4837 -0.0341
 5056SOL     OW26803   0.075   3.070   9.842 -0.1814  0.2244  1.0909
 5056SOL    HW126804   0.154   3.021   9.865 -1.0166 -1.8695 -0.5201
 5056SOL    HW226805   0.030   3.063   9.926 -1.6178 -1.0482  0.2055
 5057SOL     OW26806   0.121   3.719   5.224  0.0910  0.8856  0.1672
 5057SOL    HW126807   0.120   3.812   5.200  0.3907  1.2541  1.6285
 5057SOL    HW226808   0.192   3.733   5.287  0.9710 -1.4303 -0.3163
 5058SOL     OW26809   2.159   0.251  11.116  0.1430  0.1987  0.0862
 5058SOL    HW126810   2.221   0.197  11.165 -0.3462 -1.1617 -0.8113
 5058SOL    HW226811   2.177   0.223  11.026 -1.6512  0.3682 -0.3295
 5059SOL     OW26812   0.997   2.043   1.508 -0.1204  0.6098  0.7631
 5059SOL    HW126813   0.963   1.973   1.563  0.9714 -2.3660 -2.3439
 5059SOL    HW226814   1.081   2.011   1.473 -0.3981  1.5037 -0.7433
 5060SOL     OW26815   3.927   3.768   5.426 -0.6775  0.0183 -0.0546
 5060SOL    HW126816   4.008   3.818   5.435 -0.6400  0.0097 -0.3277
 5060SOL    HW226817   3.936   3.757   5.331  0.9306 -2.7478  0.4332
 5061SOL     OW26818   4.357   1.073   3.111  0.0582 -0.6735  0.2990
 5061SOL    HW126819   4.392   1.118   3.034  0.3156  1.2255  1.5343
 5061SOL    HW226820   4.410   1.115   3.179 -1.6509  1.3383  0.3879
 5062SOL     OW26821   0.508   0.972   5.809 -0.1540  0.9067 -0.4045
 5062SOL    HW126822   0.557   0.945   5.887 -0.0348  0.4217 -0.6461
 5062SOL    HW226823   0.554   0.938   5.732 -0.3095 -0.3256  0.0489
 5063SOL     OW26824   2.100   0.411  16.990 -0.3833 -0.1558 -0.3173
 5063SOL    HW126825   2.177   0.420  16.932  0.6979 -1.7880  0.8656
 5063SOL    HW226826   2.081   0.319  16.973  1.2200 -0.6809  0.7024
 5064SOL     OW26827   2.564   0.484   8.226 -0.2021 -0.3215  0.0709
 5064SOL    HW126828   2.652   0.481   8.265 -0.7765 -0.7659  1.3265
 5064SOL    HW226829   2.543   0.392   8.208 -0.7096 -0.3138  0.6361
 5065SOL     OW26830   1.975   4.536   2.091  0.0947 -0.0229  0.2783
 5065SOL    HW126831   1.959   4.605   2.027  3.0159 -0.9694 -1.4767
 5065SOL    HW226832   2.068   4.519   2.073 -0.4982 -0.5054 -2.2530
 5066SOL     OW26833   1.876   3.828   6.557 -0.1216 -0.7798  0.1060
 5066SOL    HW126834   1.890   3.750   6.611  2.6623 -0.0966  0.3662
 5066SOL    HW226835   1.960   3.873   6.550 -0.6345  0.1939  0.3701
 5067SOL     OW26836   2.695   3.922   5.158  0.0952 -0.7139 -0.2635
 5067SOL    HW126837   2.759   3.874   5.105  0.9724 -2.0089  1.9483
 5067SOL    HW226838   2.621   3.861   5.149  0.9774 -1.9769  1.0555
 5068SOL     OW26839   1.473   4.574  16.586  0.3046 -0.2976  0.4244
 5068SOL    HW126840   1.434   4.486  16.590 -0.1028 -0.1604 -0.4817
 5068SOL    HW226841   1.388   4.617  16.588  0.5736  0.2453 -0.0276
 5069SOL     OW26842   2.944   0.266  15.466 -0.0575  0.1153  0.2813
 5069SOL    HW126843   2.918   0.192  15.521 -0.8602 -2.2598 -3.2599
 5069SOL    HW226844   3.010   0.224  15.410 -0.5626  0.7203 -0.7651
 5070SOL     OW26845   3.922   0.117   7.053  0.2188  0.1120 -0.2248
 5070SOL    HW126846   3.932   0.030   7.091 -1.1217  0.6485  1.3487
 5070SOL    HW226847   3.979   0.173   7.106  0.9003  0.6369 -1.4962
 5071SOL     OW26848   0.305   1.794   6.202  1.3246  0.0828 -0.0127
 5071SOL    HW126849   0.314   1.822   6.293  0.1176 -0.3519  0.2303
 5071SOL    HW226850   0.371   1.845   6.155  0.1793 -0.0584 -1.7509
 5072SOL     OW26851   2.363   4.246   7.612  0.0532  0.8364 -0.0835
 5072SOL    HW126852   2.410   4.163   7.608  0.0911  0.9598 -2.8471
 5072SOL    HW226853   2.333   4.248   7.702  0.4560  1.6262  0.0316
 5073SOL     OW26854   4.062   2.124   2.509 -0.3809  0.4708  0.1801
 5073SOL    HW126855   4.001   2.182   2.463 -1.6463 -2.1260 -1.4359
 5073SOL    HW226856   4.148   2.145   2.473 -2.0299  2.4179 -2.6196
 5074SOL     OW26857   4.576   2.699  12.305  0.2071 -0.0910  0.1978
 5074SOL    HW126858   4.537   2.618  12.272  0.8651  0.5209 -2.0927
 5074SOL    HW226859   4.595   2.670  12.394  0.5597  2.1932  0.8643
 5075SOL     OW26860   2.016   2.873  13.331 -0.4583  0.6630 -0.0252
 5075SOL    HW126861   2.100   2.918  13.330 -1.3452  2.3326 -0.5275
 5075SOL    HW226862   1.988   2.894  13.242 -1.2498  0.1371  0.1025
 5076SOL     OW26863   3.930   0.682   4.594  0.3482 -0.0754 -0.2764
 5076SOL    HW126864   3.880   0.601   4.608 -1.0307  0.5301 -1.6635
 5076SOL    HW226865   3.897   0.703   4.506 -0.9037  2.2890  0.7776
 5077SOL     OW26866   0.978   2.785  10.351 -0.4860 -0.1079  0.5951
 5077SOL    HW126867   0.926   2.811  10.275 -0.5051  1.2219  1.0734
 5077SOL    HW226868   0.929   2.705  10.373 -1.8430  0.8968  1.2119
 5078SOL     OW26869   3.196   0.142  13.929 -0.2293 -0.5689  0.1558
 5078SOL    HW126870   3.256   0.193  13.875 -0.3768  0.3104  0.8298
 5078SOL    HW226871   3.231   0.053  13.934 -0.0141 -0.3931  1.7010
 5079SOL     OW26872   1.296   0.154   0.257 -0.1900  0.0898 -0.2871
 5079SOL    HW126873   1.293   0.250   0.253 -0.2488  0.0690 -0.8157
 5079SOL    HW226874   1.380   0.155   0.303  0.5514  1.0784 -1.6872
 5080SOL     OW26875   0.900   4.091   6.133 -0.4339 -0.6938  0.4474
 5080SOL    HW126876   0.978   4.089   6.078 -0.4755 -1.1183  0.4049
 5080SOL    HW226877   0.839   4.136   6.075  2.0207  0.9770 -0.8392
 5081SOL     OW26878   2.981   4.090  11.089 -0.7488 -0.4744  1.0887
 5081SOL    HW126879   2.938   4.105  11.005  0.8549 -0.5482  0.2714
 5081SOL    HW226880   3.051   4.029  11.067 -0.7865  0.0395 -0.4211
 5082SOL     OW26881   4.056   1.493  13.813 -0.3597  0.7645 -0.0520
 5082SOL    HW126882   4.110   1.476  13.736  0.9537  1.4084  0.7416
 5082SOL    HW226883   4.129   1.527  13.865 -0.4872  2.0815 -0.7315
 5083SOL     OW26884   1.308   4.338  14.174  0.3544 -0.2168 -0.5718
 5083SOL    HW126885   1.261   4.313  14.254 -2.5658  2.2687 -1.5066
 5083SOL    HW226886   1.342   4.257  14.136  0.4869 -1.5546  2.4246
 5084SOL     OW26887   3.207   3.487  15.775  0.0439  0.5619  0.0931
 5084SOL    HW126888   3.242   3.460  15.690  2.3073  1.2863  0.7942
 5084SOL    HW226889   3.280   3.504  15.835  1.4682 -0.5567 -1.3208
 5085SOL     OW26890   2.382   0.071   3.085  0.2920  0.3495  0.1899
 5085SOL    HW126891   2.464   0.115   3.106 -0.7049  1.9664  0.7222
 5085SOL    HW226892   2.343   0.142   3.034  2.1055 -0.0143 -1.6894
 5086SOL     OW26893   1.630   3.177   0.095  0.1903 -0.4170 -0.2875
 5086SOL    HW126894   1.562   3.121   0.132 -0.9087  0.2656 -1.2973
 5086SOL    HW226895   1.679   3.109   0.048 -0.1147  0.7315 -2.2532
 5087SOL     OW26896   0.844   0.879   4.751 -0.0555  0.0033  0.0226
 5087SOL    HW126897   0.794   0.895   4.671 -0.8989  0.3054  0.5997
 5087SOL    HW226898   0.791   0.904   4.827 -0.1989  1.7575 -0.6520
 5088SOL     OW26899   1.396   3.289   5.549  0.0034  0.6259  0.3648
 5088SOL    HW126900   1.315   3.313   5.594 -0.0668 -0.4493  0.8139
 5088SOL    HW226901   1.360   3.207   5.514 -1.0078  0.7070  1.2143
 5089SOL     OW26902   3.132   4.240   5.814 -0.2945  0.0754 -0.2618
 5089SOL    HW126903   3.192   4.168   5.794  1.8138  2.2512 -1.8019
 5089SOL    HW226904   3.199   4.303   5.839  0.8873 -2.0427  1.9288
 5090SOL     OW26905   4.540   4.181   4.608 -0.3452  0.1466  0.3485
 5090SOL    HW126906   4.579   4.246   4.666  0.0969 -0.9685  1.2864
 5090SOL    HW226907   4.603   4.109   4.601  0.4449  0.7813  1.0226
 5091SOL     OW26908   3.692   3.884   9.301 -0.1896  0.3100  0.1127
 5091SOL    HW126909   3.704   3.932   9.219 -0.6399  0.5333  0.1735
 5091SOL    HW226910   3.724   3.796   9.282 -2.1547 -0.2185 -0.7497
 5092SOL     OW26911   4.298   0.656   0.462 -0.5629  0.5089 -0.3722
 5092SOL    HW126912   4.356   0.608   0.522 -0.9666 -0.4469 -0.7442
 5092SOL    HW226913   4.348   0.633   0.384  1.1630  2.3629  0.1745
 5093SOL     OW26914   2.026   3.699   2.550  0.8012  0.2389 -0.8069
 5093SOL    HW126915   2.048   3.779   2.596  0.2220 -0.4095  0.5788
 5093SOL    HW226916   2.105   3.685   2.497  1.6756  0.9530  0.3200
 5094SOL     OW26917   2.628   1.875   5.032  0.0073 -0.2555 -0.0579
 5094SOL    HW126918   2.594   1.888   5.121 -1.3649 -2.6721 -0.2399
 5094SOL    HW226919   2.712   1.920   5.040 -1.5452  2.3351  1.7138
 5095SOL     OW26920   3.263   4.018  15.163 -0.4732 -0.1532 -0.1456
 5095SOL    HW126921   3.237   4.092  15.218 -0.3410  1.6756 -2.5410
 5095SOL    HW226922   3.354   4.037  15.140 -0.5924  1.7992  0.9765
 5096SOL     OW26923   3.736   4.525   7.855  0.0148 -0.2030 -0.1696
 5096SOL    HW126924   3.683   4.551   7.931 -1.1931 -0.3259 -0.9652
 5096SOL    HW226925   3.737   4.431   7.872  4.0314  0.3586  2.7672
 5097SOL     OW26926   0.602   3.407  10.068 -0.0484  0.0640 -0.8268
 5097SOL    HW126927   0.511   3.428  10.049 -0.1989 -1.4091 -1.7591
 5097SOL    HW226928   0.652   3.486  10.046 -0.6412  0.5655 -0.3606
 5098SOL     OW26929   2.570   4.118   4.169  0.4094 -0.0074 -0.3071
 5098SOL    HW126930   2.665   4.112   4.179  0.2812 -1.9542 -0.1444
 5098SOL    HW226931   2.550   4.029   4.140  0.0866 -0.6095  1.7944
 5099SOL     OW26932   1.244   0.025  13.850 -0.4332 -0.1232 -0.0677
 5099SOL    HW126933   1.240   0.098  13.912  1.4715 -1.1743  1.3103
 5099SOL    HW226934   1.228   4.699  13.921 -1.7811 -0.4843 -0.7101
 5100SOL     OW26935   1.230   1.440  17.330  0.0516  0.3377  0.9710
 5100SOL    HW126936   1.219   1.450  17.235  0.3489 -0.0628  0.8943
 5100SOL    HW226937   1.301   1.498  17.357  1.0417  0.6419 -2.2357
 5101SOL     OW26938   0.203   4.386   5.074 -0.1595 -0.3428  0.3106
 5101SOL    HW126939   0.172   4.453   5.013 -0.0757 -0.7962 -0.2298
 5101SOL    HW226940   0.123   4.346   5.106 -0.8983  0.4638 -0.5105
 5102SOL     OW26941   0.009   1.120   4.199  0.1647  0.4467  0.1453
 5102SOL    HW126942   0.047   1.061   4.135  0.0770  1.7383 -1.0950
 5102SOL    HW226943   4.693   1.175   4.141  0.5607 -0.8202 -1.3947
 5103SOL     OW26944   4.369   2.957   5.964 -0.4444  0.3135 -0.4010
 5103SOL    HW126945   4.348   3.011   6.041  2.1914 -0.3005  0.7638
 5103SOL    HW226946   4.404   2.883   6.013 -0.2751 -0.1990 -1.2979
 5104SOL     OW26947   1.948   1.781   6.394 -0.5879 -0.0958  0.2641
 5104SOL    HW126948   1.999   1.783   6.313 -1.1022 -0.0947 -0.0606
 5104SOL    HW226949   1.898   1.700   6.399  1.5037 -1.5093 -1.7537
 5105SOL     OW26950   2.764   0.110   2.065 -0.0552 -0.2087  0.1471
 5105SOL    HW126951   2.681   0.121   2.111 -0.5036  1.2349 -0.9921
 5105SOL    HW226952   2.743   0.047   1.997  2.8488  1.2845 -2.1160
 5106SOL     OW26953   1.132   2.216   3.338  0.0675  0.5860  0.3117
 5106SOL    HW126954   1.101   2.307   3.341 -2.7806 -0.4696  2.0015
 5106SOL    HW226955   1.224   2.222   3.363  0.2943  0.7440 -0.5304
 5107SOL     OW26956   3.703   3.015  17.493 -0.3324  0.5814 -0.1631
 5107SOL    HW126957   3.733   3.013  17.402 -1.6229  0.0438 -0.5787
 5107SOL    HW226958   3.705   3.110  17.504 -0.7549  0.8208 -2.2067
 5108SOL     OW26959   1.536   0.998   2.864  0.6568  0.2733  0.3679
 5108SOL    HW126960   1.544   1.090   2.837  4.2403 -0.5970 -1.4769
 5108SOL    HW226961   1.628   0.974   2.862  1.5197  3.5324  0.8297
 5109SOL     OW26962   0.708   1.633  10.027  0.1650 -0.0021  0.1436
 5109SOL    HW126963   0.617   1.626   9.996 -0.1217  0.0184  0.9711
 5109SOL    HW226964   0.699   1.629  10.122  0.3034  1.7821  0.2350
 5110SOL     OW26965   4.237   1.691  14.945 -0.0521 -0.3713 -0.8216
 5110SOL    HW126966   4.329   1.689  14.922  0.1921 -1.4364  0.2207
 5110SOL    HW226967   4.210   1.630  14.877 -1.5280 -1.1776  0.4798
 5111SOL     OW26968   2.230   3.261  10.354 -0.5166  0.1096  0.4341
 5111SOL    HW126969   2.136   3.265  10.336 -0.3400  0.6893 -0.3542
 5111SOL    HW226970   2.229   3.192  10.420 -1.9529  1.7742  2.1682
 5112SOL     OW26971   3.176   3.053   3.403  0.6009  0.2127 -0.2320
 5112SOL    HW126972   3.134   2.968   3.397 -2.0219  1.7764 -3.7987
 5112SOL    HW226973   3.103   3.113   3.388  0.5714 -0.5064 -2.9194
 5113SOL     OW26974   2.391   3.253  11.920  0.0953  0.0297  0.0835
 5113SOL    HW126975   2.440   3.171  11.916  1.1276  0.6260  0.5897
 5113SOL    HW226976   2.453   3.324  11.906  0.9579 -0.5263  1.0972
 5114SOL     OW26977   0.746   1.941   4.007  0.0765  0.2723  0.0141
 5114SOL    HW126978   0.827   1.896   4.032  1.0313  2.6400  1.1090
 5114SOL    HW226979   0.768   2.001   3.937  2.7373 -2.4046 -1.4541
 5115SOL     OW26980   3.138   1.344  17.618 -0.6216 -0.3545  0.1174
 5115SOL    HW126981   3.186   1.269  17.582  1.6546  0.7874  0.7652
 5115SOL    HW226982   3.208   1.363  17.680 -0.6727  0.5983 -0.1182
 5116SOL     OW26983   0.317   2.641   6.863 -0.4550  0.5200 -0.5943
 5116SOL    HW126984   0.284   2.561   6.821 -2.1889  0.1642  1.4467
 5116SOL    HW226985   0.266   2.643   6.945 -3.4390 -0.1139 -2.4102
 5117SOL     OW26986   1.878   3.925   5.768  0.2824 -0.1244 -0.0475
 5117SOL    HW126987   1.787   3.948   5.752  0.5700 -0.4262 -2.1903
 5117SOL    HW226988   1.904   3.974   5.846 -0.8298  0.1379  0.1494
 5118SOL     OW26989   0.212   2.695   1.130  0.2664  0.4512  0.3745
 5118SOL    HW126990   0.197   2.625   1.193 -0.3779  0.4540  0.2187
 5118SOL    HW226991   0.130   2.744   1.134 -0.0417  0.0415 -0.9589
 5119SOL     OW26992   3.546   2.988   9.802  0.1061 -0.1529  0.2214
 5119SOL    HW126993   3.610   3.028   9.744  0.0036 -0.4865 -0.1258
 5119SOL    HW226994   3.548   2.896   9.774 -0.5860  0.7361 -2.6865
 5120SOL     OW26995   0.385   4.066   2.436  0.3114 -0.0696  0.2861
 5120SOL    HW126996   0.377   4.082   2.530  1.3127 -1.2108  0.5664
 5120SOL    HW226997   0.473   4.101   2.418 -0.6570  1.4813 -1.4214
 5121SOL     OW26998   3.827   3.630   0.692  0.2684  0.0742  0.6455
 5121SOL    HW126999   3.901   3.663   0.641 -0.8139 -1.2391 -1.7669
 5121SOL    HW227000   3.867   3.546   0.711 -2.1130 -0.8530  1.5884
 5122SOL     OW27001   0.854   4.362   6.784 -0.6368 -0.2834 -0.1966
 5122SOL    HW127002   0.773   4.314   6.799 -0.8612 -0.1952 -1.1562
 5122SOL    HW227003   0.923   4.301   6.759 -0.4959 -0.3573  0.3813
 5123SOL     OW27004   2.824   0.488   8.302  0.0949 -0.7152 -0.1984
 5123SOL    HW127005   2.892   0.456   8.243  0.8332  2.0073 -0.8343
 5123SOL    HW227006   2.814   0.410   8.356 -1.1766 -1.4422 -1.4705
 5124SOL     OW27007   2.326   3.044   7.982  0.1744 -0.3473 -0.0835
 5124SOL    HW127008   2.273   3.048   8.062 -0.3665  1.5788 -0.5444
 5124SOL    HW227009   2.277   2.995   7.917 -1.1147  1.3195 -0.3634
 5125SOL     OW27010   3.385   3.657  15.186  0.0681 -0.2071 -0.2739
 5125SOL    HW127011   3.321   3.701  15.242 -0.8736 -0.4940 -1.1056
 5125SOL    HW227012   3.359   3.565  15.194 -0.1835 -0.1911 -0.8239
 5126SOL     OW27013   0.883   1.551  12.320 -0.1090  0.2730 -0.4926
 5126SOL    HW127014   0.790   1.537  12.339 -0.1182  1.2418  0.1824
 5126SOL    HW227015   0.896   1.496  12.243  1.4947  1.7229 -1.2651
 5127SOL     OW27016   3.017   3.627   1.914 -0.3989 -0.5502 -0.1184
 5127SOL    HW127017   2.994   3.717   1.936  1.3017  0.2823 -1.6872
 5127SOL    HW227018   3.039   3.637   1.821 -1.5767  3.1601  0.0237
 5128SOL     OW27019   0.680   3.194   9.852 -0.1919  0.6454  0.0465
 5128SOL    HW127020   0.764   3.167   9.890 -0.0339  0.2369 -0.5910
 5128SOL    HW227021   0.653   3.266   9.909 -1.8583 -1.5691  2.0629
 5129SOL     OW27022   2.105   1.348   9.549 -0.9451  1.0279  0.2376
 5129SOL    HW127023   2.029   1.392   9.512 -0.0956  0.8876 -1.6346
 5129SOL    HW227024   2.056   1.292   9.610 -0.9364  1.6935  0.8572
 5130SOL     OW27025   2.831   2.187  12.220  0.0152 -0.2286  0.1420
 5130SOL    HW127026   2.766   2.247  12.183 -0.4348  1.0092  2.9139
 5130SOL    HW227027   2.910   2.219  12.177  0.7261  0.3694  1.8765
 5131SOL     OW27028   2.447   1.687   8.504 -0.3221  0.1200  0.3089
 5131SOL    HW127029   2.452   1.638   8.586 -0.7366 -0.3572  0.0531
 5131SOL    HW227030   2.376   1.649   8.451  2.3848  0.5556 -3.6353
 5132SOL     OW27031   1.634   2.113   5.195 -0.1521  0.2038 -0.1254
 5132SOL    HW127032   1.720   2.118   5.236  0.3866 -2.0097 -0.9750
 5132SOL    HW227033   1.584   2.072   5.266  0.2100 -1.8991 -1.0921
 5133SOL     OW27034   0.519   2.740   2.070  0.7436 -0.4313 -0.2740
 5133SOL    HW127035   0.501   2.647   2.082  2.4130 -0.7633 -0.3292
 5133SOL    HW227036   0.501   2.743   1.976 -1.6836 -1.3702  0.1679
 5134SOL     OW27037   2.732   3.519  13.670 -0.0698 -0.4418  0.1563
 5134SOL    HW127038   2.642   3.488  13.665 -0.1723  0.1553 -1.4901
 5134SOL    HW227039   2.775   3.436  13.653 -1.3024 -0.8098 -1.1830
 5135SOL     OW27040   1.403   2.406   4.529  1.0503 -0.5901 -0.2635
 5135SOL    HW127041   1.334   2.346   4.557  0.5003 -0.5388 -1.5066
 5135SOL    HW227042   1.356   2.474   4.480  1.1777  0.8660  1.6218
 5136SOL     OW27043   1.456   0.298  13.120  0.4799  1.0183  0.4002
 5136SOL    HW127044   1.506   0.360  13.067  0.0846  0.5495 -0.5221
 5136SOL    HW227045   1.451   0.220  13.065 -0.3983 -0.0244  1.9359
 5137SOL     OW27046   4.571   1.844   7.833  0.5453  0.2003 -0.4130
 5137SOL    HW127047   4.487   1.816   7.798  0.6034  0.2384 -0.5845
 5137SOL    HW227048   4.549   1.908   7.901 -0.6891  0.3559 -0.9692
 5138SOL     OW27049   1.971   3.164   2.074  0.2285 -0.4474 -0.2752
 5138SOL    HW127050   2.038   3.227   2.048  0.3540 -0.0154  1.1282
 5138SOL    HW227051   1.915   3.220   2.128  1.6333 -0.5667  1.2922
 5139SOL     OW27052   0.916   2.172   6.703  0.0565  0.1536  0.3273
 5139SOL    HW127053   0.982   2.228   6.664 -2.1815  1.7994 -1.0737
 5139SOL    HW227054   0.937   2.093   6.652 -4.0989 -0.2385 -0.8187
 5140SOL     OW27055   3.702   1.604   3.976  0.6811 -0.2073 -0.2271
 5140SOL    HW127056   3.650   1.529   4.005 -0.6997  0.7015 -0.3426
 5140SOL    HW227057   3.660   1.671   4.030  0.0770  0.2197 -1.2349
 5141SOL     OW27058   4.097   1.764   5.132  0.7341 -0.1880  0.1751
 5141SOL    HW127059   4.186   1.731   5.119  0.9478 -0.0474  1.2567
 5141SOL    HW227060   4.046   1.753   5.052  2.3840  0.3583 -0.9400
 5142SOL     OW27061   1.488   3.677   4.561 -0.1778 -0.1365 -0.2239
 5142SOL    HW127062   1.472   3.583   4.554  0.8420 -0.3091 -0.1998
 5142SOL    HW227063   1.425   3.714   4.499  0.8688  1.9421 -0.0524
 5143SOL     OW27064   3.698   4.662   2.274 -0.2803 -0.0846 -0.3888
 5143SOL    HW127065   3.769   4.716   2.309  0.2543  0.1370 -1.8185
 5143SOL    HW227066   3.672   4.711   2.195  2.0721  0.4018 -0.8811
 5144SOL     OW27067   2.632   3.898  12.169  0.0458  0.0670 -0.2229
 5144SOL    HW127068   2.698   3.883  12.101 -0.7088  0.8634 -1.1283
 5144SOL    HW227069   2.641   3.816  12.217 -0.7399  1.6301  2.6483
 5145SOL     OW27070   1.994   3.336   4.750  0.6604  0.3649  0.6194
 5145SOL    HW127071   2.002   3.357   4.843  0.5734 -1.2520  0.9881
 5145SOL    HW227072   2.075   3.286   4.743 -0.0848 -0.8897  1.0546
 5146SOL     OW27073   1.072   2.139   6.152  0.1295  0.2305 -0.3626
 5146SOL    HW127074   0.984   2.169   6.132 -0.6836 -0.9561  1.5019
 5146SOL    HW227075   1.114   2.117   6.068  1.7440  0.9839  0.2338
 5147SOL     OW27076   0.280   4.709   1.263 -0.3007  0.1042  0.2236
 5147SOL    HW127077   0.359   4.684   1.311 -0.2214 -0.5981 -0.2762
 5147SOL    HW227078   0.218   4.650   1.306 -1.2326 -0.5163 -1.9270
 5148SOL     OW27079   1.782   3.068   8.675  0.1758  0.0533  0.0913
 5148SOL    HW127080   1.776   2.998   8.610 -1.3973 -0.2995  0.6394
 5148SOL    HW227081   1.691   3.078   8.700  0.2541  1.3892 -0.1700
 5149SOL     OW27082   2.060   0.947   2.938 -0.1597 -0.1399  0.3899
 5149SOL    HW127083   2.125   1.017   2.942 -1.4588  1.0467  0.6876
 5149SOL    HW227084   2.090   0.893   2.865 -0.0452 -0.6998  0.8513
 5150SOL     OW27085   1.878   0.201   2.010 -0.0528  0.2943  1.0437
 5150SOL    HW127086   1.965   0.208   2.049  0.4940 -0.5118 -0.0277
 5150SOL    HW227087   1.873   0.291   1.979  0.8920  0.2309  0.6924
 5151SOL     OW27088   4.306   4.499   7.308 -0.2949  0.2166 -0.6269
 5151SOL    HW127089   4.315   4.506   7.403 -1.7452 -1.8686 -0.3468
 5151SOL    HW227090   4.359   4.569   7.270 -0.7545  0.0659 -1.5501
 5152SOL     OW27091   2.374   1.033   2.364 -0.1427  0.1633 -0.1047
 5152SOL    HW127092   2.304   1.097   2.352  0.9640  1.3858 -0.0363
 5152SOL    HW227093   2.391   0.999   2.276 -1.3388 -1.3941  0.2646
 5153SOL     OW27094   3.904   4.357   2.498 -0.0132  0.1168  0.2648
 5153SOL    HW127095   3.851   4.377   2.421  0.6289  1.6445  0.2153
 5153SOL    HW227096   3.940   4.446   2.502 -0.7704  0.4575 -0.3261
 5154SOL     OW27097   4.450   2.784   1.283 -0.5125 -0.3342 -0.2368
 5154SOL    HW127098   4.441   2.865   1.333 -0.7272 -0.5039 -0.0018
 5154SOL    HW227099   4.359   2.757   1.275  0.1309 -2.4782 -0.2604
 5155SOL     OW27100   0.961   2.455   5.761  0.2176 -0.2135  0.0020
 5155SOL    HW127101   0.963   2.525   5.696 -0.4365 -0.2378 -0.0465
 5155SOL    HW227102   0.934   2.373   5.719 -0.3121  0.2646 -0.5992
 5156SOL     OW27103   0.513   0.263   4.172  0.0472 -0.3570 -0.5567
 5156SOL    HW127104   0.446   0.219   4.120 -1.9123 -0.8837  2.3635
 5156SOL    HW227105   0.589   0.211   4.148 -0.6316 -0.0365 -3.3374
 5157SOL     OW27106   3.817   1.204   2.099  0.2621  0.5668 -0.1198
 5157SOL    HW127107   3.908   1.230   2.112  0.4396  1.0065 -2.3005
 5157SOL    HW227108   3.793   1.245   2.017 -0.3579 -1.1767 -0.8045
 5158SOL     OW27109   2.329   0.744   2.848 -0.0157  0.0766 -0.1991
 5158SOL    HW127110   2.351   0.656   2.878 -0.5902  0.5422  1.5546
 5158SOL    HW227111   2.263   0.725   2.781  0.6652  0.6010 -1.0213
 5159SOL     OW27112   3.542   0.204   9.138  0.1473 -0.5154 -0.2386
 5159SOL    HW127113   3.568   0.293   9.160 -2.7824 -0.2309  2.0607
 5159SOL    HW227114   3.448   0.218   9.142  0.2134  0.0130 -0.5364
 5160SOL     OW27115   2.939   4.262   5.433 -0.5038 -0.0653 -0.6709
 5160SOL    HW127116   2.929   4.208   5.512  1.1721  1.0285  0.2841
 5160SOL    HW227117   2.927   4.192   5.369  1.8924  0.4433 -1.6709
 5161SOL     OW27118   1.457   4.462   4.232 -0.2182  0.1023 -0.0485
 5161SOL    HW127119   1.463   4.385   4.289  2.7732  1.0860  0.9304
 5161SOL    HW227120   1.365   4.486   4.244 -0.5925 -0.6469 -1.3260
 5162SOL     OW27121   1.818   0.755  16.037  0.6224  0.1126  0.2288
 5162SOL    HW127122   1.845   0.846  16.026  1.8895 -0.1725  0.9168
 5162SOL    HW227123   1.880   0.706  15.983  1.7959  0.3885  1.3068
 5163SOL     OW27124   3.994   1.943  15.303 -0.1142  0.8340 -0.1938
 5163SOL    HW127125   4.029   1.922  15.216 -3.8204 -4.3386 -0.4080
 5163SOL    HW227126   4.067   1.996  15.334  1.0652 -0.7682 -0.2031
 5164SOL     OW27127   2.999   3.848   8.626 -0.3255  0.6923  0.3811
 5164SOL    HW127128   3.046   3.784   8.573 -3.9835  0.5376 -2.7061
 5164SOL    HW227129   2.997   3.801   8.710 -1.1542  2.7824  1.5229
 5165SOL     OW27130   4.080   1.582   8.078  0.8452 -0.2249  0.6456
 5165SOL    HW127131   4.046   1.552   7.994 -1.3078 -2.2506  2.2461
 5165SOL    HW227132   4.166   1.616   8.051  1.4448 -1.7681  0.5891
 5166SOL     OW27133   4.658   2.738  11.285 -0.0327 -0.7790 -0.2101
 5166SOL    HW127134   4.599   2.692  11.344 -0.0342 -0.3641  0.1126
 5166SOL    HW227135   4.735   2.688  11.312 -0.0818 -1.2779 -0.9982
 5167SOL     OW27136   2.185   4.408   6.078  1.1929 -0.3141  0.1154
 5167SOL    HW127137   2.220   4.401   5.989 -0.8770 -0.8192 -0.6721
 5167SOL    HW227138   2.102   4.454   6.065  1.9655  0.4589 -2.1051
 5168SOL     OW27139   3.382   0.321   2.413  0.3714 -0.4139  0.2632
 5168SOL    HW127140   3.323   0.303   2.340  0.4516  1.8407 -0.3618
 5168SOL    HW227141   3.462   0.352   2.369  0.2577 -0.0021  0.3481
 5169SOL     OW27142   1.389   1.789   5.157  0.5968 -0.6945 -0.2551
 5169SOL    HW127143   1.304   1.759   5.124  0.4438 -0.2539 -0.2687
 5169SOL    HW227144   1.443   1.710   5.154 -1.3980 -2.0503 -0.4316
 5170SOL     OW27145   1.231   1.700   2.545 -0.4004  0.2995 -0.1875
 5170SOL    HW127146   1.270   1.766   2.487 -1.0194  0.3094 -0.5852
 5170SOL    HW227147   1.250   1.734   2.633  0.3212  1.1736 -0.6706
 5171SOL     OW27148   2.478   3.748   6.277  0.4928  0.3739  0.1048
 5171SOL    HW127149   2.534   3.671   6.267  1.0131  0.2654  3.8915
 5171SOL    HW227150   2.548   3.813   6.280 -0.9299  1.8372  1.4455
 5172SOL     OW27151   1.923   0.304   3.721 -0.3410  0.7819 -0.2492
 5172SOL    HW127152   1.985   0.263   3.661  2.2816  0.6778  2.5101
 5172SOL    HW227153   1.884   0.224   3.756 -1.1788  0.9964 -0.7083
 5173SOL     OW27154   3.383   2.138   3.017 -0.1554  0.5211  0.1219
 5173SOL    HW127155   3.377   2.119   2.923 -0.3735 -3.9033  1.0290
 5173SOL    HW227156   3.452   2.205   3.016 -0.6402  1.0400  3.8548
 5174SOL     OW27157   1.596   0.657   6.776 -0.0880  0.4766 -0.1381
 5174SOL    HW127158   1.609   0.563   6.786  1.5414  0.9652  2.2386
 5174SOL    HW227159   1.512   0.651   6.732 -0.7275 -1.1871  1.3480
 5175SOL     OW27160   0.026   0.683  12.272  0.0300  0.3141 -0.0005
 5175SOL    HW127161   4.698   0.708  12.338 -1.6514  0.3307 -1.6147
 5175SOL    HW227162   0.104   0.652  12.318 -0.1372  0.6847  0.5264
 5176SOL     OW27163   3.354   0.754   7.773 -0.1267  0.2679 -0.2970
 5176SOL    HW127164   3.400   0.828   7.735 -1.7608  0.3479 -2.1214
 5176SOL    HW227165   3.264   0.768   7.742 -0.5454  1.2958  1.4059
 5177SOL     OW27166   4.449   4.207   2.391  0.0751 -0.2529  0.5082
 5177SOL    HW127167   4.439   4.166   2.477  2.0711 -3.1220 -0.6256
 5177SOL    HW227168   4.377   4.158   2.351  0.4635  0.1018 -0.6127
 5178SOL     OW27169   1.420   3.235   2.386 -1.0276  0.1335  0.6492
 5178SOL    HW127170   1.366   3.161   2.413  1.2363 -0.7551  2.7170
 5178SOL    HW227171   1.358   3.308   2.381 -1.8041 -0.6646 -1.1991
 5179SOL     OW27172   3.204   2.125   8.449  0.6142  0.1272 -0.3942
 5179SOL    HW127173   3.253   2.126   8.531  0.3561  0.2447 -0.2411
 5179SOL    HW227174   3.134   2.179   8.486  2.0679  1.8100 -0.0931
 5180SOL     OW27175   1.957   0.124   3.064  0.0344 -0.1080 -0.1245
 5180SOL    HW127176   1.913   0.123   2.979 -2.3704  1.5967  1.1110
 5180SOL    HW227177   1.928   0.040   3.099 -0.3356 -0.0318 -0.2457
 5181SOL     OW27178   3.282   3.575   1.204 -0.3307 -0.4799  0.6748
 5181SOL    HW127179   3.372   3.584   1.173 -0.4690  0.4056  0.5177
 5181SOL    HW227180   3.231   3.520   1.146 -0.7892 -1.5019  2.0405
 5182SOL     OW27181   0.735   2.934   9.425 -0.3196  0.1675  0.4020
 5182SOL    HW127182   0.821   2.923   9.384 -0.0691 -3.3079  1.8428
 5182SOL    HW227183   0.760   2.996   9.494  0.4894  2.4353 -1.8995
 5183SOL     OW27184   0.302   3.381   2.661  0.5263 -0.1349  0.2877
 5183SOL    HW127185   0.318   3.287   2.670  1.3113 -0.0486 -0.1847
 5183SOL    HW227186   0.272   3.405   2.748  0.2751 -0.0448  0.1745
 5184SOL     OW27187   1.012   0.302  10.411  0.3562 -0.5800 -0.4207
 5184SOL    HW127188   1.043   0.245  10.340  2.3135  1.0193 -0.8389
 5184SOL    HW227189   1.092   0.292  10.461  1.0612  2.0877 -0.9759
 5185SOL     OW27190   4.131   1.943   0.523  0.1388  0.3885  0.0993
 5185SOL    HW127191   4.048   1.973   0.486 -0.8842  0.8519  2.7571
 5185SOL    HW227192   4.191   2.001   0.475 -0.3735  1.2832  0.5250
 5186SOL     OW27193   2.635   3.366  16.194  0.1663 -0.0854 -0.3503
 5186SOL    HW127194   2.606   3.455  16.215 -0.0180 -0.1695 -0.2510
 5186SOL    HW227195   2.711   3.378  16.137  1.1186 -2.2747  0.4870
 5187SOL     OW27196   2.768   4.626   1.870 -0.2982  0.2560  0.4891
 5187SOL    HW127197   2.723   4.550   1.907  1.1002 -0.8209 -0.0264
 5187SOL    HW227198   2.862   4.611   1.878  0.0617  1.6396 -1.1476
 5188SOL     OW27199   1.053   2.783  12.804  0.1995 -0.1727 -0.1316
 5188SOL    HW127200   1.009   2.864  12.832 -1.5204 -1.1261 -0.1144
 5188SOL    HW227201   0.984   2.725  12.775 -1.2983  1.5134  0.0431
 5189SOL     OW27202   4.405   1.393   1.485 -0.0420  0.2542  0.6724
 5189SOL    HW127203   4.467   1.431   1.547  0.1735  1.0368 -0.0347
 5189SOL    HW227204   4.449   1.418   1.404  0.7501 -0.4633  0.8767
 5190SOL     OW27205   4.485   4.667   4.242 -0.0859  0.0603 -0.2991
 5190SOL    HW127206   4.548   4.598   4.218 -2.8251 -1.7910 -2.1230
 5190SOL    HW227207   4.422   4.607   4.282 -0.3812  1.1990  0.9482
 5191SOL     OW27208   3.946   0.946  12.964  0.1847  0.3296  0.5336
 5191SOL    HW127209   3.927   0.856  12.992  0.6588  1.1148  3.4021
 5191SOL    HW227210   4.020   0.962  13.023  0.7197  0.8047 -0.2635
 5192SOL     OW27211   0.010   4.107   6.316 -0.4554 -0.7393  0.1054
 5192SOL    HW127212   0.046   4.196   6.323  0.2213 -1.1182  1.4260
 5192SOL    HW227213   0.007   4.084   6.223 -0.8053 -0.8200  0.1370
 5193SOL     OW27214   1.377   0.385  11.731  0.6096  0.1993  0.0714
 5193SOL    HW127215   1.429   0.451  11.686 -2.7088  2.8124  0.0337
 5193SOL    HW227216   1.357   0.322  11.662 -0.5560  0.2853  0.3141
 5194SOL     OW27217   1.093   2.493   0.924  0.0253  0.9456  0.0278
 5194SOL    HW127218   1.177   2.510   0.966  0.0388 -2.5334  1.3364
 5194SOL    HW227219   1.026   2.533   0.980 -0.1616  0.8212 -0.1054
 5195SOL     OW27220   3.619   4.698   4.274 -0.2130 -0.4598 -0.4162
 5195SOL    HW127221   3.710   4.676   4.255 -0.2546 -0.7343 -0.2973
 5195SOL    HW227222   3.592   4.723   4.185 -1.4102  1.3279  0.4573
 5196SOL     OW27223   2.131   4.299   6.833 -0.4345 -0.2310 -0.1955
 5196SOL    HW127224   2.100   4.255   6.754 -0.3143  0.4588 -0.6325
 5196SOL    HW227225   2.163   4.380   6.792  0.7001  0.1549  1.4757
 5197SOL     OW27226   1.791   2.615  16.332  0.4450 -0.0036  0.4053
 5197SOL    HW127227   1.782   2.708  16.310 -1.2974 -0.0397  0.9485
 5197SOL    HW227228   1.718   2.596  16.392  0.2222  0.6891  0.3560
 5198SOL     OW27229   0.698   1.245  10.525 -0.1353 -0.0870  0.0274
 5198SOL    HW127230   0.667   1.215  10.439 -1.4868  0.7863  0.2098
 5198SOL    HW227231   0.685   1.161  10.570 -0.3290  0.9104  1.8501
 5199SOL     OW27232   2.576   0.571   3.457  0.3411  0.0188  0.3899
 5199SOL    HW127233   2.608   0.562   3.547  0.3542  1.3456  0.5100
 5199SOL    HW227234   2.546   0.481   3.442 -0.9729  0.3876  0.7326
 5200SOL     OW27235   2.710   1.607   8.206 -0.1734  0.0062 -0.2345
 5200SOL    HW127236   2.799   1.595   8.174  0.3138  0.2580  1.0380
 5200SOL    HW227237   2.670   1.520   8.196  0.2772 -0.2863  0.5636
 5201SOL     OW27238   2.497   2.926   4.486  0.3936 -0.3734  0.3140
 5201SOL    HW127239   2.537   2.847   4.521  1.4551  1.3805  3.1282
 5201SOL    HW227240   2.413   2.920   4.533 -0.6392  1.4836 -1.3012
 5202SOL     OW27241   2.926   4.192   9.226  0.1446  0.4519 -0.3320
 5202SOL    HW127242   2.838   4.182   9.189 -1.4243 -0.5333  3.7402
 5202SOL    HW227243   2.916   4.135   9.302  0.4280  0.5264 -0.2410
 5203SOL     OW27244   3.943   1.861   9.159  0.1493  0.0874  0.4589
 5203SOL    HW127245   3.921   1.819   9.242 -5.4666  1.4872 -0.2931
 5203SOL    HW227246   3.868   1.919   9.151 -0.6922 -0.7909  2.0523
 5204SOL     OW27247   0.825   1.682  16.392 -0.6422  0.0574  0.3530
 5204SOL    HW127248   0.812   1.771  16.425 -2.4088  0.0717 -0.3559
 5204SOL    HW227249   0.856   1.684  16.302  1.6081 -1.2390  1.1207
 5205SOL     OW27250   1.540   4.380   2.655 -0.6109 -0.4953  0.2628
 5205SOL    HW127251   1.544   4.475   2.644 -1.4221 -0.0897  3.4527
 5205SOL    HW227252   1.634   4.367   2.655 -0.2114  2.2639 -0.2902
 5206SOL     OW27253   0.866   1.985   8.732 -0.2242 -0.1865  1.2643
 5206SOL    HW127254   0.900   1.913   8.784  1.3384  0.3427  0.9987
 5206SOL    HW227255   0.934   1.985   8.664  0.7355 -2.0872  2.2240
 5207SOL     OW27256   1.575   1.197   7.195 -0.5005  0.6227  0.0339
 5207SOL    HW127257   1.530   1.122   7.235 -0.4033 -0.2084 -1.4245
 5207SOL    HW227258   1.633   1.221   7.267  1.5438  1.6617 -1.9628
 5208SOL     OW27259   3.300   3.481   9.110  0.0038 -0.2018  0.0493
 5208SOL    HW127260   3.259   3.562   9.141  2.1388  0.9570 -0.1367
 5208SOL    HW227261   3.369   3.517   9.054 -1.3915 -0.6100 -1.9429
 5209SOL     OW27262   1.005   3.417   7.982 -0.0534  0.3983 -0.7528
 5209SOL    HW127263   1.027   3.338   7.933  1.1834  0.5145 -0.3904
 5209SOL    HW227264   0.926   3.450   7.940 -0.6583  0.4476  0.4289
 5210SOL     OW27265   2.272   3.717   3.951  0.1799 -0.3187  0.9426
 5210SOL    HW127266   2.299   3.652   4.016 -1.6855 -0.4131  1.6410
 5210SOL    HW227267   2.302   3.680   3.868  0.9537 -1.7520  1.8730
 5211SOL     OW27268   0.073   1.254   7.694 -0.2917  0.3530  0.1337
 5211SOL    HW127269   0.013   1.313   7.648  1.2041  0.8449 -1.1723
 5211SOL    HW227270   0.153   1.301   7.673 -2.1718  3.5665  0.2065
 5212SOL     OW27271   1.698   2.478   2.081 -0.2100  0.1203  0.2140
 5212SOL    HW127272   1.749   2.486   2.161  2.4405  4.2201 -1.8552
 5212SOL    HW227273   1.637   2.552   2.085 -1.7710 -0.9832 -3.1121
 5213SOL     OW27274   4.326   1.412   1.759  0.1538  0.3186  0.3603
 5213SOL    HW127275   4.348   1.505   1.764  2.4745 -0.2679  0.6982
 5213SOL    HW227276   4.328   1.392   1.665  2.2060 -1.1045  0.7228
 5214SOL     OW27277   2.866   2.169   8.134  0.0317 -0.0490 -0.3010
 5214SOL    HW127278   2.830   2.203   8.052  1.8241 -1.6317 -1.7219
 5214SOL    HW227279   2.784   2.161   8.184 -0.3041  1.1968 -0.6363
 5215SOL     OW27280   3.730   1.031   3.837  0.8958  0.1732 -0.0122
 5215SOL    HW127281   3.660   1.001   3.895 -0.1241  1.5133 -0.5544
 5215SOL    HW227282   3.716   0.986   3.754  1.4687  0.1961 -0.1200
 5216SOL     OW27283   2.611   3.809   1.499 -0.0371  0.4556 -0.1343
 5216SOL    HW127284   2.694   3.762   1.492 -1.1193 -1.4766  0.0766
 5216SOL    HW227285   2.549   3.736   1.501 -0.8295  1.1445  0.4950
 5217SOL     OW27286   2.576   0.919   2.045  0.4428  0.0976 -0.5691
 5217SOL    HW127287   2.620   0.872   1.974  0.3010 -1.0552  0.1116
 5217SOL    HW227288   2.534   0.994   2.001 -2.7508 -0.3625  1.6944
 5218SOL     OW27289   4.181   2.251   6.359 -0.0233 -0.5767  0.3523
 5218SOL    HW127290   4.105   2.199   6.334  1.6698 -1.3758 -3.0877
 5218SOL    HW227291   4.181   2.316   6.289  2.0435 -0.6856  0.2432
 5219SOL     OW27292   3.210   2.635   5.373 -0.3257  0.1819  0.1852
 5219SOL    HW127293   3.267   2.634   5.450 -0.3043  1.1681  0.1848
 5219SOL    HW227294   3.234   2.552   5.332  1.1433  0.6035  0.2287
 5220SOL     OW27295   3.801   2.100   9.105  0.3089  0.2034  0.0201
 5220SOL    HW127296   3.786   2.145   9.022 -0.4630 -1.1615 -0.5865
 5220SOL    HW227297   3.857   2.156   9.160 -0.9870  0.0979  1.4463
 5221SOL     OW27298   3.157   3.959  14.927 -0.4973 -0.3432 -0.4501
 5221SOL    HW127299   3.192   3.993  15.009  0.2158  0.6486 -1.1612
 5221SOL    HW227300   3.115   3.877  14.952  0.1719 -1.1402 -1.9042
 5222SOL     OW27301   1.247   0.262  10.592 -0.0747 -0.0077  0.1395
 5222SOL    HW127302   1.335   0.231  10.568 -0.8395 -1.9805 -0.0645
 5222SOL    HW227303   1.248   0.357  10.578 -1.0705  0.1188  0.9542
 5223SOL     OW27304   3.708   0.304   8.115 -0.1609 -0.2030  0.3387
 5223SOL    HW127305   3.747   0.230   8.162  1.1400 -0.4411 -1.1318
 5223SOL    HW227306   3.624   0.309   8.160  0.1475  1.8099  0.6973
 5224SOL     OW27307   0.237   1.692   9.485 -0.6463 -0.0664  0.4001
 5224SOL    HW127308   0.185   1.654   9.556  1.9955 -1.3888  1.6542
 5224SOL    HW227309   0.231   1.787   9.482  3.9886  0.3692  4.2812
 5225SOL     OW27310   4.601   0.426   8.754 -0.8115 -0.3322 -0.3331
 5225SOL    HW127311   4.658   0.460   8.823 -0.7571 -2.8256  0.8478
 5225SOL    HW227312   4.562   0.508   8.725 -2.3243  0.0372  2.8348
 5226SOL     OW27313   4.435   2.799   5.539  0.3623 -0.0592  0.3109
 5226SOL    HW127314   4.448   2.867   5.605  0.9245  1.8547 -1.7705
 5226SOL    HW227315   4.365   2.744   5.574 -1.0679  1.3176 -0.3970
 5227SOL     OW27316   1.240   0.147  15.429 -0.3912  0.0136  0.1695
 5227SOL    HW127317   1.308   0.086  15.403  0.1359  0.7843 -0.2625
 5227SOL    HW227318   1.239   0.143  15.525 -1.0382  3.0147  0.2899
 5228SOL     OW27319   4.298   0.364   4.326  0.7514 -0.1046  0.5001
 5228SOL    HW127320   4.274   0.441   4.378 -1.9999 -0.6819  0.0822
 5228SOL    HW227321   4.386   0.340   4.356  0.5136 -0.9122  0.5388
 5229SOL     OW27322   3.052   1.623   2.746 -0.1955  0.3035 -0.5082
 5229SOL    HW127323   3.099   1.595   2.667 -1.3755 -1.0669 -0.7309
 5229SOL    HW227324   2.993   1.547   2.745  0.5853 -0.3394  0.9573
 5230SOL     OW27325   3.140   3.925   7.082  0.1038 -0.7577 -0.2529
 5230SOL    HW127326   3.155   3.833   7.058  0.2048 -0.0541 -2.9431
 5230SOL    HW227327   3.057   3.930   7.128  0.3862  0.2109  0.1364
 5231SOL     OW27328   3.027   2.951  10.153 -0.3017 -0.3265 -0.4651
 5231SOL    HW127329   2.991   3.039  10.139 -1.3396 -1.2705 -3.6859
 5231SOL    HW227330   3.019   2.946  10.248  0.5322 -1.7428 -0.4759
 5232SOL     OW27331   0.845   0.069   5.083  0.1823 -0.4330  0.1986
 5232SOL    HW127332   0.887   0.080   5.169  2.5099 -2.8896 -0.6001
 5232SOL    HW227333   0.915   0.049   5.021 -0.1531  1.2049 -0.6841
 5233SOL     OW27334   0.352   1.083   6.407  0.0569 -0.9263 -0.0506
 5233SOL    HW127335   0.394   1.167   6.426 -0.8878 -0.2720 -0.8907
 5233SOL    HW227336   0.375   1.020   6.475  0.8455  0.6721  1.1491
 5234SOL     OW27337   4.512   2.509   1.329  0.7849  0.1100 -0.1256
 5234SOL    HW127338   4.471   2.452   1.263  1.6586  1.0747 -1.4878
 5234SOL    HW227339   4.527   2.590   1.280  2.1122 -0.8094 -1.2338
 5235SOL     OW27340   2.635   3.702   3.549 -0.4480  0.1646  0.0954
 5235SOL    HW127341   2.704   3.711   3.615 -0.4686  0.9616 -0.0027
 5235SOL    HW227342   2.658   3.617   3.510 -2.1914 -1.5740  2.7923
 5236SOL     OW27343   0.643   1.557  17.388  0.0882  0.0947  0.1161
 5236SOL    HW127344   0.701   1.538  17.314 -0.3091  1.8435 -0.6595
 5236SOL    HW227345   0.570   1.497  17.374  0.6952 -0.7477  0.5472
 5237SOL     OW27346   2.696   3.317  11.953  0.3012  0.1138  0.3263
 5237SOL    HW127347   2.698   3.405  11.989  0.1511 -0.6997  2.3339
 5237SOL    HW227348   2.780   3.281  11.979 -0.3286 -1.1685  0.5752
 5238SOL     OW27349   1.219   0.197  17.416  0.0304  0.5785  0.4134
 5238SOL    HW127350   1.243   0.258  17.346  0.7809 -0.4965 -0.2680
 5238SOL    HW227351   1.249   0.240  17.496  1.0994  2.3043 -0.9121
 5239SOL     OW27352   1.140   0.503  10.172 -0.1219  0.6061  0.2354
 5239SOL    HW127353   1.177   0.591  10.162 -0.1869  0.5223 -0.7946
 5239SOL    HW227354   1.057   0.531  10.209 -0.5440  0.0961 -0.3357
 5240SOL     OW27355   2.272   3.493  11.053  0.3450  0.2495  0.0254
 5240SOL    HW127356   2.295   3.482  11.145  2.9863  0.7448 -0.5634
 5240SOL    HW227357   2.206   3.424  11.047  1.1467 -0.4153 -1.1221
 5241SOL     OW27358   4.434   3.238   9.946 -0.0777  0.7533 -0.1038
 5241SOL    HW127359   4.417   3.304  10.014 -0.6882  2.2180 -1.6688
 5241SOL    HW227360   4.345   3.206   9.932 -0.1820  0.1804  1.8411
 5242SOL     OW27361   3.663   1.475   7.696  0.4064 -0.1649  0.5178
 5242SOL    HW127362   3.634   1.407   7.757  2.3656 -0.0304  1.6307
 5242SOL    HW227363   3.586   1.488   7.641  0.1022  1.8027  1.4083
 5243SOL     OW27364   0.135   2.922   7.971 -0.2775  0.4505  0.1016
 5243SOL    HW127365   0.143   2.871   8.052 -1.4858 -1.4553 -0.9907
 5243SOL    HW227366   0.201   2.990   7.983  0.0989  0.2626 -0.9255
 5244SOL     OW27367   0.200   1.267   4.318  0.7958 -0.2629  0.0801
 5244SOL    HW127368   0.132   1.282   4.385  2.3896 -0.6305  1.7702
 5244SOL    HW227369   0.152   1.222   4.249  0.6185  1.4857 -0.9320
 5245SOL     OW27370   4.313   4.130  13.885  0.5166 -0.3148 -0.3692
 5245SOL    HW127371   4.248   4.108  13.952 -1.5723  1.8856 -1.6801
 5245SOL    HW227372   4.388   4.136  13.944  2.2947  1.5514 -2.8664
 5246SOL     OW27373   2.715   4.307   3.013  0.3274  0.0685  0.2939
 5246SOL    HW127374   2.773   4.345   2.947 -0.9376 -2.3767 -2.2281
 5246SOL    HW227375   2.631   4.337   2.976  0.2642 -0.1952  0.2276
 5247SOL     OW27376   0.418   3.905   4.798 -0.1895  0.2993 -0.2868
 5247SOL    HW127377   0.405   3.873   4.709  0.6043  0.9133 -0.6253
 5247SOL    HW227378   0.472   3.979   4.770 -0.3638 -0.0577 -1.5579
 5248SOL     OW27379   1.820   1.201   8.911  0.0363 -0.2686 -0.1753
 5248SOL    HW127380   1.840   1.131   8.974  0.2599 -0.3373 -0.3203
 5248SOL    HW227381   1.909   1.233   8.894  0.4714 -1.3464  0.0741
 5249SOL     OW27382   2.853   4.178  15.910  0.1332  0.3798  0.4205
 5249SOL    HW127383   2.854   4.085  15.933 -0.8767  1.0572  3.2280
 5249SOL    HW227384   2.854   4.226  15.992  0.3334  2.1445 -0.6144
 5250SOL     OW27385   1.023   2.109   3.618 -0.3471  0.7071 -0.1270
 5250SOL    HW127386   1.049   2.138   3.706  0.6591 -1.0827  0.1477
 5250SOL    HW227387   1.027   2.183   3.557  0.3968  1.0898  0.3848
 5251SOL     OW27388   3.686   1.830   8.869 -0.2016 -0.0483 -0.4602
 5251SOL    HW127389   3.695   1.781   8.787  0.9989 -0.4043 -0.1056
 5251SOL    HW227390   3.770   1.875   8.863  1.2937 -2.7551 -0.1196
 5252SOL     OW27391   0.991   1.423   9.753  0.0190 -0.0527  0.4647
 5252SOL    HW127392   0.926   1.486   9.721 -3.6034 -2.9025  2.1536
 5252SOL    HW227393   1.071   1.471   9.733  0.0282  0.2952  1.3375
 5253SOL     OW27394   3.338   2.248   6.603  0.5651  0.2787  0.3622
 5253SOL    HW127395   3.402   2.315   6.581  2.8392 -1.8042  0.5489
 5253SOL    HW227396   3.342   2.242   6.699 -0.8744 -0.6197  0.3572
 5254SOL     OW27397   1.971   1.358   4.723  0.1026  0.5051  0.3660
 5254SOL    HW127398   2.066   1.366   4.734  0.0182  0.2067  1.3167
 5254SOL    HW227399   1.956   1.350   4.628  0.0265  2.3608  0.2198
 5255SOL     OW27400   0.433   4.385   1.274 -0.4720 -0.0174 -0.2450
 5255SOL    HW127401   0.527   4.382   1.254 -0.0664 -1.7167  1.9379
 5255SOL    HW227402   0.432   4.397   1.369  1.3845  2.4605 -0.5344
 5256SOL     OW27403   1.475   2.480   9.517  0.9791  0.3985 -0.1026
 5256SOL    HW127404   1.534   2.465   9.591  1.6353  3.1588 -0.0917
 5256SOL    HW227405   1.524   2.497   9.437  0.4853  0.3894 -0.4042
 5257SOL     OW27406   3.795   0.554  14.036 -0.5682 -0.4474  0.7533
 5257SOL    HW127407   3.866   0.617  14.019  0.1175 -1.0117  1.4886
 5257SOL    HW227408   3.744   0.604  14.100  0.1077  3.0842 -1.4180
 5258SOL     OW27409   1.300   0.987   3.841 -0.3950 -0.2351  0.5017
 5258SOL    HW127410   1.243   0.916   3.811  0.4164 -0.9173  0.5477
 5258SOL    HW227411   1.349   0.944   3.911 -0.6005  1.6555  1.8099
 5259SOL     OW27412   3.046   0.252   5.355  0.4964  0.2000  0.4645
 5259SOL    HW127413   2.978   0.316   5.375 -1.9740 -1.9813 -0.8006
 5259SOL    HW227414   3.125   0.299   5.329  0.0949  1.3665  1.4194
 5260SOL     OW27415   2.219   0.997   7.296  0.5857 -0.8446  0.3088
 5260SOL    HW127416   2.220   0.956   7.209  2.2619  2.1096 -1.0937
 5260SOL    HW227417   2.275   0.932   7.336  1.1707 -2.2804 -2.8174
 5261SOL     OW27418   3.984   3.927  16.630  0.3000 -0.2395  0.4588
 5261SOL    HW127419   4.018   3.849  16.675 -1.6831 -1.2960  0.1343
 5261SOL    HW227420   4.061   3.982  16.640 -0.4626  0.4508  2.7750
 5262SOL     OW27421   1.655   3.731  17.236  0.7089 -0.0394  0.1866
 5262SOL    HW127422   1.658   3.817  17.279  0.6062  0.7425 -1.3543
 5262SOL    HW227423   1.651   3.675  17.314 -0.2730 -0.8549 -0.4637
 5263SOL     OW27424   0.327   4.659   5.942 -0.0919  0.4077 -0.0374
 5263SOL    HW127425   0.354   4.702   5.861 -0.0856  0.9174  0.2392
 5263SOL    HW227426   0.390   4.587   5.944 -0.7117 -0.1284  0.2703
 5264SOL     OW27427   4.680   2.257   6.301 -0.1694  0.1565  0.3134
 5264SOL    HW127428   4.665   2.351   6.302  0.1714  0.2191 -1.0038
 5264SOL    HW227429   0.025   2.265   6.250  0.0173 -0.8267  0.4414
 5265SOL     OW27430   1.577   3.483   9.729  0.2282  0.0161  0.6673
 5265SOL    HW127431   1.624   3.404   9.702 -1.2972 -0.6115 -0.1576
 5265SOL    HW227432   1.568   3.466   9.823 -3.1136 -4.7755 -0.4927
 5266SOL     OW27433   1.266   4.625   8.947  0.4313  0.7453 -0.1735
 5266SOL    HW127434   1.348   4.587   8.978  0.2508 -0.8973 -1.6824
 5266SOL    HW227435   1.221   4.548   8.912  1.4050 -0.0432  0.3095
 5267SOL     OW27436   2.969   2.975   7.686 -0.4594  0.3019  0.3867
 5267SOL    HW127437   3.048   3.022   7.659  0.1391  0.1439  1.8352
 5267SOL    HW227438   2.945   2.941   7.600 -1.0906 -0.3702  0.8304
 5268SOL     OW27439   3.948   3.015   7.900  0.3155 -0.2658 -0.4058
 5268SOL    HW127440   3.882   3.049   7.839 -1.7301  2.6111  3.4808
 5268SOL    HW227441   3.952   2.925   7.866 -0.8728  0.0832 -1.4715
 5269SOL     OW27442   2.069   2.250   3.149 -0.0766 -0.1676 -0.1698
 5269SOL    HW127443   2.111   2.332   3.174 -0.2070 -0.3050  0.5156
 5269SOL    HW227444   1.979   2.266   3.175 -0.4671 -2.2510 -0.1983
 5270SOL     OW27445   0.004   1.726   8.693 -0.0454  0.1592 -0.5346
 5270SOL    HW127446   0.023   1.633   8.702 -1.4029 -0.1536 -0.9005
 5270SOL    HW227447   0.090   1.765   8.707 -0.9930  2.2372 -0.5059
 5271SOL     OW27448   1.323   4.247   7.748 -0.0444 -0.2348 -0.0547
 5271SOL    HW127449   1.382   4.267   7.675 -0.1815 -4.4902 -1.2975
 5271SOL    HW227450   1.323   4.152   7.748 -0.8779 -0.2343  0.0160
 5272SOL     OW27451   3.577   3.366   3.868 -0.6914  0.8093  0.0577
 5272SOL    HW127452   3.501   3.372   3.810  1.5197  2.2595 -2.6534
 5272SOL    HW227453   3.606   3.280   3.837 -0.1211  0.7046  0.8628
 5273SOL     OW27454   3.090   1.180   4.894  0.2546 -0.0169  0.0528
 5273SOL    HW127455   3.164   1.155   4.950 -0.5868 -0.0532  1.1516
 5273SOL    HW227456   3.030   1.115   4.933  1.7340 -1.5892 -0.2979
 5274SOL     OW27457   0.795   0.876  11.882 -0.4462 -0.6228  0.1599
 5274SOL    HW127458   0.754   0.901  11.964 -0.1687 -0.1864  0.1602
 5274SOL    HW227459   0.787   0.958  11.833  0.0432 -0.6225  0.0796
 5275SOL     OW27460   1.678   4.587   4.921  0.1785  0.5368  0.2990
 5275SOL    HW127461   1.653   4.531   4.995 -0.5702 -0.7670 -0.9556
 5275SOL    HW227462   1.759   4.627   4.955 -1.3615  2.0640  2.1564
 5276SOL     OW27463   3.116   2.785   5.640 -0.3675 -0.2025  0.2480
 5276SOL    HW127464   3.193   2.812   5.690 -0.1725 -0.9513  0.3620
 5276SOL    HW227465   3.067   2.747   5.713  0.0181 -1.2052 -0.0091
 5277SOL     OW27466   3.983   1.445   7.357  0.2675  0.0997 -0.0057
 5277SOL    HW127467   3.907   1.477   7.309 -1.2127 -2.8354  0.4192
 5277SOL    HW227468   4.022   1.393   7.287  0.8999 -2.5488  2.3276
 5278SOL     OW27469   2.083   1.105   2.011 -0.2278  0.0587  0.1525
 5278SOL    HW127470   2.088   1.154   2.093 -0.6229  0.0792  0.1606
 5278SOL    HW227471   1.993   1.094   1.983  0.6139 -0.8569 -2.1913
 5279SOL     OW27472   2.989   4.314   8.530 -0.6485  0.1372  0.2183
 5279SOL    HW127473   2.994   4.264   8.449  1.2918 -2.1308  1.7467
 5279SOL    HW227474   2.926   4.383   8.507  0.1897  0.6048 -0.6443
 5280SOL     OW27475   2.811   3.192  10.126  0.3013 -0.0871  0.1879
 5280SOL    HW127476   2.750   3.209  10.197 -0.7233  0.6253 -0.8563
 5280SOL    HW227477   2.759   3.129  10.076  2.9949 -0.6760 -1.8715
 5281SOL     OW27478   3.300   0.593   2.876  0.0488 -0.3108 -0.0544
 5281SOL    HW127479   3.228   0.650   2.902 -1.8656 -2.6190 -0.2934
 5281SOL    HW227480   3.269   0.556   2.793 -0.3086  2.0329 -0.9483
 5282SOL     OW27481   1.065   3.419  10.504 -0.0368 -0.0186  0.3458
 5282SOL    HW127482   1.125   3.345  10.504  0.4756  0.4133  2.5554
 5282SOL    HW227483   1.087   3.451  10.591  0.2162 -1.2152  0.7205
 5283SOL     OW27484   0.120   2.120  16.845  0.2085 -0.0998  0.1282
 5283SOL    HW127485   0.049   2.063  16.818 -0.4634  0.2989  1.0445
 5283SOL    HW227486   0.077   2.203  16.826  0.7718  0.4356  1.1524
 5284SOL     OW27487   1.766   1.761  14.282 -0.3589  0.8011  0.2223
 5284SOL    HW127488   1.694   1.816  14.253 -0.9676 -0.5674 -0.8964
 5284SOL    HW227489   1.726   1.675  14.295  0.5964  0.4568  0.8943
 5285SOL     OW27490   3.304   3.152   2.151 -0.1163 -0.1523  0.2065
 5285SOL    HW127491   3.368   3.082   2.135 -1.8413 -2.0511  1.6298
 5285SOL    HW227492   3.244   3.135   2.079 -0.3071  0.6713  0.1758
 5286SOL     OW27493   3.678   1.206  13.464 -0.4730 -0.3433 -0.2245
 5286SOL    HW127494   3.754   1.263  13.453  0.1065 -1.1714 -0.4651
 5286SOL    HW227495   3.662   1.185  13.372 -0.9083 -0.0923 -0.2037
 5287SOL     OW27496   0.928   1.819   2.265  0.3349 -0.1792 -0.2920
 5287SOL    HW127497   0.846   1.816   2.216  0.1932  1.4152 -0.1549
 5287SOL    HW227498   0.950   1.727   2.275  2.8361  0.4372 -0.0967
 5288SOL     OW27499   3.083   0.425  12.146  0.6584 -0.6430  0.0075
 5288SOL    HW127500   3.087   0.362  12.074  0.9376 -1.6122  0.8691
 5288SOL    HW227501   3.134   0.503  12.123  0.6939 -0.9238 -0.8742
 5289SOL     OW27502   4.694   3.726   5.477  0.1663  0.0422 -0.3912
 5289SOL    HW127503   4.701   3.633   5.497 -0.8095  0.0602  0.0464
 5289SOL    HW227504   4.720   3.715   5.386  1.8081 -0.9650  0.1969
 5290SOL     OW27505   3.627   0.736  13.404 -0.2070  0.8552 -0.0982
 5290SOL    HW127506   3.610   0.815  13.456  1.7203  1.6000 -0.6037
 5290SOL    HW227507   3.570   0.755  13.329 -0.1237  0.2659 -0.3100
 5291SOL     OW27508   0.951   1.408  10.563 -0.4938  0.0067  0.1190
 5291SOL    HW127509   0.955   1.497  10.527 -0.9046  0.7053  1.7795
 5291SOL    HW227510   0.870   1.376  10.525  1.1940 -1.1011 -2.5300
 5292SOL     OW27511   0.461   0.363   3.517 -0.0354 -0.2767 -0.3969
 5292SOL    HW127512   0.463   0.453   3.485 -1.2272 -0.6316 -1.4290
 5292SOL    HW227513   0.523   0.363   3.590  0.5862 -1.3656 -0.9219
 5293SOL     OW27514   3.719   3.167   8.747 -0.4830  0.1018 -0.1208
 5293SOL    HW127515   3.693   3.105   8.678 -2.1170 -1.0317  1.5227
 5293SOL    HW227516   3.746   3.102   8.812  1.6449 -0.4516 -1.5482
 5294SOL     OW27517   1.652   4.287   1.967 -0.3142 -0.2072 -0.7888
 5294SOL    HW127518   1.580   4.320   2.021  0.2740 -2.2592  1.2200
 5294SOL    HW227519   1.679   4.366   1.920  2.8130 -0.6567  0.2648
 5295SOL     OW27520   3.158   1.131   5.838 -0.1302  0.2549  0.1306
 5295SOL    HW127521   3.169   1.037   5.820  0.1772  0.6638 -1.7649
 5295SOL    HW227522   3.211   1.139   5.918  1.4092  0.3137 -0.8894
 5296SOL     OW27523   3.193   3.754   1.393  0.3793  0.0574  0.4893
 5296SOL    HW127524   3.230   3.832   1.352  2.1781 -1.1129 -0.1453
 5296SOL    HW227525   3.213   3.684   1.330  0.6269  0.8702 -0.3364
 5297SOL     OW27526   4.734   2.084  13.860 -0.8111 -0.5752 -0.2320
 5297SOL    HW127527   4.692   2.161  13.898 -0.3725  0.0646 -1.0479
 5297SOL    HW227528   0.018   2.034  13.940 -2.1355 -2.6097 -1.1909
 5298SOL     OW27529   1.790   3.025  15.559  0.0696 -0.3590 -0.2379
 5298SOL    HW127530   1.725   3.032  15.489 -1.7105 -2.4598  1.1829
 5298SOL    HW227531   1.832   3.110  15.563 -0.6778  0.0262 -0.5781
 5299SOL     OW27532   0.266   3.316  11.157 -0.5286  0.1119  0.4493
 5299SOL    HW127533   0.228   3.373  11.224  0.0083  0.4509  0.4586
 5299SOL    HW227534   0.207   3.240  11.155  3.8391 -3.2545 -1.1123
 5300SOL     OW27535   1.620   3.969   6.627 -0.5806  0.1802 -0.0333
 5300SOL    HW127536   1.705   3.925   6.625 -0.3874  0.5924 -0.8143
 5300SOL    HW227537   1.584   3.938   6.710 -0.9764  1.2270  0.1921
 5301SOL     OW27538   4.175   3.419  15.535  0.1420 -0.0498  0.2348
 5301SOL    HW127539   4.119   3.394  15.609 -0.9479  1.5021 -0.0713
 5301SOL    HW227540   4.140   3.504  15.507 -2.4155 -1.1403  0.1470
 5302SOL     OW27541   0.387   0.109  13.314  0.0160  0.6258 -0.4725
 5302SOL    HW127542   0.417   0.093  13.224 -0.7488  0.1459 -0.6389
 5302SOL    HW227543   0.294   0.112  13.292 -0.2636  0.7469  0.7264
 5303SOL     OW27544   3.937   3.455   7.468  0.0145  0.3810 -0.0522
 5303SOL    HW127545   3.885   3.534   7.481  0.2595  0.3108  1.3620
 5303SOL    HW227546   3.923   3.414   7.554 -0.2798  0.9965  0.1877
 5304SOL     OW27547   0.788   0.560   4.497 -0.4628  0.2438 -0.3360
 5304SOL    HW127548   0.702   0.601   4.487 -0.6532 -0.2422 -0.6633
 5304SOL    HW227549   0.768   0.525   4.583  0.4152 -0.8501 -0.5696
 5305SOL     OW27550   2.861   1.364  17.689  0.1732 -0.2852  0.5755
 5305SOL    HW127551   2.850   1.361   0.041  1.4255 -0.4935  0.7088
 5305SOL    HW227552   2.953   1.356  17.665 -0.2759 -0.0691 -1.2620
 5306SOL     OW27553   2.763   3.263  16.411  0.2458  0.1757  0.6447
 5306SOL    HW127554   2.850   3.301  16.396 -0.0181  0.4745 -0.1241
 5306SOL    HW227555   2.713   3.311  16.345  0.9436 -0.8798 -0.6467
 5307SOL     OW27556   2.056   1.441   5.866 -0.1449 -0.3432  0.7014
 5307SOL    HW127557   2.117   1.510   5.842  1.7508 -1.7294  1.5775
 5307SOL    HW227558   2.023   1.481   5.946  1.0035 -1.1512  1.5703
 5308SOL     OW27559   1.400   0.006   2.020 -0.3721 -0.1263 -0.7266
 5308SOL    HW127560   1.430   0.095   2.040  1.6452 -0.0086 -4.3822
 5308SOL    HW227561   1.305   0.017   2.019 -0.4502 -0.8815 -1.1470
 5309SOL     OW27562   3.547   3.728   7.401 -0.1077  0.6827 -0.2628
 5309SOL    HW127563   3.486   3.765   7.338 -4.4771 -2.4692  2.1000
 5309SOL    HW227564   3.521   3.766   7.485 -2.5245 -3.5411  0.9108
 5310SOL     OW27565   0.283   0.903   2.510  0.1514 -0.3401  0.2664
 5310SOL    HW127566   0.222   0.843   2.553 -0.6317  0.9040  0.8867
 5310SOL    HW227567   0.241   0.914   2.425  0.9178  1.3004  0.1033
 5311SOL     OW27568   3.312   1.307   5.710 -0.2408  0.1886 -0.3320
 5311SOL    HW127569   3.277   1.245   5.775  1.6644  0.2179  0.7381
 5311SOL    HW227570   3.263   1.283   5.632  1.0650  1.3186 -1.4887
 5312SOL     OW27571   4.201   0.307  13.025 -0.4978 -0.3852  0.1172
 5312SOL    HW127572   4.269   0.278  13.085 -1.0749 -1.8129  0.0697
 5312SOL    HW227573   4.121   0.305  13.079  0.7783 -2.3395  1.9201
 5313SOL     OW27574   4.248   1.546  13.985 -0.4007  0.2517  0.2894
 5313SOL    HW127575   4.259   1.457  14.016 -0.5527  0.0638 -0.1877
 5313SOL    HW227576   4.259   1.604  14.060 -0.2675  0.4635  0.1067
 5314SOL     OW27577   1.051   0.988   6.834 -0.2447 -0.1535  0.3010
 5314SOL    HW127578   1.133   1.036   6.844 -0.6098 -0.1259  3.0321
 5314SOL    HW227579   0.996   1.054   6.792 -1.1131 -3.0081 -2.9905
 5315SOL     OW27580   2.755   3.023   4.691 -0.4876  0.4911 -0.3512
 5315SOL    HW127581   2.674   3.027   4.741  1.0817  0.2742  2.2116
 5315SOL    HW227582   2.767   3.110   4.655 -0.0920  1.5054  2.2493
 5316SOL     OW27583   4.381   0.862   1.029  0.0528 -0.0073  0.3551
 5316SOL    HW127584   4.348   0.944   0.993  0.2871  0.6635  1.6876
 5316SOL    HW227585   4.300   0.812   1.040  0.1363 -0.4360 -0.9779
 5317SOL     OW27586   2.199   0.648   7.250 -0.1902 -0.3581 -0.2768
 5317SOL    HW127587   2.281   0.665   7.296 -0.9890  0.0686  0.9720
 5317SOL    HW227588   2.141   0.656   7.326  1.3485 -2.1571  1.0719
 5318SOL     OW27589   3.872   4.716  10.230  0.4063 -0.4759  0.0651
 5318SOL    HW127590   3.778   4.707  10.247  0.4906 -1.0880  0.2099
 5318SOL    HW227591   3.874   4.698  10.136 -0.9200 -0.0397 -0.0491
 5319SOL     OW27592   3.379   1.875  12.480  0.5070 -0.1330 -0.1842
 5319SOL    HW127593   3.403   1.961  12.448  0.3165  0.5622  1.5367
 5319SOL    HW227594   3.374   1.822  12.400 -0.4215  3.4318 -2.4641
 5320SOL     OW27595   1.109   0.329  16.633  0.2633  0.2122 -0.4088
 5320SOL    HW127596   1.126   0.261  16.567  1.0346  0.5008 -0.5117
 5320SOL    HW227597   1.186   0.384  16.620  1.1900 -0.7844  0.8933
 5321SOL     OW27598   2.488   2.547  15.068 -0.0452  0.1205  0.0426
 5321SOL    HW127599   2.462   2.464  15.110  2.9503  1.1541  3.9693
 5321SOL    HW227600   2.442   2.546  14.984 -1.1924 -0.9531  0.6829
 5322SOL     OW27601   0.220   1.977   8.152  0.3823 -0.0307 -0.0450
 5322SOL    HW127602   0.302   1.990   8.200  0.9747 -0.7038 -0.8641
 5322SOL    HW227603   0.164   1.966   8.229 -0.6274  2.2505 -0.4375
 5323SOL     OW27604   4.562   2.123   9.985 -0.0857 -0.0003 -0.3240
 5323SOL    HW127605   4.493   2.190   9.983  0.1727  0.3401  1.9140
 5323SOL    HW227606   4.503   2.059  10.024 -0.8815  2.3069  2.2960
 5324SOL     OW27607   0.567   0.587   7.131 -0.0765  0.2441 -0.1680
 5324SOL    HW127608   0.657   0.590   7.099  0.5175 -3.6871  1.0975
 5324SOL    HW227609   0.563   0.498   7.167 -1.3117 -0.3083 -1.7044
 5325SOL     OW27610   0.755   1.762   8.248 -0.0480  0.9417 -0.2139
 5325SOL    HW127611   0.730   1.781   8.338  0.9681 -0.9408  0.4592
 5325SOL    HW227612   0.745   1.668   8.238 -0.6333  1.1929 -1.8873
 5326SOL     OW27613   2.614   2.117   1.760  0.3565  0.9218 -0.7275
 5326SOL    HW127614   2.615   2.058   1.835  0.9296  0.3474 -1.1924
 5326SOL    HW227615   2.562   2.190   1.794  0.7525  0.2193  1.4286
 5327SOL     OW27616   3.188   4.608   2.552  0.0221  0.2052 -0.0808
 5327SOL    HW127617   3.214   4.518   2.573  0.7497  0.2535 -0.7507
 5327SOL    HW227618   3.105   4.614   2.600  0.9172  0.1768  1.4733
 5328SOL     OW27619   1.350   1.248   8.198 -0.4259  0.4650 -0.1399
 5328SOL    HW127620   1.317   1.228   8.111 -1.9156  0.7925  0.3416
 5328SOL    HW227621   1.356   1.344   8.189  0.3124  0.2701 -1.6537
 5329SOL     OW27622   1.351   3.546  14.075 -0.2377 -0.0691 -0.0225
 5329SOL    HW127623   1.440   3.532  14.045  0.6728 -0.6626  2.9688
 5329SOL    HW227624   1.310   3.459  14.075  1.6405 -0.9591 -1.6040
 5330SOL     OW27625   2.873   3.459   2.314  0.2107 -0.4137 -0.4818
 5330SOL    HW127626   2.897   3.535   2.259 -1.3227  0.2561 -0.2235
 5330SOL    HW227627   2.885   3.379   2.263 -0.5227  0.8450 -2.6225
 5331SOL     OW27628   3.942   4.011   2.720 -0.4760 -0.1205  0.4495
 5331SOL    HW127629   3.858   3.965   2.712 -0.6590 -0.0591  2.0751
 5331SOL    HW227630   3.967   4.000   2.628 -0.8400  1.4089  0.1689
 5332SOL     OW27631   3.866   1.501  10.866 -0.9766  0.9563 -0.3802
 5332SOL    HW127632   3.870   1.457  10.951  0.1145  1.5138 -0.1469
 5332SOL    HW227633   3.783   1.469  10.831  0.2071 -2.2085 -0.3530
 5333SOL     OW27634   0.152   3.978   5.208  0.3257 -0.5276 -0.4425
 5333SOL    HW127635   0.217   4.029   5.160  1.3840  0.0083  1.5482
 5333SOL    HW227636   0.186   3.999   5.295 -0.8987  1.5125 -0.4600
 5334SOL     OW27637   4.443   2.426   2.705  0.2331 -0.1797  0.1572
 5334SOL    HW127638   4.531   2.419   2.668 -0.1317  0.0419 -0.7537
 5334SOL    HW227639   4.466   2.504   2.755  0.0589  0.1077 -0.2160
 5335SOL     OW27640   1.162   1.611   4.775  0.1120 -0.6936  0.8003
 5335SOL    HW127641   1.241   1.600   4.828  0.8716  2.6541  0.3372
 5335SOL    HW227642   1.182   1.544   4.710  2.0597  1.1748 -0.5196
 5336SOL     OW27643   2.364   1.616   8.091  0.2106 -0.2235  0.5070
 5336SOL    HW127644   2.412   1.645   8.013 -1.5537  1.5779  0.0995
 5336SOL    HW227645   2.364   1.697   8.141  0.9841  0.6537 -0.9051
 5337SOL     OW27646   2.247   2.680  15.284 -0.5448  0.2958 -0.4245
 5337SOL    HW127647   2.221   2.715  15.198 -1.3420 -1.9086 -1.0761
 5337SOL    HW227648   2.181   2.706  15.348  0.9309  0.0235  1.2203
 5338SOL     OW27649   3.777   1.961  15.587 -0.8644 -0.1083 -0.2321
 5338SOL    HW127650   3.845   2.015  15.547 -1.0849  1.3032  1.3187
 5338SOL    HW227651   3.774   1.984  15.680 -1.8071  1.9237 -0.7600
 5339SOL     OW27652   1.606   2.275   3.548 -0.6570  0.5211 -0.0232
 5339SOL    HW127653   1.657   2.352   3.523  1.0563 -1.0607 -1.3961
 5339SOL    HW227654   1.580   2.296   3.637 -1.2314 -0.8270  0.1193
 5340SOL     OW27655   1.205   3.864   4.646  0.5507 -0.1854 -0.1520
 5340SOL    HW127656   1.144   3.906   4.707  0.2241 -1.4735  0.4105
 5340SOL    HW227657   1.203   3.781   4.693  1.0433 -0.5019 -0.6968
 5341SOL     OW27658   1.205   1.885   9.850  0.3203 -0.8842 -0.0869
 5341SOL    HW127659   1.117   1.850   9.863  0.5912 -1.6520 -0.2714
 5341SOL    HW227660   1.201   1.916   9.760  2.7483 -1.0725 -0.2479
 5342SOL     OW27661   0.861   3.387   9.044 -0.0688  0.0778  0.5618
 5342SOL    HW127662   0.813   3.469   9.040  2.0079  1.2633  0.0211
 5342SOL    HW227663   0.795   3.320   9.063 -0.0667  0.0233  0.3789
 5343SOL     OW27664   4.394   0.158   3.611 -0.0443 -0.1022  0.2075
 5343SOL    HW127665   4.411   0.151   3.517 -1.0474 -1.8838  0.1442
 5343SOL    HW227666   4.460   0.095   3.641 -0.4426 -0.1823  0.9204
 5344SOL     OW27667   0.976   4.623   6.403  0.1585  0.3045 -0.5721
 5344SOL    HW127668   1.019   4.588   6.481  1.9912 -1.0847 -2.2067
 5344SOL    HW227669   0.992   4.555   6.337  0.3928  0.8066 -1.0287
 5345SOL     OW27670   0.977   3.780   8.948 -0.3348  0.8542  0.3449
 5345SOL    HW127671   0.947   3.824   9.028  0.8157 -0.9878  1.7945
 5345SOL    HW227672   0.896   3.785   8.898 -1.1852  0.9412  1.7335
 5346SOL     OW27673   0.430   2.759  14.402 -0.1183 -0.3537 -0.3200
 5346SOL    HW127674   0.469   2.830  14.453  0.7347 -0.6754 -0.5148
 5346SOL    HW227675   0.466   2.787  14.317 -0.7186  2.1222  0.2633
 5347SOL     OW27676   0.499   1.132  13.854  0.1598  0.6177 -0.6570
 5347SOL    HW127677   0.442   1.162  13.924  2.5903 -0.9022  1.9475
 5347SOL    HW227678   0.586   1.126  13.894 -1.0478 -0.7514  1.7382
 5348SOL     OW27679   4.679   1.290   4.509 -0.2668 -0.1988  0.1309
 5348SOL    HW127680   4.631   1.321   4.433 -0.2575 -3.5721 -1.2506
 5348SOL    HW227681   4.728   1.212   4.483  0.6433  0.3124  0.3050
 5349SOL     OW27682   2.316   1.623   6.143  0.2022  0.9730 -0.0542
 5349SOL    HW127683   2.380   1.655   6.078  0.9013  1.7684  1.0310
 5349SOL    HW227684   2.267   1.703   6.161 -1.0903  0.3343 -0.7526
 5350SOL     OW27685   3.262   2.965  10.588 -0.0386 -0.4915  0.7871
 5350SOL    HW127686   3.303   2.955  10.503  0.6340 -1.5535  1.2493
 5350SOL    HW227687   3.210   3.045  10.580  2.3606  0.7002 -2.6432
 5351SOL     OW27688   4.337   1.960  10.205  0.6923  0.0193 -0.1233
 5351SOL    HW127689   4.259   1.913  10.235  0.7004  0.6188  0.8421
 5351SOL    HW227690   4.398   1.927  10.271 -0.2945  2.3094  1.9318
 5352SOL     OW27691   1.608   1.314  12.668 -0.4429 -0.2639  0.4173
 5352SOL    HW127692   1.539   1.307  12.735  0.0529  1.9551  1.1434
 5352SOL    HW227693   1.606   1.406  12.645  0.0283 -0.3606 -0.0023
 5353SOL     OW27694   1.727   4.000   3.480 -0.4169  0.3276  0.4063
 5353SOL    HW127695   1.756   4.067   3.418  0.1109  0.0661  0.3691
 5353SOL    HW227696   1.806   3.945   3.480 -0.1015  0.7784 -0.4557
 5354SOL     OW27697   0.106   1.736   9.074 -0.3086  0.0860  0.3155
 5354SOL    HW127698   0.065   1.649   9.073 -0.4359  0.1448  0.3897
 5354SOL    HW227699   0.184   1.706   9.121 -0.0489 -0.8037 -0.6858
 5355SOL     OW27700   0.132   3.621  17.666  0.0617 -0.2014  0.4782
 5355SOL    HW127701   0.124   3.709  17.630 -0.0562 -0.6323 -0.5639
 5355SOL    HW227702   0.165   3.642   0.011  2.0475  2.6128 -0.9692
 5356SOL     OW27703   3.110   0.352  11.839 -0.2309 -0.0140 -0.0974
 5356SOL    HW127704   3.071   0.430  11.801 -0.4736 -0.5699 -1.0057
 5356SOL    HW227705   3.054   0.284  11.800  0.9681  0.2612 -2.3226
 5357SOL     OW27706   1.196   0.833   0.418  0.3117  0.5611 -0.3615
 5357SOL    HW127707   1.117   0.881   0.445  1.9692  2.8698  0.4005
 5357SOL    HW227708   1.246   0.868   0.492  2.6434  0.8293 -2.0709
 5358SOL     OW27709   4.344   1.903   9.032 -0.1315 -0.2920  0.3742
 5358SOL    HW127710   4.431   1.943   9.037 -0.3870  0.0769  1.9024
 5358SOL    HW227711   4.364   1.823   9.080 -1.8100  1.4891  4.0539
 5359SOL     OW27712   2.363   1.096   1.353 -0.5425 -0.5850  0.4459
 5359SOL    HW127713   2.416   1.080   1.276 -0.7472  1.1087 -0.0328
 5359SOL    HW227714   2.280   1.129   1.318 -0.8348 -0.9098  0.8220
 5360SOL     OW27715   2.800   0.877   4.107  0.7933  0.1166  0.0461
 5360SOL    HW127716   2.733   0.817   4.141 -0.5799  0.9177 -1.2400
 5360SOL    HW227717   2.851   0.895   4.186  0.5996 -1.0817  0.4439
 5361SOL     OW27718   3.449   3.400   6.371  0.2078 -0.1387 -0.3456
 5361SOL    HW127719   3.507   3.473   6.394  2.0325 -0.9542 -2.3507
 5361SOL    HW227720   3.458   3.402   6.275  1.3678  0.2071 -0.2227
 5362SOL     OW27721   3.635   3.274   4.656 -0.3424  0.5959 -0.3599
 5362SOL    HW127722   3.541   3.259   4.645 -0.2418 -1.0085  1.1280
 5362SOL    HW227723   3.645   3.356   4.607  0.4777  0.2560 -0.7512
 5363SOL     OW27724   0.247   4.424   2.262  0.3997  0.1165 -0.8492
 5363SOL    HW127725   0.216   4.369   2.334 -2.0111  1.0550 -1.1712
 5363SOL    HW227726   0.307   4.362   2.222  0.3306 -1.9428  2.2148
 5364SOL     OW27727   0.096   1.204  13.228  0.1270 -0.5729  0.3719
 5364SOL    HW127728   0.146   1.281  13.254 -0.4318 -0.7522  1.9685
 5364SOL    HW227729   0.155   1.155  13.170  0.1459  0.3017 -0.3388
 5365SOL     OW27730   1.223   4.410  13.633 -0.0693 -0.0564 -0.3409
 5365SOL    HW127731   1.159   4.390  13.565 -0.1513  1.9117 -0.8350
 5365SOL    HW227732   1.228   4.505  13.623 -1.3501 -0.0787 -1.2627
 5366SOL     OW27733   2.413   4.341   4.710 -0.1770  0.7546 -0.3054
 5366SOL    HW127734   2.390   4.392   4.633 -0.9407 -1.5288 -1.5744
 5366SOL    HW227735   2.491   4.383   4.747 -1.6307 -0.4578  4.1103
 5367SOL     OW27736   0.796   3.821   4.951  0.3750 -0.3304 -0.3703
 5367SOL    HW127737   0.836   3.735   4.946  0.0959 -0.4122 -1.1073
 5367SOL    HW227738   0.705   3.791   4.955  0.2915 -0.6863 -4.8001
 5368SOL     OW27739   3.074   2.883  15.646  0.3854 -0.0009  0.8857
 5368SOL    HW127740   3.025   2.816  15.598 -1.1844  0.6372  1.6182
 5368SOL    HW227741   3.065   2.959  15.589 -0.1606 -0.0825  0.8682
 5369SOL     OW27742   3.240   0.102   2.742 -0.3034  0.2662  0.2100
 5369SOL    HW127743   3.202   0.070   2.661  0.1809  2.4876 -0.8941
 5369SOL    HW227744   3.209   0.040   2.809 -1.8108  0.9770  0.1517
 5370SOL     OW27745   2.178   1.769   0.417 -0.2311 -0.2071  0.5555
 5370SOL    HW127746   2.211   1.798   0.502  1.6591  0.8201 -0.5351
 5370SOL    HW227747   2.119   1.701   0.449 -3.2780  1.8379 -0.6421
 5371SOL     OW27748   2.859   3.739   4.722  0.0886  0.7633  0.0076
 5371SOL    HW127749   2.884   3.804   4.656 -0.3692  1.0129  0.0833
 5371SOL    HW227750   2.819   3.798   4.785 -0.8797  1.7815 -1.5559
 5372SOL     OW27751   0.416   1.788   1.982 -0.5164  0.1395 -0.4147
 5372SOL    HW127752   0.441   1.743   1.902  0.9450 -0.2978  0.2836
 5372SOL    HW227753   0.341   1.837   1.948 -1.4254  0.1846  1.6412
 5373SOL     OW27754   2.698   3.330   0.873  0.3446 -1.0422  0.5851
 5373SOL    HW127755   2.661   3.277   0.943 -2.4460 -0.6442 -0.5964
 5373SOL    HW227756   2.706   3.279   0.793  0.3677 -1.5876  0.9341
 5374SOL     OW27757   1.231   4.574   7.304 -0.5929  0.5569 -0.2063
 5374SOL    HW127758   1.284   4.574   7.383 -0.5668 -0.0730 -0.2218
 5374SOL    HW227759   1.284   4.517   7.249 -1.0788 -0.1461  0.0599
 5375SOL     OW27760   4.302   4.325   4.575 -0.2489 -0.1419 -0.1654
 5375SOL    HW127761   4.255   4.297   4.654  0.3761 -0.7096  0.0079
 5375SOL    HW227762   4.389   4.287   4.591  0.1864  0.6208 -0.7527
 5376SOL     OW27763   2.813   1.610  14.795 -0.1650  0.5496  0.6287
 5376SOL    HW127764   2.878   1.680  14.804 -2.2000  2.2200  2.2179
 5376SOL    HW227765   2.868   1.552  14.742  0.7685  0.1505  2.0484
 5377SOL     OW27766   4.435   3.948   3.790 -0.4479  0.2890 -0.1039
 5377SOL    HW127767   4.422   3.953   3.885  1.1107  1.2725  0.0572
 5377SOL    HW227768   4.421   4.041   3.772 -2.1203 -0.0647 -0.6469
 5378SOL     OW27769   3.245   0.936   8.024  0.2680 -0.0274  0.0954
 5378SOL    HW127770   3.232   0.969   7.935  0.4828 -0.9833 -0.2838
 5378SOL    HW227771   3.335   0.905   8.016  0.2203 -0.5254  1.3836
 5379SOL     OW27772   2.874   3.948  16.989 -0.3007  0.2923 -0.5709
 5379SOL    HW127773   2.934   4.023  16.993 -0.8180  0.7006 -0.5007
 5379SOL    HW227774   2.917   3.882  16.933 -1.8978 -0.2610 -1.1353
 5380SOL     OW27775   2.297   3.208  12.492 -0.2466 -0.0433 -0.3047
 5380SOL    HW127776   2.326   3.219  12.401  0.3840  1.4085  0.0720
 5380SOL    HW227777   2.361   3.154  12.538  0.8093 -0.6473 -2.4432
 5381SOL     OW27778   4.185   3.909  13.652  0.2764 -0.0068  0.2000
 5381SOL    HW127779   4.226   3.823  13.657 -2.8249 -1.4599  0.4812
 5381SOL    HW227780   4.222   3.947  13.573  0.1442 -0.2064  0.0438
 5382SOL     OW27781   0.271   4.054   9.056  0.0397 -0.2644  0.3379
 5382SOL    HW127782   0.319   4.111   9.117  0.3266 -0.4671  0.2997
 5382SOL    HW227783   0.181   4.086   9.064  0.5190  0.5166  2.4151
 5383SOL     OW27784   0.084   1.421   5.340 -0.3241  0.0091 -0.2760
 5383SOL    HW127785   0.038   1.484   5.284  1.7310  2.1720  0.4850
 5383SOL    HW227786   0.172   1.449   5.314 -0.5913  0.6901 -0.4580
 5384SOL     OW27787   3.342   2.772  14.018  0.1641  0.3336  0.2625
 5384SOL    HW127788   3.398   2.729  14.082 -1.0984  1.3359  2.0479
 5384SOL    HW227789   3.327   2.857  14.060 -1.7137 -0.0047  0.2557
 5385SOL     OW27790   1.688   2.577   9.335 -0.0121 -0.0513  0.1492
 5385SOL    HW127791   1.670   2.643   9.402  2.4045  1.0182 -0.2595
 5385SOL    HW227792   1.783   2.574   9.329  0.0432 -2.1270  2.3999
 5386SOL     OW27793   3.924   4.399   1.212 -0.2364  0.5056  0.1143
 5386SOL    HW127794   3.985   4.372   1.144 -0.8130  0.7304 -0.4952
 5386SOL    HW227795   3.980   4.411   1.289  1.8701 -2.2558 -1.0040
 5387SOL     OW27796   3.556   1.539   3.680  0.0921 -0.5475 -0.2229
 5387SOL    HW127797   3.490   1.469   3.679 -0.4006 -0.0619 -1.3577
 5387SOL    HW227798   3.616   1.524   3.753 -0.0859 -3.0807 -0.5749
 5388SOL     OW27799   3.332   0.818   5.132 -0.4895  0.3071  0.3577
 5388SOL    HW127800   3.388   0.740   5.136 -0.6184  0.2626  1.1359
 5388SOL    HW227801   3.244   0.782   5.134 -1.1959  2.0807  1.2820
 5389SOL     OW27802   0.923   2.508   8.938 -0.3228 -0.7241  0.3503
 5389SOL    HW127803   0.858   2.566   8.897 -0.9025 -1.0135  0.8554
 5389SOL    HW227804   0.939   2.449   8.864 -1.8317  0.8091 -1.2244
 5390SOL     OW27805   3.977   3.317   5.787 -0.3415 -0.2761  0.3817
 5390SOL    HW127806   4.034   3.302   5.861  0.8576  1.2271 -0.2450
 5390SOL    HW227807   4.025   3.391   5.751 -0.1976 -0.4787  0.1575
 5391SOL     OW27808   2.987   0.976  10.123 -0.0945  0.0025  0.4079
 5391SOL    HW127809   3.024   0.950  10.038  0.8719  1.3042  0.4412
 5391SOL    HW227810   3.064   1.003  10.173  0.4249  0.4595 -0.6462
 5392SOL     OW27811   3.315   4.173   4.692 -0.0216 -0.1782 -0.2457
 5392SOL    HW127812   3.363   4.143   4.615 -0.5817 -3.6097  0.7647
 5392SOL    HW227813   3.242   4.111   4.695  1.7652 -2.2142  0.8525
 5393SOL     OW27814   2.977   1.237  10.433 -0.1001 -0.4180 -0.2593
 5393SOL    HW127815   2.956   1.216  10.524  2.1059  2.4773  0.9160
 5393SOL    HW227816   2.962   1.152  10.393 -1.4347 -0.0224 -0.5894
 5394SOL     OW27817   0.654   4.128   2.827 -0.2437 -0.1432  0.3250
 5394SOL    HW127818   0.695   4.099   2.909  0.0399  1.6611  0.8344
 5394SOL    HW227819   0.694   4.215   2.816 -1.6079  0.6476  1.5385
 5395SOL     OW27820   3.564   3.225   7.927 -0.0061  0.4148  0.1741
 5395SOL    HW127821   3.560   3.162   7.856  2.1411 -0.4878  0.8856
 5395SOL    HW227822   3.573   3.168   8.004 -0.1102 -0.6206 -0.5834
 5396SOL     OW27823   3.959   2.266  15.288 -0.6742  0.3309 -0.1677
 5396SOL    HW127824   3.917   2.247  15.204  0.3476  2.5685 -1.1669
 5396SOL    HW227825   3.972   2.360  15.288  0.1598  0.2121 -0.0374
 5397SOL     OW27826   4.728   2.620   0.258  0.5704 -0.3561  0.1188
 5397SOL    HW127827   0.045   2.680   0.205  0.7409 -0.7695 -0.1791
 5397SOL    HW227828   4.726   2.544   0.200  1.5251 -0.6955  0.5209
 5398SOL     OW27829   0.879   2.418   7.984 -0.4525 -0.1593  0.2908
 5398SOL    HW127830   0.904   2.353   8.049 -1.9789 -0.8357  0.2002
 5398SOL    HW227831   0.803   2.375   7.945 -0.1264  0.1017 -0.6494
 5399SOL     OW27832   2.031   1.312   7.798  0.4480  0.5359 -0.1621
 5399SOL    HW127833   2.113   1.362   7.799  0.6266  0.2721 -1.9016
 5399SOL    HW227834   2.013   1.309   7.892 -0.9348 -0.7656 -0.4673
 5400SOL     OW27835   1.293   3.816  13.223 -0.0164  0.0317 -0.1273
 5400SOL    HW127836   1.353   3.887  13.244 -0.9724  0.0678  2.4982
 5400SOL    HW227837   1.316   3.804  13.131 -0.0382 -0.0417 -0.1235
 5401SOL     OW27838   0.408   0.637   8.632  0.7571  0.2554 -0.7153
 5401SOL    HW127839   0.436   0.700   8.699  0.8232  0.5104 -0.9792
 5401SOL    HW227840   0.313   0.640   8.637  0.8036  1.5433 -0.5389
 5402SOL     OW27841   4.104   4.363   7.184 -0.2924  0.0686 -0.3115
 5402SOL    HW127842   4.183   4.395   7.226 -1.1028 -0.3476  1.5067
 5402SOL    HW227843   4.135   4.289   7.131  0.2752 -0.2013  0.4018
 5403SOL     OW27844   3.554   2.085   7.512  0.7116 -0.3949  0.0457
 5403SOL    HW127845   3.534   2.007   7.564  1.4585  0.4253  1.5534
 5403SOL    HW227846   3.640   2.068   7.474  0.2025 -1.9637 -0.4097
 5404SOL     OW27847   3.903   4.318  11.507  0.1699  0.3247 -0.6574
 5404SOL    HW127848   3.834   4.255  11.529  2.8238 -1.5200  2.5498
 5404SOL    HW227849   3.851   4.365  11.443  0.7924  1.5138 -0.2820
 5405SOL     OW27850   1.815   4.082   9.343  0.1951  0.4592  0.7203
 5405SOL    HW127851   1.745   4.144   9.320 -0.5876 -0.5226  0.4674
 5405SOL    HW227852   1.774   4.046   9.422 -0.2459  0.5719  0.5405
 5406SOL     OW27853   1.191   1.718   1.931  0.2569 -0.1170 -0.2896
 5406SOL    HW127854   1.227   1.771   1.859 -0.7630 -1.1835 -1.5786
 5406SOL    HW227855   1.106   1.757   1.952  1.4737  2.8507 -0.9395
 5407SOL     OW27856   2.373   3.734  17.516 -0.3850 -0.3501 -0.0758
 5407SOL    HW127857   2.370   3.819  17.560 -1.7181 -1.5320  2.1095
 5407SOL    HW227858   2.433   3.768  17.449 -2.5931  0.1491 -1.7887
 5408SOL     OW27859   1.437   1.894   7.236  0.5648 -0.5673  0.7330
 5408SOL    HW127860   1.463   1.950   7.308  0.7877 -0.4478  0.5611
 5408SOL    HW227861   1.444   1.808   7.277 -0.2541 -0.9587  0.0494
 5409SOL     OW27862   3.471   0.211   4.293 -0.0429  0.6517  0.6343
 5409SOL    HW127863   3.537   0.141   4.286  0.1634  1.2297 -3.0785
 5409SOL    HW227864   3.390   0.161   4.280  0.8489 -0.3870 -0.9913
 5410SOL     OW27865   2.753   1.782   6.097  0.2279 -0.4063 -0.5620
 5410SOL    HW127866   2.832   1.739   6.064 -0.5148 -0.2843 -2.5143
 5410SOL    HW227867   2.756   1.864   6.048  3.2779 -0.2456 -0.0883
 5411SOL     OW27868   2.369   3.457  10.254  0.0554  0.4795  0.1050
 5411SOL    HW127869   2.326   3.393  10.311  0.2104 -0.0397 -0.3580
 5411SOL    HW227870   2.291   3.479  10.203  0.4102 -0.0177 -0.6492
 5412SOL     OW27871   1.003   2.961   9.402  0.0938 -0.5546 -0.2506
 5412SOL    HW127872   1.027   2.929   9.490  1.3133  1.5202  0.1773
 5412SOL    HW227873   1.089   2.968   9.360  0.6003  1.7853  1.1721
 5413SOL     OW27874   1.422   0.433  11.445 -0.0172  0.5390 -0.2614
 5413SOL    HW127875   1.330   0.450  11.426 -0.7555 -0.3280  2.5314
 5413SOL    HW227876   1.453   0.358  11.394 -0.1331  0.0798  0.3345
 5414SOL     OW27877   3.297   1.262   6.535 -0.0227 -0.0578  0.9020
 5414SOL    HW127878   3.255   1.243   6.619 -2.4298 -1.5228 -0.6334
 5414SOL    HW227879   3.384   1.292   6.561  0.8689 -1.4167 -0.5388
 5415SOL     OW27880   1.878   1.650   7.750 -0.0859 -0.2222  0.7426
 5415SOL    HW127881   1.868   1.594   7.673 -0.3005 -1.3951  1.6324
 5415SOL    HW227882   1.950   1.704   7.718  0.5944 -1.8510 -0.4668
 5416SOL     OW27883   2.281   0.286   6.592  0.0857 -0.0256  0.2631
 5416SOL    HW127884   2.285   0.196   6.623  1.3572 -0.0827 -0.0752
 5416SOL    HW227885   2.303   0.285   6.499  1.9741  1.6170  0.7070
 5417SOL     OW27886   1.806   1.155   5.386 -0.3067  0.0271  0.2896
 5417SOL    HW127887   1.862   1.104   5.444  2.1190  3.0553  0.6302
 5417SOL    HW227888   1.741   1.093   5.352  1.0081 -1.7777  1.0673
 5418SOL     OW27889   0.903   2.097   4.557 -0.0993  0.3366 -0.0688
 5418SOL    HW127890   0.809   2.084   4.543 -0.2607  0.3479  1.0800
 5418SOL    HW227891   0.905   2.128   4.647 -0.4930 -0.7066  0.3057
 5419SOL     OW27892   1.730   3.681   2.410 -0.0367  0.6123  0.2553
 5419SOL    HW127893   1.711   3.602   2.460 -1.1090 -0.2169 -1.4346
 5419SOL    HW227894   1.766   3.736   2.479  0.2393 -0.6841  1.1442
 5420SOL     OW27895   1.336   2.183   3.757 -0.8346 -0.0058  0.0529
 5420SOL    HW127896   1.376   2.266   3.779 -0.2910 -0.3648  0.4227
 5420SOL    HW227897   1.264   2.182   3.820 -1.9986 -0.6831 -1.2799
 5421SOL     OW27898   1.997   0.416  15.514  0.2714  0.1203  0.0058
 5421SOL    HW127899   2.066   0.356  15.485  0.7181 -0.7539  2.9121
 5421SOL    HW227900   1.956   0.433  15.429 -2.7720 -0.1307  1.4362
 5422SOL     OW27901   1.950   0.350   4.753 -0.3617 -0.4902 -0.0327
 5422SOL    HW127902   1.886   0.394   4.696  1.5059  0.5368 -1.3328
 5422SOL    HW227903   2.002   0.425   4.782 -0.1371 -1.0474  1.0062
 5423SOL     OW27904   4.698   3.655   4.951  0.0452 -0.4734 -0.2778
 5423SOL    HW127905   0.037   3.626   5.003 -0.1591  0.5633  0.6031
 5423SOL    HW227906   4.728   3.739   4.916 -2.2913  0.7242  0.6297
 5424SOL     OW27907   3.631   2.656   0.146 -0.2309  0.0060  0.5034
 5424SOL    HW127908   3.712   2.657   0.095 -1.4033 -0.8867 -1.3991
 5424SOL    HW227909   3.623   2.751   0.157 -0.4074  0.1354 -0.7534
 5425SOL     OW27910   0.115   3.943   8.386  0.4412 -0.2643 -0.3774
 5425SOL    HW127911   0.090   3.929   8.477 -1.3809 -0.6990 -0.9404
 5425SOL    HW227912   0.134   3.851   8.372  1.0722 -0.3676  1.1852
 5426SOL     OW27913   3.993   1.348  14.900 -0.2072 -0.0025  0.4094
 5426SOL    HW127914   3.906   1.368  14.934  0.1621  1.1343  0.6711
 5426SOL    HW227915   3.973   1.346  14.807  0.6625 -2.0470  0.2625
 5427SOL     OW27916   1.384   1.750   2.131  0.3752 -0.1326  0.0638
 5427SOL    HW127917   1.313   1.737   2.069  1.4313  1.6230 -1.5470
 5427SOL    HW227918   1.457   1.772   2.072 -0.5376 -2.0768 -1.7976
 5428SOL     OW27919   1.539   2.214   8.064 -0.0494 -0.5063 -0.5754
 5428SOL    HW127920   1.461   2.160   8.063 -0.9896  0.8109  1.1488
 5428SOL    HW227921   1.541   2.239   8.157 -0.4687 -2.0421 -0.1674
 5429SOL     OW27922   1.340   1.462  15.752  0.0449  0.1707  0.1698
 5429SOL    HW127923   1.338   1.554  15.723 -2.9488 -0.4014 -1.4531
 5429SOL    HW227924   1.433   1.451  15.773  0.1264 -1.5148 -1.1052
 5430SOL     OW27925   2.358   3.951  14.959  0.4256  0.5399  0.3028
 5430SOL    HW127926   2.380   4.034  14.917  1.1270  0.2040 -0.0033
 5430SOL    HW227927   2.362   3.898  14.879 -0.1225  0.6033  0.2329
 5431SOL     OW27928   3.200   1.070  10.320 -0.2077 -0.2479  0.1354
 5431SOL    HW127929   3.291   1.084  10.347 -0.3742 -2.5962  1.8845
 5431SOL    HW227930   3.168   1.160  10.334  0.0109 -0.2772  0.8232
 5432SOL     OW27931   0.615   0.247   6.735  0.3604 -0.6990  0.3362
 5432SOL    HW127932   0.548   0.275   6.798  1.4732  2.2194  0.2100
 5432SOL    HW227933   0.584   0.298   6.659  0.0827 -2.2298 -0.5675
 5433SOL     OW27934   1.450   3.133   3.567  0.2216 -0.2959  0.4642
 5433SOL    HW127935   1.432   3.104   3.477  2.1862 -1.2088  0.3499
 5433SOL    HW227936   1.500   3.207   3.532  0.9185 -0.4328  1.1692
 5434SOL     OW27937   2.074   3.107   5.561  0.0577 -0.7364 -0.1411
 5434SOL    HW127938   1.996   3.053   5.574 -0.8073  0.0532 -2.0564
 5434SOL    HW227939   2.034   3.194   5.568  0.4204 -0.5124 -0.8767
 5435SOL     OW27940   0.339   1.128  10.035 -0.2573  0.0271 -0.2741
 5435SOL    HW127941   0.409   1.115   9.971  1.1465  0.6911  1.1369
 5435SOL    HW227942   0.284   1.050  10.029  1.4908 -1.0441 -2.4463
 5436SOL     OW27943   0.919   2.421   9.780 -0.3369 -0.2339  0.1796
 5436SOL    HW127944   1.002   2.375   9.795 -0.6394 -0.9023 -0.1711
 5436SOL    HW227945   0.911   2.409   9.685  1.2492 -1.4706  0.1876
 5437SOL     OW27946   3.178   2.009   7.068 -0.3949 -0.1310 -0.1145
 5437SOL    HW127947   3.126   2.033   6.991 -0.3932  0.7156  0.1480
 5437SOL    HW227948   3.111   2.032   7.132 -1.6312 -0.2411 -1.3579
 5438SOL     OW27949   2.150   2.752   8.276  0.1355 -0.4458  0.7873
 5438SOL    HW127950   2.156   2.704   8.193 -0.2078  2.9028 -1.1884
 5438SOL    HW227951   2.058   2.776   8.265  0.9533  0.8998 -3.4416
 5439SOL     OW27952   4.488   2.649   6.706  0.3497 -0.5701 -0.7028
 5439SOL    HW127953   4.568   2.647   6.654 -0.7475  1.4623 -2.4333
 5439SOL    HW227954   4.437   2.575   6.673 -1.4404  0.9748 -1.4241
 5440SOL     OW27955   2.996   3.695  11.780 -0.3313 -0.4051  0.1544
 5440SOL    HW127956   2.903   3.679  11.763 -0.5772 -0.9323  2.0252
 5440SOL    HW227957   3.033   3.608  11.763  0.7659  0.1654 -0.3866
 5441SOL     OW27958   1.504   2.059   6.144 -0.2497  0.1277  0.3090
 5441SOL    HW127959   1.512   2.149   6.111 -0.0012 -0.8733 -2.3322
 5441SOL    HW227960   1.499   2.079   6.237  0.1835  2.6035 -0.1752
 5442SOL     OW27961   2.441   3.233   5.520 -0.5344  0.2412  0.5715
 5442SOL    HW127962   2.515   3.234   5.460 -1.2917  2.0354 -0.3438
 5442SOL    HW227963   2.401   3.147   5.510 -0.0728  0.2807 -1.5539
 5443SOL     OW27964   3.574   2.109   8.875  0.0605  0.0172 -0.2446
 5443SOL    HW127965   3.578   2.023   8.832  0.3242  1.1511 -2.5175
 5443SOL    HW227966   3.656   2.154   8.853  2.0860 -3.1708  0.9015
 5444SOL     OW27967   1.231   1.192   5.423 -0.1831  0.2313 -0.2905
 5444SOL    HW127968   1.268   1.215   5.338  0.7229  2.8997  0.8440
 5444SOL    HW227969   1.172   1.265   5.439  0.5170  0.5200  0.9941
 5445SOL     OW27970   0.049   1.995   8.604  0.7742 -0.0700 -0.0305
 5445SOL    HW127971   0.062   1.939   8.528 -1.1349  0.0873 -0.4882
 5445SOL    HW227972   4.697   1.972   8.636  0.8609 -0.4140 -0.0445
 5446SOL     OW27973   3.160   2.392  11.669  0.0421  0.1728 -0.0665
 5446SOL    HW127974   3.217   2.388  11.591  0.7390 -0.8928  0.5014
 5446SOL    HW227975   3.145   2.299  11.686  0.3052 -0.2113 -1.8941
 5447SOL     OW27976   4.394   0.135   4.978  0.2880 -0.4432  0.0665
 5447SOL    HW127977   4.352   0.133   5.064 -0.7153 -2.2713 -0.4744
 5447SOL    HW227978   4.373   0.228   4.973 -0.2312 -0.5855 -0.4023
 5448SOL     OW27979   3.700   2.245   6.897 -0.1053 -0.2424  0.5711
 5448SOL    HW127980   3.794   2.248   6.880 -0.2489 -2.0458 -0.5470
 5448SOL    HW227981   3.689   2.153   6.922  0.1390 -0.8351 -1.5171
 5449SOL     OW27982   2.957   3.572   3.616 -0.5536 -0.2143 -0.1536
 5449SOL    HW127983   3.037   3.606   3.575 -1.3367 -0.3601 -1.7953
 5449SOL    HW227984   2.989   3.512   3.683  1.8262  1.2534  0.0238
 5450SOL     OW27985   3.114   3.174   8.346  0.0801  0.3417  0.3596
 5450SOL    HW127986   3.082   3.088   8.317  0.0361 -0.3377  2.3565
 5450SOL    HW227987   3.185   3.192   8.286 -2.2212 -0.2440 -2.5333
 5451SOL     OW27988   3.178   0.742   3.332  0.6617  0.0293 -0.2623
 5451SOL    HW127989   3.213   0.705   3.412  2.3359  0.9221 -0.5785
 5451SOL    HW227990   3.108   0.800   3.362  0.1742 -1.0442  0.6767
 5452SOL     OW27991   0.141   3.832   4.849  0.0288 -0.7705  0.4848
 5452SOL    HW127992   0.200   3.906   4.863  0.7019 -1.2407  0.1052
 5452SOL    HW227993   0.196   3.763   4.885  1.2860  2.2204  4.3120
 5453SOL     OW27994   4.039   2.812   4.704  0.0719 -0.2520 -0.3079
 5453SOL    HW127995   3.968   2.848   4.651 -0.6392 -0.5069  0.4871
 5453SOL    HW227996   4.112   2.871   4.684 -1.3679  2.4918  2.4523
 5454SOL     OW27997   1.971   2.505   2.002  0.1598  0.1147  0.4568
 5454SOL    HW127998   1.885   2.464   1.993  0.6550 -0.4422 -1.8026
 5454SOL    HW227999   1.956   2.599   2.010  1.0366  0.3071 -0.1679
 5455SOL     OW28000   3.961   0.169  13.642  0.7191 -0.1031  0.0966
 5455SOL    HW128001   3.958   0.142  13.734  0.0238  1.0353  0.4082
 5455SOL    HW228002   4.039   0.132  13.599  0.4446  1.7915 -2.0676
 5456SOL     OW28003   0.420   1.770   6.710 -0.3312 -0.6680 -0.2473
 5456SOL    HW128004   0.378   1.690   6.741 -1.2035  0.1967  0.8099
 5456SOL    HW228005   0.491   1.771   6.774 -0.9224 -0.7327  0.4044
 5457SOL     OW28006   1.164   2.910   3.742 -0.1320  0.7688 -0.0904
 5457SOL    HW128007   1.070   2.894   3.729  0.0698  0.5680 -1.2782
 5457SOL    HW228008   1.197   2.896   3.653 -3.6829  1.5433 -1.5310
 5458SOL     OW28009   3.382   4.505   8.778 -0.0763 -0.5265  0.3122
 5458SOL    HW128010   3.420   4.485   8.692  0.2493 -2.4265  0.9069
 5458SOL    HW228011   3.304   4.450   8.782 -0.2474 -0.4072 -1.1303
 5459SOL     OW28012   4.237   4.166   8.270 -0.1572  0.1533  0.2272
 5459SOL    HW128013   4.170   4.130   8.212  0.1027  0.5110 -0.2914
 5459SOL    HW228014   4.244   4.256   8.238  2.1951  0.5851  1.9339
 5460SOL     OW28015   2.749   1.760   3.282 -0.0631  0.1581 -0.4447
 5460SOL    HW128016   2.706   1.839   3.315 -0.5061 -0.2374 -0.0877
 5460SOL    HW228017   2.778   1.714   3.360 -3.3716  0.5927  1.0403
 5461SOL     OW28018   0.132   3.189   3.809 -0.1042  0.0054  0.3664
 5461SOL    HW128019   0.122   3.105   3.764  0.6526 -0.0715  0.3335
 5461SOL    HW228020   0.110   3.253   3.742 -2.3054  0.4650  1.5333
 5462SOL     OW28021   2.298   1.587   5.668 -0.4739 -0.0763 -0.8483
 5462SOL    HW128022   2.306   1.682   5.680  0.5308 -0.2785 -0.0504
 5462SOL    HW228023   2.221   1.590   5.611 -1.2935 -0.2768  0.2446
 5463SOL     OW28024   1.916   3.391   6.168  0.4680  0.2375  0.2821
 5463SOL    HW128025   1.957   3.325   6.225 -0.4218  0.0287  0.6819
 5463SOL    HW228026   1.919   3.472   6.219 -0.2985 -1.0221  2.3450
 5464SOL     OW28027   4.652   4.025   6.718 -0.2016  0.0170  0.1497
 5464SOL    HW128028   4.714   3.987   6.656  0.0335  0.1760  0.2873
 5464SOL    HW228029   4.686   4.114   6.705 -0.6038  0.0288 -0.8290
 5465SOL     OW28030   1.210   3.471  10.135 -0.2295  0.0312 -0.7914
 5465SOL    HW128031   1.197   3.535  10.205 -0.3622  0.5219 -1.2623
 5465SOL    HW228032   1.188   3.521  10.056 -0.3844  0.5315 -0.4298
 5466SOL     OW28033   3.940   2.247   3.721  0.1161 -0.2021  0.2380
 5466SOL    HW128034   3.937   2.342   3.735 -0.7916 -0.4366  1.6752
 5466SOL    HW228035   4.006   2.244   3.652  0.2456  1.6158  0.2675
 5467SOL     OW28036   1.273   0.953   5.569 -0.1293  0.0720  0.2819
 5467SOL    HW128037   1.184   0.948   5.603 -0.4005  3.8833  0.1470
 5467SOL    HW228038   1.266   1.023   5.504 -1.0344  0.9213  1.3032
 5468SOL     OW28039   0.212   4.453   1.890  0.0804 -0.5345 -0.0529
 5468SOL    HW128040   0.212   4.475   1.796 -0.2866 -1.2234 -0.2172
 5468SOL    HW228041   0.119   4.442   1.909  0.0477 -0.6424 -0.2737
 5469SOL     OW28042   2.197   2.360  12.702 -0.7736  0.1034 -0.1662
 5469SOL    HW128043   2.108   2.351  12.737  0.2450  0.4019  2.5087
 5469SOL    HW228044   2.214   2.267  12.687 -0.5198 -0.0144  0.8387
 5470SOL     OW28045   0.912   2.771  17.658  0.5610  0.1210  0.2202
 5470SOL    HW128046   0.879   2.723  17.734  2.8331 -0.7669  0.6515
 5470SOL    HW228047   1.006   2.756  17.671  0.6705 -0.5450 -1.2414
 5471SOL     OW28048   3.243   2.397   6.867  0.8025  0.4537  0.0925
 5471SOL    HW128049   3.329   2.437   6.852  0.8266  0.3253 -0.1221
 5471SOL    HW228050   3.200   2.463   6.812 -0.3813 -1.4833 -1.3174
 5472SOL     OW28051   2.928   2.644   0.572  0.3617  0.0759  0.2045
 5472SOL    HW128052   2.834   2.640   0.589 -0.1458  2.1913 -2.0528
 5472SOL    HW228053   2.928   2.689   0.487  2.1826 -0.5215 -0.1084
 5473SOL     OW28054   2.963   2.938  10.409 -0.9479 -0.0021 -0.3483
 5473SOL    HW128055   2.955   2.881  10.486 -2.5367  1.9455  0.9260
 5473SOL    HW228056   2.890   3.001  10.415 -1.0142 -0.3433  2.5600
 5474SOL     OW28057   2.787   4.277   4.361  0.4301  0.0295 -0.2407
 5474SOL    HW128058   2.797   4.255   4.454 -1.5647  1.7660  0.3747
 5474SOL    HW228059   2.748   4.198   4.324 -0.0381 -0.0708  0.4472
 5475SOL     OW28060   2.404   2.736   8.328  0.0166  0.0705 -0.4053
 5475SOL    HW128061   2.309   2.750   8.333  0.1256  0.9057 -0.7346
 5475SOL    HW228062   2.403   2.676   8.254 -0.0463 -0.4608  0.0216
 5476SOL     OW28063   4.038   3.849   5.800  0.4097  0.0591  0.1597
 5476SOL    HW128064   4.084   3.839   5.717 -0.0766 -1.4949  0.0887
 5476SOL    HW228065   4.084   3.929   5.827 -0.7029  0.3596  1.1728
 5477SOL     OW28066   2.158   3.498   7.695 -0.0821 -0.2376 -0.5191
 5477SOL    HW128067   2.245   3.505   7.733 -0.4048  0.3966  0.1149
 5477SOL    HW228068   2.123   3.579   7.732 -0.9256 -0.7152 -0.2805
 5478SOL     OW28069   0.521   2.510  15.031  0.4389  0.1530  0.6331
 5478SOL    HW128070   0.452   2.446  15.050  0.4572  0.1425  0.6634
 5478SOL    HW228071   0.594   2.456  14.999  0.4994  0.6357 -0.0452
 5479SOL     OW28072   3.328   2.815   6.297 -0.1844 -0.1494 -0.0851
 5479SOL    HW128073   3.384   2.749   6.255  1.2329  1.2261 -0.3347
 5479SOL    HW228074   3.256   2.754   6.315 -0.9653  1.7222  2.9864
 5480SOL     OW28075   0.862   1.326   7.383 -0.1941  0.3010 -0.1981
 5480SOL    HW128076   0.770   1.353   7.379  0.3397  1.6521 -2.8789
 5480SOL    HW228077   0.859   1.246   7.436 -2.3875  0.2015 -0.4900
 5481SOL     OW28078   1.522   1.232  10.960 -0.2146 -0.6693 -0.3277
 5481SOL    HW128079   1.491   1.143  10.944 -0.0589 -0.4079 -2.1336
 5481SOL    HW228080   1.616   1.214  10.951 -0.3472 -1.9264  0.8533
 5482SOL     OW28081   4.023   4.118  13.691 -0.2243  0.5303  0.2795
 5482SOL    HW128082   4.083   4.193  13.693 -0.0375  0.3893 -0.0047
 5482SOL    HW228083   4.091   4.052  13.676 -0.1161  0.6641  0.1809
 5483SOL     OW28084   2.979   2.285   2.738 -0.3750 -0.1069 -1.0196
 5483SOL    HW128085   3.031   2.285   2.818 -0.0917 -2.6475 -1.2088
 5483SOL    HW228086   2.921   2.213   2.761 -0.4440 -0.3991 -2.1149
 5484SOL     OW28087   1.051   4.244   6.652  0.3085  0.2938  0.0867
 5484SOL    HW128088   1.123   4.252   6.590  0.7276 -1.9886  0.2511
 5484SOL    HW228089   0.979   4.273   6.596 -0.5503  1.9183  2.0129
 5485SOL     OW28090   3.402   0.063   8.634  0.3142  0.1348  0.5298
 5485SOL    HW128091   3.435   0.001   8.698  0.7988 -1.3650 -1.1737
 5485SOL    HW228092   3.406   0.012   8.553  1.3409 -1.9021  1.8869
 5486SOL     OW28093   3.501   2.427  12.540 -0.0136  0.5584  0.0224
 5486SOL    HW128094   3.459   2.392  12.461  0.3690  0.5689 -0.1870
 5486SOL    HW228095   3.448   2.502  12.565  1.1996  1.7265 -0.9475
 5487SOL     OW28096   4.054   3.700   4.646  0.4169  0.5034  0.1569
 5487SOL    HW128097   4.032   3.667   4.733  1.8356 -1.7408 -0.3154
 5487SOL    HW228098   4.149   3.687   4.635  0.2857 -0.4806  0.1245
 5488SOL     OW28099   1.317   4.728  17.266  0.0142 -0.2923  0.0349
 5488SOL    HW128100   1.237   4.687  17.297  0.0223  0.7328  1.4293
 5488SOL    HW228101   1.298   0.070  17.319 -0.4283  0.6708 -1.5526
 5489SOL     OW28102   3.177   3.048   2.384 -0.0751  0.5745 -0.3965
 5489SOL    HW128103   3.156   3.067   2.292  3.6820 -0.1792 -1.4464
 5489SOL    HW228104   3.250   2.989   2.366 -0.4835  0.7180 -2.5584
 5490SOL     OW28105   3.483   3.668   8.501 -0.2707 -0.1789 -0.5334
 5490SOL    HW128106   3.568   3.635   8.471  0.4504  1.6624 -0.5101
 5490SOL    HW228107   3.426   3.612   8.448 -2.5788  3.0508 -1.4543
 5491SOL     OW28108   3.254   0.642   2.205  0.2903  0.0016 -0.3418
 5491SOL    HW128109   3.217   0.559   2.175  0.8537 -0.0772 -0.8262
 5491SOL    HW228110   3.236   0.694   2.126 -0.6282 -0.1884 -0.2543
 5492SOL     OW28111   3.753   1.374   1.877 -0.0224 -0.2931 -0.3960
 5492SOL    HW128112   3.670   1.376   1.925  0.7333  1.6023  0.8027
 5492SOL    HW228113   3.721   1.338   1.794 -0.6198 -1.3142  0.2710
 5493SOL     OW28114   2.832   0.870   1.292  0.1269  0.1215 -0.2125
 5493SOL    HW128115   2.805   0.948   1.341 -0.0299 -0.4315  0.5780
 5493SOL    HW228116   2.926   0.863   1.309 -0.2898  1.6164  2.8541
 5494SOL     OW28117   3.134   3.664   1.674 -0.1558 -0.2188 -0.2117
 5494SOL    HW128118   3.225   3.660   1.645  0.1380  0.2503  0.6254
 5494SOL    HW228119   3.093   3.635   1.593  0.1442 -0.3730 -0.3047
 5495SOL     OW28120   0.499   1.165   8.801  0.5586  0.0979 -0.6385
 5495SOL    HW128121   0.491   1.253   8.765  3.0418  0.3054 -0.6733
 5495SOL    HW228122   0.589   1.167   8.833  0.0798 -1.9274  0.8115
 5496SOL     OW28123   0.352   3.854  13.879  0.0729  0.5951  0.2500
 5496SOL    HW128124   0.371   3.769  13.840 -0.9952 -0.1475  1.3482
 5496SOL    HW228125   0.442   3.885  13.874 -0.1294  1.0372 -0.7316
 5497SOL     OW28126   3.977   1.262  13.972 -0.1974 -0.0338 -0.3707
 5497SOL    HW128127   4.051   1.224  14.021  2.3593  3.1331 -1.7654
 5497SOL    HW228128   4.015   1.311  13.899  2.5403 -2.6796 -0.7208
 5498SOL     OW28129   4.108   4.364   7.605  0.0979  0.3656 -0.0763
 5498SOL    HW128130   4.103   4.269   7.612  1.9517  0.2531 -0.2272
 5498SOL    HW228131   4.200   4.386   7.589 -0.2848  1.3137 -0.9577
 5499SOL     OW28132   3.967   4.595   3.616  0.1388 -0.1029 -0.4852
 5499SOL    HW128133   4.017   4.663   3.660 -0.2620  2.1106 -3.4903
 5499SOL    HW228134   3.939   4.634   3.533 -1.0870 -1.6330 -0.8080
 5500SOL     OW28135   3.744   3.148   7.052  0.2126  0.0014  0.1291
 5500SOL    HW128136   3.689   3.191   6.986  1.6785  1.5534 -0.0936
 5500SOL    HW228137   3.686   3.154   7.128 -1.8050  0.8612 -1.4928
 5501SOL     OW28138   0.944   4.105   9.324  0.2774 -0.2786  0.1113
 5501SOL    HW128139   1.032   4.071   9.307 -0.2365 -1.5408 -0.0514
 5501SOL    HW228140   0.893   4.035   9.282 -1.5482  0.6706  0.7511
 5502SOL     OW28141   1.499   3.101   3.298  0.6219 -0.2901  0.0249
 5502SOL    HW128142   1.466   3.028   3.245 -0.1110 -2.0206  2.8947
 5502SOL    HW228143   1.581   3.117   3.252  0.5706 -2.8158 -0.9335
 5503SOL     OW28144   1.166   2.311  15.454  0.0260  0.4362  0.1197
 5503SOL    HW128145   1.216   2.305  15.536  0.4436  2.5911  0.0171
 5503SOL    HW228146   1.078   2.303  15.490 -0.5520 -1.2069 -1.6699
 5504SOL     OW28147   1.211   0.421  15.607  0.1818 -0.4914  0.2806
 5504SOL    HW128148   1.306   0.418  15.623  0.4889 -0.6097 -1.6327
 5504SOL    HW228149   1.205   0.356  15.538  0.7207  0.1394 -0.3626
 5505SOL     OW28150   0.715   0.113   5.430 -0.0516 -0.2539 -0.3475
 5505SOL    HW128151   0.680   0.033   5.390  1.1109 -0.9917  0.1025
 5505SOL    HW228152   0.809   0.095   5.421 -0.3114 -0.6938 -2.1966
 5506SOL     OW28153   0.617   2.290   4.825  0.7771 -0.4654 -0.2458
 5506SOL    HW128154   0.571   2.291   4.741  0.1785 -0.7034  0.0859
 5506SOL    HW228155   0.594   2.375   4.862 -0.2743 -0.4054 -1.0434
 5507SOL     OW28156   4.528   4.392   3.396  0.3223  0.5986 -0.6034
 5507SOL    HW128157   4.613   4.371   3.435  0.2701  0.2922 -0.6556
 5507SOL    HW228158   4.512   4.308   3.352  0.8252 -0.1689  0.6696
 5508SOL     OW28159   1.333   2.238   5.244  0.7847 -0.0108  0.2484
 5508SOL    HW128160   1.295   2.152   5.262  0.5543 -0.1087 -0.7048
 5508SOL    HW228161   1.390   2.206   5.173  1.2796  2.8351 -0.6432
 5509SOL     OW28162   1.614   3.527   0.394 -0.9093 -0.4686  0.3427
 5509SOL    HW128163   1.659   3.518   0.311  0.3949  2.2067  0.7583
 5509SOL    HW228164   1.529   3.484   0.379 -1.4906  1.3876 -1.5776
 5510SOL     OW28165   4.585   3.465  14.892 -0.4885  0.5315  0.4894
 5510SOL    HW128166   4.529   3.531  14.932 -1.2340 -0.3599  0.9083
 5510SOL    HW228167   4.677   3.493  14.887 -0.5081  0.1960 -1.6987
 5511SOL     OW28168   1.575   2.775   2.104 -0.4706  0.6088 -0.4307
 5511SOL    HW128169   1.513   2.846   2.122  1.3084  2.5690 -1.9803
 5511SOL    HW228170   1.637   2.785   2.176  2.6703  3.0617 -3.4514
 5512SOL     OW28171   2.405   2.988   5.398  0.3440  0.8426 -0.0837
 5512SOL    HW128172   2.454   2.908   5.381 -2.0428 -0.7007  0.3244
 5512SOL    HW228173   2.313   2.964   5.387  1.1264 -1.7744 -0.9868
 5513SOL     OW28174   4.512   0.315   2.459  0.0168  0.0799 -0.1716
 5513SOL    HW128175   4.539   0.252   2.392 -1.0046  0.2141 -0.7134
 5513SOL    HW228176   4.448   0.369   2.414  0.4875  1.0441  0.3180
 5514SOL     OW28177   3.501   1.139   4.704 -0.4963 -0.0744  0.0421
 5514SOL    HW128178   3.562   1.066   4.711 -2.6664 -1.9343 -0.5724
 5514SOL    HW228179   3.437   1.127   4.774 -0.6047  1.1196  0.1600
 5515SOL     OW28180   1.877   1.421  13.874 -0.0698 -0.0771 -0.1959
 5515SOL    HW128181   1.838   1.354  13.930 -0.2995  0.6006  0.4519
 5515SOL    HW228182   1.849   1.392  13.787 -1.3754  0.3679  0.0883
 5516SOL     OW28183   3.208   1.023  14.645 -0.0760 -0.1316 -0.7749
 5516SOL    HW128184   3.294   1.015  14.687 -0.8811 -0.3453  0.8304
 5516SOL    HW228185   3.177   0.933  14.655  0.2183  0.0221  1.5059
 5517SOL     OW28186   4.327   3.718   4.394 -0.4803  0.3673 -0.8740
 5517SOL    HW128187   4.248   3.673   4.366 -0.5886 -1.2027  1.9852
 5517SOL    HW228188   4.321   3.711   4.489  2.2099  1.1793 -0.6378
 5518SOL     OW28189   0.046   3.153   6.982 -0.2799 -0.3590  0.2791
 5518SOL    HW128190   0.054   3.109   7.066 -0.9727 -1.1920 -0.0840
 5518SOL    HW228191   4.688   3.151   6.961 -0.4886 -0.3971  1.2327
 5519SOL     OW28192   4.141   4.159   2.856 -0.2372  0.6911 -0.0358
 5519SOL    HW128193   4.119   4.127   2.944 -0.6237 -2.0001 -1.0974
 5519SOL    HW228194   4.082   4.104   2.804  2.0038 -0.2629 -1.5689
 5520SOL     OW28195   3.932   3.700   5.151  0.4638 -0.1509 -0.0658
 5520SOL    HW128196   3.905   3.763   5.085 -0.1537 -2.8421 -2.4116
 5520SOL    HW228197   3.926   3.612   5.114 -1.8899 -0.1156  0.2700
 5521SOL     OW28198   3.816   3.711   6.505  0.3069 -0.9103 -0.0063
 5521SOL    HW128199   3.777   3.637   6.459 -1.1928 -0.6726  0.8906
 5521SOL    HW228200   3.815   3.775   6.434  1.2195 -0.0442  0.7665
 5522SOL     OW28201   1.770   4.557  17.416 -0.3034 -0.1587  0.7691
 5522SOL    HW128202   1.831   4.505  17.365  1.2779  0.5422  1.9575
 5522SOL    HW228203   1.769   4.513  17.501 -1.0552 -2.8507 -0.6319
 5523SOL     OW28204   3.414   0.425  12.485  0.0529 -0.0172 -0.7192
 5523SOL    HW128205   3.321   0.438  12.464  0.1239  2.2731  0.4434
 5523SOL    HW228206   3.422   0.331  12.468 -0.2810  0.0758 -1.4037
 5524SOL     OW28207   3.862   3.191   2.537  0.0512 -0.3025  0.5884
 5524SOL    HW128208   3.842   3.118   2.595  0.9648 -2.5317 -1.9086
 5524SOL    HW228209   3.777   3.234   2.527  0.4956 -0.2759 -3.1789
 5525SOL     OW28210   3.165   4.078   9.646  0.6066  0.1098 -0.9109
 5525SOL    HW128211   3.073   4.090   9.621  0.4583  2.3638  0.7290
 5525SOL    HW228212   3.173   3.986   9.623 -1.1614  0.0205 -1.2059
 5526SOL     OW28213   2.765   2.356   0.822  0.2765 -0.1062 -0.5103
 5526SOL    HW128214   2.803   2.404   0.749 -2.3482  1.4903 -0.8207
 5526SOL    HW228215   2.687   2.323   0.778 -1.3668  0.2106  2.1507
 5527SOL     OW28216   1.783   2.039   7.860  0.2476  0.6736  0.0601
 5527SOL    HW128217   1.826   2.075   7.782  0.4008  2.4277  0.9347
 5527SOL    HW228218   1.699   2.045   7.815  1.1328  0.1382 -1.6458
 5528SOL     OW28219   2.463   0.713  14.098  0.1872 -0.2393  0.4293
 5528SOL    HW128220   2.377   0.729  14.060  0.4167 -1.4709 -0.6062
 5528SOL    HW228221   2.452   0.744  14.188 -0.2337  0.9466 -0.0250
 5529SOL     OW28222   3.336   1.736   3.284  0.1647 -0.7048  0.2924
 5529SOL    HW128223   3.407   1.793   3.314  0.5849 -1.2552  0.3395
 5529SOL    HW228224   3.318   1.779   3.200  0.5044 -1.4120 -0.1391
 5530SOL     OW28225   4.700   3.953  17.121  0.0510  0.7661  0.1539
 5530SOL    HW128226   4.699   4.007  17.042 -0.2296 -1.0920 -1.1017
 5530SOL    HW228227   4.689   4.024  17.184 -0.4994 -0.6438  1.6318
 5531SOL     OW28228   4.248   3.484   7.209  0.2118 -0.2885 -0.5133
 5531SOL    HW128229   4.304   3.555   7.179  0.0515  0.2387  0.4503
 5531SOL    HW228230   4.274   3.482   7.301 -0.9225  1.9898 -0.1521
 5532SOL     OW28231   4.628   2.497   4.992 -0.3107 -0.7614  0.1446
 5532SOL    HW128232   4.700   2.451   4.950  0.1296  1.3254 -1.4030
 5532SOL    HW228233   4.595   2.519   4.905 -2.0486 -0.0309  0.9777
 5533SOL     OW28234   0.664   2.884   5.173 -0.0338 -0.2165  0.0726
 5533SOL    HW128235   0.742   2.849   5.216 -0.1635  2.1726  2.2509
 5533SOL    HW228236   0.600   2.844   5.231  0.1673 -0.5380  0.0711
 5534SOL     OW28237   1.335   3.153   2.642 -1.1598 -0.4563 -0.1381
 5534SOL    HW128238   1.307   3.244   2.631 -0.2571 -0.3719 -1.6474
 5534SOL    HW228239   1.261   3.106   2.603 -0.3686 -0.1232 -2.0406
 5535SOL     OW28240   0.545   1.118   3.943 -0.2926  0.2204  0.1596
 5535SOL    HW128241   0.592   1.190   3.900 -0.1049 -0.2289 -0.3912
 5535SOL    HW228242   0.454   1.145   3.929  0.5271  1.7293 -2.3113
 5536SOL     OW28243   2.802   2.711   6.101  0.2437  0.4402  0.3960
 5536SOL    HW128244   2.717   2.754   6.094 -0.0510 -0.0742  0.8026
 5536SOL    HW228245   2.840   2.745   6.181  3.6175 -3.0732  0.3229
 5537SOL     OW28246   2.422   1.490   5.004  0.1725  0.1273  0.3317
 5537SOL    HW128247   2.393   1.464   5.091 -0.5096 -2.5500 -0.6824
 5537SOL    HW228248   2.341   1.507   4.956  0.3055  0.5473  0.2513
 5538SOL     OW28249   0.817   2.799   6.935  0.2841  0.5738  0.0980
 5538SOL    HW128250   0.875   2.806   6.859  0.2212  1.6945  0.1645
 5538SOL    HW228251   0.797   2.705   6.933  0.7083  0.5254 -1.8055
 5539SOL     OW28252   0.132   0.918  13.171  0.3765  0.9091  0.0725
 5539SOL    HW128253   0.156   0.963  13.252 -0.1771 -1.9006  1.7979
 5539SOL    HW228254   0.206   0.857  13.167 -1.5769 -1.4035 -0.6803
 5540SOL     OW28255   0.563   0.496   7.719  0.1208 -0.2189  0.1161
 5540SOL    HW128256   0.470   0.478   7.701 -0.4918  1.2472  1.8641
 5540SOL    HW228257   0.594   0.486   7.629 -0.8243 -0.0843 -0.2209
 5541SOL     OW28258   0.689   4.682   9.296  0.1909 -0.4102  0.2468
 5541SOL    HW128259   0.718   4.623   9.227 -0.8319  0.0194 -0.5407
 5541SOL    HW228260   0.722   0.030   9.266 -1.8998  0.2444 -0.2516
 5542SOL     OW28261   1.948   4.634   9.402  0.3103 -0.2137  0.3107
 5542SOL    HW128262   1.995   4.588   9.472 -2.2357  0.3849  2.3844
 5542SOL    HW228263   1.903   4.689   9.465  0.7795  0.6915 -0.1382
 5543SOL     OW28264   4.159   3.443   1.426 -0.2627 -0.7532 -0.0912
 5543SOL    HW128265   4.096   3.438   1.355 -0.2982 -0.7367 -0.0609
 5543SOL    HW228266   4.162   3.352   1.456 -1.2017 -0.8825 -0.4162
 5544SOL     OW28267   2.211   0.144   8.883  0.3270 -0.1154 -0.2794
 5544SOL    HW128268   2.297   0.101   8.886  1.8927  2.8839 -1.5426
 5544SOL    HW228269   2.187   0.155   8.791 -2.1870  0.2941  0.4398
 5545SOL     OW28270   4.042   3.581   4.889  0.1486 -0.1135 -0.4263
 5545SOL    HW128271   3.963   3.572   4.942 -0.4737 -0.0023 -1.3390
 5545SOL    HW228272   4.074   3.491   4.892  1.7140  0.4013 -1.4938
 5546SOL     OW28273   1.269   0.800   4.134 -0.2399 -0.1803 -0.0256
 5546SOL    HW128274   1.256   0.712   4.170  0.3184 -0.0347  0.5430
 5546SOL    HW228275   1.216   0.854   4.193 -0.0944 -1.2013  1.0619
 5547SOL     OW28276   1.279   2.623   8.615 -0.1878  0.4487 -0.1804
 5547SOL    HW128277   1.192   2.659   8.597  0.1297  1.1484 -0.2842
 5547SOL    HW228278   1.326   2.697   8.652 -0.7435  0.8831 -0.3497
 5548SOL     OW28279   0.852   1.147   1.114 -0.3463  0.1218 -0.1873
 5548SOL    HW128280   0.895   1.129   1.197 -2.0945  0.4016  0.7800
 5548SOL    HW228281   0.886   1.231   1.084  0.8300 -0.2249  0.1744
 5549SOL     OW28282   2.113   2.702   5.787  0.3980 -0.1727  0.5520
 5549SOL    HW128283   2.020   2.702   5.763  0.4905  0.7585  0.1790
 5549SOL    HW228284   2.122   2.610   5.813 -0.5756  0.2330  2.3884
 5550SOL     OW28285   3.479   1.445  13.128 -0.1697  0.0558 -0.0424
 5550SOL    HW128286   3.400   1.413  13.084 -1.0722 -0.5679  2.0299
 5550SOL    HW228287   3.444   1.516  13.181 -0.5773 -0.9683  1.0641
 5551SOL     OW28288   3.700   0.733   2.671  0.3066 -0.0588  0.2702
 5551SOL    HW128289   3.612   0.768   2.677  0.0258 -0.8389  0.7024
 5551SOL    HW228290   3.715   0.689   2.755  1.1719  1.1133  0.7328
 5552SOL     OW28291   1.680   4.189   8.648 -0.5544  0.4245  0.2703
 5552SOL    HW128292   1.692   4.284   8.643 -1.9680  0.5004 -1.6866
 5552SOL    HW228293   1.623   4.198   8.724  1.1223  1.6979  1.3721
 5553SOL     OW28294   0.380   4.089   8.824  0.2785  0.4368  0.2086
 5553SOL    HW128295   0.328   4.079   8.745  1.5980  1.1633 -0.7542
 5553SOL    HW228296   0.321   4.074   8.898  0.0328 -2.5359 -0.5982
 5554SOL     OW28297   0.610   2.092   8.738  0.3130 -0.0123  0.4291
 5554SOL    HW128298   0.703   2.069   8.732  0.4067  0.6004 -0.6614
 5554SOL    HW228299   0.584   2.095   8.645  1.6232  0.6007  0.0766
 5555SOL     OW28300   0.444   2.973   7.637 -0.0305  0.3053  0.2510
 5555SOL    HW128301   0.422   2.880   7.638  2.1515 -0.2306  0.1199
 5555SOL    HW228302   0.464   3.002   7.726  1.6666  0.6283 -0.2303
 5556SOL     OW28303   2.026   2.856   6.989 -0.2715  0.9656  0.3353
 5556SOL    HW128304   1.997   2.765   6.988  1.2470  0.5074 -1.1383
 5556SOL    HW228305   2.057   2.866   7.079 -1.7460 -0.4157  1.0065
 5557SOL     OW28306   3.619   1.870   0.139 -0.1729  0.3737  0.1609
 5557SOL    HW128307   3.576   1.794   0.099  1.1832 -0.9620  1.2323
 5557SOL    HW228308   3.690   1.880   0.075  1.3347  0.6356  1.8726
 5558SOL     OW28309   1.536   2.103   4.062  0.5094  0.4401  0.0482
 5558SOL    HW128310   1.451   2.067   4.040  1.3582 -2.0389  0.8227
 5558SOL    HW228311   1.545   2.165   3.990 -0.1492  0.2886 -0.1642
 5559SOL     OW28312   1.576   2.695   2.997 -0.6749 -0.6347  0.1242
 5559SOL    HW128313   1.523   2.714   2.919 -0.8119  0.2884  0.4403
 5559SOL    HW228314   1.507   2.664   3.057 -0.8485 -2.0171 -0.7987
 5560SOL     OW28315   2.842   0.457   5.346  0.0011  0.3880  0.1667
 5560SOL    HW128316   2.800   0.497   5.422 -1.4373 -3.0484  1.1409
 5560SOL    HW228317   2.788   0.493   5.276  0.4758  0.6078 -0.0890
 5561SOL     OW28318   2.969   3.044   2.993  0.2072  0.0862 -0.0650
 5561SOL    HW128319   2.889   3.027   2.942  0.2513 -0.9352  0.2043
 5561SOL    HW228320   3.025   2.968   2.979 -1.3945 -1.1652  0.2561
 5562SOL     OW28321   3.796   0.232   5.102 -0.1603 -1.0091 -0.0237
 5562SOL    HW128322   3.875   0.242   5.050 -2.3495 -2.1415 -3.5717
 5562SOL    HW228323   3.785   0.137   5.106 -1.8417 -0.7142  2.3492
 5563SOL     OW28324   1.474   2.540  12.233 -0.1046 -0.0967  0.6443
 5563SOL    HW128325   1.414   2.539  12.158 -1.1028 -0.1468  1.4474
 5563SOL    HW228326   1.497   2.447  12.233  0.0548 -0.0561  0.6666
 5564SOL     OW28327   2.553   2.804   7.445 -0.1040  0.2513  0.3642
 5564SOL    HW128328   2.474   2.761   7.478  0.4591 -0.8152  0.3240
 5564SOL    HW228329   2.598   2.825   7.527  0.4005  1.4003 -0.2006
 5565SOL     OW28330   0.455   2.234   5.790 -0.1382 -0.7118  0.4805
 5565SOL    HW128331   0.368   2.266   5.816  0.2153  1.9275 -1.5287
 5565SOL    HW228332   0.499   2.309   5.831 -2.3143  0.9061 -0.0970
 5566SOL     OW28333   0.675   4.475   3.728 -0.1870 -0.3218  0.2122
 5566SOL    HW128334   0.663   4.391   3.772 -0.8372 -0.4586 -0.2206
 5566SOL    HW228335   0.587   4.513   3.736  0.1915  1.0333 -1.8660
 5567SOL     OW28336   1.420   3.475  15.547 -0.2804  0.3965 -0.0324
 5567SOL    HW128337   1.511   3.498  15.532 -0.0576  0.7622  1.8451
 5567SOL    HW228338   1.410   3.399  15.491 -1.3191 -0.8098  1.7916
 5568SOL     OW28339   2.604   1.639  14.957 -0.0343 -0.2272 -0.2337
 5568SOL    HW128340   2.547   1.563  14.948  1.2862 -1.2338 -0.2511
 5568SOL    HW228341   2.673   1.624  14.893 -0.4604 -3.1782  0.0152
 5569SOL     OW28342   4.599   1.981   9.011  0.1696 -0.5027  0.2519
 5569SOL    HW128343   4.639   1.905   9.054 -3.5688 -1.8288  1.3536
 5569SOL    HW228344   4.655   2.054   9.039  0.9793 -1.1155  0.2441
 5570SOL     OW28345   0.212   3.135   4.063 -0.0078  0.1982  0.4395
 5570SOL    HW128346   0.139   3.078   4.087 -0.1252  0.0151 -0.3442
 5570SOL    HW228347   0.206   3.141   3.968 -2.0274  1.9275  0.6765
 5571SOL     OW28348   3.080   2.287  12.481 -0.1015 -0.2057  0.4005
 5571SOL    HW128349   3.158   2.323  12.439 -1.1008  0.4888 -0.8771
 5571SOL    HW228350   3.119   2.214  12.529  0.9315 -1.1861 -1.9108
 5572SOL     OW28351   2.504   4.145  16.823  0.6834  0.1969  0.6188
 5572SOL    HW128352   2.421   4.143  16.872  1.7967 -2.6625  2.3637
 5572SOL    HW228353   2.514   4.051  16.811  3.3124  0.5346  0.2357
 5573SOL     OW28354   0.665   1.308  16.679 -0.3342  0.2383  0.0888
 5573SOL    HW128355   0.685   1.280  16.769  1.2594 -0.2408 -0.4176
 5573SOL    HW228356   0.696   1.398  16.684 -0.0296  0.2060 -1.1570
 5574SOL     OW28357   3.130   4.678  11.371 -1.0421 -1.0666  0.1634
 5574SOL    HW128358   3.219   4.643  11.375 -0.1542  1.2109 -0.0826
 5574SOL    HW228359   3.127   0.022  11.424 -0.6954  1.3653 -3.5575
 5575SOL     OW28360   2.257   2.876   1.412 -0.1781  0.1519  0.1588
 5575SOL    HW128361   2.320   2.849   1.479 -0.9577  2.2457  1.7599
 5575SOL    HW228362   2.177   2.891   1.461  0.4879 -0.6969  1.4893
 5576SOL     OW28363   1.528   3.305  12.651  0.1333  0.3569  0.1783
 5576SOL    HW128364   1.441   3.267  12.662 -0.4674  1.9250  0.9598
 5576SOL    HW228365   1.505   3.397  12.635 -1.6189 -0.4290 -1.8535
 5577SOL     OW28366   3.997   3.978   5.054 -0.5345 -0.4194 -0.1948
 5577SOL    HW128367   4.040   3.989   5.139 -1.1309 -3.7656  0.5386
 5577SOL    HW228368   4.064   3.951   4.991 -1.2811 -0.2418 -1.0675
 5578SOL     OW28369   3.977   3.137  12.081 -0.0203  0.0147  0.1174
 5578SOL    HW128370   3.894   3.141  12.034  0.9940 -1.3289 -1.7877
 5578SOL    HW228371   3.959   3.086  12.160 -1.0551  1.4392  0.7968
 5579SOL     OW28372   1.095   2.725   4.582  0.0107 -0.0197  0.6417
 5579SOL    HW128373   1.173   2.772   4.611 -0.8009  0.5247  1.9328
 5579SOL    HW228374   1.124   2.663   4.516  0.2900  0.4517  0.3252
 5580SOL     OW28375   2.286   3.467   2.552  0.3504  0.4308  0.2754
 5580SOL    HW128376   2.278   3.530   2.480 -2.4282  0.3075  0.5000
 5580SOL    HW228377   2.224   3.407   2.512  0.0840 -0.0025  1.3311
 5581SOL     OW28378   3.202   4.445  13.309 -0.2527  0.1811 -0.0828
 5581SOL    HW128379   3.175   4.419  13.397 -1.8697  0.7582 -0.4043
 5581SOL    HW228380   3.238   4.359  13.286  2.6486  0.7953  2.2164
 5582SOL     OW28381   3.196   3.851   3.015 -0.5334  0.1306  0.0620
 5582SOL    HW128382   3.166   3.849   3.105 -1.0194 -0.3878 -0.1088
 5582SOL    HW228383   3.207   3.757   2.997 -1.9759  0.0754 -0.5642
 5583SOL     OW28384   2.920   1.944   6.650  0.5952  0.2793 -0.2683
 5583SOL    HW128385   2.854   2.013   6.658 -1.9210 -2.0955 -0.4956
 5583SOL    HW228386   2.932   1.925   6.743 -2.9401 -2.7463 -0.4249
 5584SOL     OW28387   3.146   4.068   3.827  0.5450 -0.2228  0.2368
 5584SOL    HW128388   3.068   4.011   3.834 -1.0426  1.5293 -3.0405
 5584SOL    HW228389   3.165   4.081   3.920 -0.6447 -3.6585  0.9723
 5585SOL     OW28390   2.897   0.642   4.447  0.3429 -0.0064  0.1153
 5585SOL    HW128391   2.895   0.732   4.481 -0.8080  0.0193 -0.0248
 5585SOL    HW228392   2.952   0.649   4.370 -2.8139 -3.0108 -2.4292
 5586SOL     OW28393   3.007   0.167   9.006  0.6909 -0.8431  0.2244
 5586SOL    HW128394   2.947   0.109   8.960 -1.0941  0.9145  0.3485
 5586SOL    HW228395   3.081   0.162   8.945  0.3862  0.8817 -0.2956
 5587SOL     OW28396   1.954   0.434   8.726 -0.1160  0.0934 -0.1500
 5587SOL    HW128397   1.869   0.479   8.725 -1.0222 -1.4793  4.9880
 5587SOL    HW228398   1.998   0.514   8.697  0.0691  0.9389  2.4862
 5588SOL     OW28399   3.151   4.130  10.744  0.1548  0.0709  0.4720
 5588SOL    HW128400   3.067   4.089  10.768 -0.9375  0.5334 -2.5572
 5588SOL    HW228401   3.116   4.198  10.686  2.4072  1.9305  1.2880
 5589SOL     OW28402   4.118   2.765   0.938  0.5497 -0.0681  0.0816
 5589SOL    HW128403   4.047   2.711   0.904  0.4669  0.8108 -1.1468
 5589SOL    HW228404   4.156   2.809   0.862 -0.7453  2.5507  0.9606
 5590SOL     OW28405   0.125   2.118   9.546  0.1851  0.0188  0.1379
 5590SOL    HW128406   0.105   2.030   9.513  0.7843 -0.6851  1.6498
 5590SOL    HW228407   0.158   2.092   9.631  0.2164 -2.1585 -0.5446
 5591SOL     OW28408   3.102   4.445   7.271 -0.1084  0.3373 -0.3036
 5591SOL    HW128409   3.036   4.397   7.220  0.8846  0.0919 -1.3410
 5591SOL    HW228410   3.074   4.435   7.362  0.0455 -1.1343 -0.4184
 5592SOL     OW28411   3.953   1.743  11.710  0.2909 -0.3796 -0.6408
 5592SOL    HW128412   4.045   1.768  11.708 -0.0342  0.6988 -1.9262
 5592SOL    HW228413   3.944   1.653  11.681  1.0229 -0.3426 -0.9798
 5593SOL     OW28414   4.593   0.406   3.003  0.0721 -0.2438 -0.7405
 5593SOL    HW128415   4.683   0.430   2.979 -0.0945  1.9806  0.8543
 5593SOL    HW228416   4.548   0.469   2.947 -2.0973 -1.1561 -0.0213
 5594SOL     OW28417   2.556   2.140   6.056  0.5288  0.4550 -1.0080
 5594SOL    HW128418   2.490   2.206   6.075 -0.6345 -1.4020  1.3066
 5594SOL    HW228419   2.581   2.165   5.967  0.8266 -0.1135 -1.0833
 5595SOL     OW28420   0.267   0.541   9.390 -0.8983  0.0980  0.7475
 5595SOL    HW128421   0.292   0.472   9.451 -0.6453  1.7573  2.5076
 5595SOL    HW228422   0.185   0.566   9.432 -1.5708  0.0984 -0.5789
 5596SOL     OW28423   1.842   0.955   6.718 -0.2725  0.2225 -0.0133
 5596SOL    HW128424   1.809   0.869   6.690  1.9916 -0.6710  0.0993
 5596SOL    HW228425   1.922   0.957   6.666  0.0672  1.1418  0.5562
 5597SOL     OW28426   4.217   3.513   8.870 -0.0039 -0.4073  0.2922
 5597SOL    HW128427   4.147   3.449   8.860 -0.6441  0.2730  0.4009
 5597SOL    HW228428   4.261   3.531   8.786 -2.3843  0.2399 -0.8271
 5598SOL     OW28429   4.583   0.081   9.052  0.0052  0.1130  0.0216
 5598SOL    HW128430   4.521   0.134   9.002 -0.7662 -0.0019  0.8606
 5598SOL    HW228431   4.545   4.730   9.034 -1.0325  0.6876 -0.5628
 5599SOL     OW28432   1.409   0.152   3.960 -0.3973  0.8767 -0.2927
 5599SOL    HW128433   1.332   0.185   3.913 -0.8047 -0.7026 -0.7348
 5599SOL    HW228434   1.415   0.068   3.914  0.1115  0.5879  0.2975
 5600SOL     OW28435   0.789   4.503   4.013 -0.1435  0.5135 -0.1269
 5600SOL    HW128436   0.875   4.545   4.020  0.4498 -0.5691 -0.9521
 5600SOL    HW228437   0.793   4.419   4.060 -0.3247 -0.0059 -1.0439
 5601SOL     OW28438   0.718   1.757   6.543 -0.0815 -0.3386  0.2437
 5601SOL    HW128439   0.688   1.765   6.634 -0.0888  1.6290  0.0662
 5601SOL    HW228440   0.809   1.735   6.564  0.4665  3.3845  1.7442
 5602SOL     OW28441   3.303   2.822   0.740  0.7049  0.4916  0.1122
 5602SOL    HW128442   3.303   2.903   0.688 -1.5632 -0.2254 -0.9916
 5602SOL    HW228443   3.211   2.823   0.768  0.5091 -0.0011 -0.5271
 5603SOL     OW28444   2.004   0.598  15.884  0.4152  1.1893 -0.1043
 5603SOL    HW128445   1.973   0.511  15.857  1.1104  0.4735  1.3848
 5603SOL    HW228446   2.072   0.608  15.818  1.5646 -1.3775  0.6717
 5604SOL     OW28447   4.620   0.906   2.123  0.0238 -0.2818  0.3734
 5604SOL    HW128448   4.657   0.971   2.064 -1.2748 -0.5655 -0.7513
 5604SOL    HW228449   4.544   0.956   2.153 -0.1180 -0.1382 -0.2241
 5605SOL     OW28450   0.810   3.217   6.543  0.0434 -0.5657  0.1632
 5605SOL    HW128451   0.746   3.182   6.482 -0.6249 -0.9000  1.0665
 5605SOL    HW228452   0.797   3.312   6.547 -0.7164 -0.7311  1.5444
 5606SOL     OW28453   0.806   0.305   3.398  0.4519  0.5615  0.1115
 5606SOL    HW128454   0.756   0.339   3.324 -2.8571 -2.7413  0.8372
 5606SOL    HW228455   0.891   0.340   3.369  0.3181  1.9830  1.4510
 5607SOL     OW28456   4.472   0.893  11.093  0.0215 -0.1021 -0.2984
 5607SOL    HW128457   4.434   0.834  11.027  0.9752  0.0541 -0.9838
 5607SOL    HW228458   4.524   0.841  11.154 -1.3566  0.1446  1.0899
 5608SOL     OW28459   3.411   1.863   1.752 -0.3400  0.1858  0.1042
 5608SOL    HW128460   3.464   1.785   1.766  0.2336  0.1168 -2.4636
 5608SOL    HW228461   3.331   1.829   1.793 -0.3741  0.9432  0.6718
 5609SOL     OW28462   1.045   0.581   1.355 -0.2876  0.3866  0.2297
 5609SOL    HW128463   0.976   0.540   1.303  0.3577  2.1460 -1.9948
 5609SOL    HW228464   1.119   0.583   1.294  0.6052 -0.9162  1.2593
 5610SOL     OW28465   2.906   3.721   1.422 -0.1543  0.6289  0.0795
 5610SOL    HW128466   2.990   3.748   1.384  0.2212 -1.5839 -0.6977
 5610SOL    HW228467   2.940   3.638   1.456 -0.8211  0.5278  0.4928
 5611SOL     OW28468   0.111   2.602   3.026  0.1835  0.2115  0.5031
 5611SOL    HW128469   0.018   2.612   3.048  0.3753 -1.4750  2.0646
 5611SOL    HW228470   0.130   2.508   3.031 -0.4196  0.0755  0.2412
 5612SOL     OW28471   0.621   2.464   9.108  0.4013  0.0578 -0.3382
 5612SOL    HW128472   0.604   2.516   9.187  0.3270 -0.2046 -0.1795
 5612SOL    HW228473   0.540   2.465   9.056  0.6267 -2.8299 -0.7499
 5613SOL     OW28474   4.614   3.782   8.219  0.6988 -0.3118  0.5309
 5613SOL    HW128475   4.634   3.870   8.252 -0.4931  0.5510 -1.0635
 5613SOL    HW228476   4.546   3.800   8.154 -1.1591 -1.2792  2.1842
 5614SOL     OW28477   4.047   3.492  13.589  0.0677 -0.1597  0.2133
 5614SOL    HW128478   4.124   3.547  13.579  0.0543 -0.3719 -1.0463
 5614SOL    HW228479   3.976   3.556  13.583 -0.7225 -0.9400  1.1386
 5615SOL     OW28480   4.718   3.489   4.067 -0.1075 -0.2831  0.1284
 5615SOL    HW128481   4.713   3.516   4.158 -0.8163 -0.8187  0.2474
 5615SOL    HW228482   4.652   3.536   4.016 -1.1500 -1.0473  0.7821
 5616SOL     OW28483   3.667   2.031  15.864  0.1053  0.4696  0.0667
 5616SOL    HW128484   3.665   2.019  15.958  1.1307  0.1639  0.0482
 5616SOL    HW228485   3.730   2.101  15.848  2.7055 -2.2446 -1.5091
 5617SOL     OW28486   0.858   2.315  15.441  0.2617  0.6319  0.2430
 5617SOL    HW128487   0.843   2.401  15.401  1.8608  0.8368  0.1016
 5617SOL    HW228488   0.877   2.342  15.530 -0.9299 -0.1272  0.7330
 5618SOL     OW28489   3.141   4.191  15.969  0.0503 -0.2862 -0.0669
 5618SOL    HW128490   3.078   4.149  15.911 -0.0333  0.4181 -0.4850
 5618SOL    HW228491   3.086   4.251  16.018  0.1924  0.4972 -0.8731
 5619SOL     OW28492   0.049   2.287  12.076  0.0610  0.0542 -0.0482
 5619SOL    HW128493   0.057   2.374  12.115 -0.7080 -0.1290  0.5328
 5619SOL    HW228494   0.089   2.238  12.149  0.5473 -0.9569 -1.0003
 5620SOL     OW28495   2.448   4.533   5.139  0.1955  0.1136 -0.3191
 5620SOL    HW128496   2.538   4.544   5.108  0.0100 -1.5796 -1.4592
 5620SOL    HW228497   2.427   4.625   5.156  2.3084  0.9985 -2.4615
 5621SOL     OW28498   4.413   2.951   7.719  0.6150 -0.3264 -0.3230
 5621SOL    HW128499   4.349   2.904   7.772  0.7992 -0.1071  0.0978
 5621SOL    HW228500   4.494   2.963   7.769  0.1623  0.5536  0.1883
 5622SOL     OW28501   4.396   4.268   2.750 -0.1613  0.1204  0.5733
 5622SOL    HW128502   4.403   4.190   2.695 -1.2768  0.8989 -0.6413
 5622SOL    HW228503   4.321   4.246   2.805 -1.5603  0.6657 -1.1208
 5623SOL     OW28504   1.931   2.751   2.086 -0.0071  0.3903 -0.2276
 5623SOL    HW128505   1.888   2.827   2.047 -1.8336 -0.7478 -0.3929
 5623SOL    HW228506   1.942   2.774   2.178  1.9707  0.0120 -0.3587
 5624SOL     OW28507   1.764   4.042   7.368 -0.5868 -0.7510 -0.4943
 5624SOL    HW128508   1.838   4.011   7.315  0.1155  0.5064 -0.2543
 5624SOL    HW228509   1.778   4.005   7.455 -1.7967 -0.9163 -0.3797
 5625SOL     OW28510   4.531   0.406   3.277  0.3680  0.7277 -0.3380
 5625SOL    HW128511   4.541   0.414   3.182 -0.9081 -1.2466 -0.6354
 5625SOL    HW228512   4.478   0.327   3.286  1.2082  0.1667 -0.3816
 5626SOL     OW28513   2.255   4.350  10.820 -0.1293  0.1615  0.6929
 5626SOL    HW128514   2.188   4.281  10.828 -1.0150  0.9458  0.0610
 5626SOL    HW228515   2.217   4.417  10.877 -1.6487  0.7218 -0.9729
 5627SOL     OW28516   4.693   4.523  14.383 -0.2363 -0.5008  0.3628
 5627SOL    HW128517   0.046   4.519  14.419  0.1058 -0.2255 -0.4491
 5627SOL    HW228518   4.669   4.614  14.368  0.3446 -0.3744  0.2202
 5628SOL     OW28519   4.197   2.452   4.287 -0.2362  0.1909  0.2608
 5628SOL    HW128520   4.227   2.435   4.377 -0.5992 -0.1890  0.3090
 5628SOL    HW228521   4.225   2.542   4.273  0.2848  0.2179  1.4609
 5629SOL     OW28522   2.379   1.686   1.227 -0.3456  0.4546 -0.4514
 5629SOL    HW128523   2.286   1.708   1.232 -0.2621  0.3879  1.7330
 5629SOL    HW228524   2.378   1.590   1.235  1.3085  0.4853 -0.0547
 5630SOL     OW28525   3.822   4.556   9.593 -0.3113  0.0613 -0.0074
 5630SOL    HW128526   3.841   4.496   9.665 -3.6335  0.6245  1.3238
 5630SOL    HW228527   3.758   4.497   9.555  0.6349 -1.7573  1.2144
 5631SOL     OW28528   0.643   0.850   6.498  0.5625  0.2838 -0.4651
 5631SOL    HW128529   0.560   0.893   6.520 -0.1096 -0.8137 -0.8777
 5631SOL    HW228530   0.684   0.831   6.583  0.3286  1.6977 -0.0307
 5632SOL     OW28531   3.488   3.660   9.008  0.3419 -0.2154  0.0280
 5632SOL    HW128532   3.473   3.751   8.981 -0.2381 -0.5266 -0.6771
 5632SOL    HW228533   3.522   3.627   8.925 -2.4594 -0.4395 -1.0015
 5633SOL     OW28534   3.697   0.631   6.711  0.2667  0.4197 -0.4351
 5633SOL    HW128535   3.701   0.561   6.776  0.2747  1.5386  0.7744
 5633SOL    HW228536   3.601   0.630   6.702  0.5431 -1.1561 -3.2304
 5634SOL     OW28537   0.499   4.646   2.671 -0.2083 -0.5165 -0.0001
 5634SOL    HW128538   0.447   4.598   2.735 -0.1360  1.0642  1.2338
 5634SOL    HW228539   0.461   4.618   2.588 -0.7003  1.5455 -0.4521
 5635SOL     OW28540   1.479   0.348  10.908  0.5773  0.1835  0.2423
 5635SOL    HW128541   1.565   0.390  10.913  1.1615 -0.8355 -1.1356
 5635SOL    HW228542   1.494   0.276  10.970  0.3104 -0.2117 -0.1498
 5636SOL     OW28543   4.589   2.865  15.407 -0.3071  0.0826 -0.4027
 5636SOL    HW128544   4.606   2.890  15.497 -0.2944 -0.1125 -0.3517
 5636SOL    HW228545   4.610   2.944  15.357 -0.7962  1.1820  1.1355
 5637SOL     OW28546   3.666   1.814   2.930  0.3886 -0.0219  0.0523
 5637SOL    HW128547   3.735   1.754   2.902  1.4957  2.3072 -2.1439
 5637SOL    HW228548   3.714   1.883   2.974  2.0694 -1.3470  0.2951
 5638SOL     OW28549   2.334   3.831   5.964 -0.5403  0.3407 -0.3315
 5638SOL    HW128550   2.295   3.915   5.989  1.4561  1.8208 -2.1520
 5638SOL    HW228551   2.325   3.776   6.041  1.4166 -1.8275 -1.6553
 5639SOL     OW28552   1.369   0.037   4.983 -0.3509 -0.3723  0.6465
 5639SOL    HW128553   1.411   0.080   4.908  1.0164  0.2493  1.7780
 5639SOL    HW228554   1.440   0.041   5.047  1.6555  1.3361 -1.6921
 5640SOL     OW28555   1.300   2.992   6.278  0.0522 -0.6180 -0.1286
 5640SOL    HW128556   1.236   2.952   6.219  0.5356 -2.4316  0.6016
 5640SOL    HW228557   1.356   3.038   6.215 -0.1427 -2.3253 -1.5229
 5641SOL     OW28558   2.623   4.114   6.396  0.3225 -0.0321  0.2541
 5641SOL    HW128559   2.650   4.205   6.379 -1.0585  0.7280  2.0566
 5641SOL    HW228560   2.663   4.103   6.482 -1.5990  0.7497  1.2646
 5642SOL     OW28561   1.465   4.450   9.590  0.6673  0.5967 -0.0186
 5642SOL    HW128562   1.462   4.545   9.599  2.8534  0.6497  0.1412
 5642SOL    HW228563   1.388   4.423   9.641  1.4594  1.4396  1.6291
 5643SOL     OW28564   4.106   1.915   6.946  0.2465  0.2349 -0.2911
 5643SOL    HW128565   4.147   1.958   7.021 -0.0929  1.0436 -0.5671
 5643SOL    HW228566   4.145   1.956   6.869 -1.1450  0.8311 -0.6662
 5644SOL     OW28567   2.380   1.946   6.078  0.9434 -0.0575  0.7861
 5644SOL    HW128568   2.453   2.007   6.072  2.4239 -1.8105  1.2050
 5644SOL    HW228569   2.421   1.865   6.050  0.1345 -1.0085  2.3348
 5645SOL     OW28570   2.411   4.498  13.850 -0.3025  0.3166  0.1967
 5645SOL    HW128571   2.415   4.415  13.803  0.6431 -0.0001  0.8323
 5645SOL    HW228572   2.481   4.493  13.915 -0.0134  1.6256 -0.0201
 5646SOL     OW28573   0.348   3.866   2.264  0.2129  0.0948  0.2831
 5646SOL    HW128574   0.386   3.898   2.183 -1.6491 -3.2933 -1.9083
 5646SOL    HW228575   0.373   3.941   2.318  0.7157 -0.5722  0.9735
 5647SOL     OW28576   2.716   3.102  13.448  0.5418 -0.2054  0.0090
 5647SOL    HW128577   2.770   3.163  13.497 -0.1971 -1.0939  1.9582
 5647SOL    HW228578   2.752   3.095  13.360  1.2153  2.8798  0.0499
 5648SOL     OW28579   4.256   4.148   5.131  0.0849  0.1189 -0.1040
 5648SOL    HW128580   4.323   4.084   5.109 -0.1039  0.2729 -1.1301
 5648SOL    HW228581   4.262   4.137   5.225  1.3002  0.3562 -0.1527
 5649SOL     OW28582   3.720   3.944   9.040  0.0134  0.1489 -0.1695
 5649SOL    HW128583   3.776   3.881   8.993 -0.2182 -0.3387  0.2034
 5649SOL    HW228584   3.682   3.995   8.969  2.0186  2.3319  0.3174
 5650SOL     OW28585   2.704   3.180   3.563 -0.4617  0.4467 -0.0188
 5650SOL    HW128586   2.659   3.097   3.579 -1.6671  0.8994 -1.1203
 5650SOL    HW228587   2.668   3.244   3.624  0.8710  1.5874 -0.4172
 5651SOL     OW28588   1.671   2.569   9.999  0.0507 -0.3596 -0.1675
 5651SOL    HW128589   1.634   2.561  10.087 -1.4058 -2.2990 -0.9477
 5651SOL    HW228590   1.615   2.506   9.953 -1.2015 -0.0859  1.0085
 5652SOL     OW28591   3.283   2.656   6.569 -0.0568 -0.2375  0.1236
 5652SOL    HW128592   3.370   2.696   6.575 -0.7769  0.9583  2.6023
 5652SOL    HW228593   3.290   2.601   6.491  0.6194 -0.6368  0.4633
 5653SOL     OW28594   2.802   2.493   2.331 -0.3590  0.5262 -0.4987
 5653SOL    HW128595   2.816   2.505   2.425  3.2902  0.5355 -1.0254
 5653SOL    HW228596   2.874   2.543   2.292  1.6835 -1.8273  0.1858
 5654SOL     OW28597   1.330   3.452   6.254  0.0460 -0.2317  0.3227
 5654SOL    HW128598   1.303   3.495   6.335  1.2800  1.3725 -0.1277
 5654SOL    HW228599   1.419   3.438   6.288  0.7580  1.2503 -0.9433
 5655SOL     OW28600   3.277   1.906   3.090  0.1272 -0.2617 -0.1393
 5655SOL    HW128601   3.190   1.938   3.114  0.3941  0.2433  0.1754
 5655SOL    HW228602   3.327   1.988   3.097  1.6808 -1.0846 -1.4938
 5656SOL     OW28603   3.594   0.785  12.647 -0.1417  0.5746 -0.3512
 5656SOL    HW128604   3.662   0.802  12.582 -0.0504  0.2191 -0.3488
 5656SOL    HW228605   3.518   0.782  12.589 -1.0638  0.3368  0.8707
 5657SOL     OW28606   3.654   0.977   5.741  0.7439  0.1970  0.1056
 5657SOL    HW128607   3.614   0.972   5.828 -0.5088  1.3028 -0.4053
 5657SOL    HW228608   3.744   0.951   5.763  0.7962 -0.2617 -0.6425
 5658SOL     OW28609   3.502   4.067   2.185  0.2477 -0.4002  0.0976
 5658SOL    HW128610   3.463   4.021   2.111  1.4975 -1.5370  0.1473
 5658SOL    HW228611   3.485   4.156   2.156 -0.9615 -0.5679  0.2784
 5659SOL     OW28612   2.246   1.348   6.485  0.2326  0.2393  0.1281
 5659SOL    HW128613   2.304   1.344   6.409 -1.8953  1.5197 -1.5777
 5659SOL    HW228614   2.176   1.288   6.460  1.0843 -0.5966 -0.2650
 5660SOL     OW28615   0.103   0.157   6.437 -0.0885  0.1050  0.3293
 5660SOL    HW128616   0.187   0.173   6.393  1.2972 -2.7520  1.9725
 5660SOL    HW228617   0.055   0.226   6.391  0.0066 -0.8346 -1.1502
 5661SOL     OW28618   4.108   1.012  13.165 -0.1527 -0.0773  0.2914
 5661SOL    HW128619   4.105   0.995  13.259 -3.1668 -0.1043  0.2077
 5661SOL    HW228620   4.075   1.102  13.166 -1.7936 -0.6704  0.4927
 5662SOL     OW28621   4.385   0.555   3.464 -0.8159  0.0311 -0.7543
 5662SOL    HW128622   4.422   0.481   3.415 -0.4053 -0.2351 -0.0329
 5662SOL    HW228623   4.381   0.620   3.394  3.0829  0.0068 -0.9726
 5663SOL     OW28624   0.996   0.980   5.523 -0.2169  0.4663  0.9529
 5663SOL    HW128625   0.932   1.045   5.494 -0.5477 -0.2702  0.0562
 5663SOL    HW228626   0.930   0.920   5.559 -0.0409  0.6454  1.5828
 5664SOL     OW28627   2.352   3.243  11.625  0.2015  0.2157 -0.4680
 5664SOL    HW128628   2.293   3.201  11.562  0.5279  1.5198 -1.6480
 5664SOL    HW228629   2.290   3.259  11.697  0.8643 -1.3889  0.4534
 5665SOL     OW28630   3.439   3.109  15.543  0.1921 -0.3808  0.4488
 5665SOL    HW128631   3.470   3.200  15.542 -2.2660  0.4457 -0.2444
 5665SOL    HW228632   3.393   3.104  15.626 -1.3307  0.0795 -0.3629
 5666SOL     OW28633   0.260   4.041   4.499 -0.6680  0.4770 -0.2500
 5666SOL    HW128634   0.196   4.056   4.568 -0.9496  0.8764 -0.6018
 5666SOL    HW228635   0.212   4.017   4.420  1.2534 -1.3740 -0.8478
 5667SOL     OW28636   1.364   2.444   7.784 -0.7046  0.3836 -0.6244
 5667SOL    HW128637   1.308   2.388   7.838 -0.0790 -0.0105 -0.3880
 5667SOL    HW228638   1.308   2.499   7.729 -0.2747  0.8933 -0.5454
 5668SOL     OW28639   3.914   1.689   2.598  0.3211  0.5113 -0.2888
 5668SOL    HW128640   3.825   1.699   2.632  0.0148 -2.8990 -0.0805
 5668SOL    HW228641   3.949   1.667   2.684  1.9943  1.6142 -0.6736
 5669SOL     OW28642   0.327   3.299   6.092 -0.1991 -0.0785  0.1644
 5669SOL    HW128643   0.387   3.351   6.145  0.0298 -2.4107  2.1888
 5669SOL    HW228644   0.267   3.261   6.157 -2.0588 -0.6136 -1.8578
 5670SOL     OW28645   0.799   2.734   7.899 -0.3876  0.0769  0.1358
 5670SOL    HW128646   0.732   2.689   7.847  1.7403 -0.9393 -1.7578
 5670SOL    HW228647   0.744   2.759   7.973 -1.7500  3.2960 -1.9206
 5671SOL     OW28648   1.009   1.278  17.386 -0.1308 -0.0352  0.2133
 5671SOL    HW128649   1.093   1.325  17.378 -1.5360  2.5552  0.8422
 5671SOL    HW228650   1.035   1.208  17.325  0.7854  2.2137 -1.9757
 5672SOL     OW28651   2.141   1.028   8.970 -0.0762  0.4362  0.7047
 5672SOL    HW128652   2.113   1.108   8.924 -1.6090 -2.0050 -2.6049
 5672SOL    HW228653   2.235   1.037   8.956 -0.3467  1.1097 -0.6837
 5673SOL     OW28654   1.370   1.521  16.728  0.5056  0.4818 -0.5358
 5673SOL    HW128655   1.339   1.468  16.802  2.5715 -0.3728 -0.2728
 5673SOL    HW228656   1.443   1.463  16.707 -0.1332 -0.1140 -1.1408
 5674SOL     OW28657   4.364   4.732   5.557  0.0677 -0.6608 -0.6209
 5674SOL    HW128658   4.345   4.681   5.478 -0.7032 -1.3274 -0.0084
 5674SOL    HW228659   4.455   0.015   5.533  0.3730  1.5684  2.3072
 5675SOL     OW28660   0.750   2.361   2.129 -0.7510 -0.2767 -0.3869
 5675SOL    HW128661   0.779   2.360   2.038  2.1568  0.7233  0.5463
 5675SOL    HW228662   0.807   2.424   2.173 -1.1072 -0.7758  0.8118
 5676SOL     OW28663   2.456   2.605   8.070 -0.1013  0.2064 -0.4896
 5676SOL    HW128664   2.504   2.523   8.056 -0.5238  0.0972 -1.2962
 5676SOL    HW228665   2.477   2.655   7.991  0.9682  2.0500  0.9734
 5677SOL     OW28666   1.596   1.668   0.547  0.1165  0.0726  0.4131
 5677SOL    HW128667   1.561   1.713   0.470 -0.9323  1.4512  1.7070
 5677SOL    HW228668   1.681   1.641   0.512  0.1013  1.8805 -1.0143
 5678SOL     OW28669   2.937   1.675   7.176  0.2287 -0.4056 -0.1165
 5678SOL    HW128670   2.850   1.668   7.216 -1.0767  2.0972 -2.5155
 5678SOL    HW228671   2.979   1.590   7.185  3.0194  1.0421  0.3703
 5679SOL     OW28672   2.039   3.741   3.862 -0.1534 -0.0650 -0.3208
 5679SOL    HW128673   2.128   3.743   3.897 -0.8598 -1.9515  1.6241
 5679SOL    HW228674   2.006   3.659   3.899 -1.0537  0.9635  1.1683
 5680SOL     OW28675   1.049   2.380   6.319  0.3668 -0.1993  0.3680
 5680SOL    HW128676   0.960   2.390   6.351  0.4867 -0.9751  0.9646
 5680SOL    HW228677   1.041   2.300   6.268  2.0861  0.1651 -0.4938
 5681SOL     OW28678   1.893   3.244   8.826  0.3797  0.0470  0.2967
 5681SOL    HW128679   1.842   3.310   8.779  1.2305 -0.4473 -1.3148
 5681SOL    HW228680   1.850   3.173   8.779 -0.2683  0.9627 -0.4983
 5682SOL     OW28681   1.981   0.927  14.358  0.0529  0.3917  0.0024
 5682SOL    HW128682   2.038   0.910  14.283  2.2273  0.5590  1.6476
 5682SOL    HW228683   1.970   0.840  14.396  0.6548  1.0197  1.6247
 5683SOL     OW28684   3.354   2.024   2.754  0.3330  0.0818 -0.0802
 5683SOL    HW128685   3.406   2.010   2.674 -1.7996 -0.4275 -1.3810
 5683SOL    HW228686   3.269   2.004   2.715 -0.4580  0.6343  1.3887
 5684SOL     OW28687   3.258   2.263  14.916 -0.3142 -0.2731 -0.8531
 5684SOL    HW128688   3.299   2.308  14.842  0.4254  2.4960  1.2258
 5684SOL    HW228689   3.173   2.306  14.905 -1.6590 -2.6431  0.2632
 5685SOL     OW28690   2.727   2.732   4.257  0.0374  0.2198 -0.2261
 5685SOL    HW128691   2.675   2.674   4.200 -1.8939  2.0459 -0.3019
 5685SOL    HW228692   2.671   2.723   4.334  0.3571  3.7014  0.4018
 5686SOL     OW28693   2.176   1.571   7.440  0.2922  0.2366 -0.1245
 5686SOL    HW128694   2.085   1.555   7.463 -0.0966  3.0156  0.2010
 5686SOL    HW228695   2.221   1.551   7.522  0.5918  0.6373 -0.1894
 5687SOL     OW28696   2.611   0.262   9.159 -0.1093 -0.0424 -0.3751
 5687SOL    HW128697   2.609   0.168   9.141 -3.1419  0.1964 -1.2183
 5687SOL    HW228698   2.528   0.277   9.204  0.9544  0.7814  1.2985
 5688SOL     OW28699   2.964   4.029   0.381  0.4597  0.4682  0.7183
 5688SOL    HW128700   2.928   3.983   0.306 -1.0294  0.1384  1.6353
 5688SOL    HW228701   2.888   4.073   0.418 -1.9128 -1.6420 -1.6553
 5689SOL     OW28702   4.521   2.000   2.283  0.5770  0.6375 -0.4584
 5689SOL    HW128703   4.570   1.926   2.248 -2.9586 -1.6823 -0.5120
 5689SOL    HW228704   4.578   2.017   2.357  0.6220 -2.7148  0.2830
 5690SOL     OW28705   3.451   0.125   5.312  0.2204 -0.1341  0.0927
 5690SOL    HW128706   3.462   0.118   5.217  1.3848 -0.4087  0.2532
 5690SOL    HW228707   3.541   0.143   5.338  0.3911 -2.5957  1.2310
 5691SOL     OW28708   2.408   3.982   3.410 -0.1945  0.2824  0.1914
 5691SOL    HW128709   2.442   4.011   3.325  0.7731 -1.0921  0.1170
 5691SOL    HW228710   2.432   4.057   3.465  0.5603  1.1603 -1.2971
 5692SOL     OW28711   1.088   3.755   4.276  0.3073 -0.0556  0.2997
 5692SOL    HW128712   1.179   3.774   4.254 -0.8940  3.0130 -1.9579
 5692SOL    HW228713   1.075   3.828   4.337  1.8596  2.3517 -2.2948
 5693SOL     OW28714   3.747   4.174  17.620  0.0717  0.1486 -0.0608
 5693SOL    HW128715   3.686   4.245  17.635  1.7010  1.1921  1.5850
 5693SOL    HW228716   3.750   4.131  17.706  1.3966  3.8574  1.7412
 5694SOL     OW28717   2.709   2.424  13.515 -0.6937 -0.3230  0.5700
 5694SOL    HW128718   2.768   2.464  13.452 -2.6482 -0.6205 -1.4577
 5694SOL    HW228719   2.667   2.491  13.568 -0.4512 -0.1391  0.5275
 5695SOL     OW28720   1.421   2.666   4.370  0.3620  0.2571 -0.2987
 5695SOL    HW128721   1.411   2.751   4.412 -1.6609 -0.4114  0.6277
 5695SOL    HW228722   1.501   2.687   4.324 -0.5364  0.9662 -1.5405
 5696SOL     OW28723   0.979   4.497  15.598  0.2205  0.6592  0.1288
 5696SOL    HW128724   0.920   4.572  15.603 -1.2182 -0.5690  1.6561
 5696SOL    HW228725   0.993   4.509  15.504 -2.6282  0.1081 -0.3440
 5697SOL     OW28726   0.286   3.340   4.229  0.2309 -0.1002 -0.0470
 5697SOL    HW128727   0.275   3.390   4.148  1.5627 -0.9327 -0.7599
 5697SOL    HW228728   0.281   3.247   4.205 -0.0735  0.1407 -0.9115
 5698SOL     OW28729   1.548   1.013   4.415  0.2274 -0.4527  0.0972
 5698SOL    HW128730   1.455   1.001   4.396 -0.2680  2.0358  0.9405
 5698SOL    HW228731   1.583   1.045   4.331  1.5235 -1.9365  0.0782
 5699SOL     OW28732   2.126   3.051   9.120  0.3915  0.5182  0.0118
 5699SOL    HW128733   2.056   3.015   9.065  1.5033 -2.3125  0.4157
 5699SOL    HW228734   2.154   3.120   9.061  2.8753 -2.3292 -2.1289
 5700SOL     OW28735   2.470   3.895  16.806  0.0999 -0.3511  0.3297
 5700SOL    HW128736   2.406   3.850  16.861 -1.8861  0.8264 -1.0180
 5700SOL    HW228737   2.501   3.827  16.746 -0.9685 -1.2559  0.8147
 5701SOL     OW28738   3.572   3.128   8.215 -0.2097  0.1281  0.6311
 5701SOL    HW128739   3.643   3.079   8.256 -1.1342  0.3132  2.4540
 5701SOL    HW228740   3.540   3.060   8.156  0.9282  0.5639 -0.4892
 5702SOL     OW28741   1.426   1.078   9.484 -0.5436  0.1550  0.0263
 5702SOL    HW128742   1.364   1.011   9.454 -0.5150  0.6495 -1.1726
 5702SOL    HW228743   1.366   1.123   9.543 -0.6591 -0.5389  0.4291
 5703SOL     OW28744   4.206   3.346   6.962 -0.0586  0.1578 -0.1928
 5703SOL    HW128745   4.163   3.265   6.990  1.0835 -0.5744 -0.5944
 5703SOL    HW228746   4.226   3.397   7.040  0.3794 -2.6356  1.5291
 5704SOL     OW28747   1.419   1.330  12.865  0.1702 -0.1788 -0.7330
 5704SOL    HW128748   1.384   1.420  12.862  2.6942  0.8559  1.0534
 5704SOL    HW228749   1.346   1.273  12.841 -0.4129 -0.1317  0.9787
 5705SOL     OW28750   3.653   1.325  13.732 -0.1963  0.1538  0.3910
 5705SOL    HW128751   3.702   1.243  13.740  0.1668  0.3414  0.0814
 5705SOL    HW228752   3.568   1.294  13.700  0.1199 -1.7005  1.3280
 5706SOL     OW28753   4.093   2.571   0.447 -0.4462  0.3240 -0.2300
 5706SOL    HW128754   4.034   2.495   0.445 -1.1307  0.8701 -0.6822
 5706SOL    HW228755   4.163   2.545   0.507 -0.8309  0.3443  0.2231
 5707SOL     OW28756   3.351   3.422   6.981  0.2576 -0.1127  0.3537
 5707SOL    HW128757   3.423   3.412   6.919 -0.4423  2.7030 -0.9138
 5707SOL    HW228758   3.276   3.390   6.931 -0.6868  0.3500  1.4529
 5708SOL     OW28759   1.247   2.039   1.368 -0.7172  0.0925 -0.3749
 5708SOL    HW128760   1.302   2.116   1.385 -0.0358 -0.5999  0.5288
 5708SOL    HW228761   1.313   1.974   1.389  0.0905  0.9231 -0.3594
 5709SOL     OW28762   4.671   3.071   7.267 -0.1823 -0.6616  0.3659
 5709SOL    HW128763   4.670   2.976   7.269  0.8429 -0.6999 -1.0693
 5709SOL    HW228764   0.031   3.080   7.268 -0.3263  1.0381 -1.0272
 5710SOL     OW28765   0.694   0.845   5.019 -0.3453 -0.3415 -0.2770
 5710SOL    HW128766   0.672   0.756   5.048 -1.0658  0.4210  1.5040
 5710SOL    HW228767   0.790   0.839   5.019 -0.3399 -0.2520 -0.5580
 5711SOL     OW28768   2.328   4.156   5.651 -0.2672 -0.2408  0.4748
 5711SOL    HW128769   2.236   4.184   5.649 -1.2056 -3.2737  1.6260
 5711SOL    HW228770   2.363   4.216   5.717 -1.0211 -0.7919  1.3686
 5712SOL     OW28771   1.477   2.947   6.486 -0.1261  0.3803 -0.3655
 5712SOL    HW128772   1.416   2.953   6.412 -0.1161 -0.1988 -0.4270
 5712SOL    HW228773   1.558   2.922   6.441 -0.2019  1.2662 -0.9788
 5713SOL     OW28774   4.275   3.800   6.656 -0.0128  0.0450  0.2027
 5713SOL    HW128775   4.197   3.746   6.642  1.0175 -1.3787 -0.0143
 5713SOL    HW228776   4.337   3.760   6.596 -0.2030 -0.8650  0.6021
 5714SOL     OW28777   3.434   2.132   8.625 -0.8609  0.4204 -0.1810
 5714SOL    HW128778   3.478   2.051   8.598 -1.4956 -1.0906  3.3387
 5714SOL    HW228779   3.379   2.098   8.695  0.6695  1.3914  1.4928
 5715SOL     OW28780   0.170   1.502   3.250 -0.7095  0.7226 -0.2330
 5715SOL    HW128781   0.118   1.568   3.295  0.6291  1.2298  0.5668
 5715SOL    HW228782   0.120   1.493   3.168 -1.8050  1.9902  0.3083
 5716SOL     OW28783   0.231   3.216  16.676 -0.3810 -0.0471  0.4409
 5716SOL    HW128784   0.320   3.181  16.683 -0.0375  0.5338 -1.1537
 5716SOL    HW228785   0.261   3.306  16.674  0.1244 -0.1932  1.2419
 5717SOL     OW28786   3.605   0.588  17.517 -0.3916 -0.0999 -0.3925
 5717SOL    HW128787   3.526   0.536  17.499 -0.4210  0.2445 -1.2449
 5717SOL    HW228788   3.656   0.518  17.559  0.3545  0.5735 -0.1825
 5718SOL     OW28789   0.674   2.838   6.062  0.1301 -0.3310 -0.8075
 5718SOL    HW128790   0.607   2.884   6.010 -0.9255 -1.7103 -0.6616
 5718SOL    HW228791   0.659   2.877   6.148  1.0820  1.6285 -1.5274
 5719SOL     OW28792   4.039   1.172   6.407 -0.1587  0.4818 -0.6089
 5719SOL    HW128793   3.970   1.190   6.343 -0.6914 -1.5232 -0.5822
 5719SOL    HW228794   4.074   1.093   6.366 -0.6837 -0.0579 -0.0170
 5720SOL     OW28795   0.076   2.899  15.923 -0.5023 -0.5936 -0.0975
 5720SOL    HW128796   0.066   2.834  15.992 -1.0418 -1.9508 -1.4382
 5720SOL    HW228797   0.094   2.982  15.966 -1.7439 -0.2907 -0.1648
 5721SOL     OW28798   1.152   3.641   9.941  0.0612 -0.1040  0.3800
 5721SOL    HW128799   1.130   3.730   9.970  0.3229  0.5093 -1.3297
 5721SOL    HW228800   1.223   3.640   9.877 -0.2389  0.9979  0.0324
 5722SOL     OW28801   0.775   3.447   7.853  0.2959 -0.1098 -0.5204
 5722SOL    HW128802   0.715   3.465   7.926 -0.3269  0.6033 -1.2208
 5722SOL    HW228803   0.787   3.536   7.821 -0.9952  0.0259 -0.6179
 5723SOL     OW28804   0.129   0.818   4.438  0.1998  0.3674 -0.4312
 5723SOL    HW128805   0.153   0.906   4.467  1.2435  0.1163 -0.5424
 5723SOL    HW228806   0.204   0.793   4.384  0.5345 -1.9849  1.1401
 5724SOL     OW28807   4.105   1.161   9.224  0.7370 -0.5673 -0.3013
 5724SOL    HW128808   4.152   1.124   9.299  1.9396  1.2835 -0.1533
 5724SOL    HW228809   4.040   1.095   9.199  0.6570  0.6667 -3.2500
 5725SOL     OW28810   0.166   4.148  17.496 -0.2309  0.0386  0.0876
 5725SOL    HW128811   0.120   4.180  17.574 -0.3556  0.6010 -0.2203
 5725SOL    HW228812   0.122   4.181  17.418  0.1947  0.5226  0.0550
 5726SOL     OW28813   2.049   4.390  16.876  0.2176 -0.4008 -0.3720
 5726SOL    HW128814   2.020   4.441  16.951  0.1625 -1.7184  0.5066
 5726SOL    HW228815   2.032   4.299  16.902  2.1509 -0.2977  1.2506
 5727SOL     OW28816   2.423   3.267   9.327  0.8980  0.2202 -0.1774
 5727SOL    HW128817   2.478   3.280   9.250 -1.1753  1.6562 -1.4271
 5727SOL    HW228818   2.339   3.240   9.289  1.8567 -0.9613 -1.4198
 5728SOL     OW28819   4.158   0.601   1.978 -0.1367 -0.0649  1.1588
 5728SOL    HW128820   4.122   0.514   1.994 -2.6671  0.8240  0.2380
 5728SOL    HW228821   4.159   0.605   1.883 -2.2389 -1.3262  1.0905
 5729SOL     OW28822   1.270   1.584   5.741  0.2700 -0.5444 -0.4124
 5729SOL    HW128823   1.197   1.646   5.743 -0.1764 -1.1379  1.0330
 5729SOL    HW228824   1.222   1.507   5.710  0.3825 -0.8868  0.2623
 5730SOL     OW28825   2.888   3.585   9.003  0.1991 -0.4191  0.5916
 5730SOL    HW128826   2.815   3.584   8.940  0.3401  0.2394  0.4139
 5730SOL    HW228827   2.960   3.599   8.942  0.3835 -0.0729  0.8879
 5731SOL     OW28828   4.180   1.365  15.841  0.2185 -0.0261  0.3572
 5731SOL    HW128829   4.233   1.321  15.775 -2.0493 -0.6195 -1.0642
 5731SOL    HW228830   4.222   1.450  15.854 -2.9670  1.2348  2.4921
 5732SOL     OW28831   2.718   3.304  10.815  0.0883  0.3631 -0.0031
 5732SOL    HW128832   2.797   3.296  10.870 -0.3135 -0.5722  0.4502
 5732SOL    HW228833   2.770   3.313  10.736  0.6428  0.7389  0.4036
 5733SOL     OW28834   0.877   4.405   8.066 -0.2049 -0.0770  0.4744
 5733SOL    HW128835   0.871   4.496   8.038 -1.8644 -0.3722 -0.1404
 5733SOL    HW228836   0.863   4.428   8.158 -2.1339 -0.8844  0.3891
 5734SOL     OW28837   0.750   4.014   6.577  0.1865 -0.5674 -0.1205
 5734SOL    HW128838   0.743   3.950   6.648 -3.0519 -1.5884 -1.3543
 5734SOL    HW228839   0.743   4.095   6.628 -1.9346 -0.8717  0.0640
 5735SOL     OW28840   0.308   1.816  10.641  0.7634  0.0942 -0.1141
 5735SOL    HW128841   0.223   1.831  10.598  1.1033 -0.5372 -0.9988
 5735SOL    HW228842   0.356   1.899  10.647 -0.3134  0.5272  2.7103
 5736SOL     OW28843   1.500   4.019  14.442 -0.0647 -0.3824 -0.3526
 5736SOL    HW128844   1.436   4.061  14.384  1.0360 -0.0225 -1.3092
 5736SOL    HW228845   1.464   3.931  14.436 -1.6020  0.1721  0.7437
 5737SOL     OW28846   2.645   0.243   7.262 -0.2161 -0.1359  0.2683
 5737SOL    HW128847   2.653   0.150   7.286  0.6090 -0.0256  0.4247
 5737SOL    HW228848   2.569   0.268   7.315 -0.4446  0.9540 -0.5850
 5738SOL     OW28849   3.841   4.258   2.739 -0.1210  0.3928  0.0837
 5738SOL    HW128850   3.878   4.282   2.654  0.9829  3.2789  1.3966
 5738SOL    HW228851   3.867   4.166   2.737 -0.7325  0.2395 -1.0345
 5739SOL     OW28852   3.834   3.409  13.130  1.0455 -0.2606 -0.5258
 5739SOL    HW128853   3.754   3.445  13.093  1.6186  0.1671 -1.3435
 5739SOL    HW228854   3.797   3.383  13.215  2.8903 -0.5331  0.1989
 5740SOL     OW28855   0.794   3.586   9.993  0.2415 -0.1583 -0.0125
 5740SOL    HW128856   0.797   3.649  10.065 -4.4651 -1.1086  1.0526
 5740SOL    HW228857   0.886   3.573   9.971  0.2617 -1.5845  0.8555
 5741SOL     OW28858   2.445   1.383   3.008 -0.3899  0.7861  0.4373
 5741SOL    HW128859   2.517   1.332   3.045  0.4612  0.4983 -1.6422
 5741SOL    HW228860   2.454   1.459   3.066  0.9993  0.2267  0.9406
 5742SOL     OW28861   1.379   2.447   4.196 -0.1738  0.3793  0.2858
 5742SOL    HW128862   1.347   2.361   4.171 -2.1029  0.3933  2.6655
 5742SOL    HW228863   1.466   2.427   4.228 -0.2937 -1.6050 -0.6702
 5743SOL     OW28864   0.291   0.133   2.337  0.2738 -0.7175 -0.4702
 5743SOL    HW128865   0.271   0.177   2.254 -3.6196  0.2909  1.0257
 5743SOL    HW228866   0.384   0.155   2.341 -0.1589  1.0879 -0.3270
 5744SOL     OW28867   0.910   1.217   8.115 -0.0858  0.2626  0.0639
 5744SOL    HW128868   0.985   1.163   8.092 -0.8005 -0.1688 -1.2705
 5744SOL    HW228869   0.847   1.181   8.053 -0.5709  0.6999  0.2946
 5745SOL     OW28870   4.594   1.928  17.608 -0.4834  0.8299 -0.6441
 5745SOL    HW128871   4.668   1.955  17.553  0.3384  0.6390  0.3817
 5745SOL    HW228872   4.521   1.933  17.546 -2.3289  1.3911  1.6152
 5746SOL     OW28873   1.060   3.999   2.435  0.0635  0.0695  0.0686
 5746SOL    HW128874   1.137   3.958   2.395  1.8896  2.0697  1.5204
 5746SOL    HW228875   1.094   3.999   2.524  0.1851 -0.0936  0.0221
 5747SOL     OW28876   1.127   1.924   3.445  0.2813 -0.2144  0.3557
 5747SOL    HW128877   1.094   1.998   3.496 -1.1142 -0.4144 -0.2594
 5747SOL    HW228878   1.163   1.968   3.368 -1.2555 -1.1944 -0.8976
 5748SOL     OW28879   3.594   3.682   6.966  0.5139  0.1833 -0.5356
 5748SOL    HW128880   3.669   3.738   6.947  0.8651  0.2315  1.0055
 5748SOL    HW228881   3.579   3.633   6.885  2.2555  0.5458 -1.0660
 5749SOL     OW28882   0.059   1.449   8.688  0.0637  0.1619 -0.0799
 5749SOL    HW128883   0.035   1.386   8.620  0.6090 -0.0191 -0.1065
 5749SOL    HW228884   0.152   1.428   8.695 -0.0843 -0.4392  0.1528
 5750SOL     OW28885   4.505   3.612  13.459 -0.1461 -0.0236 -0.1697
 5750SOL    HW128886   4.585   3.627  13.408 -0.2250  2.0316  0.3401
 5750SOL    HW228887   4.448   3.646  13.390  0.8882  1.0881 -0.4689
 5751SOL     OW28888   4.618   1.901   6.465 -0.3559  0.1367  0.3546
 5751SOL    HW128889   4.607   1.824   6.411  1.4058 -0.0370  0.2446
 5751SOL    HW228890   4.531   1.942   6.462  0.0688  0.9941 -0.2865
 5752SOL     OW28891   2.132   2.170   7.328 -0.4773  0.1541 -0.2653
 5752SOL    HW128892   2.165   2.126   7.250  0.3765  0.5200 -0.1081
 5752SOL    HW228893   2.146   2.263   7.308  0.6165  0.4637  1.9832
 5753SOL     OW28894   1.949   2.503   6.457 -0.8558 -0.0705  0.1981
 5753SOL    HW128895   1.927   2.411   6.445  0.1345 -0.2206 -0.5399
 5753SOL    HW228896   1.908   2.512   6.543 -1.1073 -0.0562  0.0775
 5754SOL     OW28897   4.200   0.448   3.929  0.2135  0.1082  1.4413
 5754SOL    HW128898   4.233   0.440   3.839 -0.7953  2.8787  0.8420
 5754SOL    HW228899   4.227   0.357   3.940  3.0851  0.6936 -0.7736
 5755SOL     OW28900   0.696   2.441   0.296 -0.1560  0.0471 -0.2044
 5755SOL    HW128901   0.735   2.396   0.221  0.5021 -1.9320  1.3450
 5755SOL    HW228902   0.644   2.373   0.337 -3.2341  1.8689 -1.1129
 5756SOL     OW28903   2.073   0.725   4.258 -0.3256  0.0135 -0.8609
 5756SOL    HW128904   2.119   0.668   4.196  3.0435  1.5729  0.1839
 5756SOL    HW228905   2.149   0.761   4.303 -0.3549  0.9150 -1.5473
 5757SOL     OW28906   3.970   1.000   4.050 -0.4518 -0.1521 -0.3522
 5757SOL    HW128907   3.962   0.906   4.034  2.8806 -0.8537  2.0211
 5757SOL    HW228908   3.920   1.033   3.976 -0.1077  0.5787 -0.2521
 5758SOL     OW28909   3.355   2.987   4.894  0.1963  0.0490 -0.6006
 5758SOL    HW128910   3.285   2.932   4.929 -0.3968  2.5634  2.1711
 5758SOL    HW228911   3.406   2.932   4.835  0.0622  0.0174 -0.6863
 5759SOL     OW28912   1.437   3.093   5.222 -0.0452  0.0208  0.0507
 5759SOL    HW128913   1.392   3.090   5.306 -1.3840 -0.7441 -0.7124
 5759SOL    HW228914   1.415   3.010   5.179  5.2625 -0.7591 -1.2710
 5760SOL     OW28915   4.683   0.807  14.671  0.3247 -0.7081  0.4076
 5760SOL    HW128916   4.682   0.777  14.762 -4.8039  0.1965  0.6714
 5760SOL    HW228917   4.665   0.723  14.627  1.9701  0.1928 -1.9820
 5761SOL     OW28918   4.679   3.262   7.490  0.4636  0.1440 -0.1014
 5761SOL    HW128919   4.603   3.319   7.478  0.4748 -0.1833 -1.7419
 5761SOL    HW228920   4.664   3.200   7.419  0.6933  0.8395 -0.7527
 5762SOL     OW28921   4.289   0.068   0.620 -0.5970  0.4616 -0.0804
 5762SOL    HW128922   4.246   0.023   0.547  1.8554 -0.0585 -1.1978
 5762SOL    HW228923   4.379   0.038   0.607 -0.5903  0.3374  0.2628
 5763SOL     OW28924   2.256   1.871   4.830 -0.2138  0.7363  0.0061
 5763SOL    HW128925   2.186   1.834   4.777  0.6570 -0.6469 -0.1598
 5763SOL    HW228926   2.218   1.886   4.916 -1.1934  1.2639 -0.5176
 5764SOL     OW28927   3.627   4.628   7.532 -0.0221 -0.1577  0.4185
 5764SOL    HW128928   3.545   4.677   7.524  0.3843  0.3305 -0.8756
 5764SOL    HW228929   3.631   4.625   7.627 -0.9360  0.2312  0.4713
 5765SOL     OW28930   4.447   3.217   7.164 -0.0114  0.1466 -0.2741
 5765SOL    HW128931   4.451   3.167   7.083 -0.1011  0.6980 -0.6170
 5765SOL    HW228932   4.522   3.179   7.211 -1.7549 -2.1452  0.6468
 5766SOL     OW28933   2.647   3.051  17.415 -0.0660  0.1449 -0.5551
 5766SOL    HW128934   2.719   3.108  17.441  0.3275  0.1511 -1.6588
 5766SOL    HW228935   2.591   3.119  17.378  0.2250 -0.6213 -2.3898
 5767SOL     OW28936   0.018   2.049   1.665  0.5380  0.2599  0.4136
 5767SOL    HW128937   4.662   2.025   1.661  0.6701  0.2241 -2.1958
 5767SOL    HW228938   0.021   2.143   1.684 -0.8260 -0.2051  2.9133
 5768SOL     OW28939   3.652   1.258   8.294  0.2200 -0.5987 -0.1612
 5768SOL    HW128940   3.716   1.258   8.365 -1.0592  1.2454  0.9884
 5768SOL    HW228941   3.588   1.324   8.318  0.4389 -0.9796  1.4789
 5769SOL     OW28942   4.584   2.260   1.722  0.3235  0.2371 -0.2069
 5769SOL    HW128943   4.550   2.209   1.796 -1.0473  1.0448 -0.2830
 5769SOL    HW228944   4.570   2.346   1.761 -0.2057 -0.4610  1.1811
 5770SOL     OW28945   2.818   1.591   2.245  0.0549 -0.2548 -0.2899
 5770SOL    HW128946   2.725   1.608   2.261 -0.4482 -1.6673 -1.7516
 5770SOL    HW228947   2.827   1.506   2.203 -1.8087 -0.6392  0.0950
 5771SOL     OW28948   2.697   3.328   1.204 -0.0754 -0.1961  0.1358
 5771SOL    HW128949   2.659   3.282   1.278 -2.4893 -1.5582 -1.9416
 5771SOL    HW228950   2.623   3.369   1.158  1.6227  0.8435 -1.6627
 5772SOL     OW28951   3.466   4.251   3.401  0.0398 -0.4898 -0.1468
 5772SOL    HW128952   3.505   4.185   3.457  4.0597  2.1988  0.2102
 5772SOL    HW228953   3.526   4.247   3.326  2.7090  1.7734  1.8586
 5773SOL     OW28954   3.100   1.622   4.016 -0.6137 -0.3270 -0.1085
 5773SOL    HW128955   3.191   1.604   4.039 -0.2694  0.9897 -0.4408
 5773SOL    HW228956   3.105   1.618   3.920  0.2833 -1.1715 -0.0291
 5774SOL     OW28957   2.285   2.593  17.010 -0.3535 -0.2312  0.0722
 5774SOL    HW128958   2.370   2.629  17.033 -0.4776  0.2974 -0.2740
 5774SOL    HW228959   2.251   2.666  16.956  1.5849  0.6391  0.0479
 5775SOL     OW28960   3.350   3.393   3.385 -0.2926 -0.4189  0.3223
 5775SOL    HW128961   3.345   3.360   3.296 -0.2605  0.5179 -0.0249
 5775SOL    HW228962   3.432   3.440   3.371 -0.8293  0.6833  0.9139
 5776SOL     OW28963   2.454   2.132   9.299  0.3883 -0.0331  0.2721
 5776SOL    HW128964   2.513   2.195   9.258 -0.9282  1.2713  0.3973
 5776SOL    HW228965   2.450   2.177   9.384  0.4170  1.9366 -0.7848
 5777SOL     OW28966   3.099   3.045   8.938 -0.1068 -0.4315 -1.0694
 5777SOL    HW128967   3.115   3.007   8.851 -1.7233  1.1965 -2.0574
 5777SOL    HW228968   3.168   3.111   8.936  1.1081 -1.6717 -0.5973
 5778SOL     OW28969   4.295   0.181   9.008 -0.1990  0.4446 -0.1943
 5778SOL    HW128970   4.307   0.092   9.041 -1.8509  1.2896  2.6952
 5778SOL    HW228971   4.316   0.225   9.090 -1.3066 -1.4793  1.1164
 5779SOL     OW28972   3.178   0.553   6.866  0.2373 -0.3807 -0.3349
 5779SOL    HW128973   3.126   0.591   6.937  0.8873 -1.0200  0.4768
 5779SOL    HW228974   3.106   0.533   6.807 -1.3561  2.1591  0.7420
 5780SOL     OW28975   1.957   3.996   6.911  0.1653  0.4876  0.1512
 5780SOL    HW128976   2.009   3.938   6.856 -1.6707  0.1265 -1.2037
 5780SOL    HW228977   2.002   4.076   6.885 -0.7757  1.5719  1.8763
 5781SOL     OW28978   2.135   4.419   9.187  0.0753 -0.2324  0.3682
 5781SOL    HW128979   2.102   4.363   9.257  0.7886 -2.1084 -0.8142
 5781SOL    HW228980   2.054   4.457   9.153  1.2458  1.0055 -1.1141
 5782SOL     OW28981   1.427   3.558  12.634  0.1583  0.3472  0.3670
 5782SOL    HW128982   1.339   3.576  12.600  0.0300 -1.4319 -0.2538
 5782SOL    HW228983   1.414   3.583  12.725  0.9231  0.3880  0.4681
 5783SOL     OW28984   3.516   2.407   6.775 -0.1318 -0.0027 -0.3839
 5783SOL    HW128985   3.577   2.336   6.795  1.3635  0.7819 -2.1923
 5783SOL    HW228986   3.579   2.456   6.722 -1.1502  0.3369 -1.2795
 5784SOL     OW28987   3.168   3.603  12.786  0.4065 -0.4000  0.2578
 5784SOL    HW128988   3.262   3.621  12.787  0.3643 -0.0732 -1.2245
 5784SOL    HW228989   3.153   3.611  12.880  3.1776  1.0460  0.5564
 5785SOL     OW28990   0.685   2.173   4.215 -0.1359  0.6824 -0.4133
 5785SOL    HW128991   0.620   2.162   4.145  0.7026  1.8890 -1.3676
 5785SOL    HW228992   0.649   2.107   4.274  0.2259 -1.2114 -2.2806
 5786SOL     OW28993   4.418   3.416   9.248  0.6564 -0.4676 -0.4191
 5786SOL    HW128994   4.335   3.377   9.274  0.9898  0.4397  1.9504
 5786SOL    HW228995   4.402   3.414   9.153 -1.0331 -0.5472 -0.1336
 5787SOL     OW28996   3.182   4.165   9.159 -0.5028 -0.3918 -0.0311
 5787SOL    HW128997   3.190   4.070   9.150  1.3775 -0.2144 -0.2918
 5787SOL    HW228998   3.088   4.182   9.152  0.0940  2.6980 -0.4869
 5788SOL     OW28999   0.970   1.134   2.008 -0.0552 -0.0344 -0.1242
 5788SOL    HW129000   0.960   1.200   2.076 -0.0871  0.4773 -0.6301
 5788SOL    HW229001   0.960   1.046   2.045  2.0480 -0.4319 -0.4429
 5789SOL     OW29002   3.936   1.461   7.624  0.3228  0.3087  0.0892
 5789SOL    HW129003   3.948   1.458   7.529 -1.6119  0.4254 -0.1532
 5789SOL    HW229004   3.841   1.451   7.622  0.2578  0.6893  1.1849
 5790SOL     OW29005   2.771   0.820   5.554 -0.0313 -0.5868 -0.2916
 5790SOL    HW129006   2.778   0.728   5.528 -1.1310 -0.2108 -1.9226
 5790SOL    HW229007   2.798   0.822   5.646  1.5542  0.0651 -0.7648
 5791SOL     OW29008   2.565   2.943   3.650  0.8116  0.8320 -0.0440
 5791SOL    HW129009   2.626   2.900   3.710 -0.3918 -1.5058 -0.5299
 5791SOL    HW229010   2.575   2.892   3.570  0.7464 -2.2022  1.8700
 5792SOL     OW29011   3.901   0.131   6.772 -0.0731  0.2605 -0.6373
 5792SOL    HW129012   3.891   0.147   6.866  0.0458 -2.5624 -0.1557
 5792SOL    HW229013   3.950   0.049   6.773  0.1302  0.3911  0.0124
 5793SOL     OW29014   1.382   2.304   3.365  0.1965 -0.0506 -1.0646
 5793SOL    HW129015   1.434   2.236   3.408  0.2016  0.0020 -0.9872
 5793SOL    HW229016   1.410   2.374   3.424  0.0172 -1.7134  0.9843
 5794SOL     OW29017   1.947   2.588   6.934 -0.2235  0.0976 -0.3799
 5794SOL    HW129018   1.857   2.556   6.939  0.2297 -1.0707  0.3084
 5794SOL    HW229019   1.989   2.518   6.984  1.7612  0.4128 -1.5781
 5795SOL     OW29020   3.974   4.682   8.794  0.1414 -0.2192 -0.4392
 5795SOL    HW129021   3.975   0.033   8.834  1.9628 -0.6840  0.5614
 5795SOL    HW229022   4.065   4.670   8.767 -0.1472 -0.8230 -1.1392
 5796SOL     OW29023   4.054   0.683   6.221 -0.0540 -0.3743 -0.0319
 5796SOL    HW129024   4.051   0.621   6.294  2.5504 -0.2097  0.2529
 5796SOL    HW229025   4.136   0.651   6.183  0.7731  2.5202 -0.6655
 5797SOL     OW29026   0.419   0.396   1.887  0.3571 -0.0951  0.0888
 5797SOL    HW129027   0.381   0.332   1.947  1.1461 -0.6296  0.0233
 5797SOL    HW229028   0.509   0.364   1.879  0.3268 -0.1368 -0.0958
 5798SOL     OW29029   4.577   3.914  10.525  0.2646  0.6892 -0.1836
 5798SOL    HW129030   4.588   3.860  10.603 -2.2299  0.4492  0.0247
 5798SOL    HW229031   4.493   3.959  10.535 -0.4881 -0.9044  0.6527
 5799SOL     OW29032   1.826   0.477   7.151 -0.2777  0.1251  0.0799
 5799SOL    HW129033   1.805   0.400   7.098  0.8314 -0.7353  0.8812
 5799SOL    HW229034   1.791   0.450   7.236 -0.1905 -0.7884 -0.1751
 5800SOL     OW29035   1.945   0.398   9.836  0.4131  0.2820 -0.3248
 5800SOL    HW129036   1.909   0.375   9.750  0.0562  1.9874 -0.6200
 5800SOL    HW229037   1.877   0.454   9.873  0.6000  0.0287  0.4035
 5801SOL     OW29038   1.879   3.635   9.504 -0.7604  0.4369 -0.8617
 5801SOL    HW129039   1.904   3.588   9.584  0.0648 -0.7238 -1.8101
 5801SOL    HW229040   1.931   3.585   9.442  1.2278  0.5249  0.7174
 5802SOL     OW29041   1.226   3.691   0.271 -0.3698  0.0926 -0.2040
 5802SOL    HW129042   1.146   3.647   0.244 -0.5698 -1.0334  2.2148
 5802SOL    HW229043   1.295   3.625   0.261 -0.0116  0.4764 -0.2740
 5803SOL     OW29044   0.085   1.075   8.645 -0.2717 -0.6264  0.9732
 5803SOL    HW129045   0.063   1.047   8.734 -1.8241 -0.2060  0.7126
 5803SOL    HW229046   4.729   1.086   8.623 -0.0478 -0.7751 -0.0406
 5804SOL     OW29047   0.220   4.310   3.824  0.1553 -0.0330 -0.2845
 5804SOL    HW129048   0.256   4.393   3.791  0.7879 -0.5820 -0.9544
 5804SOL    HW229049   0.125   4.316   3.833  0.3043  0.9471  0.7017
 5805SOL     OW29050   3.270   3.931   8.019 -0.5507  0.2107  0.1683
 5805SOL    HW129051   3.304   3.979   7.943  0.8562 -3.2150 -1.3849
 5805SOL    HW229052   3.328   3.855   8.030  1.4290  1.9002  1.3656
 5806SOL     OW29053   0.223   2.415   6.756  0.5912  0.5373 -0.6687
 5806SOL    HW129054   0.303   2.393   6.708 -0.3545 -1.8068 -1.2021
 5806SOL    HW229055   0.191   2.327   6.777 -3.1873  2.4334  1.3861
 5807SOL     OW29056   0.425   1.741  13.946 -0.0549 -0.1274 -0.1520
 5807SOL    HW129057   0.451   1.832  13.961 -2.4699  0.7709 -1.3497
 5807SOL    HW229058   0.354   1.729  14.009  0.9374 -1.8231  0.6621
 5808SOL     OW29059   3.308   1.987  15.983  0.2582 -0.4722 -0.5686
 5808SOL    HW129060   3.381   2.011  15.926 -0.6754  3.1214 -0.2544
 5808SOL    HW229061   3.284   1.904  15.942  0.9573 -1.3452  0.8116
 5809SOL     OW29062   2.113   0.150   7.375 -0.2692 -0.1532 -0.7478
 5809SOL    HW129063   2.043   0.085   7.385  0.7960 -1.0497  1.0785
 5809SOL    HW229064   2.152   0.126   7.292  0.8850  1.6512 -0.7311
 5810SOL     OW29065   2.033   1.487   9.249 -0.3905 -0.0200  0.0207
 5810SOL    HW129066   1.999   1.412   9.200  1.9568 -0.7262 -0.5464
 5810SOL    HW229067   1.965   1.491   9.315  0.8494  1.5865  1.2037
 5811SOL     OW29068   3.546   2.747   5.071  0.0675 -0.0849 -0.3768
 5811SOL    HW129069   3.457   2.744   5.106  0.3985 -1.4665  0.3604
 5811SOL    HW229070   3.568   2.840   5.072 -1.5922  0.2738  1.2178
 5812SOL     OW29071   0.321   3.400   1.583 -0.3961  0.0481 -0.1932
 5812SOL    HW129072   0.253   3.336   1.600  1.3603 -1.3083  1.8158
 5812SOL    HW229073   0.314   3.411   1.489  1.0594  1.7862 -0.1008
 5813SOL     OW29074   3.821   3.482   8.981 -0.8925 -0.0095  0.2883
 5813SOL    HW129075   3.879   3.406   8.977 -0.5543  0.2629  0.0307
 5813SOL    HW229076   3.871   3.546   9.031 -1.0692  0.2269  0.1614
 5814SOL     OW29077   4.244   2.607   8.112 -0.5061 -0.7741  0.1132
 5814SOL    HW129078   4.255   2.557   8.193  0.4062 -0.6077  0.0949
 5814SOL    HW229079   4.179   2.665   8.152  0.7187  0.0865  0.8829
 5815SOL     OW29080   3.690   2.326  16.761 -0.4460 -0.0303 -0.3515
 5815SOL    HW129081   3.710   2.250  16.707 -2.9487 -0.7184 -0.3221
 5815SOL    HW229082   3.762   2.330  16.824 -0.7291 -0.3987 -0.0049
 5816SOL     OW29083   4.051   2.575   6.695  0.0894 -0.3719 -0.1986
 5816SOL    HW129084   3.997   2.570   6.774 -1.0640  0.8451 -0.9070
 5816SOL    HW229085   4.118   2.507   6.704 -0.8330 -1.2583 -0.0571
 5817SOL     OW29086   1.660   0.958   5.279 -0.1696 -0.1303  0.2004
 5817SOL    HW129087   1.649   0.864   5.286 -1.3142 -0.0773 -0.9049
 5817SOL    HW229088   1.589   0.978   5.218  0.5831 -0.3592 -0.7427
 5818SOL     OW29089   1.347   4.506  10.013 -0.4155  0.0007  0.3679
 5818SOL    HW129090   1.408   4.567  10.054  2.0628 -1.3517 -1.3101
 5818SOL    HW229091   1.300   4.562   9.952  0.7691  1.6715  0.9964
 5819SOL     OW29092   0.642   3.186   8.832  0.7850 -0.0291  0.1357
 5819SOL    HW129093   0.555   3.196   8.794  1.6142 -0.4445 -1.8741
 5819SOL    HW229094   0.707   3.189   8.761  1.0536 -1.9455  0.3109
 5820SOL     OW29095   0.966   4.644  11.710  0.3773 -0.0434  0.4340
 5820SOL    HW129096   0.875   4.650  11.738  0.8202  3.3253  1.1182
 5820SOL    HW229097   0.947   4.587  11.635 -1.2596  1.9282 -0.6572
 5821SOL     OW29098   2.509   1.300  11.120 -0.2840  0.5869  0.9854
 5821SOL    HW129099   2.571   1.355  11.073  0.0269 -1.2940 -0.7952
 5821SOL    HW229100   2.445   1.366  11.147 -0.8941  0.0977  0.7388
 5822SOL     OW29101   2.229   4.072   0.835  0.1901  0.2379 -0.1794
 5822SOL    HW129102   2.297   4.100   0.774 -0.5724 -1.0204 -1.5909
 5822SOL    HW229103   2.154   4.073   0.776  0.6097  0.4566 -0.7065
 5823SOL     OW29104   3.886   1.058   7.286 -0.2619 -0.3085  0.3345
 5823SOL    HW129105   3.940   1.135   7.272 -1.3993  0.3940 -0.2570
 5823SOL    HW229106   3.919   1.002   7.356 -3.3948 -1.4389  0.9304
 5824SOL     OW29107   1.501   1.214   2.673  0.5906 -0.1204 -0.4302
 5824SOL    HW129108   1.450   1.295   2.672 -0.2163 -0.6189  0.6042
 5824SOL    HW229109   1.461   1.172   2.597 -1.4513  2.0640 -0.5667
 5825SOL     OW29110   0.672   3.251  14.032  0.2318  0.4439  0.0306
 5825SOL    HW129111   0.676   3.266  14.126  0.1416 -1.7808  0.3736
 5825SOL    HW229112   0.703   3.161  14.034  1.0838  0.7975  2.1718
 5826SOL     OW29113   0.692   3.146  15.484 -0.3315 -0.3097 -0.1265
 5826SOL    HW129114   0.759   3.085  15.452  1.2748  2.1076 -1.3560
 5826SOL    HW229115   0.702   3.159  15.579  2.0918 -0.7562 -0.3196
 5827SOL     OW29116   1.500   1.235  17.052 -0.0881  0.3814  0.0167
 5827SOL    HW129117   1.438   1.173  17.092 -0.3716 -0.0199 -1.0455
 5827SOL    HW229118   1.565   1.237  17.121 -1.3526  2.6652  1.1409
 5828SOL     OW29119   4.518   1.928   0.153  0.6388 -0.0892  0.2859
 5828SOL    HW129120   4.553   1.942   0.066  0.9821 -1.6117  0.1793
 5828SOL    HW229121   4.548   2.006   0.199  0.8809  1.8977 -3.3237
 5829SOL     OW29122   0.073   0.092   5.020  0.7486 -0.5914 -0.1610
 5829SOL    HW129123   0.071   0.174   5.070  2.2069 -1.4390  1.2930
 5829SOL    HW229124   0.163   0.101   4.990  0.3833 -3.1287 -2.0193
 5830SOL     OW29125   3.016   2.926  15.914  0.2531  0.0929  0.4688
 5830SOL    HW129126   3.050   2.898  15.830  2.0813 -0.8117  1.5131
 5830SOL    HW229127   2.928   2.887  15.910 -0.2863  1.4330 -0.3975
 5831SOL     OW29128   1.741   0.227   7.021 -0.4420 -0.1924  0.0514
 5831SOL    HW129129   1.723   0.142   7.061 -1.5528 -1.5594 -3.3593
 5831SOL    HW229130   1.803   0.199   6.953 -1.2517  1.9923 -1.5985
 5832SOL     OW29131   3.937   4.349   3.468 -0.1013  0.7765  0.1407
 5832SOL    HW129132   3.915   4.425   3.520 -1.0008  0.3134  0.4336
 5832SOL    HW229133   3.882   4.351   3.390  0.2279  3.1418 -0.0141
 5833SOL     OW29134   1.422   4.734   8.170  0.4454 -0.5467 -0.7969
 5833SOL    HW129135   1.373   4.654   8.151 -0.0308 -0.1703 -1.1611
 5833SOL    HW229136   1.393   0.065   8.107  1.3274  0.6479  0.0652
 5834SOL     OW29137   1.044   2.347  17.132  0.1841  0.1916 -0.3300
 5834SOL    HW129138   0.965   2.312  17.092 -1.4570  1.5343  1.7589
 5834SOL    HW229139   1.022   2.436  17.158  0.2177 -0.3111  1.4166
 5835SOL     OW29140   4.565   3.120  15.292  0.2465 -0.3940 -0.2876
 5835SOL    HW129141   4.565   3.215  15.304  1.6387 -0.4037 -0.1582
 5835SOL    HW229142   4.489   3.121  15.234 -4.2161  0.3295  5.5468
 5836SOL     OW29143   1.950   1.621  11.233  0.4523 -0.6986  0.0061
 5836SOL    HW129144   1.914   1.621  11.322  0.8228  2.1409  0.1802
 5836SOL    HW229145   2.041   1.593  11.243  0.5172 -0.7319 -0.7071
 5837SOL     OW29146   0.928   1.421   9.001  0.9482  0.1558  0.4575
 5837SOL    HW129147   0.998   1.460   8.948 -1.5576  3.0333 -0.7410
 5837SOL    HW229148   0.986   1.361   9.048  1.1538  0.0847  0.1145
 5838SOL     OW29149   4.061   3.133   6.288  0.2429 -0.4486  0.0828
 5838SOL    HW129150   3.970   3.104   6.295 -0.4678  1.3668 -1.7016
 5838SOL    HW229151   4.053   3.226   6.267 -0.5137  0.1793  3.1712
 5839SOL     OW29152   1.040   0.999   3.543  0.5640 -0.1622  0.0755
 5839SOL    HW129153   0.976   1.066   3.566  0.9649 -0.3015  1.5977
 5839SOL    HW229154   1.117   1.020   3.597 -0.2292  1.7512  0.4740
 5840SOL     OW29155   3.662   2.211   6.283  0.1993 -0.2757  0.1447
 5840SOL    HW129156   3.598   2.231   6.214 -0.2736  2.4552  1.3996
 5840SOL    HW229157   3.633   2.124   6.311  3.1722 -1.2785  0.1045
 5841SOL     OW29158   1.567   2.343  14.750  0.1048  0.2080 -0.2134
 5841SOL    HW129159   1.569   2.411  14.683  0.5934  1.4973  1.1191
 5841SOL    HW229160   1.655   2.307  14.739  1.1307  2.8697 -0.7946
 5842SOL     OW29161   1.214   0.909   9.471  0.0861  0.2481 -0.4186
 5842SOL    HW129162   1.221   0.902   9.566 -2.0782  0.7751 -0.2278
 5842SOL    HW229163   1.126   0.940   9.449  0.7052  0.3397 -2.8246
 5843SOL     OW29164   1.175   1.511   3.641 -0.0139 -0.2585 -0.6277
 5843SOL    HW129165   1.230   1.569   3.694 -1.6648 -1.2952  2.2596
 5843SOL    HW229166   1.208   1.510   3.551  0.3418  1.6265 -0.5262
 5844SOL     OW29167   1.256   1.514   4.536 -0.3624 -0.0981  0.7733
 5844SOL    HW129168   1.260   1.610   4.534 -0.8437 -0.1471 -2.6156
 5844SOL    HW229169   1.283   1.503   4.445  0.6108 -1.9250  1.2775
 5845SOL     OW29170   0.911   1.491  16.577 -0.2803 -0.1142 -0.4412
 5845SOL    HW129171   0.872   1.549  16.511  2.3518  0.0131 -1.8747
 5845SOL    HW229172   0.967   1.430  16.529 -0.1015 -0.8454  0.6915
 5846SOL     OW29173   4.199   3.165  16.861  0.1768 -0.4254 -0.1126
 5846SOL    HW129174   4.177   3.071  16.860  1.7194 -0.7689 -0.8104
 5846SOL    HW229175   4.288   3.157  16.827  0.4477  1.4381  0.1561
 5847SOL     OW29176   1.525   0.049   7.334  0.1849  0.7617  0.6549
 5847SOL    HW129177   1.465   0.011   7.270  0.0234  2.7043 -0.3507
 5847SOL    HW229178   1.571   4.704   7.353  0.0520 -0.1051 -2.7301
 5848SOL     OW29179   4.622   3.218   9.724  0.1652 -0.2126 -0.2105
 5848SOL    HW129180   4.672   3.159   9.780  0.5505  0.0054 -0.3267
 5848SOL    HW229181   4.553   3.236   9.788 -0.1654  1.1305 -0.9448
 5849SOL     OW29182   2.490   0.898   8.794 -0.3100 -0.2110 -0.0680
 5849SOL    HW129183   2.442   0.828   8.838  1.3711 -2.7269 -2.2435
 5849SOL    HW229184   2.456   0.979   8.832 -0.1011  0.3032 -1.0037
 5850SOL     OW29185   4.703   3.858   5.708 -0.0731 -0.1470  0.0793
 5850SOL    HW129186   4.666   3.944   5.687 -2.2477 -1.0887  0.0815
 5850SOL    HW229187   4.685   3.816   5.624  1.0161 -0.3569 -0.0524
 5851SOL     OW29188   2.680   3.601  16.542 -0.4536 -0.7422  0.4007
 5851SOL    HW129189   2.702   3.591  16.635  1.9543  0.9012  0.0120
 5851SOL    HW229190   2.590   3.575  16.559 -1.1711  0.3261 -1.7143
 5852SOL     OW29191   2.644   1.198   7.748  0.3609  0.1910 -0.0421
 5852SOL    HW129192   2.565   1.177   7.698  1.0459  0.6327 -1.2978
 5852SOL    HW229193   2.603   1.255   7.813  1.3098 -0.9970  1.6022
 5853SOL     OW29194   0.307   2.085   7.662 -0.4061  0.4700  0.7646
 5853SOL    HW129195   0.241   2.134   7.613  1.4512 -1.5785 -3.7571
 5853SOL    HW229196   0.343   2.140   7.732  0.3808  3.0848 -1.6900
 5854SOL     OW29197   3.859   2.428   9.075 -0.5272  0.3091  0.2913
 5854SOL    HW129198   3.908   2.355   9.112 -0.3045  0.3134  0.0089
 5854SOL    HW229199   3.924   2.496   9.093 -0.0031 -0.4493  1.2521
 5855SOL     OW29200   4.371   3.106  16.049 -0.5412  0.6199  0.1069
 5855SOL    HW129201   4.372   3.108  15.954 -2.0491  1.1398  0.1030
 5855SOL    HW229202   4.332   3.020  16.066  0.8766 -0.0633 -0.0953
 5856SOL     OW29203   1.667   4.388   5.106  0.3961 -0.7224 -0.3318
 5856SOL    HW129204   1.675   4.293   5.096 -0.9768 -0.7285 -1.5024
 5856SOL    HW229205   1.639   4.393   5.197 -1.3966  1.0280 -0.9674
 5857SOL     OW29206   0.555   2.373   7.579  0.1697 -0.5555 -0.4342
 5857SOL    HW129207   0.500   2.415   7.513  1.3212 -0.7659 -1.5224
 5857SOL    HW229208   0.493   2.385   7.651 -1.0005  1.5207 -1.8074
 5858SOL     OW29209   2.993   0.215  12.805 -0.4941  0.1987  0.5262
 5858SOL    HW129210   3.082   0.215  12.839  0.5392  0.4400 -2.1367
 5858SOL    HW229211   2.996   0.189  12.713 -0.8530  0.8311  0.3292
 5859SOL     OW29212   0.901   4.701  17.017 -0.1500  0.1923  0.4061
 5859SOL    HW129213   0.958   4.658  16.952 -1.5372 -1.3711  0.2064
 5859SOL    HW229214   0.908   0.054  16.983 -0.1153 -0.4787 -1.3752
 5860SOL     OW29215   3.980   2.629   3.519  0.6244  0.5293  0.0920
 5860SOL    HW129216   4.027   2.709   3.542  0.9439  0.3273  0.1548
 5860SOL    HW229217   3.940   2.660   3.438 -1.1173  1.4231  1.3039
 5861SOL     OW29218   1.782   2.124   8.125  0.0035 -0.1153 -0.4967
 5861SOL    HW129219   1.692   2.155   8.114 -0.1790 -0.8431 -1.0462
 5861SOL    HW229220   1.819   2.140   8.038  0.0678 -0.0606 -0.4600
 5862SOL     OW29221   1.169   4.472   8.537  0.1300 -0.3701  0.0863
 5862SOL    HW129222   1.128   4.549   8.499  1.9633 -0.2075 -1.6115
 5862SOL    HW229223   1.114   4.404   8.498 -0.4353 -0.1599  0.5316
 5863SOL     OW29224   3.330   0.816   6.094  0.3793 -0.5889  0.3260
 5863SOL    HW129225   3.268   0.883   6.124  1.0721  0.1759  0.0726
 5863SOL    HW229226   3.348   0.775   6.179 -0.1285  1.7072  1.5384
 5864SOL     OW29227   3.571   2.752   5.780  0.0178 -0.1586 -0.2046
 5864SOL    HW129228   3.658   2.711   5.778 -0.4327 -1.1036 -0.5148
 5864SOL    HW229229   3.581   2.831   5.728 -1.3814 -0.4261 -0.8833
 5865SOL     OW29230   1.447   0.119   8.875  0.0045  0.1331 -0.1611
 5865SOL    HW129231   1.353   0.106   8.889  0.6640 -2.9985  1.4262
 5865SOL    HW229232   1.450   0.134   8.781 -1.4269  0.1809 -0.2048
 5866SOL     OW29233   4.320   3.559   8.615  0.0819  0.5658 -0.3153
 5866SOL    HW129234   4.251   3.538   8.552 -0.9316 -0.4418  1.1392
 5866SOL    HW229235   4.383   3.610   8.564  0.0413 -0.1064 -1.0481
 5867SOL     OW29236   1.735   3.642   0.864  0.2189  0.1197 -0.2704
 5867SOL    HW129237   1.671   3.571   0.852 -0.6275  0.4284  2.5331
 5867SOL    HW229238   1.729   3.649   0.959 -1.2638 -0.1598 -0.3494
 5868SOL     OW29239   4.221   2.859   0.691 -0.4419  0.0275 -0.0016
 5868SOL    HW129240   4.298   2.854   0.748 -0.3625 -2.0345 -0.2711
 5868SOL    HW229241   4.247   2.821   0.606 -0.6626 -0.4358  0.1403
 5869SOL     OW29242   3.540   2.742   6.636  0.1975  0.1280  0.0430
 5869SOL    HW129243   3.575   2.799   6.567 -1.4484  1.3697  0.2370
 5869SOL    HW229244   3.607   2.677   6.657 -0.6649 -0.1032  1.9924
 5870SOL     OW29245   3.750   1.257   4.787  0.3656  0.0277  0.2465
 5870SOL    HW129246   3.729   1.251   4.880 -0.5310 -0.0559  0.0442
 5870SOL    HW229247   3.670   1.213   4.758  0.6535 -0.8907  0.8619
 5871SOL     OW29248   2.502   2.257   9.543 -0.1914  0.1526  0.7372
 5871SOL    HW129249   2.557   2.230   9.617  0.8608  2.4264  0.8020
 5871SOL    HW229250   2.537   2.344   9.523 -0.1761 -0.0067  0.0814
 5872SOL     OW29251   1.840   0.931   6.988 -0.2719  0.3001  0.5579
 5872SOL    HW129252   1.931   0.959   6.973 -0.0320 -0.6052  0.3461
 5872SOL    HW229253   1.826   0.909   6.896 -1.0910  0.7752  0.5760
 5873SOL     OW29254   2.701   0.863   3.117  0.1410  0.3844 -0.7927
 5873SOL    HW129255   2.772   0.885   3.057  2.4443 -1.2262  1.3440
 5873SOL    HW229256   2.693   0.768   3.115  1.0292  0.2693  1.7841
 5874SOL     OW29257   4.373   0.765  10.731  0.7665 -0.6694  0.4027
 5874SOL    HW129258   4.324   0.785  10.651 -0.2037  0.8548  1.3916
 5874SOL    HW229259   4.304   0.737  10.791  1.0598 -3.0726 -0.3483
 5875SOL     OW29260   1.729   0.429  11.464  0.5453 -0.1628  0.3467
 5875SOL    HW129261   1.644   0.464  11.490  0.4433 -0.0666 -0.1113
 5875SOL    HW229262   1.708   0.392  11.378 -0.2373  1.5731 -0.2317
 5876SOL     OW29263   0.593   2.922   6.334 -0.0468  0.4459  0.2524
 5876SOL    HW129264   0.598   3.011   6.369  2.2520  0.1897  0.5944
 5876SOL    HW229265   0.587   2.872   6.416  1.2232 -0.4830 -0.2157
 5877SOL     OW29266   2.208   4.525   5.652  0.1339  0.0242 -0.1504
 5877SOL    HW129267   2.246   4.498   5.736 -0.0662  2.2613  0.6422
 5877SOL    HW229268   2.167   4.443   5.626 -0.4178 -0.0522  0.9419
 5878SOL     OW29269   2.853   2.552   8.269  0.4213 -0.0390 -0.8571
 5878SOL    HW129270   2.811   2.636   8.253 -0.8211 -0.0707  2.3336
 5878SOL    HW229271   2.782   2.494   8.240  2.4617 -2.6186 -0.7042
 5879SOL     OW29272   4.057   0.542   7.617 -0.1955  0.4290  0.6111
 5879SOL    HW129273   4.134   0.580   7.660  1.3142 -2.3763  0.3839
 5879SOL    HW229274   4.074   0.597   7.540 -2.6467 -0.3718 -0.4744
 5880SOL     OW29275   0.842   1.553  14.907  0.0962  0.2985 -0.4825
 5880SOL    HW129276   0.802   1.469  14.886 -1.4536  1.4881 -2.2858
 5880SOL    HW229277   0.812   1.551  14.999  1.5066 -1.1731 -0.0565
 5881SOL     OW29278   1.651   0.951   4.887  0.1959 -0.2442 -0.6433
 5881SOL    HW129279   1.714   0.979   4.820  0.8134 -0.6342 -0.2228
 5881SOL    HW229280   1.611   1.034   4.913  0.1421 -0.3281 -0.4607
 5882SOL     OW29281   1.279   4.014   6.941 -0.2048  0.9349 -0.3186
 5882SOL    HW129282   1.321   4.098   6.922  0.3251  0.8172  0.3203
 5882SOL    HW229283   1.353   3.954   6.934 -1.6199 -0.9630  0.7837
 5883SOL     OW29284   1.839   3.949   1.304 -0.1205 -0.7663 -0.0689
 5883SOL    HW129285   1.837   4.034   1.347  0.9205 -0.5856 -0.3840
 5883SOL    HW229286   1.913   3.968   1.247 -0.5320 -0.2830 -0.4354
 5884SOL     OW29287   3.056   3.957   3.509  0.0705 -0.2059  0.0805
 5884SOL    HW129288   3.145   3.924   3.522  0.2090  0.9452  2.0805
 5884SOL    HW229289   3.053   3.929   3.418 -1.8301  0.2644  0.0073
 5885SOL     OW29290   2.103   4.175   6.378 -0.3179 -0.0027  0.1217
 5885SOL    HW129291   2.124   4.268   6.372 -0.7822  0.0434 -0.7165
 5885SOL    HW229292   2.187   4.132   6.399  0.1315  1.0250  0.4125
 5886SOL     OW29293   2.162   4.170  14.391  0.6895  0.2056  0.3989
 5886SOL    HW129294   2.118   4.115  14.455  0.0310  0.4532  0.1509
 5886SOL    HW229295   2.149   4.115  14.314  2.9290  1.2397 -0.7514
 5887SOL     OW29296   0.263   2.266   8.461  0.3926  0.6005 -0.2085
 5887SOL    HW129297   0.247   2.232   8.549 -2.0906  0.3046 -0.7789
 5887SOL    HW229298   0.176   2.277   8.423  0.0097  1.6010  0.9457
 5888SOL     OW29299   3.917   0.902   3.504  0.0740  0.4325 -0.0471
 5888SOL    HW129300   3.943   0.816   3.536 -0.2687  0.1672 -0.4878
 5888SOL    HW229301   3.977   0.924   3.433 -0.2513  2.6837  0.3805
 5889SOL     OW29302   1.736   1.274  17.183  0.5962  0.0837 -0.2802
 5889SOL    HW129303   1.773   1.291  17.270 -1.6193  0.4546  0.6050
 5889SOL    HW229304   1.816   1.287  17.132 -0.2230 -0.8938 -1.8017
 5890SOL     OW29305   2.174   0.236  12.261  0.4187  0.2316  0.8333
 5890SOL    HW129306   2.263   0.246  12.296  1.3441  4.0827 -2.4998
 5890SOL    HW229307   2.192   0.180  12.185  1.4597  1.3593  0.2359
 5891SOL     OW29308   2.745   1.667  16.893  0.0172 -0.4047  0.4494
 5891SOL    HW129309   2.684   1.677  16.820 -0.2457 -0.7938  0.6197
 5891SOL    HW229310   2.824   1.639  16.846 -0.4495  1.6874 -1.5462
 5892SOL     OW29311   2.632   1.363  10.199 -0.2924 -0.6215  0.5944
 5892SOL    HW129312   2.648   1.339  10.290 -3.8743  1.6328  1.8356
 5892SOL    HW229313   2.689   1.302  10.153  1.3983  1.7957 -0.4901
 5893SOL     OW29314   1.690   4.400  15.355  0.3661 -0.6545 -0.0200
 5893SOL    HW129315   1.782   4.387  15.379  0.4513 -0.8833 -0.4608
 5893SOL    HW229316   1.648   4.342  15.419  1.3145  0.5627  1.7135
 5894SOL     OW29317   0.883   1.705  16.132  0.4285 -0.6250  0.1945
 5894SOL    HW129318   0.903   1.625  16.082 -0.1445 -0.4055 -0.3895
 5894SOL    HW229319   0.972   1.739  16.140 -1.0876  2.1175  4.9200
 5895SOL     OW29320   1.410   3.089  10.238  0.0119  0.1200 -0.2710
 5895SOL    HW129321   1.334   3.030  10.236 -3.0159  4.0011  0.8988
 5895SOL    HW229322   1.396   3.127  10.151  1.4696  0.4660 -0.3470
 5896SOL     OW29323   3.613   0.001  10.137  0.2174  0.1708 -0.1332
 5896SOL    HW129324   3.599   4.723  10.043  1.1513  2.3863 -0.5953
 5896SOL    HW229325   3.577   4.656  10.174 -2.2647  1.3546  0.0538
 5897SOL     OW29326   0.546   2.982  11.403  0.3486 -0.1129 -0.1143
 5897SOL    HW129327   0.492   2.916  11.445  1.9133  0.9943  3.6347
 5897SOL    HW229328   0.490   3.017  11.334  0.3699 -2.7237 -1.4583
 5898SOL     OW29329   1.429   1.636   7.325 -0.7157  0.2484  0.5010
 5898SOL    HW129330   1.411   1.548   7.356  0.5523 -0.5435 -0.9872
 5898SOL    HW229331   1.381   1.643   7.243 -0.8393 -1.1775  0.4640
 5899SOL     OW29332   1.281   4.133   3.419  0.5596 -0.5855 -0.7380
 5899SOL    HW129333   1.226   4.115   3.495 -1.0645  3.4986 -0.9333
 5899SOL    HW229334   1.238   4.214   3.392 -2.7738 -2.2632 -0.4243
 5900SOL     OW29335   3.982   1.756   4.349 -0.3576  0.2833 -0.0260
 5900SOL    HW129336   3.927   1.685   4.314 -1.4888 -0.2350  2.8402
 5900SOL    HW229337   3.994   1.804   4.267 -1.6334  0.0305 -0.3660
 5901SOL     OW29338   1.628   0.278  11.231 -0.6643 -0.6974  0.6353
 5901SOL    HW129339   1.545   0.285  11.184  0.8719 -0.2850 -1.9691
 5901SOL    HW229340   1.694   0.294  11.164 -0.1851  1.2483  1.5580
 5902SOL     OW29341   3.221   3.387  15.529 -0.0613  0.7017 -0.0523
 5902SOL    HW129342   3.219   3.292  15.524 -0.5127  0.7183 -0.1380
 5902SOL    HW229343   3.194   3.400  15.438  0.4526  1.0403 -0.1597
 5903SOL     OW29344   0.803   3.621   3.496  0.4296 -0.6831  0.2916
 5903SOL    HW129345   0.863   3.547   3.504  1.0099 -0.2825 -0.4750
 5903SOL    HW229346   0.832   3.669   3.419 -0.4074 -2.0065 -0.8410
 5904SOL     OW29347   1.151   3.487  10.756 -0.3106 -0.2671  0.1196
 5904SOL    HW129348   1.188   3.570  10.786 -2.1553 -0.2784  2.4527
 5904SOL    HW229349   1.133   3.437  10.836  0.4698 -0.4031  0.2093
 5905SOL     OW29350   0.695   2.839  13.219 -0.5062 -0.7597  0.0086
 5905SOL    HW129351   0.742   2.902  13.273 -1.4727  0.8027 -0.9763
 5905SOL    HW229352   0.728   2.760  13.262  1.1319 -0.4363 -0.6606
 5906SOL     OW29353   0.772   4.029   8.765  0.1829 -0.5058  0.7697
 5906SOL    HW129354   0.791   3.936   8.761 -0.8519 -0.7204  0.8914
 5906SOL    HW229355   0.832   4.054   8.836  0.7124  0.3316  0.0245
 5907SOL     OW29356   0.169   2.634   2.532  0.1040  0.1829 -0.2483
 5907SOL    HW129357   0.199   2.685   2.607 -1.3882  2.4375 -1.1946
 5907SOL    HW229358   0.234   2.655   2.465  1.1023  0.9727  0.9854
 5908SOL     OW29359   2.708   3.063  16.010 -0.5279 -0.1366  0.2841
 5908SOL    HW129360   2.617   3.080  15.984 -0.7398 -1.4830  0.1533
 5908SOL    HW229361   2.728   2.981  15.966  0.9167  0.6120 -0.4754
 5909SOL     OW29362   1.435   1.839   1.496 -0.2062 -0.1238  0.7073
 5909SOL    HW129363   1.502   1.824   1.429  0.4002  3.4052  0.5469
 5909SOL    HW229364   1.427   1.755   1.542 -0.4924 -0.1215  0.6557
 5910SOL     OW29365   0.613   2.841  15.493  0.4132 -0.5746 -0.4411
 5910SOL    HW129366   0.670   2.836  15.570 -1.9249 -0.0479  1.3439
 5910SOL    HW229367   0.530   2.850  15.540  1.3439  1.2578  0.8446
 5911SOL     OW29368   0.627   1.976   3.211 -0.5038  0.2764 -0.0979
 5911SOL    HW129369   0.680   2.004   3.136  0.2371  0.1104  0.3563
 5911SOL    HW229370   0.686   1.987   3.286 -1.2978 -1.5519  0.7940
 5912SOL     OW29371   3.154   1.306   8.616  0.0547  0.2076  0.2081
 5912SOL    HW129372   3.221   1.261   8.666  2.4148  1.1139 -2.1299
 5912SOL    HW229373   3.166   1.264   8.531  0.1550  1.6437 -0.4886
 5913SOL     OW29374   2.795   3.805   2.650 -0.3314  0.3697 -0.0149
 5913SOL    HW129375   2.874   3.858   2.649  1.2003 -1.9353 -0.3065
 5913SOL    HW229376   2.736   3.840   2.716  2.0908  1.3441  1.6197
 5914SOL     OW29377   4.363   3.981   4.542 -0.3360 -0.2639  0.9361
 5914SOL    HW129378   4.432   3.925   4.576  0.7229  1.2382  1.2746
 5914SOL    HW229379   4.397   4.067   4.567 -0.0121 -0.4774  1.2227
 5915SOL     OW29380   3.179   1.645   5.228  0.3051  0.1348 -0.6103
 5915SOL    HW129381   3.103   1.694   5.199 -0.6560 -1.0100 -0.0009
 5915SOL    HW229382   3.210   1.604   5.147  1.0846 -3.7934  1.6257
 5916SOL     OW29383   3.910   1.203  16.814  0.3189 -0.0411 -0.4958
 5916SOL    HW129384   3.988   1.242  16.774 -0.1748  1.5407  0.0934
 5916SOL    HW229385   3.878   1.145  16.745 -2.3133  1.6321 -0.7042
 5917SOL     OW29386   0.094   4.584   1.419 -0.1316 -0.2648  0.0957
 5917SOL    HW129387   4.735   4.572   1.423  0.0310 -1.7186 -0.5285
 5917SOL    HW229388   0.115   4.532   1.496  0.6983  0.8372  0.6207
 5918SOL     OW29389   4.290   2.225  10.227  0.1464  0.1928 -0.2403
 5918SOL    HW129390   4.236   2.229  10.306  0.8294  1.9089  0.1282
 5918SOL    HW229391   4.311   2.131  10.221 -0.7163 -0.0274  0.1775
 5919SOL     OW29392   2.583   3.542   1.974 -0.2480  0.0592  0.2338
 5919SOL    HW129393   2.593   3.631   2.008 -0.4119 -0.7853  2.4940
 5919SOL    HW229394   2.502   3.517   2.019 -2.3218  2.5131 -2.1748
 5920SOL     OW29395   1.824   1.460   2.505 -0.3444 -0.3864  0.0220
 5920SOL    HW129396   1.764   1.527   2.471  0.2471  0.7480  1.2273
 5920SOL    HW229397   1.880   1.448   2.428  0.8862  0.9021  0.7190
 5921SOL     OW29398   1.064   1.237   4.912  0.1304 -1.0980 -0.2083
 5921SOL    HW129399   1.130   1.287   4.863 -0.7912 -0.1738 -0.5274
 5921SOL    HW229400   1.045   1.295   4.985  1.9958  1.1770 -1.5236
 5922SOL     OW29401   4.398   2.068   6.564  0.7419 -0.2929 -0.3172
 5922SOL    HW129402   4.340   2.085   6.490  0.7149 -1.7373 -0.6203
 5922SOL    HW229403   4.368   1.981   6.588  1.9795 -0.3159  1.2275
 5923SOL     OW29404   0.863   1.884   7.544 -0.4810  0.0722  0.4387
 5923SOL    HW129405   0.874   1.810   7.604 -2.2734 -0.2351  0.3906
 5923SOL    HW229406   0.804   1.933   7.600  2.3196  1.7306  1.9673
 5924SOL     OW29407   1.618   2.350   7.296  0.3726  0.3446 -0.3179
 5924SOL    HW129408   1.617   2.298   7.376 -0.4866 -0.1782 -0.6695
 5924SOL    HW229409   1.547   2.413   7.309 -0.5648 -1.0092  1.0655
 5925SOL     OW29410   1.126   0.847   0.817 -0.3653  0.2539  0.4851
 5925SOL    HW129411   1.043   0.840   0.769 -0.7713 -0.4869  1.2856
 5925SOL    HW229412   1.172   0.765   0.798 -1.8279 -0.3495 -0.4394
 5926SOL     OW29413   1.860   2.229   6.491  0.8868  0.3127  0.1888
 5926SOL    HW129414   1.896   2.192   6.572 -1.4109  1.7986  1.8945
 5926SOL    HW229415   1.909   2.175   6.430  1.3775 -0.0681  0.9192
 5927SOL     OW29416   0.937   3.728   3.817  0.1279 -0.0023  0.1029
 5927SOL    HW129417   0.971   3.639   3.807  2.7855  0.9508  0.5441
 5927SOL    HW229418   0.863   3.704   3.872 -0.3179  0.0969 -0.4533
 5928SOL     OW29419   2.541   4.185   5.923 -0.5129 -0.2842 -0.0637
 5928SOL    HW129420   2.604   4.139   5.866  1.7174  0.5874  1.7221
 5928SOL    HW229421   2.598   4.224   5.989 -1.3006  2.5578 -1.0467
 5929SOL     OW29422   4.489   4.683   8.764  0.0487 -0.2022 -0.2232
 5929SOL    HW129423   4.547   0.021   8.782 -1.4435  0.8560  0.2831
 5929SOL    HW229424   4.557   4.620   8.741  0.5654  0.2181  0.1485
 5930SOL     OW29425   4.470   4.220   6.974  0.3569 -0.0321  0.0683
 5930SOL    HW129426   4.561   4.220   7.002  0.7133  1.1415 -1.0663
 5930SOL    HW229427   4.494   4.231   6.882  0.5142  3.4918  0.5472
 5931SOL     OW29428   0.574   0.756   8.039 -0.0470  0.0669  0.0962
 5931SOL    HW129429   0.511   0.745   8.110  1.1753  0.2594  1.2182
 5931SOL    HW229430   0.641   0.818   8.068  1.4916 -0.6294 -1.9293
 5932SOL     OW29431   1.710   1.077   3.270  0.3485 -0.4276 -0.1192
 5932SOL    HW129432   1.659   1.138   3.216  0.3495 -1.2092 -1.0040
 5932SOL    HW229433   1.647   1.020   3.314  0.9950  0.5408  2.0172
 5933SOL     OW29434   0.127   1.351  16.387 -1.1859  0.0681 -0.5724
 5933SOL    HW129435   0.206   1.300  16.406 -0.5507  2.1540  2.3913
 5933SOL    HW229436   0.161   1.432  16.350  0.5933 -0.1294  0.6301
 5934SOL     OW29437   4.111   0.263   7.175  0.2745  0.3806 -0.0883
 5934SOL    HW129438   4.163   0.183   7.169 -0.1885 -0.0588  2.0650
 5934SOL    HW229439   4.181   0.329   7.178 -0.0874  0.7937 -0.7751
 5935SOL     OW29440   3.240   4.322   9.381 -0.2333  0.1119  0.4677
 5935SOL    HW129441   3.158   4.368   9.366  0.2617  0.1609 -2.0312
 5935SOL    HW229442   3.229   4.253   9.316 -1.1987  1.1934 -0.5191
 5936SOL     OW29443   0.194   4.676   7.054 -0.1795 -0.2479 -0.0239
 5936SOL    HW129444   0.264   4.665   7.117 -0.7751 -1.7016  0.3957
 5936SOL    HW229445   0.253   4.683   6.979  0.7260 -0.0299  0.7224
 5937SOL     OW29446   4.722   1.922   9.811  0.2857 -0.3411 -0.0624
 5937SOL    HW129447   4.677   1.977   9.875  1.4177 -2.3976  2.5010
 5937SOL    HW229448   0.074   1.959   9.799 -0.9166  2.5104 -0.0807
 5938SOL     OW29449   2.064   4.099  15.219 -0.3895 -0.1637  0.0583
 5938SOL    HW129450   2.098   4.016  15.252 -2.2302 -1.5729 -1.5723
 5938SOL    HW229451   2.147   4.135  15.188  0.1062 -0.6572  0.8081
 5939SOL     OW29452   0.360   1.500   5.257 -0.3274  0.3902  0.0863
 5939SOL    HW129453   0.403   1.475   5.175 -0.8267 -1.2485  0.3222
 5939SOL    HW229454   0.439   1.501   5.312 -2.0358  2.0846  2.4658
 5940SOL     OW29455   1.891   4.145   2.602  0.5151  0.6243 -0.1086
 5940SOL    HW129456   1.868   4.232   2.570  0.0072  0.4594 -0.1892
 5940SOL    HW229457   1.845   4.145   2.686  1.1048 -0.9134  0.2129
 5941SOL     OW29458   3.793   0.172   4.136  0.0575  0.2264 -0.2521
 5941SOL    HW129459   3.827   0.084   4.153 -1.4663  0.4064  3.8406
 5941SOL    HW229460   3.857   0.225   4.182  0.2711 -0.4940  0.2876
 5942SOL     OW29461   0.462   4.457   7.566 -0.1804 -0.3311  0.1166
 5942SOL    HW129462   0.544   4.412   7.585  0.5457  0.3421 -1.3930
 5942SOL    HW229463   0.495   4.515   7.498 -0.7766 -0.0954  0.0267
 5943SOL     OW29464   3.900   0.527  16.854 -0.8503  0.2266 -0.2489
 5943SOL    HW129465   3.865   0.467  16.919  0.4114 -0.1057  0.1273
 5943SOL    HW229466   3.830   0.525  16.788 -2.1379 -0.8993  1.1461
 5944SOL     OW29467   3.108   0.806   9.914  0.1327 -0.0919 -0.2742
 5944SOL    HW129468   3.187   0.763   9.946 -0.3356 -0.6638  0.1138
 5944SOL    HW229469   3.058   0.728   9.891  0.2216  0.5248 -2.6010
 5945SOL     OW29470   1.577   1.947  16.338  0.0160  0.5273 -0.5260
 5945SOL    HW129471   1.557   1.939  16.432 -1.6325  1.8910 -0.7721
 5945SOL    HW229472   1.611   1.858  16.323 -0.0109  0.4132  0.0551
 5946SOL     OW29473   0.224   3.287  14.749  1.0705  0.1741 -0.4536
 5946SOL    HW129474   0.203   3.299  14.656  1.6053  1.3558 -0.4170
 5946SOL    HW229475   0.146   3.255  14.794 -0.1431  1.2030 -1.8186
 5947SOL     OW29476   2.885   2.947  11.461  0.9578  0.3392  0.0176
 5947SOL    HW129477   2.904   2.933  11.554  0.0164 -3.1199 -0.3140
 5947SOL    HW229478   2.844   2.863  11.437 -0.2875  0.2673  2.4596
 5948SOL     OW29479   3.156   1.315   6.978  0.8083  0.1325  0.1401
 5948SOL    HW129480   3.133   1.257   7.050 -0.1920  3.1050  2.1811
 5948SOL    HW229481   3.104   1.265   6.915 -1.4745  1.9995  0.5377
 5949SOL     OW29482   1.682   2.054   9.168 -0.2255 -0.2954 -0.0917
 5949SOL    HW129483   1.776   2.049   9.186  0.3118 -1.4701 -3.3009
 5949SOL    HW229484   1.656   2.034   9.258  1.8297 -1.1824  0.3185
 5950SOL     OW29485   0.029   0.546   5.978  0.0681 -0.2484  0.2385
 5950SOL    HW129486   4.727   0.586   6.056 -1.9617 -2.1925  0.2573
 5950SOL    HW229487   0.034   0.611   5.907 -1.7198 -1.8502 -1.3516
 5951SOL     OW29488   3.992   1.336  12.595  0.1450 -0.1555 -0.3515
 5951SOL    HW129489   4.041   1.261  12.630  0.6678 -0.4949 -1.7900
 5951SOL    HW229490   4.062   1.396  12.568  1.4232 -1.5906 -0.2202
 5952SOL     OW29491   1.928   1.088   9.499  0.4750 -0.0078 -0.3652
 5952SOL    HW129492   1.836   1.113   9.490  0.3591  1.1245  4.1255
 5952SOL    HW229493   1.936   1.101   9.593  0.0619 -2.1789 -0.0322
 5953SOL     OW29494   3.500   0.578  12.970 -0.1392 -0.1831  0.6479
 5953SOL    HW129495   3.547   0.560  12.889  1.8791  1.3138  1.4934
 5953SOL    HW229496   3.449   0.498  12.981 -0.0944 -0.6273 -2.3666
 5954SOL     OW29497   4.376   2.148   5.481 -0.4021  0.6528  0.2708
 5954SOL    HW129498   4.404   2.107   5.399 -2.2580 -1.5425  0.7354
 5954SOL    HW229499   4.280   2.146   5.474 -0.4457  0.0271  1.0177
 5955SOL     OW29500   1.417   0.481  17.473 -0.2158 -1.2582 -0.6818
 5955SOL    HW129501   1.440   0.572  17.491  0.3879 -1.0171 -2.6323
 5955SOL    HW229502   1.385   0.448  17.557  1.5905  2.6515  1.5228
 5956SOL     OW29503   1.546   3.784   3.254  0.2062  0.3340  0.3006
 5956SOL    HW129504   1.553   3.755   3.346 -1.2297  0.9549  0.6089
 5956SOL    HW229505   1.527   3.878   3.256  0.7606  0.4478  0.1801
 5957SOL     OW29506   0.120   2.901   3.387 -0.0854 -0.2098 -0.1391
 5957SOL    HW129507   0.138   2.816   3.426 -2.2774 -0.3993  0.4841
 5957SOL    HW229508   0.044   2.878   3.334 -2.1042  1.2300  2.1485
 5958SOL     OW29509   0.336   1.955  14.170 -0.1305  0.0351 -0.5163
 5958SOL    HW129510   0.329   1.959  14.265 -3.1371  1.8265 -0.8339
 5958SOL    HW229511   0.426   1.987  14.162  0.5067 -1.6652 -0.0413
 5959SOL     OW29512   3.094   3.838  16.014 -0.1309 -0.4419 -0.0392
 5959SOL    HW129513   3.044   3.883  15.946  2.0618  0.8211 -0.8198
 5959SOL    HW229514   3.049   3.881  16.086  0.2553 -2.3968  1.3934
 5960SOL     OW29515   3.364   0.262   5.563  0.1463  0.4928  0.5200
 5960SOL    HW129516   3.455   0.289   5.581  0.8563  0.8735 -3.7123
 5960SOL    HW229517   3.371   0.245   5.469  1.3498 -2.0638  1.0734
 5961SOL     OW29518   3.970   1.839   0.130 -0.1464  0.3207  0.2035
 5961SOL    HW129519   4.001   1.749   0.133 -4.2339 -1.0668  0.4127
 5961SOL    HW229520   3.898   1.831   0.068 -0.5862 -0.5296  0.8236
 5962SOL     OW29521   1.060   4.444   5.185 -0.8923 -0.5691  0.4643
 5962SOL    HW129522   1.072   4.500   5.108  2.3833  0.9519  2.0538
 5962SOL    HW229523   1.151   4.443   5.214 -0.9707  3.9709  0.8501
 5963SOL     OW29524   3.276   4.510  17.602  0.3750  0.1620 -0.4748
 5963SOL    HW129525   3.182   4.493  17.598 -0.0439  1.8973  1.7353
 5963SOL    HW229526   3.314   4.424  17.588  0.0301 -0.1631  0.6334
 5964SOL     OW29527   0.345   2.182   2.572 -0.4121  0.0632  0.2722
 5964SOL    HW129528   0.282   2.195   2.502  0.9209 -0.9293 -1.1129
 5964SOL    HW229529   0.418   2.242   2.556 -0.0781 -0.7656 -1.2762
 5965SOL     OW29530   2.845   0.302   5.013 -0.0031 -0.0908  0.1929
 5965SOL    HW129531   2.833   0.397   5.024 -0.6254  0.0153 -1.3605
 5965SOL    HW229532   2.776   0.265   5.068 -1.2264  1.2654 -0.4478
 5966SOL     OW29533   4.236   1.601   9.615 -0.1037 -0.3466  0.1720
 5966SOL    HW129534   4.171   1.532   9.609 -0.5723 -0.0333  1.5449
 5966SOL    HW229535   4.218   1.660   9.541  1.7191 -1.4113 -1.1122
 5967SOL     OW29536   3.558   1.269   6.606 -0.3251  0.2557  0.5762
 5967SOL    HW129537   3.602   1.207   6.665  2.6472 -0.2010 -2.1449
 5967SOL    HW229538   3.618   1.344   6.597 -0.5605  0.6101  1.8759
 5968SOL     OW29539   2.241   4.425  17.696  0.5046 -0.2579  0.0569
 5968SOL    HW129540   2.315   4.389   0.001 -0.0819 -1.5600  0.0069
 5968SOL    HW229541   2.290   4.463  17.623  0.6612  0.0232  0.3093
 5969SOL     OW29542   4.624   2.777   2.626 -0.0334 -0.1985 -0.4832
 5969SOL    HW129543   4.634   2.758   2.533 -1.7665  1.6802 -1.0472
 5969SOL    HW229544   4.541   2.824   2.622 -1.1816 -2.1876  0.4590
 5970SOL     OW29545   4.133   1.292   8.144 -0.1178 -0.1608 -0.4492
 5970SOL    HW129546   4.156   1.382   8.167 -0.7392  0.1808 -1.1829
 5970SOL    HW229547   4.067   1.313   8.078 -1.3210 -0.7523  0.5764
 5971SOL     OW29548   3.329   3.482  14.141  0.6333  0.1961  0.2381
 5971SOL    HW129549   3.265   3.419  14.107  2.3266 -0.0997 -2.4165
 5971SOL    HW229550   3.275   3.560  14.151  0.7684  0.4014 -0.6525
 5972SOL     OW29551   0.840   1.661   7.694 -0.2633  0.2764 -0.3527
 5972SOL    HW129552   0.859   1.640   7.785 -2.2468  0.5447  0.1195
 5972SOL    HW229553   0.881   1.599   7.633  1.5490  1.9234 -0.7933
 5973SOL     OW29554   2.213   1.734   2.891  0.2721  0.2790 -0.4754
 5973SOL    HW129555   2.185   1.797   2.825  0.3805  0.2088 -0.5875
 5973SOL    HW229556   2.281   1.684   2.845 -0.2662 -0.7931 -0.0939
 5974SOL     OW29557   0.960   3.806   7.316 -0.0468 -0.1836 -0.3606
 5974SOL    HW129558   0.889   3.870   7.321  0.6441  0.4626  1.1382
 5974SOL    HW229559   0.961   3.790   7.222  0.0332  0.5531 -0.4866
 5975SOL     OW29560   2.913   3.405   5.121  0.2783  0.2053  0.0241
 5975SOL    HW129561   2.868   3.406   5.206  1.7644  2.8878  0.7905
 5975SOL    HW229562   3.001   3.437   5.141  1.2638 -2.3931 -0.1803
 5976SOL     OW29563   1.348   2.061   4.466 -0.4081 -0.4374  0.2202
 5976SOL    HW129564   1.274   2.052   4.526  1.2146  0.3282  2.2996
 5976SOL    HW229565   1.384   1.972   4.469  0.0760 -0.1349  2.6518
 5977SOL     OW29566   0.185   3.017   2.070  0.1175  0.1206 -0.1047
 5977SOL    HW129567   0.197   3.101   2.113 -2.4866 -0.1270  1.1096
 5977SOL    HW229568   0.140   2.961   2.134 -1.0645  3.1562  1.6988
 5978SOL     OW29569   1.965   3.757   8.303 -0.5295 -0.1526 -0.1871
 5978SOL    HW129570   1.924   3.717   8.226  0.4912  1.6260 -1.6516
 5978SOL    HW229571   2.006   3.832   8.259  0.5914 -0.6363  0.0182
 5979SOL     OW29572   2.094   0.577  14.303 -0.0938  0.1758  0.1177
 5979SOL    HW129573   2.065   0.624  14.382  0.2119 -1.9268  1.4916
 5979SOL    HW229574   2.038   0.500  14.309  1.7647 -1.2389 -1.0297
 5980SOL     OW29575   0.928   2.664   4.287 -0.4275 -0.4407 -0.6385
 5980SOL    HW129576   0.950   2.753   4.317  2.2679 -1.0919 -0.7482
 5980SOL    HW229577   1.012   2.620   4.299  0.3418  1.3077  0.5273
 5981SOL     OW29578   3.552   2.221   0.869  0.1293 -0.5843  0.3166
 5981SOL    HW129579   3.464   2.183   0.865 -1.0066  1.8428  2.5537
 5981SOL    HW229580   3.540   2.259   0.956 -0.0127 -0.3494  0.1953
 5982SOL     OW29581   3.324   0.616   7.263 -0.5674 -0.5425  0.5021
 5982SOL    HW129582   3.376   0.544   7.228  0.8981  0.2061  1.1451
 5982SOL    HW229583   3.369   0.637   7.345  0.7219 -0.9209 -0.1086
 5983SOL     OW29584   2.654   3.439   5.005  0.0194 -0.5185 -0.2181
 5983SOL    HW129585   2.669   3.468   4.915  1.6647 -0.9547 -0.0668
 5983SOL    HW229586   2.740   3.420   5.040 -1.0660 -0.2155  2.6062
 5984SOL     OW29587   0.171   0.039  16.777  0.2234 -0.2371  0.5014
 5984SOL    HW129588   0.249   0.089  16.754  1.1829 -2.2510 -0.6290
 5984SOL    HW229589   0.175   4.691  16.731  0.9706  0.3313 -0.4500
 5985SOL     OW29590   3.419   1.242  13.558 -0.5259 -0.3417 -0.6811
 5985SOL    HW129591   3.487   1.233  13.491 -1.5039  0.3215 -1.7678
 5985SOL    HW229592   3.395   1.330  13.527  2.2106 -0.8097 -4.0494
 5986SOL     OW29593   4.399   1.845   3.906  0.0251 -0.3402  0.2180
 5986SOL    HW129594   4.323   1.807   3.950 -1.4320  1.7652 -0.4740
 5986SOL    HW229595   4.399   1.800   3.822 -1.8830 -0.9254  0.5218
 5987SOL     OW29596   3.612   4.069   3.122  0.2153  0.5631  0.7565
 5987SOL    HW129597   3.625   4.070   3.217 -1.2397 -0.0744  0.9630
 5987SOL    HW229598   3.705   4.076   3.101 -0.2620  1.7077 -0.9433
 5988SOL     OW29599   0.484   4.355   8.310 -0.3014 -0.2112 -0.3738
 5988SOL    HW129600   0.480   4.268   8.348  0.7083  0.9333  2.3137
 5988SOL    HW229601   0.447   4.333   8.224  2.5881 -1.7293 -1.2048
 5989SOL     OW29602   1.087   4.193   4.953  0.0530 -0.4749  0.4309
 5989SOL    HW129603   1.027   4.267   4.941  0.9421  0.0949 -0.4613
 5989SOL    HW229604   1.140   4.200   4.874  0.8473  2.0658  1.2013
 5990SOL     OW29605   2.799   2.041   3.099  0.6372 -0.4916 -0.2098
 5990SOL    HW129606   2.722   2.091   3.127  2.4748  2.2362 -0.1411
 5990SOL    HW229607   2.796   2.047   3.003 -0.3510  1.1485 -0.0648
 5991SOL     OW29608   1.952   2.786   6.675  0.2167  0.4698  0.4816
 5991SOL    HW129609   1.982   2.749   6.758 -1.2332  2.0739  1.7074
 5991SOL    HW229610   1.871   2.737   6.666 -1.1396  3.1312 -1.5211
 5992SOL     OW29611   3.357   4.024   6.870  0.8747 -0.1555  0.1303
 5992SOL    HW129612   3.390   4.071   6.793 -0.3367 -2.2520 -1.6578
 5992SOL    HW229613   3.307   4.087   6.921  0.9602 -1.7638  2.1967
 5993SOL     OW29614   2.858   4.122   9.642 -0.1762 -0.3897  0.3845
 5993SOL    HW129615   2.847   4.058   9.571  0.6505 -1.1031  0.9031
 5993SOL    HW229616   2.776   4.170   9.628 -1.1236 -1.7842  1.0238
 5994SOL     OW29617   0.686   0.273   6.327  0.3763  0.8902  0.0181
 5994SOL    HW129618   0.663   0.202   6.267  0.0318  0.1439  1.0341
 5994SOL    HW229619   0.758   0.313   6.278  0.7147  1.8635  1.3134
 5995SOL     OW29620   1.612   1.321   5.218  0.7437  0.3523  0.1029
 5995SOL    HW129621   1.614   1.293   5.309 -1.1480  1.1892  0.3939
 5995SOL    HW229622   1.533   1.375   5.222  0.5540 -0.0600  1.6070
 5996SOL     OW29623   0.655   1.780   8.912  0.3478  0.4455 -0.0396
 5996SOL    HW129624   0.648   1.703   8.968  0.0340  0.7666  0.3651
 5996SOL    HW229625   0.745   1.802   8.935  0.9539  0.3297 -2.2938
 5997SOL     OW29626   1.748   1.577   5.678  0.0217 -0.4194 -0.5290
 5997SOL    HW129627   1.763   1.528   5.598 -1.4415 -4.1014  1.4755
 5997SOL    HW229628   1.741   1.503   5.737  1.1277  0.2867  0.4970
 5998SOL     OW29629   1.827   3.688   1.359  0.1497 -0.2190  0.3305
 5998SOL    HW129630   1.920   3.665   1.348 -0.0523 -1.3386  0.9790
 5998SOL    HW229631   1.831   3.782   1.343 -0.5787  0.2688  3.0335
 5999SOL     OW29632   1.440   4.272   7.494  0.3589 -0.1502  0.0127
 5999SOL    HW129633   1.440   4.177   7.488  0.3433  0.0456 -3.1856
 5999SOL    HW229634   1.440   4.306   7.405 -0.9472 -0.2029 -0.0077
 6000SOL     OW29635   3.138   1.702  12.581  0.0868  0.1122  0.4725
 6000SOL    HW129636   3.208   1.737  12.528  2.6798 -2.6208  2.0794
 6000SOL    HW229637   3.167   1.752  12.658  1.5055  1.4162 -0.9246
 6001SOL     OW29638   2.874   4.258  13.458 -0.5205 -0.4575 -0.6046
 6001SOL    HW129639   2.831   4.342  13.445  0.8993  0.1244 -1.5628
 6001SOL    HW229640   2.819   4.223  13.528  1.5628  0.1069  1.3240
 6002SOL     OW29641   2.954   2.391   5.866  0.1528 -0.2477  0.5357
 6002SOL    HW129642   3.040   2.375   5.827  0.2878  1.4128  0.1611
 6002SOL    HW229643   2.977   2.405   5.958 -0.8835  1.1022  0.5966
 6003SOL     OW29644   1.953   1.414   3.955 -0.6912  0.0581 -0.2849
 6003SOL    HW129645   1.891   1.360   3.905  1.5910 -2.4180 -0.4226
 6003SOL    HW229646   1.946   1.360   4.033 -2.8971 -1.1845 -1.3239
 6004SOL     OW29647   4.395   1.047  13.487  0.5873 -0.0573  0.0166
 6004SOL    HW129648   4.338   1.124  13.480 -1.4996 -1.7712 -1.8482
 6004SOL    HW229649   4.451   1.069  13.412  2.0761  1.0774  1.4860
 6005SOL     OW29650   4.226   0.398  11.213  0.4463  0.4646 -0.1863
 6005SOL    HW129651   4.199   0.414  11.303 -0.0043 -1.0111 -0.0614
 6005SOL    HW229652   4.210   0.304  11.217 -0.9063  0.5973 -2.5570
 6006SOL     OW29653   2.858   0.835   6.826  0.3154 -0.2937  0.4393
 6006SOL    HW129654   2.817   0.876   6.901  1.3249  1.3051  0.1222
 6006SOL    HW229655   2.947   0.869   6.836  1.5710 -3.8912  1.6116
 6007SOL     OW29656   0.798   1.703   2.877 -0.2945  0.3270  0.5825
 6007SOL    HW129657   0.867   1.652   2.834 -0.4229  1.3315 -0.8176
 6007SOL    HW229658   0.826   1.688   2.967  1.6235 -0.6826 -0.1880
 6008SOL     OW29659   4.148   3.886   8.749 -0.0461  0.0869  0.8310
 6008SOL    HW129660   4.244   3.892   8.757  0.0640 -0.2512 -0.2078
 6008SOL    HW229661   4.131   3.960   8.691 -1.7057 -0.5999  0.4523
 6009SOL     OW29662   0.756   4.476  11.274  0.5286  0.1816  0.5762
 6009SOL    HW129663   0.724   4.399  11.225  0.8825  0.8086 -0.6452
 6009SOL    HW229664   0.701   4.549  11.248 -2.0295 -2.4049 -1.3598
 6010SOL     OW29665   1.628   3.662   9.459  0.1860  0.1345  0.1642
 6010SOL    HW129666   1.629   3.691   9.550 -0.2623 -0.8078  0.4724
 6010SOL    HW229667   1.721   3.644   9.443  0.3839  0.3032  1.1285
 6011SOL     OW29668   1.838   4.101   4.517  0.1587 -0.1812  0.2596
 6011SOL    HW129669   1.765   4.040   4.507 -0.4694  0.6148 -0.0618
 6011SOL    HW229670   1.914   4.043   4.523 -1.6677 -2.3083  2.5768
 6012SOL     OW29671   1.975   3.306  10.251 -0.0311  0.2418 -0.2881
 6012SOL    HW129672   1.933   3.339  10.330 -0.4618  0.0268 -0.4264
 6012SOL    HW229673   1.916   3.249  10.202  1.6920 -1.8922  0.1031
 6013SOL     OW29674   3.369   4.188   6.620 -0.4927 -0.3608 -0.2768
 6013SOL    HW129675   3.368   4.283   6.636  0.2671 -0.0867 -1.8562
 6013SOL    HW229676   3.464   4.184   6.609 -0.6136 -0.1678 -1.3542
 6014SOL     OW29677   4.583   0.442  15.607  0.4532 -0.3137  0.2036
 6014SOL    HW129678   4.559   0.353  15.633 -0.0548 -0.7380 -1.7351
 6014SOL    HW229679   4.498   0.480  15.585  2.1057  2.1141 -2.0994
 6015SOL     OW29680   2.680   4.376   6.321 -0.1404  0.2568  0.0419
 6015SOL    HW129681   2.668   4.366   6.227  2.7599  0.6485 -0.3591
 6015SOL    HW229682   2.724   4.460   6.331 -0.3161  0.1002  2.1163
 6016SOL     OW29683   1.045   1.997   4.161  0.0088 -0.1649  0.0287
 6016SOL    HW129684   1.008   1.911   4.145  2.0242 -1.1208  0.4668
 6016SOL    HW229685   0.993   2.050   4.221 -0.1727  0.9029 -1.0773
 6017SOL     OW29686   1.999   4.548   5.929 -0.6442 -0.8662 -0.2375
 6017SOL    HW129687   2.035   4.634   5.909 -0.1825 -0.6282  1.5516
 6017SOL    HW229688   1.924   4.540   5.871 -0.7224  1.8500 -0.5032
 6018SOL     OW29689   3.331   0.040   0.643 -0.1033 -0.3862 -0.4881
 6018SOL    HW129690   3.398   0.107   0.632 -1.2804  0.9659  0.5207
 6018SOL    HW229691   3.359   4.726   0.719  0.2749  3.3537  1.8186
 6019SOL     OW29692   0.079   2.685   1.878  0.6024 -0.3509 -0.1590
 6019SOL    HW129693   0.038   2.715   1.959 -2.2366 -2.2270 -0.9329
 6019SOL    HW229694   0.133   2.761   1.856  0.1485  0.1944  0.6079
 6020SOL     OW29695   0.863   0.726   2.313 -0.5420 -0.3314  0.2260
 6020SOL    HW129696   0.773   0.711   2.283 -0.1203  0.3839 -1.3468
 6020SOL    HW229697   0.874   0.651   2.372  1.2579 -0.0399  0.2529
 6021SOL     OW29698   1.759   2.589   2.702 -0.4262 -0.1853  0.1473
 6021SOL    HW129699   1.687   2.606   2.641 -0.5951 -1.7684 -0.1074
 6021SOL    HW229700   1.736   2.512   2.754 -0.1813 -0.1293  0.3411
 6022SOL     OW29701   3.997   2.629   2.709  0.3089  0.4319 -0.1778
 6022SOL    HW129702   4.031   2.544   2.681 -0.1028  0.4518 -0.7479
 6022SOL    HW229703   4.071   2.660   2.760  0.7970  0.0381 -0.6473
 6023SOL     OW29704   1.009   0.128  16.785  0.3847  0.6905 -0.0276
 6023SOL    HW129705   1.083   0.118  16.845  1.0706  1.3291 -0.7679
 6023SOL    HW229706   1.042   0.206  16.741  3.0943 -1.2609 -1.4355
 6024SOL     OW29707   2.076   2.957   9.366  0.0628  0.1707  0.3006
 6024SOL    HW129708   2.032   3.030   9.409  4.1863  2.6105  0.4296
 6024SOL    HW229709   2.088   2.996   9.280  0.8120 -0.6704  0.0211
 6025SOL     OW29710   0.687   4.659  12.694 -0.0256 -0.7617  0.9152
 6025SOL    HW129711   0.657   4.568  12.689 -1.1280 -0.2871 -0.9019
 6025SOL    HW229712   0.701   4.682  12.786 -1.5565  1.0350  0.6894
 6026SOL     OW29713   1.410   0.918   6.770  0.2091 -0.6407  0.4573
 6026SOL    HW129714   1.466   0.937   6.846  0.1475  2.7954 -0.3871
 6026SOL    HW229715   1.375   0.832   6.796  0.7316 -0.9063  0.2629
 6027SOL     OW29716   3.422   2.772   4.731 -0.2843 -0.4264  0.1223
 6027SOL    HW129717   3.486   2.701   4.727 -1.1215 -1.1525 -0.3553
 6027SOL    HW229718   3.342   2.733   4.695 -0.1875 -0.0147 -0.5454
 6028SOL     OW29719   3.494   0.145   7.001  0.3070 -0.3881 -0.6275
 6028SOL    HW129720   3.539   0.229   7.014  0.0307 -0.5472  1.2739
 6028SOL    HW229721   3.403   0.172   7.007  0.2364 -0.7872  0.0703
 6029SOL     OW29722   3.722   1.603   7.353 -0.5717 -0.6343  0.4331
 6029SOL    HW129723   3.758   1.625   7.267  0.8905  1.0780  1.4800
 6029SOL    HW229724   3.709   1.689   7.393 -1.8626 -1.0002  0.8064
 6030SOL     OW29725   1.034   0.362   8.081 -0.1001  0.4840  0.2555
 6030SOL    HW129726   1.070   0.444   8.114 -1.5191  0.7351  1.2177
 6030SOL    HW229727   0.994   0.389   7.998  0.8026 -1.7046 -0.8990
 6031SOL     OW29728   2.220   1.235   1.683  0.0658  0.4716  0.0770
 6031SOL    HW129729   2.248   1.322   1.712 -0.4243 -0.2016  2.6213
 6031SOL    HW229730   2.308   1.198   1.686 -0.2885 -0.3973 -0.2573
 6032SOL     OW29731   1.164   2.497   4.395 -0.2425 -0.0946 -0.0390
 6032SOL    HW129732   1.237   2.507   4.334  0.9296 -1.3826  1.1393
 6032SOL    HW229733   1.148   2.403   4.391  0.4760 -0.2924  1.6262
 6033SOL     OW29734   1.235   1.283   7.926 -0.4066  0.4574 -0.1392
 6033SOL    HW129735   1.193   1.307   7.843  1.1545  1.8849 -0.5358
 6033SOL    HW229736   1.180   1.209   7.949 -1.4068  1.3485  0.3235
 6034SOL     OW29737   4.435   1.135   2.851  0.5461  0.3493  0.7693
 6034SOL    HW129738   4.455   1.144   2.758 -0.9810 -0.0319  0.3903
 6034SOL    HW229739   4.341   1.117   2.840  0.4467  0.6383  1.1710
 6035SOL     OW29740   4.183   4.168   1.002 -0.1771  0.1182  0.2992
 6035SOL    HW129741   4.158   4.260   1.002 -1.1069 -0.1577 -2.7975
 6035SOL    HW229742   4.206   4.154   0.910  1.5113 -0.2414  0.7699
 6036SOL     OW29743   0.824   3.109  16.902  0.2441 -0.3031  0.5172
 6036SOL    HW129744   0.771   3.159  16.841  1.5225 -1.2166 -1.3338
 6036SOL    HW229745   0.891   3.177  16.913  1.1300 -1.0545 -0.2322
 6037SOL     OW29746   4.719   0.471   4.576  0.0467 -0.1408  0.0588
 6037SOL    HW129747   4.626   0.456   4.565 -0.3911  3.1423 -0.7921
 6037SOL    HW229748   0.023   0.456   4.491  0.0067  1.7645 -0.2864
 6038SOL     OW29749   3.297   0.329   6.889  0.2605  0.0085  0.7231
 6038SOL    HW129750   3.256   0.292   6.967  2.0245 -0.2583  1.5447
 6038SOL    HW229751   3.255   0.414   6.889  1.1580  0.4378 -2.6521
 6039SOL     OW29752   2.998   4.431   6.363 -0.0501 -0.0336  0.2090
 6039SOL    HW129753   3.055   4.413   6.438  0.2819  0.0252 -0.0256
 6039SOL    HW229754   2.986   4.525   6.368 -2.0424 -0.3846  1.9438
 6040SOL     OW29755   2.577   4.134   1.921  0.1179  0.1801  0.5290
 6040SOL    HW129756   2.638   4.061   1.914  1.3029  1.0628  1.7820
 6040SOL    HW229757   2.496   4.084   1.933  0.5669 -0.4747  0.7902
 6041SOL     OW29758   3.032   4.625   8.718  0.0719  0.0652  0.8716
 6041SOL    HW129759   3.048   4.551   8.776 -0.4847 -1.8413 -1.4226
 6041SOL    HW229760   2.970   4.595   8.652  0.7665 -1.2115  0.7980
 6042SOL     OW29761   0.686   3.603   8.977  0.0563  0.2566  0.1608
 6042SOL    HW129762   0.724   3.551   8.906  0.1637 -0.6085  0.8515
 6042SOL    HW229763   0.655   3.686   8.940 -0.9848 -0.7303 -1.2078
 6043SOL     OW29764   1.618   3.281   9.206 -0.7017  0.0154 -0.1151
 6043SOL    HW129765   1.593   3.196   9.243 -0.9260  0.1430  0.0301
 6043SOL    HW229766   1.594   3.336   9.280 -0.0302 -0.9386  0.8168
 6044SOL     OW29767   0.787   0.471   8.309 -0.1110 -0.1287 -0.3885
 6044SOL    HW129768   0.848   0.422   8.364 -1.4497 -1.4086 -0.0491
 6044SOL    HW229769   0.708   0.432   8.348 -0.7122 -0.4272 -1.9096
 6045SOL     OW29770   2.300   3.598   8.672  0.1116 -0.0110  0.2831
 6045SOL    HW129771   2.343   3.563   8.750 -0.4913 -0.6678  0.3224
 6045SOL    HW229772   2.373   3.649   8.636  0.9057 -1.5357 -0.2667
 6046SOL     OW29773   3.300   1.402  11.116 -0.5208 -0.1403  0.4318
 6046SOL    HW129774   3.250   1.331  11.078  1.1709 -1.8047  1.3216
 6046SOL    HW229775   3.228   1.464  11.103 -0.2795  0.1123  0.2882
 6047SOL     OW29776   2.994   2.097  17.500  0.4517 -0.0944 -0.0928
 6047SOL    HW129777   3.013   2.060  17.414 -0.8234  2.1371 -1.3398
 6047SOL    HW229778   2.900   2.083  17.505  0.4031  0.5260  0.7730
 6048SOL     OW29779   1.135   4.290  11.546  0.0289  0.3950 -0.0605
 6048SOL    HW129780   1.197   4.344  11.497  0.5333  0.5523  0.7412
 6048SOL    HW229781   1.053   4.338  11.539 -0.6091 -0.7736 -0.4960
 6049SOL     OW29782   1.990   3.317  13.722 -0.3146  0.2528 -0.1560
 6049SOL    HW129783   1.906   3.308  13.679 -0.0222 -0.7905 -0.5193
 6049SOL    HW229784   2.039   3.361  13.653  0.3256  0.8362  0.6696
 6050SOL     OW29785   2.152   4.202   1.846  0.1011  0.2951 -0.1784
 6050SOL    HW129786   2.135   4.208   1.752 -2.7049  1.8995  0.4362
 6050SOL    HW229787   2.063   4.218   1.876  0.5728  2.0613  0.2889
 6051SOL     OW29788   3.562   2.065  15.451  0.0430  0.3328  0.5751
 6051SOL    HW129789   3.643   2.044  15.497 -1.0057 -0.9786  1.8085
 6051SOL    HW229790   3.572   2.035  15.360  2.3069 -2.2478  1.6898
 6052SOL     OW29791   1.087   2.075   3.099  0.3200 -0.2847  0.0337
 6052SOL    HW129792   1.088   2.127   3.179 -1.2320  1.8020 -1.2965
 6052SOL    HW229793   1.043   1.994   3.121  0.0450  0.1183  0.9530
 6053SOL     OW29794   3.729   2.699   2.618  0.4432  0.2803 -0.1221
 6053SOL    HW129795   3.818   2.680   2.649  0.5996  0.1981 -0.6203
 6053SOL    HW229796   3.738   2.669   2.528  0.9823  1.0934 -0.3365
 6054SOL     OW29797   1.590   0.799   3.764  0.7275  0.4622 -0.4445
 6054SOL    HW129798   1.582   0.839   3.850 -2.5897  1.9417 -1.4380
 6054SOL    HW229799   1.683   0.780   3.768  0.8912  1.5620  0.6585
 6055SOL     OW29800   1.756   3.123  17.576  0.5110 -0.1941 -0.2722
 6055SOL    HW129801   1.683   3.108  17.516  1.0307  2.6240 -1.6113
 6055SOL    HW229802   1.822   3.056  17.559  0.6704 -0.2411  0.5192
 6056SOL     OW29803   2.344   0.636   1.723  0.5826  0.0604  0.1175
 6056SOL    HW129804   2.374   0.646   1.632 -1.2034  2.7849 -0.1601
 6056SOL    HW229805   2.422   0.630   1.779  1.1243  0.5151 -0.5762
 6057SOL     OW29806   0.846   0.288   9.688 -0.0536 -0.2362  0.5583
 6057SOL    HW129807   0.894   0.309   9.608 -0.5450  0.6678  0.4966
 6057SOL    HW229808   0.845   0.192   9.686 -0.3494 -0.2086 -0.9867
 6058SOL     OW29809   3.869   4.459   4.581 -0.1433  0.2166  0.3181
 6058SOL    HW129810   3.917   4.529   4.538 -0.0260  0.1277  0.3049
 6058SOL    HW229811   3.787   4.491   4.619  1.6887  2.1768  2.5965
 6059SOL     OW29812   1.381   0.794   2.935 -0.4250 -0.2172 -0.9324
 6059SOL    HW129813   1.363   0.774   2.843 -1.1537 -2.4756 -0.2901
 6059SOL    HW229814   1.436   0.872   2.927 -0.1848 -0.0422  2.6260
 6060SOL     OW29815   1.324   0.469   7.566  0.0912  0.3233  0.0698
 6060SOL    HW129816   1.374   0.387   7.567  0.2193  0.3880 -0.5448
 6060SOL    HW229817   1.255   0.439   7.505  1.1718  0.8461 -1.4113
 6061SOL     OW29818   1.007   2.780   6.405  0.2130  0.2302 -0.4216
 6061SOL    HW129819   0.986   2.784   6.311 -3.1865 -0.7227  0.3105
 6061SOL    HW229820   1.053   2.862   6.421  0.6794 -0.1723  0.2725
 6062SOL     OW29821   4.267   3.738   3.666 -0.1166  0.0616 -0.9231
 6062SOL    HW129822   4.211   3.816   3.659  0.3815  0.3396 -1.6988
 6062SOL    HW229823   4.336   3.779   3.718 -1.9460  2.7430 -0.5943
 6063SOL     OW29824   1.735   4.487   1.766  0.0266 -0.0379  0.7199
 6063SOL    HW129825   1.711   4.572   1.804  0.5428  0.5287 -0.2383
 6063SOL    HW229826   1.724   4.504   1.673  2.9782 -0.5160  0.2873
 6064SOL     OW29827   4.657   0.297   8.302  0.0088 -0.6221  0.1360
 6064SOL    HW129828   4.675   0.380   8.344 -1.3107 -0.5808  0.6117
 6064SOL    HW229829   4.636   0.326   8.213 -1.2212 -2.2144 -0.1096
 6065SOL     OW29830   4.476   2.743   0.242  0.3632 -0.3163 -0.3524
 6065SOL    HW129831   4.490   2.681   0.171  1.9307  1.7479 -1.8364
 6065SOL    HW229832   4.550   2.722   0.298  0.8750 -1.0692 -1.3205
 6066SOL     OW29833   1.449   3.936   4.995  0.3050  0.2184  0.3683
 6066SOL    HW129834   1.512   3.895   4.936 -0.0257 -0.5125  0.5291
 6066SOL    HW229835   1.393   3.859   5.000  0.5082 -0.0232 -1.1927
 6067SOL     OW29836   1.186   4.266  14.405  0.4617 -0.0811  0.2171
 6067SOL    HW129837   1.261   4.262  14.464 -0.1520 -1.5815  0.8886
 6067SOL    HW229838   1.117   4.228  14.459 -0.8095  0.7589 -0.7872
 6068SOL     OW29839   0.396   1.091   7.311  0.0915 -0.0633  0.2536
 6068SOL    HW129840   0.438   1.006   7.299  1.4042  0.5078  0.9220
 6068SOL    HW229841   0.430   1.092   7.400  0.1520 -0.6298  0.2337
 6069SOL     OW29842   2.507   3.107  12.938  0.1331  0.4848 -0.1882
 6069SOL    HW129843   2.490   3.041  13.004  0.3709  0.1543 -0.4542
 6069SOL    HW229844   2.567   3.165  12.985  2.5104 -2.0151 -0.1368
 6070SOL     OW29845   0.593   2.869   2.950 -0.5538  0.4264  0.4012
 6070SOL    HW129846   0.609   2.809   3.023  0.8643  0.6641  0.2846
 6070SOL    HW229847   0.515   2.908   2.990 -2.0736 -0.1525 -1.9693
 6071SOL     OW29848   1.090   0.438   5.893 -0.0547 -0.0379 -0.1837
 6071SOL    HW129849   1.081   0.466   5.984 -2.4472 -1.8606  0.1366
 6071SOL    HW229850   1.089   0.523   5.850 -1.6033  0.2226  0.3829
 6072SOL     OW29851   0.909   3.840   5.369 -0.1138 -0.5024 -0.7216
 6072SOL    HW129852   0.880   3.816   5.457  0.1431  0.0260 -0.4928
 6072SOL    HW229853   0.984   3.781   5.367  0.1827 -0.1190 -1.0230
 6073SOL     OW29854   3.658   3.421   5.521  0.4452 -0.0482 -0.4284
 6073SOL    HW129855   3.703   3.344   5.557  0.5076  0.8968  1.5202
 6073SOL    HW229856   3.730   3.477   5.552 -0.9982  1.5747  0.0113
 6074SOL     OW29857   2.390   4.178   0.610  0.4185  0.4948  0.2951
 6074SOL    HW129858   2.482   4.156   0.595  0.9219  3.2621 -0.6374
 6074SOL    HW229859   2.394   4.254   0.668 -0.2080  1.2127 -0.6000
 6075SOL     OW29860   2.073   0.855   9.861  0.2884  0.7834  0.5128
 6075SOL    HW129861   2.086   0.805   9.942  1.4337  0.1095 -0.0969
 6075SOL    HW229862   1.990   0.822   9.827  1.5348  1.1553 -2.8355
 6076SOL     OW29863   4.316   3.907   7.482 -0.4982  0.0040  0.3515
 6076SOL    HW129864   4.356   3.990   7.457  0.0324 -0.3723 -0.0417
 6076SOL    HW229865   4.255   3.892   7.410  0.8755  2.1405 -1.2465
 6077SOL     OW29866   3.811   1.419   3.275 -0.1592 -0.3575 -0.2979
 6077SOL    HW129867   3.779   1.509   3.273  1.4805  0.1601 -2.1450
 6077SOL    HW229868   3.813   1.393   3.368 -2.2026  3.5751  0.8650
 6078SOL     OW29869   1.468   3.577   8.381 -0.7246  0.2448  0.3029
 6078SOL    HW129870   1.492   3.517   8.310  0.2790  0.0742  0.7795
 6078SOL    HW229871   1.375   3.582   8.359 -1.0698 -1.0761  1.4150
 6079SOL     OW29872   0.712   0.182   8.410  0.0028 -0.0625  0.2955
 6079SOL    HW129873   0.677   0.124   8.478  2.0560 -1.1152  0.4685
 6079SOL    HW229874   0.629   0.214   8.376  0.9195  0.2130 -1.6739
 6080SOL     OW29875   2.768   0.220   8.424  0.3406 -0.0718  0.4242
 6080SOL    HW129876   2.673   0.209   8.434  0.2666  2.0843  2.1553
 6080SOL    HW229877   2.798   0.206   8.514 -1.5522  1.9646  1.3419
 6081SOL     OW29878   2.469   0.853   3.951 -0.0429  0.5690 -0.1801
 6081SOL    HW129879   2.471   0.797   3.873 -2.9449 -0.6670  0.6039
 6081SOL    HW229880   2.392   0.905   3.930 -0.0184  1.1877  1.2846
 6082SOL     OW29881   0.515   0.808   1.849 -0.2125  0.2188  0.5989
 6082SOL    HW129882   0.498   0.867   1.775 -0.3405 -0.4179  0.1227
 6082SOL    HW229883   0.514   0.877   1.915  2.6957  2.7207 -1.9261
 6083SOL     OW29884   1.135   2.272   6.565  0.6486 -0.4916 -0.1391
 6083SOL    HW129885   1.137   2.323   6.483 -0.1026  0.6319  0.5433
 6083SOL    HW229886   1.159   2.185   6.534 -1.3387 -1.7792  1.9962
 6084SOL     OW29887   2.586   4.424   4.058  0.4351 -0.1138 -0.2484
 6084SOL    HW129888   2.519   4.357   4.048  0.0974  0.1294  0.3844
 6084SOL    HW229889   2.667   4.378   4.034  0.8085  0.3141  0.1826
 6085SOL     OW29890   0.910   1.478   3.702 -0.0101  0.0758 -0.3856
 6085SOL    HW129891   0.866   1.558   3.731 -1.0022 -0.4161 -0.5136
 6085SOL    HW229892   0.999   1.503   3.681  0.5117 -1.0661  0.4388
 6086SOL     OW29893   2.629   1.505  16.576 -0.2100  0.9609  0.5067
 6086SOL    HW129894   2.619   1.592  16.614 -0.8331  0.4083  1.6088
 6086SOL    HW229895   2.568   1.517  16.503  0.2098 -2.2929 -0.3981
 6087SOL     OW29896   2.795   0.392   1.992  0.2376  0.1856 -1.0614
 6087SOL    HW129897   2.801   0.300   2.017 -0.9223 -0.1156 -1.8749
 6087SOL    HW229898   2.704   0.414   2.013  0.0592  0.3548 -1.9934
 6088SOL     OW29899   1.075   3.952   1.937 -0.9305 -0.8159 -0.5268
 6088SOL    HW129900   0.984   3.923   1.931 -0.4158 -2.8825  2.0738
 6088SOL    HW229901   1.113   3.876   1.893 -0.7903 -1.1799  0.2375
 6089SOL     OW29902   0.727   3.693  12.293  0.5101 -0.4480 -0.2828
 6089SOL    HW129903   0.711   3.722  12.203  0.5759 -1.7745 -0.7234
 6089SOL    HW229904   0.794   3.756  12.321 -0.1035 -1.0115  2.4291
 6090SOL     OW29905   0.116   0.127   9.093 -0.2996 -0.2611 -0.0760
 6090SOL    HW129906   0.105   0.219   9.116 -0.4137 -0.3781  0.3282
 6090SOL    HW229907   0.023   0.103   9.089  0.7102 -4.1203 -0.8844
 6091SOL     OW29908   4.528   2.680   3.452 -0.4995 -0.8450 -0.4343
 6091SOL    HW129909   4.535   2.614   3.383  1.2572 -0.7530 -0.3493
 6091SOL    HW229910   4.513   2.762   3.406  0.1348 -0.2889  0.3335
 6092SOL     OW29911   2.676   1.096   3.934 -0.1726  0.0482  1.0997
 6092SOL    HW129912   2.639   1.144   4.009 -2.1660 -2.7776  1.9222
 6092SOL    HW229913   2.670   1.010   3.975 -2.5004 -0.5801 -0.5451
 6093SOL     OW29914   1.700   1.630   1.568  0.4784  0.7781 -0.0607
 6093SOL    HW129915   1.695   1.690   1.643  1.3124  0.3440  0.3479
 6093SOL    HW229916   1.790   1.597   1.575  0.1401 -0.0863  0.1262
 6094SOL     OW29917   2.387   0.521   7.923  0.1551  0.5380 -0.2587
 6094SOL    HW129918   2.458   0.540   7.862  0.5789  4.0832  1.2881
 6094SOL    HW229919   2.416   0.584   7.989  3.2687  0.0720 -1.2023
 6095SOL     OW29920   3.190   1.387  10.521 -0.2847  0.4027 -0.2953
 6095SOL    HW129921   3.170   1.351  10.607 -0.9108  0.3984 -0.4434
 6095SOL    HW229922   3.121   1.349  10.467  0.1953 -0.8134 -0.0428
 6096SOL     OW29923   3.417   4.167  10.304  0.7668  0.6335 -0.4263
 6096SOL    HW129924   3.454   4.255  10.311 -2.0025  1.8621 -1.1898
 6096SOL    HW229925   3.330   4.175  10.344  0.8145  1.1013 -0.4189
 6097SOL     OW29926   0.741   3.193  11.338  0.4340 -0.3182  0.4180
 6097SOL    HW129927   0.660   3.240  11.320  0.8388 -0.9829 -3.1970
 6097SOL    HW229928   0.705   3.104  11.330  1.3281 -0.4826 -1.9171
 6098SOL     OW29929   2.685   0.644   8.511 -0.3414 -0.0166 -0.8453
 6098SOL    HW129930   2.768   0.653   8.559 -0.3602 -1.2159 -0.5740
 6098SOL    HW229931   2.707   0.578   8.446 -0.1161 -0.2985 -0.4858
 6099SOL     OW29932   3.562   3.171   3.086 -0.3929  0.2182 -0.1590
 6099SOL    HW129933   3.517   3.107   3.031 -0.5530 -1.4498  1.9249
 6099SOL    HW229934   3.654   3.145   3.083 -0.2816  0.4885  0.8694
 6100SOL     OW29935   2.355   4.260   4.009  0.7231 -0.0405 -0.4580
 6100SOL    HW129936   2.264   4.257   4.040  0.7748 -1.8569 -0.4865
 6100SOL    HW229937   2.394   4.192   4.064  1.4824 -0.7214 -1.8373
 6101SOL     OW29938   3.944   1.431   0.004 -0.7336 -0.1768 -0.3386
 6101SOL    HW129939   3.891   1.488   0.059 -1.8923 -1.6984  0.1137
 6101SOL    HW229940   3.886   1.359  17.723 -0.0830 -0.6130 -0.6162
 6102SOL     OW29941   3.478   1.302  14.172  0.5289 -0.2414  1.0926
 6102SOL    HW129942   3.532   1.343  14.105  0.2912 -2.0785 -0.2250
 6102SOL    HW229943   3.415   1.370  14.197  1.1491  0.3383  1.0746
 6103SOL     OW29944   1.083   4.140   4.257 -0.7803  0.5599  0.5696
 6103SOL    HW129945   1.149   4.153   4.326  0.2771  0.3244 -0.4092
 6103SOL    HW229946   1.101   4.225   4.216  1.4578  0.5684  1.5634
 6104SOL     OW29947   4.691   0.365   2.116 -0.0185  0.5147  0.3472
 6104SOL    HW129948   4.719   0.353   2.207 -2.6185  0.2121  1.1135
 6104SOL    HW229949   0.042   0.367   2.077  0.0863 -3.1111  0.3643
 6105SOL     OW29950   1.190   0.362   3.279  0.2162 -0.6767 -0.0178
 6105SOL    HW129951   1.171   0.440   3.331  1.0645 -0.7637  0.4186
 6105SOL    HW229952   1.284   0.352   3.291  0.3833 -0.0031 -0.7701
 6106SOL     OW29953   2.437   1.651  11.627 -0.3928  0.0591 -0.1916
 6106SOL    HW129954   2.374   1.710  11.586  2.4243  3.1142 -0.1313
 6106SOL    HW229955   2.380   1.608  11.691  0.3546  1.2679  1.2861
 6107SOL     OW29956   1.371   3.746   3.554  0.6140  0.5407  0.1444
 6107SOL    HW129957   1.288   3.769   3.596 -0.5031 -1.1260 -1.1144
 6107SOL    HW229958   1.432   3.809   3.592  0.2173  1.6046 -0.9795
 6108SOL     OW29959   2.575   4.633   2.193  0.1949 -0.1372 -0.2920
 6108SOL    HW129960   2.556   4.554   2.245  1.1853  0.7049  1.3267
 6108SOL    HW229961   2.669   4.629   2.179  0.2758  0.0107  0.1904
 6109SOL     OW29962   2.851   4.032  11.336 -0.1779 -0.4662 -0.0937
 6109SOL    HW129963   2.893   4.107  11.378 -1.9214  0.1850  0.5026
 6109SOL    HW229964   2.879   4.043  11.246 -0.2499 -1.7189 -0.2583
 6110SOL     OW29965   2.149   1.226   8.570  0.3845  0.1203 -0.0394
 6110SOL    HW129966   2.235   1.245   8.533  1.4488 -2.2601  1.2289
 6110SOL    HW229967   2.135   1.133   8.548  1.1219  0.6104 -2.6092
 6111SOL     OW29968   0.227   2.318   9.166  0.0809 -0.0950 -0.1393
 6111SOL    HW129969   0.274   2.392   9.128 -0.9228  0.8334  0.4159
 6111SOL    HW229970   0.226   2.260   9.090  2.5794 -1.1822  0.6828
 6112SOL     OW29971   0.643   1.723   4.806  0.0238 -0.1697  0.5956
 6112SOL    HW129972   0.626   1.721   4.712 -0.4472  0.1515  0.6752
 6112SOL    HW229973   0.650   1.628   4.821  0.0906 -0.1834  0.4784
 6113SOL     OW29974   1.206   2.005  13.672  0.0825  0.4362  0.2284
 6113SOL    HW129975   1.259   2.076  13.634 -0.5509  0.3144 -0.8931
 6113SOL    HW229976   1.220   2.023  13.764  1.3181 -1.4646  0.4068
 6114SOL     OW29977   0.837   0.517   0.834 -0.1085  0.1438 -0.0460
 6114SOL    HW129978   0.805   0.582   0.896 -0.9419 -0.0443 -0.2759
 6114SOL    HW229979   0.774   0.527   0.762 -2.2387 -2.6629  1.4286
 6115SOL     OW29980   1.979   0.083  13.640 -0.4323  0.1061 -0.0518
 6115SOL    HW129981   1.895   0.128  13.645 -0.5149  0.1490 -1.8147
 6115SOL    HW229982   2.003   0.089  13.733  0.4660 -0.6852 -0.2241
 6116SOL     OW29983   0.108   4.053   3.011 -0.1426 -0.0686 -0.6891
 6116SOL    HW129984   0.106   4.116   3.083  0.1847 -0.2272 -0.5428
 6116SOL    HW229985   0.169   3.990   3.049  0.4185 -0.0472 -1.5577
 6117SOL     OW29986   4.182   2.663   6.251  0.3391  0.3867  0.2488
 6117SOL    HW129987   4.172   2.573   6.222  1.4266  0.9403 -1.7777
 6117SOL    HW229988   4.111   2.663   6.316 -0.3068 -0.6322 -0.4652
 6118SOL     OW29989   2.011   4.630   8.879 -0.1739  0.1434  0.5364
 6118SOL    HW129990   1.967   4.715   8.874 -1.8837 -0.8178 -0.7049
 6118SOL    HW229991   1.971   4.593   8.958  1.2641 -0.0177  1.2019
 6119SOL     OW29992   2.928   1.752   3.075 -0.4717 -0.5895  0.2513
 6119SOL    HW129993   2.962   1.840   3.064 -0.0457 -0.5615  1.7609
 6119SOL    HW229994   2.862   1.765   3.143  0.8528  0.9849  1.2027
 6120SOL     OW29995   0.297   4.000  15.916  0.8507  0.3475  0.0225
 6120SOL    HW129996   0.277   4.081  15.870 -0.5852 -0.3146 -0.5170
 6120SOL    HW229997   0.362   4.036  15.976 -0.5628  1.2152  1.0154
 6121SOL     OW29998   4.524   3.393   6.845  0.1233 -0.2057  0.1784
 6121SOL    HW129999   4.491   3.327   6.906 -1.8390  0.7968  0.2225
 6121SOL    HW230000   4.451   3.402   6.783 -1.0471 -1.6042  1.3466
 6122SOL     OW30001   3.142   3.520   2.385 -0.4931  1.1367 -0.2525
 6122SOL    HW130002   3.049   3.504   2.401 -0.4879  0.1421 -1.2223
 6122SOL    HW230003   3.155   3.488   2.296  0.9115 -0.6333  0.5910
 6123SOL     OW30004   0.044   0.358   2.383  0.3087  0.5496 -0.0054
 6123SOL    HW130005   4.703   0.364   2.440  1.4255 -0.4542  1.6203
 6123SOL    HW230006   0.110   0.301   2.424 -0.7775 -1.8621 -1.6632
 6124SOL     OW30007   3.259   3.563   4.557  0.5740  0.1678  0.1726
 6124SOL    HW130008   3.275   3.479   4.515  0.4703 -0.2283  0.9245
 6124SOL    HW230009   3.184   3.597   4.508  1.0212  1.3571  0.3144
 6125SOL     OW30010   0.557   2.935   1.816  1.1054 -0.2158 -0.1257
 6125SOL    HW130011   0.579   3.003   1.880  1.0553  0.3998 -0.7636
 6125SOL    HW230012   0.621   2.935   1.746  0.7299 -1.2695 -0.4710
 6126SOL     OW30013   2.018   2.894   1.551 -0.5441 -0.3135 -0.3831
 6126SOL    HW130014   1.959   2.871   1.623 -0.8088  0.2594 -0.4136
 6126SOL    HW230015   1.968   2.960   1.503 -0.6662  0.7841  1.2541
 6127SOL     OW30016   0.100   3.383   3.645  0.3317 -0.2704 -0.2147
 6127SOL    HW130017   0.011   3.384   3.612 -0.0363 -0.8249  0.7485
 6127SOL    HW230018   0.133   3.463   3.605 -1.1580 -0.6260 -2.1506
 6128SOL     OW30019   4.683   2.625   0.784 -0.2845  0.2222  0.1664
 6128SOL    HW130020   4.645   2.567   0.851  0.1902 -0.1605  0.1076
 6128SOL    HW230021   0.029   2.576   0.771 -0.5672 -0.3760  0.6140
 6129SOL     OW30022   1.117   1.748   5.094  0.4257 -0.5332  0.0695
 6129SOL    HW130023   1.102   1.753   5.189  2.0986  0.1743  0.2989
 6129SOL    HW230024   1.048   1.690   5.064  0.0894 -1.0804  1.9171
 6130SOL     OW30025   0.228   1.819   3.676 -0.1024 -0.2702  0.3478
 6130SOL    HW130026   0.228   1.751   3.609 -0.2312  0.7890 -0.7224
 6130SOL    HW230027   0.146   1.860   3.649 -0.2844 -0.9108 -0.0758
 6131SOL     OW30028   1.834   3.046   4.246  0.3502 -0.1837 -0.3763
 6131SOL    HW130029   1.914   3.083   4.283 -0.2054 -0.4241  1.0703
 6131SOL    HW230030   1.810   2.977   4.309  2.1842 -0.5239 -0.0544
 6132SOL     OW30031   3.968   3.201   5.217 -0.5594  0.6343  0.3434
 6132SOL    HW130032   3.946   3.140   5.287 -1.6240 -1.1116 -1.5136
 6132SOL    HW230033   4.063   3.214   5.222 -0.4837  0.5422 -0.8914
 6133SOL     OW30034   4.055   0.173   4.965  0.0643 -0.2854  0.1664
 6133SOL    HW130035   4.149   0.174   4.946  0.0177  0.1313 -0.0387
 6133SOL    HW230036   4.030   0.156   4.874  0.2010  0.7105 -0.0596
 6134SOL     OW30037   0.807   3.150   5.666  0.0108  0.3744 -0.1211
 6134SOL    HW130038   0.885   3.205   5.677  1.7222 -2.3488  1.3783
 6134SOL    HW230039   0.781   3.153   5.758 -1.0510  2.1565 -0.4730
 6135SOL     OW30040   4.697   3.205  14.825 -0.0750  0.4886 -0.2270
 6135SOL    HW130041   4.706   3.140  14.895 -2.7481  2.1249  1.6263
 6135SOL    HW230042   4.664   3.272  14.885 -0.5363  0.1076 -0.0626
 6136SOL     OW30043   4.345   4.730  14.828  0.1498 -0.2163  0.2157
 6136SOL    HW130044   4.370   4.643  14.796 -3.1233 -1.1503  0.1829
 6136SOL    HW230045   4.361   4.718  14.921  0.8228 -0.2720  0.0924
 6137SOL     OW30046   3.332   3.049  14.529  0.4162  0.7640  0.2842
 6137SOL    HW130047   3.250   3.097  14.531  0.3690  0.7322 -0.9030
 6137SOL    HW230048   3.352   3.048  14.622 -0.5399  0.8386  0.4866
 6138SOL     OW30049   3.532   1.974   5.847 -0.0744  0.0037 -0.0531
 6138SOL    HW130050   3.614   2.021   5.861 -1.2610  1.8273  0.7528
 6138SOL    HW230051   3.493   2.041   5.792 -0.7582 -1.0663 -0.8810
 6139SOL     OW30052   3.857   2.565  12.826  0.0105  0.1614  0.0135
 6139SOL    HW130053   3.787   2.530  12.880 -2.7249  3.4655 -1.3957
 6139SOL    HW230054   3.913   2.487  12.821  0.8836  0.7481  0.7085
 6140SOL     OW30055   0.790   0.376   4.728 -0.7725 -0.0644  0.2712
 6140SOL    HW130056   0.845   0.298   4.724 -0.9956 -0.2113  0.1261
 6140SOL    HW230057   0.799   0.409   4.818  2.6338 -1.5147  0.4441
 6141SOL     OW30058   2.677   0.430   4.187  0.5980  0.5444 -0.6128
 6141SOL    HW130059   2.674   0.368   4.260 -1.5265  1.7943  0.3469
 6141SOL    HW230060   2.770   0.420   4.166  0.4589 -1.0397 -0.4959
 6142SOL     OW30061   0.704   4.619   1.323  0.1548  0.2181 -0.1055
 6142SOL    HW130062   0.714   4.630   1.417 -1.3371  2.7140 -0.2325
 6142SOL    HW230063   0.736   4.529   1.316 -1.1441 -0.4531  2.6936
 6143SOL     OW30064   1.133   3.061   5.038  0.2717  0.5543 -0.1261
 6143SOL    HW130065   1.040   3.039   5.042 -0.0131  2.2548  2.3043
 6143SOL    HW230066   1.172   2.996   5.096  0.5254  0.8239  0.0006
 6144SOL     OW30067   1.496   0.594   8.146  0.1026  0.2774 -0.5814
 6144SOL    HW130068   1.545   0.670   8.115  0.7297  0.3508  0.6006
 6144SOL    HW230069   1.436   0.585   8.072 -1.9301 -0.5781  1.1584
 6145SOL     OW30070   1.294   2.481   2.126 -0.7217 -0.9090  0.5986
 6145SOL    HW130071   1.275   2.500   2.218  2.4055  1.4909  0.7443
 6145SOL    HW230072   1.353   2.405   2.124  0.4575  0.0269 -0.5187
 6146SOL     OW30073   3.028   1.594   8.458  0.1835 -0.5731  0.4605
 6146SOL    HW130074   3.028   1.607   8.553 -0.5728  0.0874  0.3822
 6146SOL    HW230075   2.983   1.509   8.462  1.8813 -1.4307  1.0206
 6147SOL     OW30076   3.790   0.782   3.099  0.3033  0.2146  0.2977
 6147SOL    HW130077   3.879   0.815   3.091  0.1580 -0.2087 -2.8926
 6147SOL    HW230078   3.750   0.835   3.169  3.3058 -0.5734  2.5949
 6148SOL     OW30079   3.695   0.158   8.521  0.4030 -0.3637 -0.2897
 6148SOL    HW130080   3.712   0.072   8.561  0.3390 -0.0107  0.5064
 6148SOL    HW230081   3.717   0.139   8.430 -0.4914 -3.5309  0.1458
 6149SOL     OW30082   3.684   1.665   8.634 -0.2969 -0.0378  0.5202
 6149SOL    HW130083   3.691   1.574   8.604 -0.9864  0.3139 -0.7046
 6149SOL    HW230084   3.745   1.715   8.580 -1.2425 -0.0827 -0.5768
 6150SOL     OW30085   4.454   4.417  14.452 -0.2398 -0.3682  0.0502
 6150SOL    HW130086   4.532   4.470  14.434  1.2627 -2.7667 -0.5991
 6150SOL    HW230087   4.448   4.356  14.379 -0.5356 -0.5915  0.2618
 6151SOL     OW30088   3.121   3.337   5.902  0.1631  0.3303 -0.2681
 6151SOL    HW130089   3.215   3.350   5.886  0.6932 -1.4905  1.2962
 6151SOL    HW230090   3.123   3.277   5.976 -1.9494 -1.5888 -1.7784
 6152SOL     OW30091   1.359   0.312  16.365  0.0719  0.3438 -0.1697
 6152SOL    HW130092   1.293   0.246  16.385 -0.4920  0.9900  0.1313
 6152SOL    HW230093   1.430   0.256  16.334 -0.9437 -1.9650  1.6443
 6153SOL     OW30094   3.024   2.978  13.226 -0.3455 -0.5310  0.2068
 6153SOL    HW130095   2.979   2.898  13.200  1.1873 -1.5538  0.6629
 6153SOL    HW230096   2.956   3.045  13.223  1.4695  1.3193  0.0154
 6154SOL     OW30097   0.099   0.912   0.482  0.4370  0.3787 -0.0272
 6154SOL    HW130098   0.083   0.877   0.569 -0.2288 -1.9298 -1.0930
 6154SOL    HW230099   0.192   0.933   0.487  0.5746  0.3224 -2.2654
 6155SOL     OW30100   0.587   3.377  10.650  0.3395  0.1555 -0.0732
 6155SOL    HW130101   0.550   3.340  10.570  2.4777 -0.0886 -0.9555
 6155SOL    HW230102   0.659   3.429  10.615  1.1042 -0.5336  0.4805
 6156SOL     OW30103   3.983   1.783   7.697 -0.1187 -0.8307  0.1999
 6156SOL    HW130104   3.958   1.782   7.789  1.2784  0.7366  0.6071
 6156SOL    HW230105   4.043   1.709   7.690  0.0785 -0.5685 -0.7989
 6157SOL     OW30106   3.484   0.410  11.161  0.2386  0.0569 -0.1791
 6157SOL    HW130107   3.574   0.399  11.193 -0.0240  1.7722  1.1463
 6157SOL    HW230108   3.498   0.449  11.075 -0.5572 -0.2586 -0.4491
 6158SOL     OW30109   4.195   3.190   0.925 -0.1571  0.7344  0.0545
 6158SOL    HW130110   4.224   3.167   0.837 -3.5983 -2.1423 -0.3294
 6158SOL    HW230111   4.247   3.269   0.942 -0.4335  1.0235 -0.4483
 6159SOL     OW30112   0.643   4.594   9.559  0.6835 -0.3082  0.1126
 6159SOL    HW130113   0.651   4.615   9.466  1.0088  0.9373  0.4148
 6159SOL    HW230114   0.718   4.640   9.598 -0.0001  1.1662 -0.2949
 6160SOL     OW30115   2.960   0.990   1.509 -0.5985  0.8605  0.3320
 6160SOL    HW130116   3.018   1.002   1.584  1.5403 -0.6079 -1.0843
 6160SOL    HW230117   2.997   0.910   1.472  0.4885  1.0564  0.9897
 6161SOL     OW30118   3.557   3.578   0.680  0.3888 -0.1178  0.8759
 6161SOL    HW130119   3.543   3.521   0.604  1.0347 -0.2256  0.8349
 6161SOL    HW230120   3.647   3.607   0.661  0.1372  0.5827  0.7185
 6162SOL     OW30121   1.349   0.170   3.601  0.0128  0.2202 -0.6665
 6162SOL    HW130122   1.332   0.249   3.654  1.3058  0.4128 -0.5423
 6162SOL    HW230123   1.371   0.107   3.670 -1.2599 -1.0638 -1.4319
 6163SOL     OW30124   1.442   4.019  13.315 -0.6361 -0.0465  0.4328
 6163SOL    HW130125   1.518   4.023  13.257  0.4711 -0.4022  1.8831
 6163SOL    HW230126   1.464   3.940  13.365  0.1163  0.3543  0.7217
 6164SOL     OW30127   1.713   0.337   3.216  0.1547 -0.5909  0.5648
 6164SOL    HW130128   1.807   0.326   3.200 -0.6980 -3.7414 -2.3803
 6164SOL    HW230129   1.707   0.272   3.287 -0.2966 -1.5275 -0.3239
 6165SOL     OW30130   1.390   2.518   3.548 -0.3291 -0.0123  0.2798
 6165SOL    HW130131   1.418   2.518   3.639  0.9777 -2.1934 -0.1341
 6165SOL    HW230132   1.390   2.612   3.526 -0.4125  0.1064  0.8025
 6166SOL     OW30133   3.072   3.070   5.722  0.0848  0.2014 -0.0544
 6166SOL    HW130134   2.983   3.104   5.714  0.1819  0.6973  1.0646
 6166SOL    HW230135   3.058   2.976   5.718 -1.7803  0.5104 -0.8840
 6167SOL     OW30136   1.991   1.662   6.024 -0.2345  0.5166  0.0246
 6167SOL    HW130137   2.036   1.730   6.073 -1.5086  1.4934 -0.1708
 6167SOL    HW230138   1.975   1.704   5.940  0.4639  0.6412 -0.0421
 6168SOL     OW30139   2.668   0.820   2.301  0.2244  0.1432 -0.3018
 6168SOL    HW130140   2.647   0.852   2.213  1.6350  0.8000 -0.4096
 6168SOL    HW230141   2.763   0.835   2.306 -0.1148  0.8942  3.9430
 6169SOL     OW30142   0.291   0.187   4.855  0.1124 -0.4143 -0.5724
 6169SOL    HW130143   0.347   0.148   4.788  1.5733 -0.4812  0.6897
 6169SOL    HW230144   0.343   0.174   4.934 -0.0045 -1.3519 -0.6466
 6170SOL     OW30145   4.473   1.097  16.467  0.0752 -0.4831  0.0147
 6170SOL    HW130146   4.416   1.174  16.468 -2.1135 -2.1015  0.3021
 6170SOL    HW230147   4.550   1.145  16.437  0.0880 -1.2059 -1.0970
 6171SOL     OW30148   0.755   1.244   6.513  0.0826  0.5930  0.1268
 6171SOL    HW130149   0.688   1.302   6.551 -0.9006 -0.4849  0.0289
 6171SOL    HW230150   0.823   1.235   6.579 -0.1483  2.1989  0.5810
 6172SOL     OW30151   4.061   3.094   7.538 -0.3226 -0.5685  0.0331
 6172SOL    HW130152   4.123   3.142   7.483  0.7072 -1.6695  0.2199
 6172SOL    HW230153   4.050   3.146   7.618  0.1153 -2.1831  1.1580
 6173SOL     OW30154   2.986   2.533   7.716 -0.0866 -0.4714 -0.4721
 6173SOL    HW130155   3.067   2.487   7.693 -0.6959 -1.8287  0.0736
 6173SOL    HW230156   2.912   2.484   7.680 -0.8942 -1.0096  1.9271
 6174SOL     OW30157   1.269   2.369   8.694  0.2649 -0.3407  0.1308
 6174SOL    HW130158   1.203   2.326   8.640 -1.2440 -0.2808  1.9306
 6174SOL    HW230159   1.264   2.463   8.673  0.1598 -0.5990 -1.0048
 6175SOL     OW30160   2.402   1.753   1.513 -0.5818  0.2520  0.0333
 6175SOL    HW130161   2.324   1.809   1.516 -0.0239  0.9337  2.0097
 6175SOL    HW230162   2.407   1.733   1.420 -1.5192  0.1030  0.0154
 6176SOL     OW30163   3.311   1.858   6.776  0.8810 -0.1036 -0.8242
 6176SOL    HW130164   3.379   1.894   6.719 -0.5785  0.1919 -2.3597
 6176SOL    HW230165   3.352   1.829   6.858  0.7317  0.3667 -0.5831
 6177SOL     OW30166   3.095   1.223  11.054  0.1314  0.3171 -0.0971
 6177SOL    HW130167   3.007   1.244  11.022 -0.7542 -1.9678  0.8256
 6177SOL    HW230168   3.069   1.196  11.142 -1.5382  0.0979 -0.6607
 6178SOL     OW30169   2.861   1.175  10.664  0.1305 -0.2354 -0.3999
 6178SOL    HW130170   2.830   1.100  10.714 -3.1576  0.7074 -1.0371
 6178SOL    HW230171   2.780   1.216  10.635  0.4632 -0.1823 -1.2678
 6179SOL     OW30172   1.062   4.017   7.090  0.1809  0.4002 -0.5140
 6179SOL    HW130173   1.079   3.936   7.139 -3.0548  0.2996  0.4588
 6179SOL    HW230174   1.134   4.009   7.027  0.2442 -0.6618 -0.3140
 6180SOL     OW30175   3.314   3.365  16.483  0.6065 -0.6118  0.0002
 6180SOL    HW130176   3.349   3.295  16.428  0.6755  0.3830 -1.2108
 6180SOL    HW230177   3.350   3.342  16.569 -1.1032 -0.1404  0.8302
 6181SOL     OW30178   2.144   3.892   6.524 -0.3292  0.0299  0.0708
 6181SOL    HW130179   2.182   3.974   6.554 -1.4850  0.5813  0.0387
 6181SOL    HW230180   2.163   3.852   6.609 -1.9419 -0.2334  0.3267
 6182SOL     OW30181   1.632   0.692   7.095 -0.4622 -0.3487 -0.3493
 6182SOL    HW130182   1.702   0.627   7.100  0.5699  0.7324 -0.9785
 6182SOL    HW230183   1.622   0.710   7.001  0.2119  1.8918  0.0120
 6183SOL     OW30184   0.229   0.114   1.763  0.0983  0.3481 -0.0279
 6183SOL    HW130185   0.279   0.130   1.683  0.9265 -0.6100  0.3021
 6183SOL    HW230186   0.291   0.069   1.821  1.3375  2.0025 -0.0669
 6184SOL     OW30187   1.431   0.659   5.328 -0.3387 -0.2621 -0.2289
 6184SOL    HW130188   1.410   0.728   5.264  1.1589  0.8249  0.4498
 6184SOL    HW230189   1.525   0.652   5.314 -0.3219  0.2801 -0.4145
 6185SOL     OW30190   3.511   3.439   0.941 -0.4502  0.2574 -0.5510
 6185SOL    HW130191   3.554   3.455   0.857  0.1984  0.2360 -0.2231
 6185SOL    HW230192   3.534   3.519   0.988 -0.6261 -1.6801  2.8180
 6186SOL     OW30193   2.967   3.200  17.689 -0.2461 -0.1501  0.1209
 6186SOL    HW130194   2.962   3.172  17.597  0.2915  0.6647 -0.1587
 6186SOL    HW230195   2.876   3.185  17.715 -0.8933  4.1410  0.3106
 6187SOL     OW30196   0.577   1.262  14.474 -0.6345  0.0388  0.7725
 6187SOL    HW130197   0.539   1.184  14.433 -3.4638  2.0960 -0.5361
 6187SOL    HW230198   0.552   1.336  14.418 -3.9921 -0.4172  1.6334
 6188SOL     OW30199   3.979   0.493  13.370 -0.1639  0.0753 -0.1867
 6188SOL    HW130200   3.884   0.497  13.355 -0.5384  1.9721  2.6626
 6188SOL    HW230201   3.999   0.422  13.309 -0.6642 -1.2520  1.2002
 6189SOL     OW30202   2.773   0.754   9.220 -0.0900 -0.1083 -0.0013
 6189SOL    HW130203   2.844   0.772   9.158  1.1482  0.0617  1.4895
 6189SOL    HW230204   2.723   0.834   9.208  0.1824  0.2876  1.5846
 6190SOL     OW30205   2.483   0.942  16.704 -0.1905  0.6923 -0.0779
 6190SOL    HW130206   2.525   0.935  16.789 -0.8329  1.6979  0.3192
 6190SOL    HW230207   2.535   0.866  16.676  0.9559  0.9007  1.5641
 6191SOL     OW30208   2.333   2.306   6.220  0.1699 -0.7143 -0.2757
 6191SOL    HW130209   2.282   2.259   6.286 -0.0097  0.2571  0.2701
 6191SOL    HW230210   2.385   2.356   6.284 -0.6439 -2.7588  1.9862
 6192SOL     OW30211   1.067   2.675   0.172 -0.0310 -0.7163 -0.3791
 6192SOL    HW130212   1.144   2.687   0.227 -0.0037 -2.0130 -0.1464
 6192SOL    HW230213   1.103   2.673   0.084  1.5225  0.5324  0.2364
 6193SOL     OW30214   4.294   3.706   7.631 -0.2093 -0.2526 -0.1120
 6193SOL    HW130215   4.249   3.644   7.573  0.4066 -1.1537  0.3811
 6193SOL    HW230216   4.298   3.785   7.576  0.5186 -0.4665 -0.3652
 6194SOL     OW30217   1.660   1.053  16.807 -0.5667  0.3018  0.2769
 6194SOL    HW130218   1.751   1.059  16.777 -1.2386  0.4353 -1.7247
 6194SOL    HW230219   1.667   0.999  16.886  0.1468 -0.8925 -0.5981
 6195SOL     OW30220   1.095   3.359   4.969  0.0595 -0.0635 -0.7428
 6195SOL    HW130221   1.038   3.288   4.939 -0.6180  0.7228 -1.3358
 6195SOL    HW230222   1.181   3.332   4.938  0.9977  1.6023  0.4121
 6196SOL     OW30223   2.797   2.422   5.521 -0.0615  0.0224  0.0288
 6196SOL    HW130224   2.817   2.502   5.473  0.2306 -0.7822 -1.1893
 6196SOL    HW230225   2.887   2.391   5.532 -0.7885 -1.4022  2.1090
 6197SOL     OW30226   0.919   0.748   3.469  0.2674  0.1222  0.0640
 6197SOL    HW130227   0.886   0.782   3.386 -1.1258 -1.8787 -0.1966
 6197SOL    HW230228   0.956   0.831   3.498 -0.0660  0.3132 -0.0550
 6198SOL     OW30229   0.176   1.521   1.263 -0.2872  0.3529  0.1783
 6198SOL    HW130230   0.258   1.482   1.232 -1.5522 -2.3898  0.2807
 6198SOL    HW230231   0.193   1.615   1.252 -0.5924  0.5199  1.0656
 6199SOL     OW30232   0.515   4.336   9.474  0.7735 -0.8059  0.5558
 6199SOL    HW130233   0.594   4.308   9.519  1.6771 -0.4704 -0.8221
 6199SOL    HW230234   0.540   4.428   9.482 -0.0370 -0.5481  0.1755
 6200SOL     OW30235   3.741   1.317   3.834  0.4214 -0.4951 -0.2724
 6200SOL    HW130236   3.725   1.228   3.866 -0.5392  0.8278  2.9491
 6200SOL    HW230237   3.650   1.336   3.812  0.1728 -0.2419  0.9472
 6201SOL     OW30238   2.601   3.085  16.511 -0.0786  0.5438 -0.3564
 6201SOL    HW130239   2.566   3.055  16.428  2.8318  0.5063 -1.5661
 6201SOL    HW230240   2.668   3.146  16.481 -0.3865  0.0693 -2.0090
 6202SOL     OW30241   3.039   1.912   4.280  0.6888 -0.6142 -0.5691
 6202SOL    HW130242   2.998   1.866   4.206 -1.1929  0.5496 -0.2487
 6202SOL    HW230243   2.985   1.884   4.354  0.8440  1.2302  0.2355
 6203SOL     OW30244   3.701   4.342   1.066  0.3021 -0.3838 -0.3650
 6203SOL    HW130245   3.770   4.355   1.132  1.1492  0.6536 -1.4586
 6203SOL    HW230246   3.745   4.277   1.010 -0.1261 -0.8872 -0.1188
 6204SOL     OW30247   4.504   0.486  16.913  0.3572  0.2066  0.8338
 6204SOL    HW130248   4.529   0.398  16.884  1.0524  1.1373 -1.4471
 6204SOL    HW230249   4.499   0.529  16.827  1.3366  0.0569  0.7021
 6205SOL     OW30250   0.653   3.050   7.438 -0.2833 -0.0696  0.6191
 6205SOL    HW130251   0.722   3.116   7.431  2.3642 -2.3646  4.9683
 6205SOL    HW230252   0.651   3.031   7.532 -3.0046  0.7122  0.7223
 6206SOL     OW30253   3.681   0.058   1.648 -0.1903 -0.0419 -0.0644
 6206SOL    HW130254   3.587   0.046   1.656  0.1319 -2.9794 -0.8807
 6206SOL    HW230255   3.714   4.705   1.653  2.0793  0.7570 -0.6836
 6207SOL     OW30256   1.240   0.710   1.569  0.3284  0.1979  0.2339
 6207SOL    HW130257   1.228   0.630   1.518  0.7003 -1.3681  2.6223
 6207SOL    HW230258   1.162   0.702   1.625  0.8408  2.7030  1.2861
 6208SOL     OW30259   3.110   0.024   2.332  0.1222 -0.3025  0.1274
 6208SOL    HW130260   3.052   4.689   2.306 -0.7360  0.3763  0.1917
 6208SOL    HW230261   3.139   4.729   2.418  0.9795  1.4948  0.4862
 6209SOL     OW30262   0.546   0.160   5.118  0.0009  0.2116 -0.0259
 6209SOL    HW130263   0.629   0.159   5.165 -0.0844  0.7391  0.1360
 6209SOL    HW230264   0.551   0.235   5.059 -0.3341  0.9342  0.8621
 6210SOL     OW30265   1.647   0.886   2.107 -0.2520 -0.0232  0.0966
 6210SOL    HW130266   1.607   0.964   2.069 -1.2687 -1.5805 -2.0271
 6210SOL    HW230267   1.613   0.829   2.039 -0.3744 -0.1861  0.2964
 6211SOL     OW30268   2.319   4.144   6.619  0.0973 -0.6402  0.2551
 6211SOL    HW130269   2.378   4.132   6.693  0.8210 -0.3234 -0.2693
 6211SOL    HW230270   2.359   4.214   6.567  0.9882 -0.3257  1.3681
 6212SOL     OW30271   0.073   0.196  10.311 -0.0376 -0.3896 -0.4350
 6212SOL    HW130272   0.146   0.174  10.254  0.4953  0.2999 -0.0167
 6212SOL    HW230273   4.731   0.174  10.260 -1.4085 -0.4064  1.6592
 6213SOL     OW30274   2.089   4.396   5.106 -0.3551  0.3020  0.3219
 6213SOL    HW130275   2.070   4.381   5.013  0.2265  2.6597 -0.1677
 6213SOL    HW230276   2.183   4.381   5.110 -0.1497  1.5879  0.1160
 6214SOL     OW30277   2.949   3.734   7.854 -0.2519  0.0110 -0.0753
 6214SOL    HW130278   3.027   3.681   7.837 -0.8593 -0.9332  0.1261
 6214SOL    HW230279   2.945   3.751   7.948 -0.0305  0.5261 -0.1540
 6215SOL     OW30280   3.295   1.736  15.867  0.3927  0.3177  0.1596
 6215SOL    HW130281   3.337   1.749  15.783 -1.0531 -0.0033 -0.6249
 6215SOL    HW230282   3.203   1.739  15.839  0.8863  2.0397 -1.2370
 6216SOL     OW30283   3.190   0.873   2.956 -0.0566  0.2391 -0.7964
 6216SOL    HW130284   3.244   0.877   3.035 -0.6572 -2.8138 -0.2079
 6216SOL    HW230285   3.109   0.873   3.006 -0.3646 -0.0659 -1.2932
 6217SOL     OW30286   4.710   3.649   7.825  0.0982 -0.2499 -0.3324
 6217SOL    HW130287   4.649   3.718   7.850 -1.1325 -2.2773  2.2720
 6217SOL    HW230288   0.013   3.680   7.743  0.7750  1.6259  0.7108
 6218SOL     OW30289   3.350   0.769   2.454  0.3407 -0.2841 -0.5269
 6218SOL    HW130290   3.308   0.728   2.379  0.5107  0.4924 -1.0510
 6218SOL    HW230291   3.326   0.716   2.531 -0.4161  2.8955  1.4392
 6219SOL     OW30292   3.975   1.483  14.346 -0.5000 -0.9773  0.2051
 6219SOL    HW130293   4.033   1.547  14.305 -2.8144  0.6539 -0.5356
 6219SOL    HW230294   3.914   1.464  14.275  0.6213 -4.2406  0.1028
 6220SOL     OW30295   2.174   2.780  17.653 -0.3286  0.0522 -0.3943
 6220SOL    HW130296   2.250   2.722  17.653  0.1424  0.6659  1.4778
 6220SOL    HW230297   2.100   2.720  17.655 -1.5146  1.4288 -2.1190
 6221SOL     OW30298   3.268   0.674   3.608 -0.3258 -0.9831  0.5210
 6221SOL    HW130299   3.335   0.735   3.638 -2.2549  1.9431 -1.0934
 6221SOL    HW230300   3.207   0.669   3.682 -0.8384  1.4965  0.2794
 6222SOL     OW30301   1.699   3.546  15.540 -0.8212 -0.1403  0.2655
 6222SOL    HW130302   1.753   3.588  15.473  1.1133 -0.7827  1.4118
 6222SOL    HW230303   1.705   3.608  15.613 -0.4117 -0.2142  0.2967
 6223SOL     OW30304   0.186   1.029   5.585 -0.5562 -0.0821 -0.1184
 6223SOL    HW130305   0.095   1.039   5.558  0.0997 -0.9456 -2.6513
 6223SOL    HW230306   0.237   0.997   5.511  1.6366  0.1236  1.2940
 6224SOL     OW30307   0.273   3.645   8.774 -0.2800 -0.6993  0.1824
 6224SOL    HW130308   0.241   3.693   8.850 -1.6913  0.2443 -0.9885
 6224SOL    HW230309   0.337   3.707   8.740 -0.9864  0.5046  1.0359
 6225SOL     OW30310   2.582   4.352  17.008 -0.1909 -0.1613  0.0482
 6225SOL    HW130311   2.670   4.335  16.975  0.5507  1.7827  0.9847
 6225SOL    HW230312   2.532   4.291  16.954 -1.1799 -0.9538  1.8886
 6226SOL     OW30313   4.254   4.113   7.090 -0.5323  0.0372 -0.7505
 6226SOL    HW130314   4.287   4.031   7.053  0.4107  0.0546  0.0490
 6226SOL    HW230315   4.323   4.167   7.049 -1.9671  1.2665 -1.5482
 6227SOL     OW30316   1.887   4.455   6.150  0.4716 -0.6241  0.1855
 6227SOL    HW130317   1.812   4.407   6.115 -1.1067  0.6682  1.8166
 6227SOL    HW230318   1.915   4.501   6.071 -0.8343 -2.6351 -1.4551
 6228SOL     OW30319   2.441   2.902   7.020 -0.2394  0.0032 -0.1095
 6228SOL    HW130320   2.412   2.981   6.975 -0.4819  0.0671  0.1570
 6228SOL    HW230321   2.386   2.834   6.982 -0.1338  0.7247 -1.5354
 6229SOL     OW30322   3.373   1.589   8.717  0.3058 -0.4871 -0.3933
 6229SOL    HW130323   3.277   1.586   8.714  0.2718 -0.1146  0.4185
 6229SOL    HW230324   3.378   1.680   8.746  2.7590 -1.6985  2.9718
 6230SOL     OW30325   2.446   3.612   5.311 -0.3600  0.0961 -0.4230
 6230SOL    HW130326   2.492   3.637   5.392 -0.3441 -2.6126  0.4158
 6230SOL    HW230327   2.500   3.634   5.235 -1.1709 -0.9276 -1.2828
 6231SOL     OW30328   4.386   0.376   7.239 -0.4815  0.3236 -0.1986
 6231SOL    HW130329   4.424   0.462   7.224 -1.0160  0.8577  1.5082
 6231SOL    HW230330   4.465   0.335   7.273 -0.5483 -0.3446 -0.8334
 6232SOL     OW30331   2.123   2.396   4.953 -0.0470 -0.1210  0.5260
 6232SOL    HW130332   2.126   2.490   4.969 -0.4896 -0.5025  2.8771
 6232SOL    HW230333   2.074   2.379   5.033 -0.6935  1.4161  0.4457
 6233SOL     OW30334   0.235   3.458  11.385  0.4130  0.6048  0.0069
 6233SOL    HW130335   0.216   3.443  11.478 -0.2086  1.1790 -0.0285
 6233SOL    HW230336   0.284   3.540  11.389 -0.0712  0.9259 -0.7539
 6234SOL     OW30337   3.000   1.117  14.099  0.0721  0.1268 -0.6124
 6234SOL    HW130338   2.963   1.069  14.173  0.7836 -0.5826 -0.7190
 6234SOL    HW230339   3.078   1.152  14.141 -0.1269  2.8269 -2.4319
 6235SOL     OW30340   0.098   2.038  10.795  0.3031 -0.1563  0.1320
 6235SOL    HW130341   0.102   2.066  10.886  1.2872  1.9275 -0.5597
 6235SOL    HW230342   0.155   2.107  10.763 -0.3606  0.1289 -0.4334
 6236SOL     OW30343   2.473   4.022   6.860 -0.1742 -0.3007 -0.3355
 6236SOL    HW130344   2.554   4.055   6.899 -0.5956 -0.5930  0.7951
 6236SOL    HW230345   2.510   3.960   6.797  0.8519 -2.0338  1.9402
 6237SOL     OW30346   0.473   2.943   9.308 -0.3072  0.1218 -0.4321
 6237SOL    HW130347   0.408   2.916   9.374 -0.4300  1.3164 -0.0721
 6237SOL    HW230348   0.558   2.928   9.350  0.4141  0.5368 -1.7657
 6238SOL     OW30349   4.566   3.036   9.507 -0.0103  0.3172 -0.4814
 6238SOL    HW130350   4.570   3.096   9.433  1.7852  1.2768  0.4005
 6238SOL    HW230351   4.522   3.094   9.569 -0.2533  0.0270 -0.3838
 6239SOL     OW30352   2.835   4.517   8.471 -0.1883  0.1148  0.9035
 6239SOL    HW130353   2.834   4.562   8.386  1.1301  0.8063  1.2601
 6239SOL    HW230354   2.750   4.536   8.510 -0.6058  0.0781  0.0289
 6240SOL     OW30355   1.142   4.584  11.916  0.5340  0.8111  0.1050
 6240SOL    HW130356   1.088   4.654  11.954 -3.0890 -1.8349 -0.1209
 6240SOL    HW230357   1.095   4.576  11.833 -0.1983  1.1806  0.4845
 6241SOL     OW30358   0.356   1.822   5.117  0.0232  0.1414  0.0151
 6241SOL    HW130359   0.292   1.892   5.122  1.2004  1.2236 -0.0470
 6241SOL    HW230360   0.320   1.778   5.040  1.6795  0.4107 -0.9170
 6242SOL     OW30361   0.382   2.122   2.118  0.3401  0.0644 -0.2878
 6242SOL    HW130362   0.289   2.123   2.097 -0.0013 -0.6597  1.2234
 6242SOL    HW230363   0.416   2.120   2.028  0.5833  2.1369 -0.2447
 6243SOL     OW30364   1.496   3.067   4.747 -0.3533  0.2694 -0.2057
 6243SOL    HW130365   1.537   3.125   4.682  1.1418  0.9238  1.3165
 6243SOL    HW230366   1.455   3.125   4.811  0.3954  0.5864 -0.0029
 6244SOL     OW30367   1.728   4.475   8.606  0.5598 -0.1800 -0.5830
 6244SOL    HW130368   1.801   4.484   8.667  0.0476  0.6983 -0.0979
 6244SOL    HW230369   1.713   4.565   8.577 -0.7224 -0.1237  0.2525
 6245SOL     OW30370   2.311   0.742   8.938 -0.7427  0.0490 -0.1219
 6245SOL    HW130371   2.279   0.755   9.027 -2.3895 -0.7277 -0.6046
 6245SOL    HW230372   2.257   0.665   8.916  0.6082 -0.1767 -2.6874
 6246SOL     OW30373   1.646   0.854   2.413 -0.2686  0.4153 -0.5091
 6246SOL    HW130374   1.633   0.867   2.319  0.7483 -1.4905 -0.9153
 6246SOL    HW230375   1.609   0.939   2.436  0.4686  0.9978 -1.4706
 6247SOL     OW30376   3.738   0.750   8.720 -0.5666  0.1109 -0.0708
 6247SOL    HW130377   3.676   0.760   8.647 -2.2281  2.9662  1.7286
 6247SOL    HW230378   3.792   0.677   8.689 -0.5107  0.5483 -1.0176
 6248SOL     OW30379   0.232   3.338  16.275 -0.0349 -0.2988  0.1950
 6248SOL    HW130380   0.293   3.410  16.263 -0.5463  0.0665 -0.2333
 6248SOL    HW230381   0.147   3.382  16.273  0.1378  0.0237  0.0266
 6249SOL     OW30382   1.431   4.248   6.077  0.1525  0.3524  0.2045
 6249SOL    HW130383   1.401   4.162   6.049  0.7883  1.0593 -2.5780
 6249SOL    HW230384   1.354   4.302   6.061 -1.1155 -0.7496  2.4665
 6250SOL     OW30385   1.785   4.527   4.413  0.6133  0.1835  0.6996
 6250SOL    HW130386   1.775   4.595   4.480 -3.3427 -2.2413  2.5564
 6250SOL    HW230387   1.699   4.486   4.418  0.5426  0.4100  1.3389
 6251SOL     OW30388   2.437   0.530   9.339 -0.9053  0.0931 -0.5091
 6251SOL    HW130389   2.503   0.550   9.405  0.2970  0.7861 -1.9250
 6251SOL    HW230390   2.428   0.435   9.348 -2.1146  0.0705 -1.9660
 6252SOL     OW30391   2.566   0.936   3.537  0.3867  0.0567  0.1627
 6252SOL    HW130392   2.522   0.976   3.613  0.5986  1.5133 -0.4867
 6252SOL    HW230393   2.501   0.884   3.490 -0.2640  0.7316  0.3057
 6253SOL     OW30394   4.566   0.675   0.920 -0.3563  0.1363 -0.3490
 6253SOL    HW130395   4.511   0.737   0.968 -0.9362 -0.4633 -0.2339
 6253SOL    HW230396   4.555   0.599   0.978  1.0213  1.1239  1.1989
 6254SOL     OW30397   2.898   2.656   3.970 -0.4378 -0.2675  0.9674
 6254SOL    HW130398   2.989   2.634   3.951  0.3948  2.7859  1.4866
 6254SOL    HW230399   2.892   2.583   4.032  0.4856 -1.3582 -0.2259
 6255SOL     OW30400   2.691   2.331   5.162  0.1988  0.0404  0.0657
 6255SOL    HW130401   2.605   2.364   5.186  1.1575  2.4303  0.2681
 6255SOL    HW230402   2.705   2.272   5.237  4.3920  2.1618  0.9742
 6256SOL     OW30403   4.435   3.639  17.136 -0.0101  0.0648 -0.3956
 6256SOL    HW130404   4.523   3.607  17.156 -0.3998 -0.3815  0.5966
 6256SOL    HW230405   4.374   3.570  17.163  0.4079 -0.0969  0.1372
 6257SOL     OW30406   4.182   1.922   8.807  0.5363  0.0873  0.0157
 6257SOL    HW130407   4.225   1.843   8.776  2.4824  0.6536  1.2174
 6257SOL    HW230408   4.227   1.924   8.892 -0.4260 -0.6475  0.5417
 6258SOL     OW30409   0.267   0.254  15.094 -0.6958  0.5557  0.0354
 6258SOL    HW130410   0.315   0.291  15.168  0.4391 -0.1449 -0.3550
 6258SOL    HW230411   0.204   0.193  15.133 -0.5879  0.5314  0.1676
 6259SOL     OW30412   4.611   3.234   9.331  0.5278  0.1798 -0.1394
 6259SOL    HW130413   4.545   3.292   9.292  1.2254 -0.0956 -1.7132
 6259SOL    HW230414   4.659   3.201   9.256 -0.6650 -0.5498 -0.5765
 6260SOL     OW30415   0.409   4.444   6.743  0.4317  0.8432  0.7999
 6260SOL    HW130416   0.427   4.477   6.655  1.0935 -1.9885 -0.1336
 6260SOL    HW230417   0.468   4.501   6.791 -0.0724  1.0095  1.2129
 6261SOL     OW30418   3.030   1.632   2.398  0.5115  0.2242 -0.0472
 6261SOL    HW130419   2.960   1.649   2.336 -0.4705  2.3044  1.6234
 6261SOL    HW230420   2.974   1.644   2.476  0.6281  1.3223 -0.1372
 6262SOL     OW30421   3.876   1.764  13.474 -0.7466 -0.3364  0.0897
 6262SOL    HW130422   3.864   1.702  13.546  0.4491 -1.1090 -0.3747
 6262SOL    HW230423   3.846   1.840  13.524  0.5270  0.3976 -0.2630
 6263SOL     OW30424   2.204   2.979  10.493  0.1422  0.7748  0.6547
 6263SOL    HW130425   2.200   2.890  10.526  1.0947  0.6754  0.4817
 6263SOL    HW230426   2.113   2.989  10.464  0.1047  1.0747  0.8800
 6264SOL     OW30427   0.990   2.700  16.968  0.4222  0.0285 -0.3887
 6264SOL    HW130428   0.964   2.620  16.923  1.1091  0.0574 -0.8394
 6264SOL    HW230429   0.981   2.677  17.061  0.7785  1.5508  0.0191
 6265SOL     OW30430   0.174   2.110   8.979 -0.2662 -0.8078 -0.2355
 6265SOL    HW130431   0.142   2.063   9.056 -1.8286  1.1909  0.3219
 6265SOL    HW230432   0.268   2.091   8.986 -0.3182 -0.3793  1.7848
 6266SOL     OW30433   3.659   4.626   1.240  0.3210  0.7292  0.2297
 6266SOL    HW130434   3.754   4.616   1.246  0.3362  1.4238  1.3562
 6266SOL    HW230435   3.632   4.604   1.151 -4.0400  0.7361  1.4997
 6267SOL     OW30436   2.083   3.399   4.188  0.5840  0.2820 -0.5127
 6267SOL    HW130437   2.032   3.479   4.177 -0.6629 -0.7487 -2.1734
 6267SOL    HW230438   2.099   3.397   4.283  0.4576  0.4717 -0.4866
 6268SOL     OW30439   2.516   1.868   5.318 -0.6872 -0.0532  0.6964
 6268SOL    HW130440   2.474   1.788   5.350  1.9758 -1.7138  0.0418
 6268SOL    HW230441   2.440   1.923   5.299 -1.1373 -1.1299 -0.6566
 6269SOL     OW30442   3.887   2.207   8.583  0.1358 -0.5501  0.4154
 6269SOL    HW130443   3.965   2.185   8.531  0.1473  0.9593 -0.1831
 6269SOL    HW230444   3.866   2.299   8.568 -0.9770 -0.6307  1.4886
 6270SOL     OW30445   1.583   1.144   8.719  0.0834  0.2619 -0.8120
 6270SOL    HW130446   1.640   1.159   8.794  1.1429 -1.3757 -1.2942
 6270SOL    HW230447   1.644   1.087   8.672  1.4679 -0.3744  1.7544
 6271SOL     OW30448   4.409   0.219  13.717 -0.4388 -0.3131 -0.2269
 6271SOL    HW130449   4.362   0.298  13.745  0.0373  0.8175 -2.5892
 6271SOL    HW230450   4.340   0.181  13.663 -0.8099 -1.0661  0.7902
 6272SOL     OW30451   1.916   0.623   6.402  0.0360  0.6545 -0.5351
 6272SOL    HW130452   1.944   0.712   6.379 -0.2620  0.5072 -1.4421
 6272SOL    HW230453   1.882   0.642   6.489 -0.0611  1.8719 -0.8377
 6273SOL     OW30454   2.991   3.524  16.551  0.3166  0.2594  0.3106
 6273SOL    HW130455   3.050   3.538  16.476  0.1389  1.6084  0.4353
 6273SOL    HW230456   2.907   3.531  16.507  0.2188  0.7449  0.5850
 6274SOL     OW30457   3.479   3.435   7.457 -0.3360  0.2216 -0.1099
 6274SOL    HW130458   3.407   3.423   7.396  1.1681 -0.3538 -1.7883
 6274SOL    HW230459   3.539   3.488   7.404  2.7509 -2.8763  0.2644
 6275SOL     OW30460   2.136   3.266   6.501  0.3110  0.4608  0.0620
 6275SOL    HW130461   2.165   3.262   6.409  2.2087 -0.9303  0.7113
 6275SOL    HW230462   2.102   3.180   6.524 -0.7466  0.8031 -0.1941
 6276SOL     OW30463   1.977   2.508   7.352 -0.1195 -0.7293  0.2923
 6276SOL    HW130464   2.061   2.493   7.309 -1.2590 -3.4361 -0.9728
 6276SOL    HW230465   1.917   2.466   7.291 -0.5797  0.0918  0.1782
 6277SOL     OW30466   0.170   1.743   7.456 -0.7005  0.3454 -0.4395
 6277SOL    HW130467   0.128   1.829   7.458 -1.0984  0.1307  0.4789
 6277SOL    HW230468   0.180   1.722   7.549 -0.4622 -1.3704 -0.8420
 6278SOL     OW30469   3.413   0.122   2.969  0.2620 -0.4958  0.2279
 6278SOL    HW130470   3.390   0.031   2.986  0.0401 -0.5699 -0.4784
 6278SOL    HW230471   3.376   0.132   2.881  2.5472  1.4460 -0.4947
 6279SOL     OW30472   2.491   3.480   5.769 -0.4500 -0.4981  0.2939
 6279SOL    HW130473   2.412   3.480   5.716 -0.8856  4.1786  0.9057
 6279SOL    HW230474   2.489   3.575   5.785  0.6574 -0.3902 -0.1527
 6280SOL     OW30475   4.208   0.281   6.506  0.7664  0.3493  0.4026
 6280SOL    HW130476   4.236   0.293   6.597 -0.2027  0.8548  0.6355
 6280SOL    HW230477   4.170   0.194   6.519 -1.6620  1.5660  1.5380
 6281SOL     OW30478   3.890   0.585   1.627 -0.3357  0.1318 -0.2514
 6281SOL    HW130479   3.907   0.577   1.533 -0.9015 -2.1427 -0.1593
 6281SOL    HW230480   3.921   0.674   1.643 -0.0889 -0.0949  0.4911
 6282SOL     OW30481   3.822   1.560  13.024 -0.8412  0.0993 -0.8521
 6282SOL    HW130482   3.798   1.617  13.097  0.0357  1.3679 -1.5554
 6282SOL    HW230483   3.915   1.553  13.043 -0.7376 -0.8960 -1.7367
 6283SOL     OW30484   0.622   0.730  15.279  0.2885 -0.2842  0.2145
 6283SOL    HW130485   0.697   0.680  15.311 -0.7000 -2.4682 -0.8958
 6283SOL    HW230486   0.580   0.670  15.217  0.1000 -1.8043  1.8172
 6284SOL     OW30487   2.831   1.327   1.345  0.5055 -0.4079 -0.0771
 6284SOL    HW130488   2.840   1.422   1.340 -1.4490 -0.3118 -1.6286
 6284SOL    HW230489   2.920   1.298   1.365  0.6046 -1.1687 -1.5920
 6285SOL     OW30490   1.809   0.112   8.881 -0.2989 -0.0164 -0.1207
 6285SOL    HW130491   1.726   0.073   8.907  0.3369 -0.9638  0.5250
 6285SOL    HW230492   1.784   0.169   8.808 -0.7132  0.8662  0.7196
 6286SOL     OW30493   4.364   1.937  17.448 -0.3499 -0.3481  0.2285
 6286SOL    HW130494   4.277   1.903  17.469  1.0924 -3.3906  1.2210
 6286SOL    HW230495   4.381   1.903  17.360  0.2751  0.2836  0.1003
 6287SOL     OW30496   3.983   3.678   1.631  0.3358  0.0995  0.3999
 6287SOL    HW130497   4.070   3.647   1.606 -0.6121 -1.4155 -1.0809
 6287SOL    HW230498   4.011   3.729   1.706 -0.3820  1.8935 -0.5564
 6288SOL     OW30499   0.429   3.817   6.965 -0.2139  0.3888 -0.7635
 6288SOL    HW130500   0.405   3.742   7.020 -0.3112  1.2873  0.4456
 6288SOL    HW230501   0.521   3.829   6.987 -0.8690 -1.2981  3.0049
 6289SOL     OW30502   0.642   3.279  10.960  0.0864 -0.5179  0.0064
 6289SOL    HW130503   0.698   3.354  10.978 -1.2009  0.9853 -2.3233
 6289SOL    HW230504   0.614   3.293  10.870  0.9352  1.3049  0.0294
 6290SOL     OW30505   4.112   1.727   4.602  0.5247  0.3398 -0.2643
 6290SOL    HW130506   4.100   1.809   4.650  0.5965 -1.5244  2.9883
 6290SOL    HW230507   4.114   1.758   4.512 -0.2669  1.4768  0.1108
 6291SOL     OW30508   0.566   4.078  11.663  0.0579  0.3470  0.8719
 6291SOL    HW130509   0.547   4.164  11.698 -0.2248 -0.1697  1.9887
 6291SOL    HW230510   0.607   4.041  11.741  1.2544  0.2865  0.2223
 6292SOL     OW30511   1.041   0.988   5.219 -0.3818 -0.0306 -0.2430
 6292SOL    HW130512   1.059   1.039   5.298 -1.9704 -0.4613  0.4032
 6292SOL    HW230513   1.054   1.050   5.148  1.0690  0.6832  0.6689
 6293SOL     OW30514   0.770   0.005  12.453 -0.4275 -0.0867  0.2334
 6293SOL    HW130515   0.746   4.712  12.541 -0.8343 -0.1610  0.0978
 6293SOL    HW230516   0.863   4.725  12.465 -0.4079 -1.0772 -1.3055
 6294SOL     OW30517   2.731   1.320   3.620  0.2817  0.0490 -0.0956
 6294SOL    HW130518   2.659   1.266   3.589 -0.1415  1.5007 -1.5780
 6294SOL    HW230519   2.782   1.344   3.543  1.9434 -1.8862  0.3808
 6295SOL     OW30520   0.603   2.727   3.178  0.1984  0.6046  0.0045
 6295SOL    HW130521   0.618   2.780   3.256  1.5609 -0.0607  0.1866
 6295SOL    HW230522   0.519   2.684   3.195  0.2375  0.4125 -0.2917
 6296SOL     OW30523   4.405   0.666   8.956 -0.0108  0.5927  0.2041
 6296SOL    HW130524   4.484   0.642   9.005 -0.4645  0.2531  0.7794
 6296SOL    HW230525   4.336   0.613   8.995  1.7163 -2.4170 -0.8343
 6297SOL     OW30526   2.383   3.854   7.267 -0.4734  0.2873  0.5742
 6297SOL    HW130527   2.453   3.920   7.268 -1.6625  1.5552 -1.2105
 6297SOL    HW230528   2.390   3.829   7.175  0.1815  0.5365  0.5555
 6298SOL     OW30529   1.667   4.557   7.659 -0.4933  0.2084 -0.2660
 6298SOL    HW130530   1.722   4.500   7.606  0.9881  0.3310  1.1482
 6298SOL    HW230531   1.732   4.606   7.710 -1.8212  1.6652  0.0368
 6299SOL     OW30532   3.797   2.753   5.182 -0.2354 -0.4512 -0.5744
 6299SOL    HW130533   3.734   2.741   5.111  0.1105 -0.8281 -0.8185
 6299SOL    HW230534   3.860   2.807   5.134  1.2407 -1.7296 -0.0734
 6300SOL     OW30535   3.595   1.365   3.015 -0.4097  0.4128 -0.6137
 6300SOL    HW130536   3.540   1.437   3.044  1.0715  1.1223  0.4260
 6300SOL    HW230537   3.539   1.287   3.017  0.9422 -0.5186  0.3323
 6301SOL     OW30538   0.173   3.426   2.911  0.5087 -0.6079  0.0899
 6301SOL    HW130539   0.101   3.433   2.973  0.9390  0.1662  0.5046
 6301SOL    HW230540   0.249   3.450   2.964  1.2086  1.8366 -2.0241
 6302SOL     OW30541   4.433   3.027   0.481 -0.2229  0.1224 -0.0584
 6302SOL    HW130542   4.398   2.949   0.437  0.0481  0.2936 -0.5742
 6302SOL    HW230543   4.513   2.998   0.524 -1.3249 -2.2538  0.3885
 6303SOL     OW30544   0.553   1.677   4.568 -0.3305 -0.0098  0.1812
 6303SOL    HW130545   0.537   1.707   4.478  1.5109  0.7422  0.1103
 6303SOL    HW230546   0.463   1.690   4.599 -0.2331  0.5119  0.2416
 6304SOL     OW30547   3.935   4.236   6.820 -0.3974 -0.1323  0.4549
 6304SOL    HW130548   3.885   4.162   6.857 -0.1031  0.6255  2.3971
 6304SOL    HW230549   3.925   4.219   6.727 -1.6412  0.9395  0.3819
 6305SOL     OW30550   3.650   2.457  15.114  0.3454  0.0690 -0.0568
 6305SOL    HW130551   3.627   2.548  15.097  0.5582  0.1720  0.2096
 6305SOL    HW230552   3.588   2.426  15.179 -1.3593 -1.5903 -2.4471
 6306SOL     OW30553   3.642   1.838   4.122 -0.3502  0.1106  0.0542
 6306SOL    HW130554   3.612   1.924   4.092 -0.4571  0.1778  0.3575
 6306SOL    HW230555   3.656   1.857   4.215 -0.1838  0.0660  0.0378
 6307SOL     OW30556   3.909   2.991  12.289 -0.1273  0.0573  0.2823
 6307SOL    HW130557   3.983   2.984  12.350 -0.6768  0.5400  1.0111
 6307SOL    HW230558   3.889   2.898  12.277 -0.0341 -0.1096  1.4297
 6308SOL     OW30559   1.846   2.734   3.053  0.0246 -0.4395 -0.0191
 6308SOL    HW130560   1.760   2.733   3.012 -1.3206 -1.1286  2.7941
 6308SOL    HW230561   1.850   2.817   3.101  0.5098 -0.0664 -0.7036
 6309SOL     OW30562   4.493   1.393   2.128 -0.0292  0.5742 -0.1754
 6309SOL    HW130563   4.541   1.421   2.050 -0.0574  1.3439  0.0747
 6309SOL    HW230564   4.486   1.476   2.176  1.8360 -0.6724  2.2997
 6310SOL     OW30565   4.210   1.082  11.671  1.4418  0.2440 -0.3356
 6310SOL    HW130566   4.225   1.002  11.621 -0.3408  0.5032 -1.2815
 6310SOL    HW230567   4.273   1.065  11.741 -0.9200 -0.8049  1.5214
 6311SOL     OW30568   1.095   2.880   6.135 -0.2059 -0.1882 -0.6513
 6311SOL    HW130569   1.100   2.785   6.122 -0.6209 -0.5814  2.0147
 6311SOL    HW230570   1.039   2.905   6.061 -0.4136 -0.3458 -0.5458
 6312SOL     OW30571   0.002   0.565   9.523 -0.4817  0.7665  0.2233
 6312SOL    HW130572   4.713   0.554   9.614 -1.7257 -0.1845 -0.2345
 6312SOL    HW230573   4.709   0.485   9.478  1.6978  0.9163 -1.5187
 6313SOL     OW30574   0.939   2.476  16.833  0.5181 -0.4162 -0.2973
 6313SOL    HW130575   0.876   2.490  16.762  0.9883 -0.1199 -0.6528
 6313SOL    HW230576   0.903   2.399  16.877  1.8972 -1.3719 -0.8635
 6314SOL     OW30577   3.043   1.006   9.722  0.1912  0.2347 -0.2059
 6314SOL    HW130578   3.117   1.068   9.724 -0.4010  0.9362 -0.0551
 6314SOL    HW230579   3.077   0.938   9.779 -1.5987 -2.0057 -1.8378
 6315SOL     OW30580   3.276   0.335  15.742 -0.4343 -0.3002  0.0905
 6315SOL    HW130581   3.225   0.255  15.753 -1.5866  0.1108 -2.3025
 6315SOL    HW230582   3.339   0.341  15.814 -0.0987  1.6303 -0.3562
 6316SOL     OW30583   3.002   2.957  14.741 -0.5543 -0.1359  0.0165
 6316SOL    HW130584   2.928   2.899  14.726  0.7543 -1.4670 -1.3028
 6316SOL    HW230585   3.070   2.895  14.767  0.1822  1.0673  0.9745
 6317SOL     OW30586   2.599   2.406   2.114 -0.1129  0.1510 -0.4632
 6317SOL    HW130587   2.593   2.311   2.116  1.6645  0.0703  1.1516
 6317SOL    HW230588   2.654   2.429   2.189  0.9458 -1.9619 -0.5864
 6318SOL     OW30589   3.930   2.592   2.996 -0.4518 -0.3375 -0.0800
 6318SOL    HW130590   3.840   2.585   2.965 -0.3033 -1.3561 -0.2836
 6318SOL    HW230591   3.971   2.628   2.917  0.7373  0.7713  1.0456
 6319SOL     OW30592   2.539   4.576   3.119  0.5669 -0.0499 -0.0319
 6319SOL    HW130593   2.630   4.584   3.091  1.3314 -1.3353  2.0465
 6319SOL    HW230594   2.507   4.666   3.119 -1.7083 -0.8758  1.8275
 6320SOL     OW30595   0.549   4.322   4.988  0.3216  0.1584  0.0128
 6320SOL    HW130596   0.479   4.367   5.035 -1.8185 -2.0975 -1.0140
 6320SOL    HW230597   0.628   4.342   5.039 -0.1059 -0.0460  0.7642
 6321SOL     OW30598   3.423   2.380  13.018  0.5043  0.4912  0.5041
 6321SOL    HW130599   3.439   2.447  13.085 -0.8232  1.2864  0.0351
 6321SOL    HW230600   3.382   2.429  12.946  1.2187  0.0462 -0.2008
 6322SOL     OW30601   4.145   4.368  12.185  0.2977  1.0144  0.3591
 6322SOL    HW130602   4.160   4.422  12.108  1.2664 -0.6568 -0.6287
 6322SOL    HW230603   4.234   4.348  12.213  1.1338  4.0311 -0.1643
 6323SOL     OW30604   1.002   2.971   8.530 -0.0257  0.2944  0.1420
 6323SOL    HW130605   1.071   2.946   8.591 -0.2474 -0.7120 -0.0172
 6323SOL    HW230606   0.927   2.913   8.545 -1.0613  1.2816 -1.1360
 6324SOL     OW30607   3.540   1.621   4.351  0.0809 -1.0491  0.5130
 6324SOL    HW130608   3.595   1.696   4.374 -0.6436 -0.5027  0.4476
 6324SOL    HW230609   3.462   1.628   4.406 -0.9309 -0.8896 -0.9305
 6325SOL     OW30610   1.678   1.599   8.613 -0.4927 -0.0348  0.1793
 6325SOL    HW130611   1.633   1.519   8.587 -0.0567  0.8627 -3.3882
 6325SOL    HW230612   1.680   1.649   8.530  0.3191  1.1973  0.9305
 6326SOL     OW30613   1.473   3.418   9.991 -0.8971 -0.0103  0.1631
 6326SOL    HW130614   1.402   3.408  10.054 -0.6903  0.9401  0.5479
 6326SOL    HW230615   1.508   3.502  10.019 -1.5334 -0.4046  2.1822
 6327SOL     OW30616   4.348   2.139   4.304  0.4374  0.0062  0.3220
 6327SOL    HW130617   4.377   2.157   4.214  0.8898 -2.9201 -0.1130
 6327SOL    HW230618   4.264   2.185   4.306 -0.0993 -1.0568  1.7024
 6328SOL     OW30619   1.556   3.427   8.170  0.1019  0.0590  0.2847
 6328SOL    HW130620   1.567   3.336   8.196 -0.5501  0.6135  2.5183
 6328SOL    HW230621   1.495   3.427   8.096 -0.4702  1.3115  0.7561
 6329SOL     OW30622   4.146   2.998   5.804 -0.1446 -0.1191 -0.4393
 6329SOL    HW130623   4.209   2.952   5.860 -1.5467 -0.5703  0.7793
 6329SOL    HW230624   4.139   3.080   5.853 -1.2584 -1.6623  2.0348
 6330SOL     OW30625   2.101   4.257   5.578  0.4598  0.5204 -0.1106
 6330SOL    HW130626   2.019   4.231   5.621  1.2487 -0.3031  0.8888
 6330SOL    HW230627   2.076   4.265   5.486 -2.0336  0.7938  0.5869
 6331SOL     OW30628   2.980   1.042  13.828  0.4152 -0.1790 -0.4947
 6331SOL    HW130629   2.889   1.072  13.824 -0.3183 -2.3454  0.0306
 6331SOL    HW230630   3.001   1.056  13.921  0.2307 -0.5372 -0.3982
 6332SOL     OW30631   4.494   1.782   5.065 -0.0861 -0.1986 -0.4693
 6332SOL    HW130632   4.531   1.789   4.977  2.6536  0.7082  0.7508
 6332SOL    HW230633   4.416   1.728   5.057 -0.3524  0.1593 -0.3080
 6333SOL     OW30634   3.236   3.666   7.015 -0.2288 -0.3216 -0.6853
 6333SOL    HW130635   3.148   3.631   7.006 -0.7504  0.4028  1.5762
 6333SOL    HW230636   3.299   3.595   7.001  0.6364  0.3238 -0.0636
 6334SOL     OW30637   2.680   4.644  17.501  0.3217  0.0996  0.0721
 6334SOL    HW130638   2.686   4.551  17.524  2.6401 -0.1262 -1.4962
 6334SOL    HW230639   2.633   4.677  17.578 -1.8497 -0.5408 -0.9829
 6335SOL     OW30640   3.885   3.826  17.396  0.2539 -0.1074 -0.2223
 6335SOL    HW130641   3.966   3.810  17.348  0.7623  0.3304  0.4983
 6335SOL    HW230642   3.875   3.739  17.435  0.9592 -0.6706 -1.2885
 6336SOL     OW30643   4.681   4.250   3.943 -0.4325  0.3016 -0.1854
 6336SOL    HW130644   4.699   4.270   4.035  0.1021 -2.6112  0.3612
 6336SOL    HW230645   4.634   4.328   3.914  2.3928  2.4050  0.8572
 6337SOL     OW30646   0.289   4.072  17.033 -0.1112 -0.0564 -0.1486
 6337SOL    HW130647   0.370   4.089  17.081  0.2903  0.5497 -1.0469
 6337SOL    HW230648   0.306   3.982  17.007 -0.7748 -0.2274  0.0039
 6338SOL     OW30649   0.160   1.328   6.540 -0.1078 -0.5909  0.1467
 6338SOL    HW130650   0.131   1.369   6.458  0.8168  3.6130  1.9329
 6338SOL    HW230651   0.256   1.333   6.534 -0.1433  0.1620  0.2313
 6339SOL     OW30652   0.738   0.989   9.141  0.4713  0.3900  0.4478
 6339SOL    HW130653   0.799   0.916   9.132  0.1102  0.3657 -1.8239
 6339SOL    HW230654   0.755   1.026   9.054  1.0487 -1.9133 -0.4269
 6340SOL     OW30655   4.185   3.121   2.527  0.3956  0.3752  0.4847
 6340SOL    HW130656   4.131   3.042   2.532  0.8898  0.0918  1.3561
 6340SOL    HW230657   4.163   3.162   2.444 -2.0803  0.8825  1.3977
 6341SOL     OW30658   0.831   3.467  12.751 -0.1602  0.2915 -0.1550
 6341SOL    HW130659   0.802   3.475  12.660  0.0775  3.7565  0.0793
 6341SOL    HW230660   0.765   3.509  12.806 -0.9239 -0.9479 -0.1369
 6342SOL     OW30661   3.327   3.239   8.197 -0.3394 -0.1429  0.3662
 6342SOL    HW130662   3.312   3.197   8.112  0.7408  2.1151 -0.9540
 6342SOL    HW230663   3.418   3.214   8.209  0.0947  1.2266  0.0036
 6343SOL     OW30664   3.106   2.168   6.856  0.4049 -0.0618  0.0319
 6343SOL    HW130665   3.162   2.241   6.881  0.3081  1.5098 -4.3455
 6343SOL    HW230666   3.117   2.169   6.761 -3.2646  0.0146 -0.3608
 6344SOL     OW30667   0.197   3.267   3.129 -0.4342 -0.0083 -0.0198
 6344SOL    HW130668   0.139   3.243   3.057  1.3388 -0.4279 -1.3155
 6344SOL    HW230669   0.145   3.231   3.201 -1.5681  1.0507 -0.3107
 6345SOL     OW30670   1.056   3.234   5.707 -0.6524  0.2099  0.4391
 6345SOL    HW130671   1.141   3.221   5.750 -0.7698  2.1676  1.2546
 6345SOL    HW230672   1.032   3.323   5.731 -1.1564  0.0144  0.6508
 6346SOL     OW30673   3.787   1.828   7.494 -0.4986 -0.6737  0.5362
 6346SOL    HW130674   3.844   1.791   7.562  1.3782 -1.3371 -1.4008
 6346SOL    HW230675   3.729   1.875   7.554  0.1740  1.5337 -0.5299
 6347SOL     OW30676   0.830   1.845   1.598  0.2998 -0.2261 -0.1736
 6347SOL    HW130677   0.862   1.785   1.665 -0.2504  0.8098  1.0317
 6347SOL    HW230678   0.868   1.810   1.518 -0.2197  0.9456 -0.9294
 6348SOL     OW30679   2.871   3.989   8.214  0.6314 -0.7464 -0.0626
 6348SOL    HW130680   2.942   3.953   8.161  2.2776  3.6833 -0.8053
 6348SOL    HW230681   2.817   4.028   8.145 -0.0500 -0.2139  0.7800
 6349SOL     OW30682   2.749   3.580   8.781 -0.2780 -0.0180  0.3756
 6349SOL    HW130683   2.756   3.609   8.690 -0.7662 -4.4461 -1.0411
 6349SOL    HW230684   2.729   3.487   8.770 -1.1843  0.1005  1.0186
 6350SOL     OW30685   1.064   0.442   2.973  0.3764  0.1408  0.3600
 6350SOL    HW130686   1.079   0.528   3.011  0.8531  0.1919  0.0580
 6350SOL    HW230687   1.146   0.396   2.991 -0.1274 -0.6670  0.6140
 6351SOL     OW30688   3.509   3.822   7.702 -0.7658  0.0598  0.7586
 6351SOL    HW130689   3.530   3.900   7.650 -2.3094  0.4377  0.6937
 6351SOL    HW230690   3.429   3.841   7.752 -0.6421  1.4231  0.4342
 6352SOL     OW30691   4.644   3.715   2.234 -0.8667  0.2264  0.3000
 6352SOL    HW130692   4.715   3.668   2.278  0.0121 -1.0772 -2.4968
 6352SOL    HW230693   4.662   3.800   2.275 -0.5498  0.0210  0.5816
 6353SOL     OW30694   3.866   4.361  17.374 -0.5540  0.4621  0.1540
 6353SOL    HW130695   3.818   4.394  17.299 -1.9430 -0.1181  0.7733
 6353SOL    HW230696   3.863   4.265  17.373 -1.1302  0.4829 -0.0567
 6354SOL     OW30697   4.094   3.396   6.285 -0.5378 -0.3184  0.0550
 6354SOL    HW130698   4.169   3.388   6.343 -2.3738 -1.0043  2.2968
 6354SOL    HW230699   4.032   3.425   6.351  0.7411  2.4937  0.0325
 6355SOL     OW30700   1.832   4.253   9.614 -0.2887  0.0103  0.0409
 6355SOL    HW130701   1.784   4.305   9.549  0.5869  1.8864  0.8978
 6355SOL    HW230702   1.913   4.303   9.618  0.5494 -1.5540  2.5950
 6356SOL     OW30703   1.762   3.999  17.155 -0.1610 -0.1263  0.6746
 6356SOL    HW130704   1.782   4.088  17.127 -0.4953 -0.4363 -0.5353
 6356SOL    HW230705   1.846   3.958  17.134 -0.7786 -0.2250 -1.6561
 6357SOL     OW30706   1.408   1.672   4.013  0.1246 -0.1059 -0.2507
 6357SOL    HW130707   1.501   1.654   3.995  0.1856 -0.2046  0.1504
 6357SOL    HW230708   1.401   1.752   4.065 -1.4701 -0.4663  0.0775
 6358SOL     OW30709   1.966   0.348  15.768  0.3606 -0.3884 -0.3308
 6358SOL    HW130710   1.993   0.378  15.681 -1.0786  1.4663 -0.1338
 6358SOL    HW230711   1.871   0.338  15.753  0.1320  1.4984 -0.0911
 6359SOL     OW30712   1.272   3.977   7.727 -0.4699  0.1595  0.2167
 6359SOL    HW130713   1.197   3.973   7.668  0.6653  1.8384 -1.2996
 6359SOL    HW230714   1.231   3.972   7.814  3.9306 -1.0861  2.2113
 6360SOL     OW30715   3.569   1.412   4.569 -0.3461  0.0365  0.1050
 6360SOL    HW130716   3.649   1.361   4.559 -0.1336  0.1773  1.1335
 6360SOL    HW230717   3.563   1.453   4.483  0.4760 -1.0609 -0.4815
 6361SOL     OW30718   1.443   3.408   8.587  0.1083  0.2198 -0.8672
 6361SOL    HW130719   1.428   3.455   8.504  1.3065  1.1119 -0.5879
 6361SOL    HW230720   1.512   3.459   8.630 -0.4359 -0.1391  0.4278
 6362SOL     OW30721   0.398   2.723   8.376  0.2803 -0.2131  0.1909
 6362SOL    HW130722   0.482   2.698   8.415 -0.2669 -0.7085  1.0364
 6362SOL    HW230723   0.337   2.718   8.450 -0.3680 -0.1355 -0.3420
 6363SOL     OW30724   3.984   2.140  15.535  0.1747 -0.2474  0.2840
 6363SOL    HW130725   4.071   2.102  15.524  0.5821 -0.2496  3.4963
 6363SOL    HW230726   3.982   2.184  15.450  1.1668  0.4397  0.6139
 6364SOL     OW30727   1.756   3.992  14.513 -0.3453 -0.6935 -0.3695
 6364SOL    HW130728   1.691   4.025  14.451  1.8703 -0.0183 -2.3262
 6364SOL    HW230729   1.699   3.965  14.585 -0.7752 -0.1110 -0.4848
 6365SOL     OW30730   0.143   4.253   5.694 -0.1672  0.3464 -0.5807
 6365SOL    HW130731   0.114   4.343   5.679  2.6174  1.2705 -0.3920
 6365SOL    HW230732   0.116   4.241   5.786  0.7703 -0.5362 -0.4183
 6366SOL     OW30733   4.287   2.614  11.625 -0.3371  0.0558  0.0277
 6366SOL    HW130734   4.268   2.559  11.549  1.1477 -1.3418  0.6592
 6366SOL    HW230735   4.289   2.552  11.698 -0.2321  0.0040 -0.0184
 6367SOL     OW30736   2.742   3.739  17.521  0.4373 -0.0167 -0.2417
 6367SOL    HW130737   2.821   3.738  17.574  0.3578  1.4758 -0.1017
 6367SOL    HW230738   2.761   3.814  17.464  0.3297 -0.6576 -1.1316
 6368SOL     OW30739   0.499   0.268   9.187  0.2601 -0.3880 -0.1558
 6368SOL    HW130740   0.523   0.236   9.273 -1.7246 -1.4745 -0.0193
 6368SOL    HW230741   0.572   0.330   9.175 -0.4639 -0.0185 -2.7100
 6369SOL     OW30742   0.917   3.563   1.643 -0.4275  0.4313  0.1166
 6369SOL    HW130743   0.974   3.627   1.686 -0.4527  0.7505 -0.3243
 6369SOL    HW230744   0.968   3.519   1.575  1.6027  1.9036  0.6819
 6370SOL     OW30745   2.580   0.009   9.092 -0.7914  0.0494 -0.0383
 6370SOL    HW130746   2.530   0.007   9.010  1.9852 -1.3536 -1.6718
 6370SOL    HW230747   2.520   4.700   9.153 -0.4914  0.8239  0.8174
 6371SOL     OW30748   1.575   1.145  12.444  0.4852 -0.1388  0.1638
 6371SOL    HW130749   1.583   1.174  12.535  3.5882  1.4128 -0.6035
 6371SOL    HW230750   1.560   1.231  12.405  0.0289 -0.9712 -1.5041
 6372SOL     OW30751   2.410   0.013   8.122 -0.6839  0.4281  0.5402
 6372SOL    HW130752   2.327   4.704   8.107 -0.5518  0.5259 -0.5290
 6372SOL    HW230753   2.471   4.674   8.121  0.0273  1.0054  0.5474
 6373SOL     OW30754   0.570   2.155  11.692 -0.3032  0.1891  0.3707
 6373SOL    HW130755   0.607   2.067  11.681 -1.6776 -0.7410  2.9980
 6373SOL    HW230756   0.520   2.148  11.773 -0.5511 -2.8630 -0.0417
 6374SOL     OW30757   1.489   1.041   6.151 -0.0938 -0.0113 -0.1685
 6374SOL    HW130758   1.522   1.112   6.206  0.2920 -0.3308  0.0142
 6374SOL    HW230759   1.506   1.082   6.066 -0.2074  0.9351  0.2732
 6375SOL     OW30760   3.847   1.210   1.215  0.1039 -0.7843  0.1960
 6375SOL    HW130761   3.815   1.236   1.129 -1.1704  1.3568  1.3228
 6375SOL    HW230762   3.877   1.296   1.244 -1.2062  0.0654 -1.0405
 6376SOL     OW30763   4.283   0.991   2.102  0.4998 -0.3967 -0.8773
 6376SOL    HW130764   4.322   1.005   2.188 -0.8934 -2.4998  0.1000
 6376SOL    HW230765   4.303   1.069   2.050  0.0920  1.2841  1.5257
 6377SOL     OW30766   3.839   1.300   2.516 -0.0005  0.0750  0.4772
 6377SOL    HW130767   3.793   1.356   2.579 -3.0882 -0.5887 -1.1778
 6377SOL    HW230768   3.765   1.263   2.468 -0.3489  0.3096  0.8265
 6378SOL     OW30769   3.009   3.737  14.984  0.6415 -0.4299 -0.3210
 6378SOL    HW130770   2.965   3.652  14.992 -2.4013  1.1033 -0.8174
 6378SOL    HW230771   2.968   3.770  14.904  1.0513 -0.8941 -0.7246
 6379SOL     OW30772   1.542   3.318   3.041  0.0039  0.0262 -0.6062
 6379SOL    HW130773   1.533   3.392   3.101  0.7173 -0.3264 -0.0654
 6379SOL    HW230774   1.453   3.282   3.041  0.3512 -0.8298 -1.0166
 6380SOL     OW30775   1.419   3.761   9.097  0.5995  0.1294  0.1912
 6380SOL    HW130776   1.444   3.771   9.188  0.5891 -0.2829  0.2425
 6380SOL    HW230777   1.457   3.676   9.075 -1.7553 -0.7446 -0.5957
 6381SOL     OW30778   2.681   0.532   5.122 -0.8800 -0.6933  0.4068
 6381SOL    HW130779   2.610   0.498   5.066  0.7547 -0.0512 -2.0712
 6381SOL    HW230780   2.697   0.621   5.091  0.3858 -0.6821  1.1249
 6382SOL     OW30781   4.475   3.012   4.269  0.1354  0.2656  0.0901
 6382SOL    HW130782   4.552   2.966   4.236 -0.3988  0.6604 -1.7596
 6382SOL    HW230783   4.494   3.104   4.252  1.6910  0.2199  1.5924
 6383SOL     OW30784   2.165   4.151  16.113 -0.0383 -0.1290  0.6564
 6383SOL    HW130785   2.219   4.200  16.051 -1.7793  1.8054  0.6676
 6383SOL    HW230786   2.221   4.076  16.133  0.8100 -0.3250 -2.5166
 6384SOL     OW30787   1.861   1.647   1.248 -0.3570  0.1566  0.1526
 6384SOL    HW130788   1.815   1.638   1.165  0.4945 -0.2694 -0.2664
 6384SOL    HW230789   1.848   1.739   1.271  1.3599  1.0366 -2.4770
 6385SOL     OW30790   3.647   0.896  12.910  0.2488 -0.1061 -0.0279
 6385SOL    HW130791   3.734   0.896  12.950 -0.6395  1.8765  1.9503
 6385SOL    HW230792   3.656   0.848  12.828  1.6625 -2.0393  1.2875
 6386SOL     OW30793   4.196   1.572  12.336  0.1228 -0.0284 -0.4667
 6386SOL    HW130794   4.162   1.492  12.295 -0.6694 -0.6738  1.4239
 6386SOL    HW230795   4.214   1.545  12.427 -1.1303 -1.4615 -0.6347
 6387SOL     OW30796   4.341   4.413   8.193  0.7488 -0.3545  0.2483
 6387SOL    HW130797   4.422   4.458   8.171  0.3708  0.2901  0.1517
 6387SOL    HW230798   4.275   4.478   8.168  0.6603 -1.9814 -3.6348
 6388SOL     OW30799   1.403   4.399   4.954 -0.0749  0.0302  0.4876
 6388SOL    HW130800   1.489   4.367   4.980  1.4627  2.1484 -2.0137
 6388SOL    HW230801   1.420   4.407   4.860 -0.9972 -2.0049  0.1483
 6389SOL     OW30802   2.966   2.878   2.406 -0.3436 -0.3624 -0.5083
 6389SOL    HW130803   2.988   2.847   2.494  0.4703 -0.4826 -0.7503
 6389SOL    HW230804   3.030   2.949   2.409  0.2070 -0.9955  2.2741
 6390SOL     OW30805   0.163   0.712   4.140  0.7055 -0.3484  0.0007
 6390SOL    HW130806   0.101   0.770   4.185 -1.2026 -1.8002 -0.7479
 6390SOL    HW230807   0.106   0.649   4.096 -0.3369 -0.4268  1.4270
 6391SOL     OW30808   4.607   2.805   3.933 -0.6995  0.0349 -0.2273
 6391SOL    HW130809   4.621   2.811   4.027 -0.9499 -1.2579 -0.0958
 6391SOL    HW230810   4.531   2.863   3.927 -0.8188  0.1321  2.1224
 6392SOL     OW30811   4.469   4.328   6.235  0.2656  0.1833  0.2815
 6392SOL    HW130812   4.453   4.256   6.296  2.5855  1.8002  2.7919
 6392SOL    HW230813   4.548   4.299   6.189  0.1590  3.5773 -2.0612
 6393SOL     OW30814   3.213   2.363   7.631 -0.8805  0.3246 -0.3280
 6393SOL    HW130815   3.234   2.302   7.561  1.2912 -0.3225  0.9015
 6393SOL    HW230816   3.285   2.345   7.691 -1.4738  0.9298  0.5683
 6394SOL     OW30817   1.515   3.437   8.893  0.0950 -0.1002  0.6764
 6394SOL    HW130818   1.591   3.447   8.836 -0.4711 -2.0952 -0.4314
 6394SOL    HW230819   1.531   3.346   8.919 -1.0785 -0.9986 -1.7555
 6395SOL     OW30820   4.218   3.367   9.738 -0.1069 -0.3767  0.6013
 6395SOL    HW130821   4.301   3.413   9.743  0.1553 -0.7098 -0.5422
 6395SOL    HW230822   4.175   3.403   9.815 -1.5691  1.0721 -0.8737
 6396SOL     OW30823   1.999   4.173   7.620  0.0821 -0.2857 -0.1332
 6396SOL    HW130824   2.020   4.163   7.713 -2.1821 -0.3254  0.3647
 6396SOL    HW230825   2.034   4.089   7.592 -0.7705 -0.0632 -1.8388
 6397SOL     OW30826   0.229   1.065   7.831 -0.3141 -0.3557 -0.1668
 6397SOL    HW130827   0.167   1.113   7.776 -0.7435  0.8069  1.3497
 6397SOL    HW230828   0.217   1.099   7.920  0.3963 -0.3726 -0.0633
 6398SOL     OW30829   1.402   0.485   4.377  0.4838  0.2439 -0.2594
 6398SOL    HW130830   1.312   0.474   4.406  1.1264  1.0682  2.0852
 6398SOL    HW230831   1.403   0.580   4.377  0.6239  0.2415 -0.3929
 6399SOL     OW30832   3.320   1.774   8.465  0.0112 -0.0434 -0.4525
 6399SOL    HW130833   3.303   1.835   8.394  0.1722  1.8223  1.1275
 6399SOL    HW230834   3.239   1.724   8.454  0.6277 -1.2228  0.2863
 6400SOL     OW30835   1.216   3.731  10.889  0.3343  0.6362 -0.1139
 6400SOL    HW130836   1.277   3.804  10.903 -1.2455  1.8393  0.4577
 6400SOL    HW230837   1.140   3.754  10.943 -0.1314  0.4514 -0.6888
 6401SOL     OW30838   1.339   1.869   0.125 -0.1628  0.5952  0.2487
 6401SOL    HW130839   1.416   1.925   0.133  1.3411 -1.0634 -2.6538
 6401SOL    HW230840   1.297   1.906   0.047 -1.0522  1.7379  1.2765
 6402SOL     OW30841   3.963   0.410   0.413  0.0131  0.4651  0.1678
 6402SOL    HW130842   3.980   0.497   0.448  0.8324  0.3623  0.0369
 6402SOL    HW230843   4.028   0.354   0.456 -0.3325  0.5802  0.8340
 6403SOL     OW30844   0.670   2.617   4.391  0.2165 -0.4277  0.4153
 6403SOL    HW130845   0.761   2.621   4.363 -0.1696  1.0545 -0.6572
 6403SOL    HW230846   0.644   2.534   4.350  0.7622 -0.4964  0.2055
 6404SOL     OW30847   4.386   1.607   0.325 -0.6485  0.0883  0.9734
 6404SOL    HW130848   4.363   1.686   0.276  1.3987  0.1596  0.0937
 6404SOL    HW230849   4.310   1.595   0.381 -0.9306  1.1882  0.8289
 6405SOL     OW30850   4.327   3.744   5.642 -0.2822  0.2969 -0.1573
 6405SOL    HW130851   4.373   3.687   5.580 -0.5575  2.6499 -2.5155
 6405SOL    HW230852   4.336   3.830   5.602 -0.2879  0.1829 -0.4037
 6406SOL     OW30853   1.737   3.132  16.363  0.0042 -1.0030  0.6267
 6406SOL    HW130854   1.709   3.187  16.290 -0.3349 -2.7956 -0.5952
 6406SOL    HW230855   1.803   3.191  16.399  0.3305 -1.0558  0.1040
 6407SOL     OW30856   3.703   4.736  10.847 -0.0839  0.1101 -0.2700
 6407SOL    HW130857   3.738   4.693  10.770 -1.5227 -0.9520 -0.3253
 6407SOL    HW230858   3.723   0.089  10.818  0.6245  1.2162  3.6286
 6408SOL     OW30859   3.932   1.448   1.385  0.4342 -0.2064  0.3658
 6408SOL    HW130860   3.958   1.463   1.476 -0.5012  0.9515  0.4428
 6408SOL    HW230861   3.939   1.537   1.351 -1.6756 -0.0914  0.2505
 6409SOL     OW30862   1.245   4.114   5.144 -0.2966  0.5995 -0.2691
 6409SOL    HW130863   1.193   4.155   5.076 -2.4930  0.8173  1.5428
 6409SOL    HW230864   1.312   4.074   5.089  0.4616  1.2582  0.1728
 6410SOL     OW30865   3.163   1.001   6.202  0.3274  0.4447  0.0236
 6410SOL    HW130866   3.167   1.088   6.162 -1.7127  0.2981 -0.5090
 6410SOL    HW230867   3.135   1.027   6.289  1.0763  0.3026  0.3081
 6411SOL     OW30868   0.350   4.306  16.889  0.3657  0.3906 -0.2554
 6411SOL    HW130869   0.365   4.263  16.805  0.6114 -1.5484  0.7866
 6411SOL    HW230870   0.314   4.234  16.941 -1.1067  0.0052 -1.8103
 6412SOL     OW30871   0.100   1.182   9.060 -0.2413  0.3372  0.2833
 6412SOL    HW130872   0.195   1.174   9.059 -0.2141  0.6798  0.0346
 6412SOL    HW230873   0.082   1.181   9.154  0.9970  2.7020  0.5486
 6413SOL     OW30874   4.308   0.393   8.763 -0.3903  0.1735 -0.1750
 6413SOL    HW130875   4.401   0.404   8.744 -0.7426  0.3473 -1.8381
 6413SOL    HW230876   4.309   0.332   8.837 -3.8351 -1.3972 -1.4012
 6414SOL     OW30877   0.267   2.838   6.576 -0.0139 -0.1007 -0.0736
 6414SOL    HW130878   0.215   2.909   6.539  1.9534  1.1463 -0.4339
 6414SOL    HW230879   0.276   2.873   6.665  0.6300 -0.4897  0.0130
 6415SOL     OW30880   4.476   3.009   5.017 -0.4561  0.1411 -0.3730
 6415SOL    HW130881   4.488   3.102   5.038 -0.4675  0.3611 -1.3398
 6415SOL    HW230882   4.550   2.964   5.056 -1.8776 -2.1160 -0.2774
 6416SOL     OW30883   1.457   0.560   2.165  0.3984 -0.8209  0.7557
 6416SOL    HW130884   1.487   0.629   2.106 -1.3198  0.1316  1.0128
 6416SOL    HW230885   1.363   0.577   2.165  0.9625  2.3660  3.8080
 6417SOL     OW30886   2.986   1.274   2.445  0.5497 -0.4066 -0.0461
 6417SOL    HW130887   3.064   1.306   2.399 -1.1247  0.6408 -2.1743
 6417SOL    HW230888   2.971   1.188   2.404 -2.5602 -0.4060  1.0909
 6418SOL     OW30889   2.187   2.428   3.571 -0.3779  0.3802 -0.0249
 6418SOL    HW130890   2.166   2.338   3.546 -1.4046  0.8725 -0.9027
 6418SOL    HW230891   2.094   2.443   3.587 -0.4778 -0.2106 -0.0435
 6419SOL     OW30892   3.757   0.957   0.973 -0.4528 -0.5782  0.1986
 6419SOL    HW130893   3.708   0.994   1.047 -2.5476 -2.1109 -0.4078
 6419SOL    HW230894   3.731   0.865   0.982 -1.6491 -0.2957 -0.2745
 6420SOL     OW30895   1.738   3.982   5.468  0.0874 -0.1176 -0.6613
 6420SOL    HW130896   1.746   3.914   5.402 -0.1731  1.5086 -2.3637
 6420SOL    HW230897   1.803   3.968   5.537 -1.0698 -0.2998  0.3950
 6421SOL     OW30898   4.388   4.469  14.710 -0.2573  0.6553  0.4366
 6421SOL    HW130899   4.416   4.432  14.627  0.5713 -1.8057  1.8312
 6421SOL    HW230900   4.377   4.393  14.767  1.7214 -1.4888 -2.0453
 6422SOL     OW30901   0.953   2.542  10.660 -0.2405 -0.4590 -0.6906
 6422SOL    HW130902   0.918   2.525  10.572 -0.4142  1.5480 -1.0056
 6422SOL    HW230903   0.898   2.615  10.689  0.7805 -0.2958  0.7897
 6423SOL     OW30904   0.313   2.409   3.609 -0.1073  0.2660 -0.0856
 6423SOL    HW130905   0.269   2.341   3.556  1.9060 -0.3872 -0.9245
 6423SOL    HW230906   0.260   2.391   3.686  0.7480 -0.2643  0.3766
 6424SOL     OW30907   0.144   2.449   7.777  0.3484 -0.2924 -0.5401
 6424SOL    HW130908   0.108   2.483   7.859  0.4599  1.3805 -1.1988
 6424SOL    HW230909   0.106   2.504   7.710 -2.4704 -0.4488  0.9184
 6425SOL     OW30910   0.301   0.461   7.631 -0.6870 -0.0003 -0.0659
 6425SOL    HW130911   0.281   0.368   7.634  1.1532 -0.4300 -1.1825
 6425SOL    HW230912   0.215   0.500   7.647  0.0271  1.7372 -0.3928
 6426SOL     OW30913   2.957   4.621   1.425  0.5036 -0.1827  0.0438
 6426SOL    HW130914   2.873   4.580   1.405  0.0722 -1.1193  3.8315
 6426SOL    HW230915   2.968   4.589   1.514  1.1869  0.7755  0.3087
 6427SOL     OW30916   1.169   3.259   6.167  0.8561 -0.1761 -0.0088
 6427SOL    HW130917   1.232   3.329   6.178  0.6978 -0.3112  1.7243
 6427SOL    HW230918   1.202   3.200   6.235 -0.5390  0.7313  1.4508
 6428SOL     OW30919   2.232   1.951  14.842 -0.1869  0.1051 -0.3292
 6428SOL    HW130920   2.232   1.963  14.937 -0.0222  0.2356 -0.3436
 6428SOL    HW230921   2.257   1.859  14.831  3.1743  0.9049  0.5455
 6429SOL     OW30922   1.980   3.665   2.249  0.2009  0.1689 -0.5044
 6429SOL    HW130923   2.033   3.592   2.282 -1.5886 -1.9216 -2.2535
 6429SOL    HW230924   1.927   3.680   2.327 -0.4862  0.3877 -1.0130
 6430SOL     OW30925   4.404   1.087   5.772  0.1062  0.1827 -0.4150
 6430SOL    HW130926   4.322   1.079   5.722 -0.1532 -0.3322  0.1034
 6430SOL    HW230927   4.453   1.026   5.717 -1.0310 -0.5075 -0.6464
 6431SOL     OW30928   4.423   2.295   7.154 -0.2546 -0.2513 -0.1473
 6431SOL    HW130929   4.510   2.335   7.153  0.4204 -1.6737  1.1683
 6431SOL    HW230930   4.445   2.210   7.116 -0.4605  0.1285 -1.1211
 6432SOL     OW30931   2.293   4.143   9.155  0.7736  0.1835 -0.7768
 6432SOL    HW130932   2.351   4.092   9.213  0.3457  0.6525  0.0600
 6432SOL    HW230933   2.214   4.148   9.209  0.3187  0.8960 -1.5115
 6433SOL     OW30934   4.140   2.244   5.382  0.3052 -0.3583  0.2069
 6433SOL    HW130935   4.169   2.315   5.325  0.6500 -2.0493 -1.7284
 6433SOL    HW230936   4.070   2.205   5.330 -0.1438  0.9121 -0.1512
 6434SOL     OW30937   4.638   1.676   1.080 -0.5487  0.4799  0.0319
 6434SOL    HW130938   4.726   1.694   1.113  0.0856 -0.2882 -1.2327
 6434SOL    HW230939   4.600   1.760   1.106 -1.7075  0.1324 -0.5524
 6435SOL     OW30940   4.568   2.972   9.017 -0.0581  0.2544 -0.4967
 6435SOL    HW130941   4.581   2.921   9.098 -1.1184  0.0331 -0.4615
 6435SOL    HW230942   4.624   3.046   9.039  0.5278 -1.1203  2.6333
 6436SOL     OW30943   3.849   1.735   1.550  0.0207  0.2669 -0.2266
 6436SOL    HW130944   3.897   1.725   1.468 -0.5498 -1.1109 -0.4009
 6436SOL    HW230945   3.925   1.743   1.607 -0.0026  2.0511 -0.4593
 6437SOL     OW30946   1.453   0.098  16.999 -0.2544 -1.0592  0.4531
 6437SOL    HW130947   1.499   0.172  17.039 -2.5137  0.9770 -0.6992
 6437SOL    HW230948   1.473   0.016  17.043  2.1307  1.1526  3.4750
 6438SOL     OW30949   0.603   4.233   8.745 -0.4389  0.0880  0.0814
 6438SOL    HW130950   0.663   4.166   8.777  1.2190  0.4023 -2.3408
 6438SOL    HW230951   0.514   4.209   8.769 -0.4164 -0.4642 -0.3938
 6439SOL     OW30952   1.861   0.004   7.727  0.5670 -0.0852  0.3604
 6439SOL    HW130953   1.863   4.732   7.822 -0.7517 -0.5334  0.3377
 6439SOL    HW230954   1.888   0.094   7.708  0.4629 -0.4859 -1.6900
 6440SOL     OW30955   2.109   3.240   7.749  0.1723  0.1164 -0.2069
 6440SOL    HW130956   2.100   3.335   7.737  0.1487  0.0059 -1.0493
 6440SOL    HW230957   2.074   3.200   7.670 -0.9537  2.1220 -0.7377
 6441SOL     OW30958   4.211   3.461   7.493  0.5222  0.6152 -0.1517
 6441SOL    HW130959   4.119   3.457   7.469  0.1588 -1.8242  1.6867
 6441SOL    HW230960   4.231   3.377   7.452 -2.0341  0.9355 -1.9867
 6442SOL     OW30961   2.869   4.360  10.326 -0.3048  0.3129  0.5918
 6442SOL    HW130962   2.838   4.284  10.374  0.6080  1.0637  2.3500
 6442SOL    HW230963   2.821   4.432  10.368  1.9516  1.5362  1.0650
 6443SOL     OW30964   4.595   2.954   4.692 -0.4958  0.1052  0.2238
 6443SOL    HW130965   4.675   2.975   4.741  0.9885 -0.8114 -1.8299
 6443SOL    HW230966   4.614   3.012   4.619 -0.3710  1.6503  1.4763
 6444SOL     OW30967   0.892   2.229   8.496 -0.2150  0.4864  0.2766
 6444SOL    HW130968   0.917   2.286   8.424 -0.9846  0.5337  0.0488
 6444SOL    HW230969   0.828   2.168   8.459  1.4225 -0.1233 -1.5475
 6445SOL     OW30970   1.990   2.081   8.590 -0.2637  0.4966  0.7690
 6445SOL    HW130971   2.071   2.033   8.607 -0.9990 -0.3203  1.9212
 6445SOL    HW230972   1.975   2.055   8.499  1.6184  1.5127  0.1705
 6446SOL     OW30973   0.572   2.370   9.432 -0.0956 -0.3710 -0.2290
 6446SOL    HW130974   0.621   2.327   9.362  4.1055  0.5883  2.1648
 6446SOL    HW230975   0.572   2.311   9.507  0.8501  0.4954  0.4514
 6447SOL     OW30976   2.413   1.114   8.928 -0.1454  0.1246 -0.0001
 6447SOL    HW130977   2.457   1.198   8.925 -0.9709  0.5272 -0.8158
 6447SOL    HW230978   2.397   1.104   9.022  1.9945 -0.8578  0.2692
 6448SOL     OW30979   1.518   2.573   8.814  0.7092  0.3720 -0.0649
 6448SOL    HW130980   1.580   2.638   8.847  1.6664 -0.2759 -0.5615
 6448SOL    HW230981   1.483   2.540   8.897 -1.2504  1.6312 -0.4058
 6449SOL     OW30982   2.894   0.426   3.991  0.4021  0.0745  0.1225
 6449SOL    HW130983   2.808   0.423   3.950  1.2605 -1.8896 -1.5893
 6449SOL    HW230984   2.919   0.335   3.976 -0.4090 -0.2585  0.8294
 6450SOL     OW30985   3.692   3.809  14.996 -0.2805 -0.7397 -0.4355
 6450SOL    HW130986   3.610   3.829  14.951 -0.3589  0.5472  0.2780
 6450SOL    HW230987   3.707   3.719  14.968  0.4219 -0.4682 -0.9324
 6451SOL     OW30988   0.733   3.506   6.322 -0.2258 -0.2093  0.0973
 6451SOL    HW130989   0.689   3.590   6.307 -3.6110 -1.6134  2.1052
 6451SOL    HW230990   0.788   3.537   6.394 -2.4035  0.3457  1.5137
 6452SOL     OW30991   4.723   1.752  13.535 -0.1867 -0.6126  0.0280
 6452SOL    HW130992   4.689   1.701  13.609 -1.9713 -0.4994 -0.7122
 6452SOL    HW230993   0.020   1.830  13.579  1.9655 -1.4611 -0.1046
 6453SOL     OW30994   0.268   2.924  11.388 -0.2672 -0.7448  0.4608
 6453SOL    HW130995   0.205   2.996  11.393  0.6196  0.1939 -1.8517
 6453SOL    HW230996   0.294   2.909  11.479 -1.0531 -0.5110  0.7328
 6454SOL     OW30997   4.701   2.481   2.633 -0.3596 -0.0189 -0.2865
 6454SOL    HW130998   4.657   2.566   2.630  3.0737  1.6893 -1.5805
 6454SOL    HW230999   0.049   2.518   2.608 -0.8030  1.3952  0.3102
 6455SOL     OW31000   1.907   3.684   7.546 -0.3681 -0.9456 -0.4085
 6455SOL    HW131001   1.947   3.617   7.492  1.8864  1.3057 -1.5177
 6455SOL    HW231002   1.815   3.693   7.524 -0.0779  1.6873 -0.6081
 6456SOL     OW31003   3.303   1.860   4.238  0.3366  0.2286  0.3975
 6456SOL    HW131004   3.212   1.841   4.216 -0.0455 -1.8171  3.7959
 6456SOL    HW231005   3.316   1.851   4.333  0.1864 -1.7141  0.2333
 6457SOL     OW31006   3.464   2.468   6.014 -0.7082 -0.2671 -0.4707
 6457SOL    HW131007   3.476   2.479   5.920  3.7365 -1.8492 -0.0785
 6457SOL    HW231008   3.383   2.519   6.024 -0.2651  0.3833 -0.2003
 6458SOL     OW31009   3.490   2.965   1.547 -0.1615 -0.1515  0.4229
 6458SOL    HW131010   3.490   2.938   1.455  0.8216 -3.6612  1.4589
 6458SOL    HW231011   3.566   3.023   1.551 -0.6847  0.4805  1.2258
 6459SOL     OW31012   0.766   0.066   2.024  0.0699 -0.7513  0.0598
 6459SOL    HW131013   0.702   0.035   2.088  0.5236  0.3513  1.0613
 6459SOL    HW231014   0.781   4.722   1.975  1.0515 -0.4821 -0.0766
 6460SOL     OW31015   1.788   3.251   3.312  0.6075 -0.4286 -0.0315
 6460SOL    HW131016   1.878   3.281   3.322  0.2371  0.4073  0.7869
 6460SOL    HW231017   1.763   3.243   3.404 -0.1914  0.9313 -0.1346
 6461SOL     OW31018   3.832   0.344   6.202  0.0170  0.0403  0.4624
 6461SOL    HW131019   3.805   0.274   6.262 -0.8342  0.5130  0.6310
 6461SOL    HW231020   3.795   0.425   6.236  1.0333  0.3646  0.7946
 6462SOL     OW31021   2.875   3.243  17.437 -0.1710 -0.0404 -0.0448
 6462SOL    HW131022   2.911   3.281  17.356 -1.9819 -0.4827 -1.0565
 6462SOL    HW231023   2.822   3.319  17.460 -1.7411 -2.1110  3.0697
 6463SOL     OW31024   4.288   1.807   7.716 -0.2894  0.9455  0.1951
 6463SOL    HW131025   4.344   1.796   7.640 -0.3893  0.7716  0.1450
 6463SOL    HW231026   4.233   1.884   7.702 -2.4236 -0.2755  1.7207
 6464SOL     OW31027   2.639   4.107   0.540  0.3952  0.4983 -0.4126
 6464SOL    HW131028   2.671   4.068   0.622 -1.7127 -0.4313 -0.0419
 6464SOL    HW231029   2.703   4.173   0.511  3.1964 -1.5556  1.0229
 6465SOL     OW31030   3.102   4.433   7.564  0.1233 -0.0332  0.1968
 6465SOL    HW131031   3.188   4.428   7.605 -0.5072  1.2670  1.6603
 6465SOL    HW231032   3.075   4.508   7.616 -1.4706  0.8472 -1.8825
 6466SOL     OW31033   4.362   1.811   5.506  0.4902  0.1813  0.3282
 6466SOL    HW131034   4.328   1.788   5.420  1.3418  2.3394 -0.6059
 6466SOL    HW231035   4.455   1.788   5.499  0.5128  0.9800 -1.8426
 6467SOL     OW31036   3.433   2.959  10.337  0.5713 -0.5267 -0.2125
 6467SOL    HW131037   3.420   2.958  10.243  3.4095 -4.0503 -0.5622
 6467SOL    HW231038   3.458   2.870  10.364  2.8137  0.6406  1.6138
 6468SOL     OW31039   0.667   4.401  12.741  0.1527 -0.3988 -0.3305
 6468SOL    HW131040   0.661   4.339  12.813 -1.5272  2.3113  1.8477
 6468SOL    HW231041   0.758   4.428  12.755 -0.2247  0.4935  0.4152
 6469SOL     OW31042   4.377   4.170   5.842 -0.0533 -0.4871 -0.4827
 6469SOL    HW131043   4.285   4.154   5.859  0.0942  1.6118  2.4066
 6469SOL    HW231044   4.421   4.088   5.865 -1.0227 -0.2399  2.3368
 6470SOL     OW31045   3.045   3.305  14.097  0.2972  0.0860 -0.1107
 6470SOL    HW131046   2.996   3.266  14.169  2.5694 -0.0760  1.3713
 6470SOL    HW231047   2.998   3.387  14.082  0.5265  0.8455  3.2365
 6471SOL     OW31048   3.771   2.013  10.735 -0.3113  0.3147  0.4464
 6471SOL    HW131049   3.735   2.062  10.810  0.1930  1.9885 -0.4004
 6471SOL    HW231050   3.705   1.945  10.747 -3.3773  3.1715 -0.1444
 6472SOL     OW31051   2.046   0.681   6.028  0.4284  0.2069  0.5856
 6472SOL    HW131052   2.041   0.640   5.942 -1.1786 -0.8144  1.1700
 6472SOL    HW231053   1.958   0.673   6.063  0.6032  0.8761  1.1911
 6473SOL     OW31054   4.118   1.978   4.704 -0.2323  0.1030 -0.0194
 6473SOL    HW131055   4.075   2.000   4.787  1.6365 -0.7561  1.1542
 6473SOL    HW231056   4.206   1.972   4.741  0.5257  0.4995 -1.7809
 6474SOL     OW31057   0.809   0.351   6.096  0.6013  0.1715  0.2684
 6474SOL    HW131058   0.898   0.355   6.132  0.1257  1.0302  1.3509
 6474SOL    HW231059   0.811   0.264   6.057  0.0581  0.0779  0.4540
 6475SOL     OW31060   1.752   4.221   7.003 -0.0464  0.4858 -0.3072
 6475SOL    HW131061   1.758   4.235   6.909  0.3364 -0.2603 -0.3900
 6475SOL    HW231062   1.839   4.258   7.018  0.7524 -2.0383  1.3458
 6476SOL     OW31063   3.092   2.099  11.649  0.3366  0.0525  0.0210
 6476SOL    HW131064   3.071   2.121  11.558  1.4746 -0.0787 -0.2738
 6476SOL    HW231065   3.016   2.135  11.694  0.7301 -1.0024  1.5282
 6477SOL     OW31066   4.624   2.389   5.251 -0.3316  0.2663 -0.3252
 6477SOL    HW131067   4.641   2.414   5.160  1.2029 -0.8421 -0.3294
 6477SOL    HW231068   4.564   2.455   5.287  1.9733  1.4091  1.5015
 6478SOL     OW31069   3.560   1.927   3.804  0.2346  0.2484  0.2659
 6478SOL    HW131070   3.489   1.866   3.783 -0.4281  0.2222  2.6016
 6478SOL    HW231071   3.608   1.890   3.878 -0.5827  1.2954  1.3086
 6479SOL     OW31072   2.723   4.346  17.511  0.2110 -0.0045 -0.3253
 6479SOL    HW131073   2.726   4.294  17.431  2.6013 -0.6728  0.2003
 6479SOL    HW231074   2.650   4.304  17.558 -0.9920  0.1829 -2.0318
 6480SOL     OW31075   0.568   1.916  10.030 -0.0915  0.0973  0.1390
 6480SOL    HW131076   0.546   1.828   9.999  0.0676 -0.3134  1.1892
 6480SOL    HW231077   0.498   1.943  10.088  0.4020  1.6350  0.0028
 6481SOL     OW31078   3.706   2.576   9.896  0.3499  0.0006 -0.6294
 6481SOL    HW131079   3.661   2.604   9.816 -1.1553 -3.0757 -0.8383
 6481SOL    HW231080   3.721   2.485   9.871  0.9731 -0.5718  1.8209
 6482SOL     OW31081   2.930   4.005   7.854 -0.7186  0.2587 -0.4440
 6482SOL    HW131082   2.914   3.911   7.862 -0.2887  0.4172  2.2244
 6482SOL    HW231083   3.018   3.998   7.817 -0.6156 -1.3817  0.0985
 6483SOL     OW31084   0.185   3.960   7.943 -0.4959  0.3420 -0.6155
 6483SOL    HW131085   0.191   4.054   7.922  0.8104  0.4857  0.3999
 6483SOL    HW231086   0.119   3.964   8.012  0.0149 -0.9672 -0.0554
 6484SOL     OW31087   1.371   2.665   9.968 -0.1277  0.6557  0.1064
 6484SOL    HW131088   1.425   2.733  10.009 -0.8185  2.6052 -2.2279
 6484SOL    HW231089   1.428   2.642   9.895 -1.9146 -1.1030 -0.7246
 6485SOL     OW31090   3.301   2.726   2.502  0.0643  0.4140  0.6928
 6485SOL    HW131091   3.304   2.631   2.495 -1.0159  0.2934  1.8500
 6485SOL    HW231092   3.208   2.730   2.524  0.2038 -0.5292  1.4420
 6486SOL     OW31093   0.382   1.455  11.621  0.3923 -0.6148 -0.0307
 6486SOL    HW131094   0.426   1.540  11.618 -1.9753  0.5492 -1.6639
 6486SOL    HW231095   0.300   1.469  11.575  1.9884  0.9303 -2.3820
 6487SOL     OW31096   0.372   4.191   1.103 -0.2558  0.2850  0.3417
 6487SOL    HW131097   0.287   4.235   1.092 -1.1824 -1.3357  0.9805
 6487SOL    HW231098   0.422   4.253   1.156  1.9306 -0.6844 -0.6129
 6488SOL     OW31099   3.159   0.615   5.014  0.0081  0.3796  0.3670
 6488SOL    HW131100   3.131   0.611   5.105 -1.4626  1.8231 -0.0175
 6488SOL    HW231101   3.077   0.601   4.967 -0.5128 -1.5889  1.8988
 6489SOL     OW31102   3.308   1.745  13.255  0.2679  0.2050 -0.0697
 6489SOL    HW131103   3.387   1.791  13.282  1.4143 -1.0869 -1.2441
 6489SOL    HW231104   3.286   1.711  13.342 -0.1856  1.5069  0.3222
 6490SOL     OW31105   1.260   3.768   2.134  0.1457  0.1057 -0.0296
 6490SOL    HW131106   1.341   3.717   2.127  1.0220  1.3514  1.1001
 6490SOL    HW231107   1.247   3.785   2.040 -1.7539  0.6722  0.3284
 6491SOL     OW31108   0.079   3.502   5.729 -0.2583  0.1003  0.1382
 6491SOL    HW131109   0.157   3.491   5.673  0.9124  0.4191  1.7143
 6491SOL    HW231110   0.122   3.539   5.806 -0.1290  2.2110 -0.9374
 6492SOL     OW31111   0.102   2.229   7.554 -0.0313  0.4614  0.3881
 6492SOL    HW131112   0.067   2.272   7.475 -0.7932 -1.3976 -0.2801
 6492SOL    HW231113   0.128   2.294   7.619  2.4011 -0.9370  0.7830
 6493SOL     OW31114   0.360   0.503   2.747 -0.0357  0.1538 -0.0735
 6493SOL    HW131115   0.431   0.547   2.701  0.2668 -1.1135 -0.8397
 6493SOL    HW231116   0.319   0.475   2.665  0.7954 -0.9318 -0.1168
 6494SOL     OW31117   0.339   4.143  16.653 -0.0018 -0.1665  0.1516
 6494SOL    HW131118   0.271   4.076  16.651  0.2878 -0.4458 -0.4739
 6494SOL    HW231119   0.405   4.107  16.593 -0.3537  1.1884 -1.0435
 6495SOL     OW31120   0.072   0.682   2.623  0.4014 -0.4106 -0.6769
 6495SOL    HW131121   0.000   0.668   2.562  0.0242  1.5086 -0.6623
 6495SOL    HW231122   0.126   0.612   2.585  0.8120  0.3586 -1.5127
 6496SOL     OW31123   1.387   1.699   5.982 -0.2076 -0.4119  0.0454
 6496SOL    HW131124   1.337   1.656   5.911 -0.9849 -1.0317  0.9688
 6496SOL    HW231125   1.471   1.653   5.986 -0.8379 -1.4118  1.5388
 6497SOL     OW31126   2.722   0.001   5.656 -0.1673  0.5856 -0.9849
 6497SOL    HW131127   2.628   4.720   5.651 -0.0264 -0.7126  0.8669
 6497SOL    HW231128   2.757   4.651   5.635 -0.2275  0.6954 -1.5284
 6498SOL     OW31129   1.100   0.147   3.414 -0.1214 -0.3236  0.1042
 6498SOL    HW131130   1.141   0.202   3.347  0.2743  2.9186  3.0209
 6498SOL    HW231131   1.123   0.199   3.491  0.2856  0.9224 -0.8469
 6499SOL     OW31132   3.591   1.429  13.975 -0.7418  0.5661 -0.0388
 6499SOL    HW131133   3.598   1.517  13.938 -1.1475 -0.0877 -1.6567
 6499SOL    HW231134   3.597   1.371  13.899 -0.6216 -0.7167  0.9358
 6500SOL     OW31135   1.927   0.991  12.672  0.0924 -0.1805 -0.3776
 6500SOL    HW131136   1.982   0.948  12.737 -2.7960  0.3240  2.4181
 6500SOL    HW231137   1.898   1.071  12.716  0.0735 -0.9263  0.9452
 6501SOL     OW31138   3.784   0.356  17.019 -0.2349  0.1254  0.7159
 6501SOL    HW131139   3.833   0.285  17.061  0.1281 -0.1239 -0.1242
 6501SOL    HW231140   3.696   0.317  17.018 -1.0010  1.8880  0.4665
 6502SOL     OW31141   4.518   2.974   1.937 -0.2388  0.1274  0.1441
 6502SOL    HW131142   4.438   2.965   1.988 -0.6134  0.5277 -0.3757
 6502SOL    HW231143   4.511   2.905   1.871  0.2750  0.8246 -0.6287
 6503SOL     OW31144   4.701   4.297   5.163 -0.0435 -0.4951 -0.1248
 6503SOL    HW131145   4.611   4.329   5.165  0.8106  1.7804  1.9779
 6503SOL    HW231146   4.711   4.279   5.256  0.4087  0.8837  0.0900
 6504SOL     OW31147   1.398   2.630   8.332 -0.0522 -0.5255 -0.7948
 6504SOL    HW131148   1.320   2.584   8.300 -0.2182 -0.4570 -0.4935
 6504SOL    HW231149   1.380   2.628   8.426 -0.6889  1.8146 -0.8665
 6505SOL     OW31150   0.350   4.063   8.168  0.0824 -0.3235  0.8337
 6505SOL    HW131151   0.371   4.148   8.130 -1.0787 -1.1428 -1.6456
 6505SOL    HW231152   0.339   4.075   8.262 -1.8192 -1.1078  0.7114
 6506SOL     OW31153   4.103   3.894   7.307  0.3023  0.8199 -0.3797
 6506SOL    HW131154   4.084   3.932   7.222  3.8239  1.2554 -0.9906
 6506SOL    HW231155   4.019   3.856   7.331  1.0403 -1.5464 -1.5378
 6507SOL     OW31156   4.209   0.752  10.527  0.0862 -0.4116 -0.1169
 6507SOL    HW131157   4.178   0.748  10.436  0.7919  0.8782 -0.4120
 6507SOL    HW231158   4.126   0.798  10.544 -0.1213 -1.2461  1.1193
 6508SOL     OW31159   4.329   4.530   5.792  0.1204  0.2428 -0.0747
 6508SOL    HW131160   4.304   4.605   5.846 -3.5375 -0.6768 -0.4829
 6508SOL    HW231161   4.352   4.577   5.712  0.3959  0.8342  0.3491
 6509SOL     OW31162   0.048   2.451  16.634 -0.0965 -0.6290  0.5560
 6509SOL    HW131163   0.140   2.427  16.627  0.1451  1.0163 -2.1571
 6509SOL    HW231164   0.043   2.542  16.603 -2.7946 -0.9639 -0.0097
 6510SOL     OW31165   3.079   3.027   6.596 -0.4556  0.0707  0.0637
 6510SOL    HW131166   2.988   3.041   6.570 -0.9325 -0.1235  1.5957
 6510SOL    HW231167   3.072   3.078   6.676 -1.2038 -1.1915  0.8176
 6511SOL     OW31168   3.589   3.063  11.325 -0.1699 -0.3295  0.6357
 6511SOL    HW131169   3.519   3.109  11.280 -0.6841 -2.2901 -0.5636
 6511SOL    HW231170   3.646   3.040  11.252 -1.9573  0.8720 -1.1135
 6512SOL     OW31171   0.236   2.741   4.661  0.5221 -0.0774 -0.3983
 6512SOL    HW131172   0.216   2.654   4.696  0.8143  1.2016  2.9121
 6512SOL    HW231173   0.327   2.738   4.631 -0.0500 -0.6030 -2.1078
 6513SOL     OW31174   3.146   3.968   7.666 -0.2160  0.0138 -0.1271
 6513SOL    HW131175   3.124   3.941   7.577  0.0077 -2.0727  0.4255
 6513SOL    HW231176   3.176   3.881   7.694 -3.4180 -1.0969 -0.1488
 6514SOL     OW31177   3.199   2.422   7.973  0.1521  0.1544 -0.3235
 6514SOL    HW131178   3.139   2.497   7.976 -2.1536 -1.6666 -0.8721
 6514SOL    HW231179   3.173   2.379   8.054  1.3140 -0.7131 -0.4067
 6515SOL     OW31180   0.935   0.326   8.499  0.4464  0.0620 -0.1669
 6515SOL    HW131181   0.998   0.254   8.507  0.9379  0.2937 -1.8693
 6515SOL    HW231182   0.854   0.289   8.534  0.1196  0.1554 -0.8224
 6516SOL     OW31183   2.760   3.433   5.332 -0.7962  0.3516  0.5841
 6516SOL    HW131184   2.697   3.461   5.265 -1.0669  0.5458  0.9247
 6516SOL    HW231185   2.738   3.341   5.346 -2.4035  0.8012  0.9869
 6517SOL     OW31186   4.025   3.784   7.932  0.4839  0.3748  0.5848
 6517SOL    HW131187   4.106   3.833   7.917 -0.6767  0.9871 -3.6810
 6517SOL    HW231188   4.049   3.737   8.011  0.9144  0.5502  0.5572
 6518SOL     OW31189   0.034   1.186   2.612 -0.4736  0.1794  0.2855
 6518SOL    HW131190   0.027   1.101   2.655 -2.5885  0.7420  1.0363
 6518SOL    HW231191   0.007   1.237   2.688  0.1139 -0.4509  0.9142
 6519SOL     OW31192   4.643   0.291   7.337 -0.2320 -0.5002 -0.0760
 6519SOL    HW131193   4.671   0.240   7.261  1.0366  2.1093 -1.3441
 6519SOL    HW231194   4.690   0.372   7.318 -2.3208  0.7554  0.0826
 6520SOL     OW31195   1.242   2.070   6.397  0.2093 -0.4028  0.4062
 6520SOL    HW131196   1.239   1.976   6.380 -1.8603 -0.0231 -1.3102
 6520SOL    HW231197   1.188   2.097   6.323  1.5565 -1.7319 -1.0658
 6521SOL     OW31198   1.168   0.901  17.274 -0.6563  0.0735  0.0280
 6521SOL    HW131199   1.180   0.879  17.366  1.6731 -0.0295 -0.3069
 6521SOL    HW231200   1.117   0.823  17.253 -0.2935 -0.5510  1.4401
 6522SOL     OW31201   2.810   1.170   8.262 -0.8031  0.2775  0.6268
 6522SOL    HW131202   2.881   1.138   8.205  0.5048  2.4962  1.0112
 6522SOL    HW231203   2.811   1.095   8.320 -0.1706 -0.8731 -0.8691
 6523SOL     OW31204   3.317   2.654   3.069  0.3341 -0.1921 -0.2931
 6523SOL    HW131205   3.253   2.647   3.140 -1.0610 -0.6656 -1.5897
 6523SOL    HW231206   3.381   2.589   3.097  0.7106  1.2518  2.1460
 6524SOL     OW31207   2.029   2.188   2.896  0.3344 -0.6985  0.2490
 6524SOL    HW131208   2.088   2.262   2.909  1.1191 -1.0918 -1.0420
 6524SOL    HW231209   2.040   2.148   2.982 -0.5793  0.5039  0.9237
 6525SOL     OW31210   4.519   1.603   4.494  0.5313 -0.5734  0.0490
 6525SOL    HW131211   4.604   1.632   4.461  1.1186  1.4619  3.3605
 6525SOL    HW231212   4.476   1.570   4.415  1.3421 -1.2389 -0.1211
 6526SOL     OW31213   3.918   2.356   2.405 -0.1016  0.2940  0.4626
 6526SOL    HW131214   3.977   2.431   2.408 -0.0682  0.2522  0.9203
 6526SOL    HW231215   3.869   2.374   2.486 -1.2874  1.8603 -0.6079
 6527SOL     OW31216   1.418   2.764   2.770 -0.6795  0.5912  0.2232
 6527SOL    HW131217   1.461   2.740   2.688 -0.6763  0.6542  0.2061
 6527SOL    HW231218   1.403   2.856   2.746  0.1000 -0.5388 -4.5835
 6528SOL     OW31219   1.777   3.831   8.077 -0.0950  0.1137  0.4636
 6528SOL    HW131220   1.686   3.801   8.082 -0.6790  1.8740  0.4924
 6528SOL    HW231221   1.785   3.867   7.989  3.0254 -1.1070  0.2618
 6529SOL     OW31222   0.407   0.966   2.757  0.8904 -0.4795  0.3638
 6529SOL    HW131223   0.377   0.970   2.666  1.0485  1.5728  0.3906
 6529SOL    HW231224   0.333   0.920   2.795  0.5352 -0.5160 -0.3779
 6530SOL     OW31225   4.424   2.443   9.606  0.1436  0.1700 -0.2538
 6530SOL    HW131226   4.420   2.447   9.510  0.0878 -0.3461 -0.2705
 6530SOL    HW231227   4.480   2.366   9.620  1.0132  1.2573  2.2247
 6531SOL     OW31228   2.599   4.408  14.397  1.1573 -0.1103 -0.2981
 6531SOL    HW131229   2.674   4.468  14.401  0.2686  1.0670 -1.2067
 6531SOL    HW231230   2.636   4.326  14.430 -0.9578 -1.7217 -1.9240
 6532SOL     OW31231   4.080   1.104  13.452  0.2676  0.4339 -0.1206
 6532SOL    HW131232   3.998   1.146  13.426 -0.2738 -1.4471 -1.4263
 6532SOL    HW231233   4.149   1.171  13.455  0.9865 -0.1514 -3.6073
 6533SOL     OW31234   4.348   3.823   8.073 -0.0827 -0.1138  0.0070
 6533SOL    HW131235   4.285   3.757   8.046  0.7822 -1.4197  1.1221
 6533SOL    HW231236   4.307   3.844   8.158  2.4070 -1.1809  1.4732
 6534SOL     OW31237   2.902   0.426   9.008 -0.0279 -0.3771 -0.6294
 6534SOL    HW131238   2.813   0.407   8.979 -0.6892  1.7257  0.0390
 6534SOL    HW231239   2.934   0.341   9.038 -3.2426  0.1111  4.1314
 6535SOL     OW31240   4.475   1.436   7.892 -0.2442 -0.1366 -0.0897
 6535SOL    HW131241   4.422   1.423   7.813  0.6701 -2.2328 -0.3669
 6535SOL    HW231242   4.527   1.355   7.899 -0.7404 -0.1758  3.2396
 6536SOL     OW31243   0.735   0.276  10.921 -0.2373 -0.3499  0.2724
 6536SOL    HW131244   0.796   0.347  10.942 -0.7492  1.0069 -2.8398
 6536SOL    HW231245   0.713   0.281  10.828  1.6477  0.6305 -0.1187
 6537SOL     OW31246   4.629   1.379  16.844 -0.1945  0.2637 -0.5019
 6537SOL    HW131247   4.624   1.335  16.759  1.3720 -0.9500  0.0278
 6537SOL    HW231248   4.709   1.344  16.883 -0.0659  0.9332 -0.1686
 6538SOL     OW31249   2.532   2.881  11.882  0.0850 -0.7608 -0.0731
 6538SOL    HW131250   2.536   2.922  11.969 -2.1549 -0.9925  0.1295
 6538SOL    HW231251   2.461   2.931  11.842  1.1424  0.4081 -0.4731
 6539SOL     OW31252   4.474   2.162   4.767 -0.3555  0.6975 -0.1249
 6539SOL    HW131253   4.424   2.231   4.811 -1.0624  0.8826 -1.1970
 6539SOL    HW231254   4.544   2.207   4.721 -1.3021  0.4946 -1.7736
 6540SOL     OW31255   3.656   0.050   3.710 -0.1971 -0.1099  0.1152
 6540SOL    HW131256   3.673   0.141   3.686 -1.1234 -0.1577 -0.7038
 6540SOL    HW231257   3.585   0.027   3.650  0.4013  1.5572 -1.2405
 6541SOL     OW31258   2.150   1.931  13.453 -0.1989  0.4354 -0.0645
 6541SOL    HW131259   2.064   1.930  13.494 -0.3241  1.6860 -0.2998
 6541SOL    HW231260   2.197   1.890  13.526  3.3514  0.0237 -2.5926
 6542SOL     OW31261   1.306   1.052   1.293  0.3099  0.6346 -0.0501
 6542SOL    HW131262   1.334   1.009   1.212 -0.5205  2.5632 -1.3706
 6542SOL    HW231263   1.370   1.123   1.297 -1.0958  1.9272 -0.3703
 6543SOL     OW31264   0.147   1.655   8.081  0.5112 -0.0558  0.3110
 6543SOL    HW131265   0.152   1.718   8.009  1.8299 -0.4185  0.0879
 6543SOL    HW231266   0.070   1.688   8.128 -1.1456 -0.3444 -2.2259
 6544SOL     OW31267   2.971   3.300   2.613  0.1577  0.2897 -0.4432
 6544SOL    HW131268   2.963   3.395   2.606  0.8743  0.3114 -1.0127
 6544SOL    HW231269   2.980   3.292   2.708  1.2433 -2.8722 -0.8122
 6545SOL     OW31270   1.608   1.219  16.473  0.1422 -0.0520  1.2742
 6545SOL    HW131271   1.596   1.231  16.567  0.8558  0.6633  1.2713
 6545SOL    HW231272   1.658   1.137  16.466 -1.1156 -0.4703 -2.5153
 6546SOL     OW31273   3.378   1.499  14.525 -0.3357 -0.1554 -0.2350
 6546SOL    HW131274   3.383   1.416  14.478  1.3643 -0.5709  0.6879
 6546SOL    HW231275   3.326   1.555  14.467 -2.0464 -1.2384  0.2896
 6547SOL     OW31276   0.130   4.649   9.270 -0.0561  0.0222 -0.2118
 6547SOL    HW131277   0.093   4.684   9.351 -0.3413 -0.4681 -0.1280
 6547SOL    HW231278   0.139   4.731   9.221 -0.5258  0.6499  0.7563
 6548SOL     OW31279   1.122   2.228   4.532  0.1043 -0.2186 -0.9829
 6548SOL    HW131280   1.057   2.158   4.534 -1.0067  0.7996 -0.8875
 6548SOL    HW231281   1.069   2.295   4.576 -0.3375 -1.3880  0.2657
 6549SOL     OW31282   1.901   2.098   4.585 -0.4054  0.2244  0.3991
 6549SOL    HW131283   1.867   2.097   4.675 -0.1266  1.7090  0.5268
 6549SOL    HW231284   1.866   2.015   4.554  1.7401 -0.0584 -1.2955
 6550SOL     OW31285   0.056   1.602   0.633  0.0501 -0.0179 -0.3135
 6550SOL    HW131286   0.049   1.536   0.564  1.8607  1.1513 -1.6195
 6550SOL    HW231287   4.714   1.593   0.688  1.0149 -2.0126  0.6856
 6551SOL     OW31288   4.025   1.829  12.571 -0.1507 -0.0448 -0.7326
 6551SOL    HW131289   3.974   1.756  12.535 -1.0752  0.4604 -0.4427
 6551SOL    HW231290   3.975   1.896  12.525 -1.0168  0.8560  1.4993
 6552SOL     OW31291   2.949   2.361   6.590  0.4849 -0.2418 -0.3000
 6552SOL    HW131292   2.954   2.266   6.579 -1.3496 -0.6427  2.1013
 6552SOL    HW231293   2.857   2.373   6.614  0.2045 -2.3449 -0.3021
 6553SOL     OW31294   0.106   1.039   6.528 -0.1859 -0.7445  0.1671
 6553SOL    HW131295   0.092   1.111   6.590 -1.4687 -1.6162  0.8871
 6553SOL    HW231296   0.200   1.044   6.510  0.2625  1.4850  3.1677
 6554SOL     OW31297   0.231   0.944   3.363 -0.1445 -0.2015  0.1805
 6554SOL    HW131298   0.159   0.990   3.319  0.1461 -0.5043 -0.6118
 6554SOL    HW231299   0.190   0.882   3.422 -2.6805  0.2114 -1.1712
 6555SOL     OW31300   1.313   1.127   6.476 -0.0498 -0.0552  0.3794
 6555SOL    HW131301   1.377   1.179   6.428 -0.9950  0.4954 -0.2892
 6555SOL    HW231302   1.354   1.041   6.480 -0.9524 -0.5790 -1.5416
 6556SOL     OW31303   3.020   2.712  13.159  0.1123  0.2959 -0.2160
 6556SOL    HW131304   3.055   2.677  13.077 -1.3200 -1.7382  0.0399
 6556SOL    HW231305   2.998   2.625  13.192 -0.6754  0.7183  0.3607
 6557SOL     OW31306   2.139   4.122  12.644  0.5716 -0.0319  0.7453
 6557SOL    HW131307   2.205   4.065  12.606 -1.2871 -0.8236 -1.2667
 6557SOL    HW231308   2.167   4.206  12.609 -0.9433 -0.2873 -1.1087
 6558SOL     OW31309   3.210   1.709   9.893  0.1151 -0.1084 -0.0214
 6558SOL    HW131310   3.213   1.715   9.988 -1.0863  1.0147 -0.0500
 6558SOL    HW231311   3.262   1.786   9.869  1.2277 -1.3905 -1.7903
 6559SOL     OW31312   4.523   1.002  17.481 -0.2500 -0.4627  0.7740
 6559SOL    HW131313   4.557   0.962  17.562  0.7888 -0.0678  0.5299
 6559SOL    HW231314   4.536   0.927  17.423 -0.6599  1.4944 -1.8357
 6560SOL     OW31315   1.281   4.511   5.485  0.4865 -0.3191 -0.0536
 6560SOL    HW131316   1.195   4.513   5.526  1.6326 -0.9057  2.3740
 6560SOL    HW231317   1.287   4.428   5.437  1.1409  0.3666 -1.1558
 6561SOL     OW31318   4.402   2.808   4.853 -0.3735  0.6003 -0.4665
 6561SOL    HW131319   4.476   2.786   4.797 -0.9779 -0.9338 -0.6658
 6561SOL    HW231320   4.436   2.885   4.899 -1.0120  0.1522  0.7594
 6562SOL     OW31321   1.596   1.560   8.898 -0.1309  0.3349 -0.0174
 6562SOL    HW131322   1.670   1.535   8.953 -0.3961  2.2898  1.2264
 6562SOL    HW231323   1.633   1.575   8.811 -0.2184  0.4527 -0.0346
 6563SOL     OW31324   1.393   4.139   2.267  1.2315  0.5755 -0.3268
 6563SOL    HW131325   1.459   4.203   2.293  2.8856 -1.7332  1.0810
 6563SOL    HW231326   1.428   4.083   2.198  0.8019 -1.0989  0.8260
 6564SOL     OW31327   3.759   3.685   6.071 -0.4633 -0.3794 -0.0741
 6564SOL    HW131328   3.670   3.672   6.040 -0.6378  1.8596 -0.5288
 6564SOL    HW231329   3.812   3.665   5.993 -0.6127  1.2539 -0.5992
 6565SOL     OW31330   3.645   2.763   8.396  0.0500 -0.1389 -0.0251
 6565SOL    HW131331   3.719   2.702   8.397  1.1462  1.1903 -1.1033
 6565SOL    HW231332   3.590   2.736   8.322  0.3301 -0.8159  0.0115
 6566SOL     OW31333   3.796   2.930   8.260 -0.0378  0.3172 -0.2553
 6566SOL    HW131334   3.735   2.870   8.303 -3.2173  2.1609 -2.1277
 6566SOL    HW231335   3.799   2.876   8.180  1.8389 -1.3011  0.9085
 6567SOL     OW31336   1.606   2.655   9.062 -0.0833 -0.1273 -0.0845
 6567SOL    HW131337   1.598   2.749   9.077 -0.0606  0.1012 -1.5256
 6567SOL    HW231338   1.628   2.615   9.146  0.4182 -0.0968 -0.2017
 6568SOL     OW31339   1.196   2.867   5.218  0.2245 -1.1486 -0.1561
 6568SOL    HW131340   1.152   2.782   5.220  0.2567 -1.1599  0.0269
 6568SOL    HW231341   1.280   2.849   5.177  0.7146 -0.1768  0.4403
 6569SOL     OW31342   4.595   4.510   5.488 -0.6390  0.5155 -0.4041
 6569SOL    HW131343   4.674   4.542   5.445  0.7190  1.3469  2.6871
 6569SOL    HW231344   4.628   4.510   5.578 -0.4746  0.7588 -0.4648
 6570SOL     OW31345   1.998   2.314   9.011  0.0459  0.9726  0.6128
 6570SOL    HW131346   1.911   2.293   9.042  0.1350  1.3168  1.0991
 6570SOL    HW231347   2.040   2.335   9.095  2.6773 -0.0663 -0.4223
 6571SOL     OW31348   1.809   2.778   4.999 -0.1352 -0.1068  0.1834
 6571SOL    HW131349   1.858   2.699   4.979 -3.4942 -1.7060 -1.7009
 6571SOL    HW231350   1.763   2.807   4.920  2.0318  0.8262 -0.7380
 6572SOL     OW31351   0.039   3.866   9.348  0.2327  0.0010  0.4533
 6572SOL    HW131352   4.720   3.845   9.273  0.2923  0.3362  0.3139
 6572SOL    HW231353   0.054   3.777   9.381 -1.7118 -0.4291  0.1555
 6573SOL     OW31354   0.793   4.176   8.525  0.1592  0.8387  0.4407
 6573SOL    HW131355   0.776   4.130   8.607 -0.7919  0.1476 -0.1429
 6573SOL    HW231356   0.720   4.141   8.474  1.6166 -0.2011 -0.9417
 6574SOL     OW31357   1.988   3.105   6.230 -0.0965  0.5615 -0.2977
 6574SOL    HW131358   2.002   3.035   6.166  1.5158  0.8157 -0.2464
 6574SOL    HW231359   2.067   3.159   6.225 -0.5617  0.9557 -3.4688
 6575SOL     OW31360   1.103   4.616   3.384  0.2421 -0.1291  0.4364
 6575SOL    HW131361   1.156   4.579   3.455  0.3678 -1.0644 -0.1522
 6575SOL    HW231362   1.129   4.708   3.383  0.5362 -0.1937  2.2822
 6576SOL     OW31363   1.736   2.144   1.825 -0.2163  0.4229  0.1207
 6576SOL    HW131364   1.693   2.229   1.822  2.6695  1.8587 -0.8724
 6576SOL    HW231365   1.694   2.106   1.747  2.1636 -1.5436 -0.2477
 6577SOL     OW31366   0.335   1.870   6.468  0.5678 -0.2826 -1.0778
 6577SOL    HW131367   0.352   1.852   6.560 -1.4516  0.3651 -0.5934
 6577SOL    HW231368   0.254   1.918   6.487 -0.1354 -1.5815 -0.8040
 6578SOL     OW31369   2.320   2.333   8.472  0.1640  0.3977 -0.0239
 6578SOL    HW131370   2.388   2.399   8.481  0.8148  0.0510 -2.6302
 6578SOL    HW231371   2.341   2.256   8.526  2.4897 -0.3909 -2.0605
 6579SOL     OW31372   4.150   0.855  12.744 -0.2568  0.3466 -0.5877
 6579SOL    HW131373   4.102   0.774  12.725 -0.3572  0.6864 -1.8053
 6579SOL    HW231374   4.169   0.841  12.837  1.4467  1.1727 -0.8089
 6580SOL     OW31375   1.542   2.841   3.740  0.1298 -0.1117  0.4344
 6580SOL    HW131376   1.500   2.755   3.747 -2.4400  1.2040  0.9445
 6580SOL    HW231377   1.487   2.885   3.805 -3.5102 -3.3582 -0.4336
 6581SOL     OW31378   3.973   0.609   1.368 -0.2588 -0.0096 -0.0403
 6581SOL    HW131379   3.968   0.669   1.293 -4.3879 -0.3626 -0.0137
 6581SOL    HW231380   4.059   0.635   1.402 -0.4493  0.1932  0.2839
 6582SOL     OW31381   4.716   4.019   3.811 -0.2956 -0.2317  0.1880
 6582SOL    HW131382   4.627   3.996   3.837 -0.8480  2.7820  0.8989
 6582SOL    HW231383   4.718   4.101   3.861 -3.9739 -0.3768  0.5432
 6583SOL     OW31384   4.222   4.111  16.721  0.5127 -0.1097  0.8534
 6583SOL    HW131385   4.234   4.182  16.659  0.2307 -2.0144 -1.3833
 6583SOL    HW231386   4.303   4.065  16.700 -0.3055 -2.0732  1.9642
 6584SOL     OW31387   3.834   1.725  15.386  0.1008  0.0977 -0.5891
 6584SOL    HW131388   3.800   1.797  15.440 -3.1516 -1.3277 -0.7148
 6584SOL    HW231389   3.915   1.758  15.348  0.8197 -0.4652  0.4582
 6585SOL     OW31390   2.030   1.136   6.964 -0.0759  0.1072  0.8429
 6585SOL    HW131391   2.015   1.196   7.037  0.2615  0.6672  0.4515
 6585SOL    HW231392   2.120   1.109   6.984  0.1194  0.5517  0.5457
 6586SOL     OW31393   3.022   2.018  12.369 -0.2722  0.4602  0.1901
 6586SOL    HW131394   2.997   2.102  12.331  1.4796 -0.1621 -2.3729
 6586SOL    HW231395   2.947   1.971  12.333  0.3523 -0.9063  0.6762
 6587SOL     OW31396   0.648   2.609   8.458  0.0099 -0.1731 -0.2024
 6587SOL    HW131397   0.692   2.601   8.373 -1.4640 -3.6747 -0.6583
 6587SOL    HW231398   0.689   2.534   8.501  1.6277  1.3105  0.8107
 6588SOL     OW31399   2.114   4.195   4.316 -0.0733 -0.5486  0.1746
 6588SOL    HW131400   2.116   4.215   4.410 -2.9110  1.4735 -0.1852
 6588SOL    HW231401   2.141   4.284   4.292 -2.2141 -0.6122 -2.4544
 6589SOL     OW31402   0.913   4.335   7.786  0.0933 -0.1386  0.4326
 6589SOL    HW131403   1.001   4.363   7.760  0.6162 -0.5570  1.7833
 6589SOL    HW231404   0.927   4.321   7.879 -0.3284 -2.4721  0.1413
 6590SOL     OW31405   3.157   3.391   6.803 -0.2286  0.2525 -0.5909
 6590SOL    HW131406   3.186   3.356   6.719  0.7994 -1.2380  0.3879
 6590SOL    HW231407   3.088   3.445   6.764 -1.6719 -0.7845  0.5030
 6591SOL     OW31408   0.053   4.569   4.900  0.0188  0.2728  0.0558
 6591SOL    HW131409   0.012   4.651   4.927  1.8050  0.4335  2.2908
 6591SOL    HW231410   0.093   4.604   4.820  1.7467  1.0434  1.2629
 6592SOL     OW31411   3.922   3.522   7.787  0.5729  0.7837  0.0706
 6592SOL    HW131412   3.985   3.591   7.766 -0.0612  1.0322 -1.0257
 6592SOL    HW231413   3.841   3.573   7.786  0.8323  1.2085  0.6942
 6593SOL     OW31414   4.635   2.219  16.540  0.1933  0.3531  0.3655
 6593SOL    HW131415   4.624   2.157  16.612  1.0814 -1.2240 -0.8573
 6593SOL    HW231416   4.684   2.291  16.578 -2.3227  1.1623  2.1242
 6594SOL     OW31417   2.398   3.215  12.243  0.7175 -0.1453  0.0920
 6594SOL    HW131418   2.462   3.168  12.191  0.6578  0.8448 -0.8851
 6594SOL    HW231419   2.335   3.246  12.178 -0.8142 -0.1419  1.5533
 6595SOL     OW31420   0.904   2.998   3.484 -0.1528 -0.2079 -0.1178
 6595SOL    HW131421   0.891   2.946   3.563  1.7069  0.0230  0.3383
 6595SOL    HW231422   0.823   3.049   3.478  1.1053  1.5597 -2.2531
 6596SOL     OW31423   4.615   4.604   2.514  0.1247 -0.2830  0.2263
 6596SOL    HW131424   4.591   4.556   2.594 -2.2366  0.9719  0.2735
 6596SOL    HW231425   4.707   4.578   2.513 -0.5606 -2.5986 -1.1900
 6597SOL     OW31426   0.953   4.401  12.239  0.2737  0.4205  0.4709
 6597SOL    HW131427   0.939   4.390  12.333 -2.0027 -0.9836 -0.0409
 6597SOL    HW231428   0.938   4.495  12.236  0.4856  0.4346 -0.0257
 6598SOL     OW31429   1.124   0.130  16.434  0.5751  0.4117  0.5203
 6598SOL    HW131430   1.028   0.134  16.429  0.5317 -0.1639  0.9089
 6598SOL    HW231431   1.148   0.105  16.345  2.3849  2.5337  0.4165
 6599SOL     OW31432   1.893   2.690  17.648  0.0261 -0.0786 -0.2690
 6599SOL    HW131433   1.866   2.701  17.557  0.3697  0.1548 -0.3420
 6599SOL    HW231434   1.869   2.598  17.658  1.1931 -0.3831 -0.2002
 6600SOL     OW31435   3.927   2.105   2.733 -0.0039 -0.1518  0.0386
 6600SOL    HW131436   3.969   2.074   2.654  0.6635  2.1172 -0.4992
 6600SOL    HW231437   3.985   2.178   2.753 -1.1428 -0.0353  2.9225
 6601SOL     OW31438   3.187   0.077   5.692 -0.1761 -0.4856  0.0855
 6601SOL    HW131439   3.115   0.138   5.705 -0.2476 -0.4662 -0.4098
 6601SOL    HW231440   3.240   0.136   5.637  1.1568 -1.2191  0.5984
 6602SOL     OW31441   0.330   3.873   3.594 -0.4450  0.6904 -0.1644
 6602SOL    HW131442   0.302   3.786   3.622 -1.2441  0.4383 -1.7194
 6602SOL    HW231443   0.417   3.886   3.632 -1.6815  1.0753  2.5113
 6603SOL     OW31444   0.766   1.013  15.569 -0.3138  0.0752 -0.1428
 6603SOL    HW131445   0.775   1.044  15.479 -1.6990 -0.4602 -0.4742
 6603SOL    HW231446   0.852   1.042  15.598  0.3176 -1.7578 -0.1537
 6604SOL     OW31447   1.334   3.264   9.564 -0.5256 -0.0587 -0.0196
 6604SOL    HW131448   1.257   3.236   9.515 -0.2147 -1.0483  0.0670
 6604SOL    HW231449   1.304   3.251   9.654 -0.6946 -0.8357 -0.1960
 6605SOL     OW31450   4.605   0.891  13.581  0.1091  0.0478 -0.2692
 6605SOL    HW131451   4.550   0.961  13.547  1.1947  0.4937 -1.1054
 6605SOL    HW231452   4.654   0.937  13.649  2.4692  0.5570 -2.3124
 6606SOL     OW31453   0.040   2.700   6.862  0.0118 -0.1076 -0.4530
 6606SOL    HW131454   0.000   2.669   6.781  0.4304 -0.9684 -0.3298
 6606SOL    HW231455   0.100   2.764   6.821 -0.0670 -0.8177 -1.6723
 6607SOL     OW31456   1.779   3.514   4.804 -0.8424  0.3503 -0.1451
 6607SOL    HW131457   1.831   3.544   4.878  0.7587  0.2254 -1.2062
 6607SOL    HW231458   1.840   3.444   4.782 -1.7607 -0.5537  0.1699
 6608SOL     OW31459   4.297   1.740   8.586  0.1137 -0.8500  0.2550
 6608SOL    HW131460   4.303   1.820   8.533 -0.3348 -2.5220 -2.3097
 6608SOL    HW231461   4.203   1.724   8.587 -0.0409 -0.0886 -1.8420
 6609SOL     OW31462   2.311   0.519   8.328  0.2626 -0.4224 -0.4448
 6609SOL    HW131463   2.341   0.516   8.419  2.0966  0.8132 -0.9997
 6609SOL    HW231464   2.395   0.503   8.283  0.9913 -1.1510  1.1682
 6610SOL     OW31465   0.379   4.150   9.639  0.4490  0.0159 -0.3412
 6610SOL    HW131466   0.408   4.218   9.578 -1.3290  0.9971 -0.1011
 6610SOL    HW231467   0.339   4.081   9.587  1.1068 -1.0782  0.5964
 6611SOL     OW31468   1.913   1.968   8.345 -0.3853 -0.2142  0.3719
 6611SOL    HW131469   1.864   2.028   8.288 -1.2336 -2.5752 -1.3932
 6611SOL    HW231470   1.957   1.905   8.287  3.5363  1.7253  1.2259
 6612SOL     OW31471   2.515   4.070   4.659 -0.3122  0.2069  0.1298
 6612SOL    HW131472   2.482   4.140   4.714 -0.2326 -0.8228  1.4909
 6612SOL    HW231473   2.500   4.123   4.580  0.0556  1.1978  0.7348
 6613SOL     OW31474   1.775   1.592  13.038  0.6356  0.7070 -0.0553
 6613SOL    HW131475   1.831   1.546  12.976 -0.0041  0.8019 -0.7109
 6613SOL    HW231476   1.828   1.580  13.117 -1.4530  0.1493  1.2801
 6614SOL     OW31477   1.295   1.807   2.772  0.4077 -0.0218 -0.8355
 6614SOL    HW131478   1.334   1.776   2.853  2.0460  0.2774 -1.5257
 6614SOL    HW231479   1.242   1.878   2.810 -1.0966 -2.1685  1.0426
 6615SOL     OW31480   3.542   4.033  17.514 -0.1172  0.6311  0.0087
 6615SOL    HW131481   3.512   4.008  17.602 -2.5123  1.8011 -0.4729
 6615SOL    HW231482   3.608   4.098  17.537 -0.9608  1.7425 -0.7461
 6616SOL     OW31483   2.664   3.611   6.594 -0.2645 -0.9237  0.2697
 6616SOL    HW131484   2.709   3.537   6.634  2.1313  0.2418 -0.2632
 6616SOL    HW231485   2.693   3.609   6.503 -1.1748 -1.3535 -0.0080
 6617SOL     OW31486   4.285   0.999   0.655 -0.1862 -0.4508 -0.4031
 6617SOL    HW131487   4.236   1.018   0.736 -0.8017  2.4211 -1.4735
 6617SOL    HW231488   4.372   0.975   0.687  0.6036  3.2952  0.1755
 6618SOL     OW31489   0.203   4.557  14.531 -0.2797 -0.4162 -0.2921
 6618SOL    HW131490   0.284   4.600  14.500 -0.1249 -0.0734  0.5815
 6618SOL    HW231491   0.187   4.617  14.604 -0.2061  0.1620 -0.7514
 6619SOL     OW31492   4.589   4.063   9.024 -0.5698 -0.2448  0.3162
 6619SOL    HW131493   4.661   4.122   9.000 -0.8616 -0.5033 -1.1853
 6619SOL    HW231494   4.597   4.059   9.119  0.3411  1.5721  0.3285
 6620SOL     OW31495   1.349   2.243   9.570 -0.1487 -0.0690  0.1663
 6620SOL    HW131496   1.384   2.327   9.541  2.1340 -1.4779 -1.2180
 6620SOL    HW231497   1.413   2.225   9.640  3.9726  1.1417 -3.2566
 6621SOL     OW31498   1.698   1.649   3.908  0.0705  0.3086  0.3839
 6621SOL    HW131499   1.768   1.694   3.861 -1.7988  3.1803  0.3357
 6621SOL    HW231500   1.660   1.592   3.841  2.3101 -0.4574 -0.2414
 6622SOL     OW31501   4.485   4.721   7.214  0.0475  0.5501  0.2938
 6622SOL    HW131502   4.552   0.046   7.183  1.0960 -0.4205  0.6195
 6622SOL    HW231503   4.487   0.006   7.308 -1.5538 -1.0889  0.7041
 6623SOL     OW31504   4.504   0.093   7.477 -0.0196  0.2725  0.1384
 6623SOL    HW131505   4.421   0.141   7.480 -0.0815  0.3365 -2.6010
 6623SOL    HW231506   4.572   0.152   7.442 -1.0610  1.4114  0.0105
 6624SOL     OW31507   0.391   4.167  15.080  0.4588 -0.0350 -0.1217
 6624SOL    HW131508   0.448   4.222  15.026  1.9760 -1.5110 -0.0208
 6624SOL    HW231509   0.459   4.120  15.128  0.6299 -0.6626 -0.9724
 6625SOL     OW31510   3.606   2.960   5.611 -0.0368 -0.8495 -0.4931
 6625SOL    HW131511   3.520   3.002   5.610  1.0590  1.4016  2.2175
 6625SOL    HW231512   3.625   2.945   5.518 -1.2728  1.3630 -1.0830
 6626SOL     OW31513   2.401   0.539  14.796 -1.1839  0.1242  0.4175
 6626SOL    HW131514   2.473   0.477  14.785 -2.0246 -0.8484  0.4245
 6626SOL    HW231515   2.344   0.484  14.850 -0.2538  0.2283  1.5115
 6627SOL     OW31516   1.657   0.521   5.556 -0.0895  0.6534  0.2792
 6627SOL    HW131517   1.677   0.572   5.478  0.2942  1.4246  0.8762
 6627SOL    HW231518   1.561   0.518   5.562 -0.0142  0.5433  1.4343
 6628SOL     OW31519   3.930   2.033   0.377  0.0174  0.0597  0.0201
 6628SOL    HW131520   3.933   1.967   0.307 -1.5269 -1.1449  1.0816
 6628SOL    HW231521   3.837   2.048   0.392  0.0551 -0.1972  0.5224
 6629SOL     OW31522   2.529   3.193  10.278 -0.6670 -0.6227  0.1935
 6629SOL    HW131523   2.471   3.239  10.338 -0.2435 -0.5127  0.5156
 6629SOL    HW231524   2.488   3.108  10.261  0.3425 -1.4793  1.9521
 6630SOL     OW31525   2.241   2.195   4.107 -0.1498 -0.2288 -0.1957
 6630SOL    HW131526   2.240   2.111   4.154  2.4497  1.3856  2.7444
 6630SOL    HW231527   2.175   2.247   4.153 -0.7034 -2.0663  1.1492
 6631SOL     OW31528   2.993   4.187   7.559  0.1421 -0.4350 -0.2180
 6631SOL    HW131529   3.059   4.131   7.598  1.0437  0.9364  0.2342
 6631SOL    HW231530   3.034   4.273   7.570  1.1003 -1.0054  0.5087
 6632SOL     OW31531   3.270   2.549  10.278  0.2984  0.0745  0.0854
 6632SOL    HW131532   3.278   2.523  10.186  2.6037  3.0139 -0.5477
 6632SOL    HW231533   3.178   2.574  10.288 -0.6908 -3.2347 -0.6274
 6633SOL     OW31534   3.625   1.718   8.053  0.0277  0.4773  0.2119
 6633SOL    HW131535   3.552   1.769   8.088 -1.5950 -0.4385 -1.8744
 6633SOL    HW231536   3.576   1.643   8.021 -2.9174  1.6834  1.8775
 6634SOL     OW31537   4.482   4.148   7.851  0.1556 -0.0887 -0.2211
 6634SOL    HW131538   4.497   4.184   7.764 -0.4034  1.0140  0.1340
 6634SOL    HW231539   4.531   4.216   7.899 -1.0937  2.1118 -2.0379
 6635SOL     OW31540   4.696   3.528  16.923  0.1586 -0.0074 -0.1242
 6635SOL    HW131541   4.652   3.602  16.882  2.3418 -0.3763 -3.0576
 6635SOL    HW231542   4.640   3.451  16.913 -1.4932  1.1552  0.1742
 6636SOL     OW31543   3.248   4.359   2.821  0.0860 -0.1463 -0.2735
 6636SOL    HW131544   3.258   4.334   2.729 -1.1122  0.0279 -0.4569
 6636SOL    HW231545   3.335   4.356   2.861 -1.0184  2.8608  2.3297
 6637SOL     OW31546   1.794   2.854   4.037 -0.0600 -0.1252  1.0220
 6637SOL    HW131547   1.851   2.919   3.996 -0.9204  0.1971  0.3377
 6637SOL    HW231548   1.798   2.893   4.125 -1.3497 -0.6369  1.3016
 6638SOL     OW31549   3.744   0.254   2.412  0.6145  0.2618  0.4570
 6638SOL    HW131550   3.759   0.333   2.464  0.0509 -0.2351  1.3612
 6638SOL    HW231551   3.677   0.283   2.350  1.0797 -0.5855 -0.4411
 6639SOL     OW31552   3.179   2.574   3.298  0.1612 -0.4994  0.1061
 6639SOL    HW131553   3.232   2.521   3.359  1.3448  1.8090  1.0871
 6639SOL    HW231554   3.097   2.525   3.300 -0.6632  0.8814  0.0825
 6640SOL     OW31555   1.182   0.703   2.215  0.1951 -0.1743  0.1780
 6640SOL    HW131556   1.145   0.629   2.165 -0.8856  0.8411 -0.5271
 6640SOL    HW231557   1.157   0.687   2.306 -0.2569  2.7463  0.5500
 6641SOL     OW31558   3.790   1.415  16.904 -0.9122 -0.2304  0.4088
 6641SOL    HW131559   3.862   1.431  16.964  2.5918 -2.8838 -3.1015
 6641SOL    HW231560   3.819   1.330  16.870 -0.3110 -0.0556  0.4880
 6642SOL     OW31561   1.524   1.425  12.380  0.3318 -0.5831 -0.4123
 6642SOL    HW131562   1.443   1.460  12.343 -0.1731 -1.5291 -0.1983
 6642SOL    HW231563   1.540   1.481  12.456 -2.1273  1.2651 -1.2499
 6643SOL     OW31564   0.755   0.652  14.357  0.5612 -0.3458 -0.2755
 6643SOL    HW131565   0.748   0.577  14.298 -1.0453 -0.4133 -0.0113
 6643SOL    HW231566   0.835   0.627  14.402  1.5811 -0.0281 -1.8876
 6644SOL     OW31567   2.777   4.023   8.474  0.2855  0.1525 -0.3186
 6644SOL    HW131568   2.808   3.998   8.387 -1.4295 -0.4375 -0.7607
 6644SOL    HW231569   2.814   3.948   8.521  0.5718  1.3651  1.3971
 6645SOL     OW31570   4.101   1.321   6.654  0.0303 -0.4737 -0.3819
 6645SOL    HW131571   4.073   1.261   6.585  0.3552 -2.9617  1.6603
 6645SOL    HW231572   4.182   1.284   6.690  1.0887  2.6154  0.4082
 6646SOL     OW31573   3.057   1.181   6.710  0.1669  0.6501 -0.6634
 6646SOL    HW131574   2.968   1.149   6.724  0.4264  0.7271  1.0653
 6646SOL    HW231575   3.032   1.273   6.699  0.3422  0.9286  1.3991
 6647SOL     OW31576   1.161   3.814   9.490  0.1880  0.5771  0.3889
 6647SOL    HW131577   1.096   3.817   9.420 -1.0991 -0.8682  1.5373
 6647SOL    HW231578   1.172   3.719   9.486 -0.7240  0.4951 -0.0970
 6648SOL     OW31579   3.431   3.644  12.779  0.4291  0.3578 -0.1872
 6648SOL    HW131580   3.443   3.652  12.874 -0.2295 -0.7478 -0.0096
 6648SOL    HW231581   3.521   3.643  12.747  0.5566 -0.3651  0.1897
 6649SOL     OW31582   1.658   1.620   9.471  0.3464  0.1567 -0.7527
 6649SOL    HW131583   1.735   1.651   9.424  0.6572  3.2986  1.8973
 6649SOL    HW231584   1.596   1.686   9.439 -2.4526 -0.9050  2.4809
 6650SOL     OW31585   3.839   0.122   7.700 -0.3494  0.0563 -0.2033
 6650SOL    HW131586   3.768   0.070   7.737  1.9194 -1.8362  1.5068
 6650SOL    HW231587   3.910   0.059   7.685 -0.5518 -0.3086  0.3485
 6651SOL     OW31588   2.797   0.005  17.021 -0.2874  0.2459  0.3746
 6651SOL    HW131589   2.871   0.008  17.082  0.1833  0.1497 -0.1978
 6651SOL    HW231590   2.728   4.734  17.087 -1.4695  3.4381 -0.5392
 6652SOL     OW31591   1.094   1.894   8.622 -0.1592 -0.9520 -0.6600
 6652SOL    HW131592   1.165   1.954   8.645 -0.4582 -0.5479 -0.7989
 6652SOL    HW231593   1.134   1.807   8.619 -1.8950 -1.7783  0.4507
 6653SOL     OW31594   2.296   1.808   2.594 -0.4673 -0.5108  0.5847
 6653SOL    HW131595   2.384   1.773   2.607 -0.9583 -1.4534  1.3303
 6653SOL    HW231596   2.307   1.900   2.571  2.1213 -1.0042 -0.1197
 6654SOL     OW31597   0.356   3.842   6.431 -0.2145 -0.2205  0.0708
 6654SOL    HW131598   0.272   3.821   6.472  0.8863 -0.8942  1.9697
 6654SOL    HW231599   0.409   3.870   6.506 -0.3841 -0.8962  0.4349
 6655SOL     OW31600   2.528   1.319   7.953  0.3577 -0.1606  0.4042
 6655SOL    HW131601   2.438   1.310   7.986  0.0983 -2.5946 -0.9486
 6655SOL    HW231602   2.576   1.347   8.031 -1.8991  1.8103  1.0968
 6656SOL     OW31603   1.357   3.780   5.981 -0.5828  0.1554  0.3645
 6656SOL    HW131604   1.440   3.741   5.955  0.2408  1.4762  1.0576
 6656SOL    HW231605   1.328   3.814   5.896  1.1560  1.2264  0.1945
 6657SOL     OW31606   3.634   3.334  16.015 -1.1289  0.4469 -0.3585
 6657SOL    HW131607   3.563   3.280  16.050 -1.2385  1.6656  1.3144
 6657SOL    HW231608   3.591   3.416  16.039 -0.5330  0.9190 -0.9226
 6658SOL     OW31609   0.956   2.733   9.605 -0.0385  0.6422  0.0231
 6658SOL    HW131610   1.050   2.718   9.619 -0.2156  1.0690  1.6692
 6658SOL    HW231611   0.927   2.651   9.565 -0.2804 -0.2723  2.0739
 6659SOL     OW31612   3.220   3.008   7.564 -0.0581 -0.0111  0.3881
 6659SOL    HW131613   3.219   3.035   7.472 -1.7489 -0.4924  0.2707
 6659SOL    HW231614   3.247   2.916   7.561 -1.9770 -0.5372 -0.6041
 6660SOL     OW31615   3.344   0.561   4.604 -0.3792 -0.4085 -0.0745
 6660SOL    HW131616   3.376   0.485   4.556 -2.3766 -0.9642 -0.5207
 6660SOL    HW231617   3.336   0.631   4.539  1.5415  0.2268  0.3612
 6661SOL     OW31618   1.559   2.838   7.869  0.0576  0.6549 -0.1757
 6661SOL    HW131619   1.559   2.835   7.774  2.4459 -0.9713 -0.1438
 6661SOL    HW231620   1.469   2.851   7.900 -0.2198  1.0562 -1.1641
 6662SOL     OW31621   2.702   1.503  11.061  0.2314 -0.0321 -0.1409
 6662SOL    HW131622   2.658   1.586  11.041  2.1083  1.3386  1.3823
 6662SOL    HW231623   2.747   1.526  11.142 -0.4625  0.4187  0.1207
 6663SOL     OW31624   1.943   0.825   4.843  0.5397  0.8653  0.4555
 6663SOL    HW131625   1.958   0.856   4.932 -1.0841 -0.3360  1.1338
 6663SOL    HW231626   1.872   0.880   4.811 -1.5016 -2.2377 -0.2649
 6664SOL     OW31627   4.256   1.868   1.011 -0.0022 -0.1637 -0.1967
 6664SOL    HW131628   4.345   1.903   1.015 -0.8090  1.7828  0.3766
 6664SOL    HW231629   4.249   1.850   0.917  1.4703 -0.9435 -0.1708
 6665SOL     OW31630   3.207   0.931   4.110 -0.1609 -0.1204  0.3154
 6665SOL    HW131631   3.271   0.981   4.161  0.8275  1.4969 -2.5176
 6665SOL    HW231632   3.261   0.909   4.034  1.6440  2.4593  0.8387
 6666SOL     OW31633   1.408   2.075   5.015  0.0944  0.0357 -0.4688
 6666SOL    HW131634   1.450   2.013   5.075 -0.8839  1.2178  1.4609
 6666SOL    HW231635   1.418   2.031   4.931  1.3336  1.5521 -1.1148
 6667SOL     OW31636   3.458   2.188   9.290 -0.4333 -0.2480  0.5037
 6667SOL    HW131637   3.508   2.148   9.361  0.2560  0.0070  0.1604
 6667SOL    HW231638   3.450   2.130   9.215  3.3307 -1.2155  0.8679
 6668SOL     OW31639   0.950   1.676   9.423 -0.5730 -0.6403  0.3617
 6668SOL    HW131640   0.895   1.733   9.370 -0.8053  0.8050  2.1489
 6668SOL    HW231641   0.886   1.661   9.493 -0.3080  1.2566  1.0248
 6669SOL     OW31642   3.723   3.226   4.077  0.2152 -0.5316  0.7087
 6669SOL    HW131643   3.712   3.295   4.141  0.8824 -1.3221  1.6776
 6669SOL    HW231644   3.682   3.252   3.994 -1.5767 -0.8697  1.4885
 6670SOL     OW31645   4.156   4.083   1.466  0.3010  0.1451 -0.1640
 6670SOL    HW131646   4.084   4.069   1.404 -2.4815 -1.6677  3.5059
 6670SOL    HW231647   4.118   4.130   1.540  1.9744 -0.9613  1.3937
 6671SOL     OW31648   2.557   2.353   9.162 -0.3703  0.0889  0.1367
 6671SOL    HW131649   2.495   2.358   9.089 -2.6549 -1.5692  1.9329
 6671SOL    HW231650   2.537   2.437   9.204 -0.2282 -0.2117  0.8062
 6672SOL     OW31651   3.701   4.073   3.379 -0.1271  0.0275 -0.0295
 6672SOL    HW131652   3.771   4.136   3.399 -0.2071 -0.1416  0.7659
 6672SOL    HW231653   3.699   4.023   3.460  1.4619 -2.3300 -1.4272
 6673SOL     OW31654   3.306   2.006  10.355  0.0530  0.1749  0.2633
 6673SOL    HW131655   3.389   2.045  10.384  1.4627 -1.5097 -1.4569
 6673SOL    HW231656   3.308   1.920  10.396  1.8936  0.3569  0.5642
 6674SOL     OW31657   3.841   2.028  13.975  0.0372  0.1350  0.4473
 6674SOL    HW131658   3.871   1.938  13.987  1.4246  0.8094  2.0721
 6674SOL    HW231659   3.749   2.021  13.998 -0.1677  0.6705 -0.2000
 6675SOL     OW31660   2.244   3.378   5.149  0.1919 -0.1798  0.0070
 6675SOL    HW131661   2.212   3.384   5.239  0.3955 -1.0236  0.1358
 6675SOL    HW231662   2.256   3.283   5.138 -0.8032 -0.3388  0.2798
 6676SOL     OW31663   0.381   4.604   3.355 -0.3913  0.2739 -0.1410
 6676SOL    HW131664   0.413   4.686   3.318 -1.2298  0.7327  0.1449
 6676SOL    HW231665   0.469   4.575   3.378 -0.6140  0.4685  0.9547
 6677SOL     OW31666   4.194   2.046  12.402  0.0544  0.1204  0.1244
 6677SOL    HW131667   4.159   2.010  12.483  3.3403  0.7815  1.8016
 6677SOL    HW231668   4.181   1.966  12.349 -3.3963 -0.5849  1.9845
 6678SOL     OW31669   2.656   3.367   4.225 -0.6796 -0.2362  0.2598
 6678SOL    HW131670   2.637   3.291   4.281  2.3267 -1.6151 -0.5626
 6678SOL    HW231671   2.654   3.437   4.290 -0.9773 -0.2898  0.3112
 6679SOL     OW31672   1.134   2.266   9.782 -0.0527 -0.4584 -0.1590
 6679SOL    HW131673   1.173   2.204   9.844  2.0887  0.6316 -0.4024
 6679SOL    HW231674   1.206   2.270   9.719 -0.2496 -2.1811 -0.4730
 6680SOL     OW31675   1.181   2.785   9.782 -0.2113  0.4299  0.2810
 6680SOL    HW131676   1.228   2.790   9.698 -0.9490 -0.3443 -0.1762
 6680SOL    HW231677   1.226   2.719   9.834  1.9690  0.9847 -0.8660
 6681SOL     OW31678   0.746   1.197  16.431  0.2198  0.4683 -0.1165
 6681SOL    HW131679   0.676   1.244  16.387 -0.8123 -0.4053  0.5719
 6681SOL    HW231680   0.745   1.245  16.514 -1.9133  1.9363 -1.0196
 6682SOL     OW31681   2.549   3.019   6.494 -0.0027 -0.3629 -0.4816
 6682SOL    HW131682   2.479   2.958   6.473  0.4373 -0.6496 -1.1079
 6682SOL    HW231683   2.508   3.076   6.559  1.2397  0.2799 -0.2531
 6683SOL     OW31684   3.544   3.310   6.823  0.1409 -0.5201  0.2458
 6683SOL    HW131685   3.495   3.263   6.757 -0.3249  1.3986 -0.7598
 6683SOL    HW231686   3.603   3.367   6.774 -0.9256 -0.1031 -0.5261
 6684SOL     OW31687   4.118   3.370   3.597 -0.9219  0.8593  0.8021
 6684SOL    HW131688   4.045   3.341   3.652 -0.0983 -0.7077  1.0836
 6684SOL    HW231689   4.089   3.433   3.532 -1.0920  1.4906  1.4979
 6685SOL     OW31690   3.195   1.576   6.375  0.3994  0.2214 -0.0101
 6685SOL    HW131691   3.110   1.611   6.347 -1.6006 -0.6390  5.0582
 6685SOL    HW231692   3.188   1.600   6.468 -1.2091  0.9656 -0.3206
 6686SOL     OW31693   2.638   1.619   4.955  0.4247 -0.2226  0.5249
 6686SOL    HW131694   2.606   1.704   4.984  1.2865 -0.2937  1.7004
 6686SOL    HW231695   2.557   1.568   4.959  1.4325 -1.8922 -0.3076
 6687SOL     OW31696   0.764   2.525  15.237  0.8702 -0.0923  0.0739
 6687SOL    HW131697   0.755   2.618  15.217  0.3459 -0.4696 -1.4327
 6687SOL    HW231698   0.677   2.497  15.208  0.0324  4.0624 -1.5013
 6688SOL     OW31699   2.602   0.081   9.941  0.6213 -0.4796 -0.0126
 6688SOL    HW131700   2.519   0.117   9.908  0.7408  0.0261  0.2330
 6688SOL    HW231701   2.607   4.732   9.897 -2.4572 -1.7882  2.1639
 6689SOL     OW31702   1.632   4.545   3.742 -0.0529  0.4786 -0.4820
 6689SOL    HW131703   1.712   4.585   3.775  1.2418 -1.4205 -1.3509
 6689SOL    HW231704   1.667   4.500   3.665 -0.4351 -0.1415 -0.2933
 6690SOL     OW31705   4.686   0.643  10.470  0.2432 -0.5072 -0.3403
 6690SOL    HW131706   0.024   0.704  10.465 -0.4582  0.5177  1.6466
 6690SOL    HW231707   4.728   0.576  10.418  3.2278  2.2544 -1.4954
 6691SOL     OW31708   0.723   0.769   9.755 -0.1579  0.1667 -0.2009
 6691SOL    HW131709   0.735   0.719   9.675  0.7034 -0.3528  0.2518
 6691SOL    HW231710   0.630   0.762   9.776  0.2698 -2.9621  0.6300
 6692SOL     OW31711   4.718   0.120   9.736 -0.3554  0.0446  0.2090
 6692SOL    HW131712   0.052   0.140   9.798 -0.5942  1.6815 -0.0502
 6692SOL    HW231713   4.651   0.189   9.733 -1.9537 -1.4188  1.6466
 6693SOL     OW31714   2.554   0.252   8.653 -0.1233 -0.1150 -0.0115
 6693SOL    HW131715   2.517   0.292   8.732  0.1200 -0.3706  0.2310
 6693SOL    HW231716   2.531   0.312   8.582  3.2999  1.5311  0.3037
 6694SOL     OW31717   0.539   0.409  17.465  0.2458 -0.0818 -0.0278
 6694SOL    HW131718   0.630   0.404  17.434  0.0084  0.3224 -0.7766
 6694SOL    HW231719   0.493   0.473  17.411  0.5075  2.1733  2.4404
 6695SOL     OW31720   2.030   0.949   3.416  0.2487 -0.7387  0.1506
 6695SOL    HW131721   1.997   1.039   3.418 -1.4761 -1.3683  0.2044
 6695SOL    HW231722   2.002   0.925   3.328  0.9420  0.2760 -0.3458
 6696SOL     OW31723   1.666   2.476   5.295  0.3530  0.4080 -0.2517
 6696SOL    HW131724   1.603   2.404   5.301 -2.4508  2.7007 -2.4949
 6696SOL    HW231725   1.650   2.530   5.372  1.1510 -0.5477  0.5968
 6697SOL     OW31726   0.155   2.368   9.419 -0.0294 -0.4213  0.2210
 6697SOL    HW131727   0.128   2.287   9.461  0.3123 -0.5156  0.2566
 6697SOL    HW231728   0.179   2.345   9.329  0.4180  1.9024 -0.2740
 6698SOL     OW31729   0.203   3.087   0.975  0.0405  0.4198  0.3385
 6698SOL    HW131730   0.220   3.168   0.927  0.4073  0.6652  0.8867
 6698SOL    HW231731   0.192   3.117   1.065 -3.2286 -0.2865  0.1732
 6699SOL     OW31732   2.770   2.288   6.209 -0.0202 -0.3767  0.9949
 6699SOL    HW131733   2.705   2.232   6.168 -0.4733 -0.2375  1.5242
 6699SOL    HW231734   2.812   2.215   6.254  2.6633  0.3450 -0.3385
 6700SOL     OW31735   1.615   0.142  15.761  0.2441 -0.3108 -0.3946
 6700SOL    HW131736   1.696   0.094  15.743  1.0031  0.2514  1.5044
 6700SOL    HW231737   1.648   0.230  15.742  1.0168 -0.1784  1.5461
 6701SOL     OW31738   0.657   0.993   4.473  0.3662 -0.6644  0.0890
 6701SOL    HW131739   0.725   1.027   4.414  1.5789 -1.8835  0.7683
 6701SOL    HW231740   0.609   1.073   4.495  3.7673  0.8315  2.1066
 6702SOL     OW31741   2.338   0.887   4.745  0.2673  0.1294 -0.6620
 6702SOL    HW131742   2.246   0.884   4.721 -0.2720  0.3403  1.3502
 6702SOL    HW231743   2.366   0.797   4.730 -0.3859 -0.1585 -0.1273
 6703SOL     OW31744   2.629   1.061  12.716  0.2253  0.0966 -0.0004
 6703SOL    HW131745   2.709   1.049  12.768  0.7328 -0.5980 -0.9552
 6703SOL    HW231746   2.594   0.972  12.721 -2.1873  1.0340  0.0775
 6704SOL     OW31747   0.343   0.445   8.990 -0.2825  0.2439 -0.5783
 6704SOL    HW131748   0.429   0.432   9.030  0.5677  0.4851 -2.3328
 6704SOL    HW231749   0.354   0.533   8.956 -1.6862  0.2769 -0.9588
 6705SOL     OW31750   2.415   2.317   8.079  0.1141  0.1113 -0.2756
 6705SOL    HW131751   2.385   2.231   8.108  1.9943  0.2338  2.0589
 6705SOL    HW231752   2.339   2.366   8.051  2.3793  3.5110 -0.4160
 6706SOL     OW31753   0.728   4.600  10.116  0.0940 -0.1005  0.3873
 6706SOL    HW131754   0.781   4.551  10.179  0.9610  0.4915  0.1216
 6706SOL    HW231755   0.683   4.529  10.070 -1.2419  2.0721 -1.6845
 6707SOL     OW31756   2.356   0.473   5.969 -0.1134  0.1476  0.5678
 6707SOL    HW131757   2.355   0.452   6.062 -0.5529  0.6864  0.6827
 6707SOL    HW231758   2.285   0.536   5.955  0.2325 -0.1498 -2.6006
 6708SOL     OW31759   0.003   3.784  16.484  0.1593 -0.8225 -0.4096
 6708SOL    HW131760   0.016   3.703  16.534  0.5052 -0.6295 -0.1875
 6708SOL    HW231761   4.678   3.760  16.415  0.7847 -1.3804 -0.7686
 6709SOL     OW31762   4.237   0.175   1.684  0.1666 -0.5240  0.5471
 6709SOL    HW131763   4.323   0.211   1.664 -0.7394  1.0939 -0.4690
 6709SOL    HW231764   4.182   0.208   1.613  1.0894  0.6027  0.3588
 6710SOL     OW31765   2.054   3.586   3.380  0.2153 -0.0408  0.2424
 6710SOL    HW131766   2.068   3.507   3.328  0.3825  0.7016 -0.8397
 6710SOL    HW231767   2.100   3.652   3.329 -0.2483 -0.2574 -0.4568
 6711SOL     OW31768   4.441   2.590  11.934 -0.9115 -0.2439  0.1822
 6711SOL    HW131769   4.367   2.529  11.931 -0.8620 -0.4901  3.9344
 6711SOL    HW231770   4.505   2.524  11.905 -1.7639 -1.0179  0.0529
 6712SOL     OW31771   3.805   2.060   8.095 -0.0839  0.5035 -0.5160
 6712SOL    HW131772   3.801   1.979   8.044 -0.2428  0.5269 -0.5403
 6712SOL    HW231773   3.870   2.111   8.046 -2.2562  2.8955 -0.9395
 6713SOL     OW31774   3.064   3.174   6.966  0.4563  0.1568 -0.0222
 6713SOL    HW131775   3.138   3.115   6.953  0.7612  0.3833  0.6640
 6713SOL    HW231776   3.083   3.254   6.918  1.0345 -0.6127 -1.0639
 6714SOL     OW31777   3.268   3.341  10.689  0.0095 -0.2622  0.7919
 6714SOL    HW131778   3.199   3.275  10.692  0.8835 -1.1978  0.1375
 6714SOL    HW231779   3.280   3.335  10.594 -0.6761  2.1250  0.5352
 6715SOL     OW31780   3.593   0.156  10.526  0.0564 -0.2803  0.2884
 6715SOL    HW131781   3.525   0.205  10.480  0.0116 -1.3716 -0.7882
 6715SOL    HW231782   3.639   0.230  10.565  0.4678 -0.1832 -0.4025
 6716SOL     OW31783   1.198   4.726   7.823  0.3957 -0.2585  0.1179
 6716SOL    HW131784   1.275   4.677   7.855  1.1234  0.1980 -0.9497
 6716SOL    HW231785   1.178   0.023   7.911 -0.4807  2.3196 -1.0759
 6717SOL     OW31786   1.108   0.420   9.057 -0.2146 -0.2156  0.0275
 6717SOL    HW131787   1.020   0.399   9.090 -0.3977  0.0304 -0.3079
 6717SOL    HW231788   1.100   0.426   8.962 -1.1780  0.3135  0.1462
 6718SOL     OW31789   4.382   3.339   8.991 -0.1270 -0.3571  0.2071
 6718SOL    HW131790   4.336   3.414   8.953  0.9714 -0.0081 -0.4209
 6718SOL    HW231791   4.312   3.276   8.975 -1.4801  1.1178  0.3039
 6719SOL     OW31792   4.388   0.482   5.166  0.2010  0.5401 -0.0194
 6719SOL    HW131793   4.341   0.461   5.085  1.1283 -0.6398 -0.2548
 6719SOL    HW231794   4.431   0.397   5.180 -3.4411 -0.9389  2.1113
 6720SOL     OW31795   2.041   3.905   4.574  0.4632  0.3717 -0.3427
 6720SOL    HW131796   2.124   3.925   4.530  1.2504 -0.1393  0.8873
 6720SOL    HW231797   2.065   3.917   4.666  2.2649 -1.9246 -0.5248
 6721SOL     OW31798   3.644   3.334   2.297 -0.0756  0.5569  0.0463
 6721SOL    HW131799   3.578   3.378   2.350  0.6536  2.7012 -0.8521
 6721SOL    HW231800   3.604   3.328   2.211  0.4825  1.1684 -0.2520
 6722SOL     OW31801   0.964   3.054  15.427 -0.2469 -0.1392 -0.4062
 6722SOL    HW131802   0.990   3.046  15.335 -0.1498 -0.6249 -0.3378
 6722SOL    HW231803   0.985   3.146  15.442 -0.1972 -0.0258 -1.1638
 6723SOL     OW31804   1.036   3.774   8.206 -0.0864  0.1699  0.3162
 6723SOL    HW131805   0.970   3.834   8.171  1.6448  2.2036  0.5891
 6723SOL    HW231806   1.019   3.797   8.297  1.9277  0.2138  0.6737
 6724SOL     OW31807   0.950   4.509   9.910  0.0379  0.7589 -0.2257
 6724SOL    HW131808   0.940   4.461   9.828  1.5914 -0.7645  0.4750
 6724SOL    HW231809   0.858   4.513   9.935  0.2764 -0.1309  0.8208
 6725SOL     OW31810   0.880   4.394   4.854 -0.5595  0.0498  1.0733
 6725SOL    HW131811   0.815   4.417   4.787  2.7827  0.7702 -1.9436
 6725SOL    HW231812   0.826   4.385   4.933 -0.7394 -0.0641  0.9375
 6726SOL     OW31813   2.295   0.743   3.177  0.3178  0.0580  0.6084
 6726SOL    HW131814   2.215   0.694   3.196  0.2348 -1.5298 -3.7455
 6726SOL    HW231815   2.307   0.714   3.086 -1.3517 -0.1248  0.4614
 6727SOL     OW31816   0.955   1.509   1.446 -0.1103  0.5095  0.7856
 6727SOL    HW131817   0.891   1.441   1.466  1.3121 -0.9099  0.5829
 6727SOL    HW231818   1.023   1.486   1.509 -0.0875 -0.9044  0.2500
 6728SOL     OW31819   0.876   1.820   7.277  0.0124  0.5715  0.5072
 6728SOL    HW131820   0.854   1.728   7.289 -0.5153  0.5242 -0.8077
 6728SOL    HW231821   0.851   1.855   7.362 -0.4774  0.9774  0.2029
 6729SOL     OW31822   1.989   2.547   4.090  0.3181  0.2384 -0.1610
 6729SOL    HW131823   2.006   2.508   4.004  0.2486 -1.5909  0.6367
 6729SOL    HW231824   1.938   2.625   4.071  0.0911  0.2072  0.3142
 6730SOL     OW31825   3.077   3.824   4.933  0.2348  0.1431  0.0373
 6730SOL    HW131826   3.101   3.735   4.908  0.4189  0.1686  0.1235
 6730SOL    HW231827   3.033   3.855   4.854  0.9130 -2.3584 -1.3248
 6731SOL     OW31828   2.400   4.531  12.040 -0.7893 -0.0643 -0.1806
 6731SOL    HW131829   2.339   4.478  11.990  0.8779  1.0155 -3.3485
 6731SOL    HW231830   2.389   4.617  11.999 -1.1613 -0.5442 -1.0943
 6732SOL     OW31831   3.467   4.188   1.711  0.2536 -0.7635 -0.3019
 6732SOL    HW131832   3.418   4.238   1.645  1.5549  1.6928  0.6173
 6732SOL    HW231833   3.411   4.111   1.700  0.3972 -0.9577  0.3612
 6733SOL     OW31834   2.300   2.985   0.076 -0.6760  0.1762  0.1286
 6733SOL    HW131835   2.380   2.990   0.023 -0.9333 -0.9870 -0.3610
 6733SOL    HW231836   2.249   2.907   0.054  0.2609  0.1817 -2.0593
 6734SOL     OW31837   1.106   4.122   1.121  0.3246 -0.1772  0.2981
 6734SOL    HW131838   1.089   4.115   1.027  1.2515  0.0956  0.1035
 6734SOL    HW231839   1.076   4.210   1.142  1.5470  1.1597 -3.5134
 6735SOL     OW31840   3.367   0.241   7.391 -0.2118  0.0656 -0.2255
 6735SOL    HW131841   3.318   0.289   7.458  0.4531 -0.5380  0.6925
 6735SOL    HW231842   3.445   0.297   7.382 -1.0466  1.0809 -1.1470
 6736SOL     OW31843   2.403   1.555   4.001  0.5649  0.1976 -0.3919
 6736SOL    HW131844   2.337   1.585   3.938  1.1282  2.8727  0.2964
 6736SOL    HW231845   2.475   1.521   3.948 -1.0080 -2.0249 -1.1058
 6737SOL     OW31846   1.169   4.321   2.971 -0.6171  0.2791  0.3213
 6737SOL    HW131847   1.089   4.373   2.977 -2.3227 -2.1101 -1.6350
 6737SOL    HW231848   1.144   4.247   3.025  3.1836  0.2257  1.9521
 6738SOL     OW31849   3.828   3.567  16.003  0.3488 -0.0007 -0.5751
 6738SOL    HW131850   3.764   3.499  16.024  0.7250 -0.1015  0.2718
 6738SOL    HW231851   3.904   3.514  15.981  0.8592 -0.2968  1.8502
 6739SOL     OW31852   2.773   0.690   6.616 -0.2255  0.3868  0.5052
 6739SOL    HW131853   2.822   0.737   6.548 -0.8890 -1.4890 -1.2620
 6739SOL    HW231854   2.800   0.747   6.688  0.1762 -0.5467  1.1005
 6740SOL     OW31855   1.666   4.653   4.641 -0.2188  0.3588  0.0719
 6740SOL    HW131856   1.592   4.711   4.654 -1.1541 -1.2323  1.7632
 6740SOL    HW231857   1.672   4.634   4.735  0.3570  1.3466  0.2399
 6741SOL     OW31858   0.943   1.825   4.500  0.0091 -0.2642 -0.8398
 6741SOL    HW131859   0.879   1.798   4.434  1.1528 -0.5439 -1.8157
 6741SOL    HW231860   0.914   1.908   4.539 -1.4719 -0.9421 -0.4873
 6742SOL     OW31861   1.355   3.809   3.915 -0.2866 -0.4835 -0.2604
 6742SOL    HW131862   1.290   3.880   3.919  1.1406  0.8737 -1.2898
 6742SOL    HW231863   1.398   3.821   3.831 -0.6167  0.1543 -0.3407
 6743SOL     OW31864   3.573   0.430   2.300  0.4895  0.0897 -0.2502
 6743SOL    HW131865   3.559   0.524   2.302 -0.9794 -0.1938  3.4406
 6743SOL    HW231866   3.591   0.425   2.206  0.8280  0.7424 -0.2199
 6744SOL     OW31867   2.942   2.404   8.507 -0.6045  0.1031  0.1550
 6744SOL    HW131868   2.912   2.422   8.596 -0.2196  0.7484  0.1466
 6744SOL    HW231869   2.894   2.454   8.441 -2.4472  0.2781  1.6419
 6745SOL     OW31870   2.489   3.843   9.187 -0.1996  0.8485 -0.1449
 6745SOL    HW131871   2.526   3.783   9.251 -1.1516 -0.6668 -1.0060
 6745SOL    HW231872   2.514   3.804   9.103 -1.0292  2.0142 -0.9351
 6746SOL     OW31873   4.201   3.423  11.199 -0.0993  0.1713 -0.3702
 6746SOL    HW131874   4.219   3.340  11.243  2.7511  0.5055 -0.9079
 6746SOL    HW231875   4.238   3.404  11.112 -1.1056 -0.6229 -0.6208
 6747SOL     OW31876   1.976   1.334   4.462  0.3244 -0.0100  0.6451
 6747SOL    HW131877   2.034   1.355   4.389  0.6679  1.2594  1.2838
 6747SOL    HW231878   1.904   1.299   4.409  0.2951  1.2333 -0.1419
 6748SOL     OW31879   1.317   1.948   4.003  0.1483  0.2804  0.2521
 6748SOL    HW131880   1.237   1.936   4.054 -1.3602 -0.7067 -2.3432
 6748SOL    HW231881   1.293   1.935   3.911  3.0323 -1.9994 -0.1755
 6749SOL     OW31882   4.511   0.202   4.337  0.0354  0.5952  0.1245
 6749SOL    HW131883   4.584   0.201   4.398  2.0655  2.5390 -2.2738
 6749SOL    HW231884   4.512   0.110   4.311  0.9423  0.3781  0.9568
 6750SOL     OW31885   3.125   1.265   1.006 -0.3416 -0.2795  0.1265
 6750SOL    HW131886   3.055   1.330   1.011  0.6323  0.9027 -1.4323
 6750SOL    HW231887   3.084   1.196   1.057 -1.0944  1.5159  1.9371
 6751SOL     OW31888   0.034   0.440  16.669  1.3083  0.0538 -1.6203
 6751SOL    HW131889   4.722   0.517  16.699  0.5490 -1.3263  0.6720
 6751SOL    HW231890   4.703   0.381  16.635 -0.6442  1.0134  0.6356
 6752SOL     OW31891   0.975   2.030   2.620 -0.0113  0.1346  0.0997
 6752SOL    HW131892   1.027   1.991   2.690  0.7979 -0.0151 -0.5793
 6752SOL    HW231893   0.884   2.016   2.647 -0.3623  3.3284  0.4672
 6753SOL     OW31894   1.022   3.835  11.058  0.3252 -0.1091 -0.5074
 6753SOL    HW131895   0.999   3.928  11.046  2.8947  0.6027 -0.0744
 6753SOL    HW231896   0.982   3.812  11.141  0.0506  3.7593  0.4680
 6754SOL     OW31897   0.661   2.313  10.501 -0.2950 -0.0725 -0.4367
 6754SOL    HW131898   0.612   2.312  10.584  0.8148  2.2030  0.2347
 6754SOL    HW231899   0.688   2.223  10.483 -0.9816 -0.3746  0.0327
 6755SOL     OW31900   0.651   1.961   5.868 -0.2103  0.5361  0.1906
 6755SOL    HW131901   0.616   1.967   5.779  1.5036  1.3662 -0.4452
 6755SOL    HW231902   0.573   1.975   5.921 -1.1335 -0.2353 -0.9736
 6756SOL     OW31903   1.357   1.458   2.616 -0.4632 -0.1881  0.0738
 6756SOL    HW131904   1.311   1.538   2.592  2.1485  0.7699 -1.7943
 6756SOL    HW231905   1.446   1.485   2.638 -0.5834  0.4306 -0.2008
 6757SOL     OW31906   2.283   1.575   6.956 -0.0218 -0.0386 -0.3325
 6757SOL    HW131907   2.221   1.633   6.912  0.3513  0.7328  0.1649
 6757SOL    HW231908   2.364   1.581   6.904  0.6491 -0.7227  0.6227
 6758SOL     OW31909   3.095   4.240  10.028 -0.7021 -0.0997  0.3902
 6758SOL    HW131910   3.066   4.152  10.051 -0.9406 -0.1045  0.0577
 6758SOL    HW231911   3.044   4.246   9.947 -0.7735 -0.6435  0.3904
 6759SOL     OW31912   2.920   0.763   7.193  0.2781 -0.6450 -0.2215
 6759SOL    HW131913   2.925   0.754   7.098 -0.0126 -2.1517 -0.0897
 6759SOL    HW231914   2.951   0.679   7.226  1.6579  0.4645  1.3399
 6760SOL     OW31915   2.251   3.002   3.557 -0.7470  0.2410 -0.8069
 6760SOL    HW131916   2.285   3.050   3.633  0.1741 -1.6959  0.0013
 6760SOL    HW231917   2.272   3.054   3.480  0.3884  0.8858 -0.0678
 6761SOL     OW31918   3.308   3.346   2.827 -0.4153  0.4579  0.1173
 6761SOL    HW131919   3.214   3.339   2.843 -0.3379 -0.9953 -0.0844
 6761SOL    HW231920   3.320   3.322   2.735  0.0777 -0.7203  0.4817
 6762SOL     OW31921   4.716   3.735  12.977 -0.6102 -0.4534  0.0137
 6762SOL    HW131922   0.040   3.716  12.905  1.4500 -3.0683  2.4497
 6762SOL    HW231923   4.663   3.803  12.935 -0.0995 -0.4713 -0.6611
 6763SOL     OW31924   2.869   4.443   7.749  0.3721 -0.2219  0.3056
 6763SOL    HW131925   2.900   4.353   7.758  0.3863 -0.2253  0.2208
 6763SOL    HW231926   2.869   4.472   7.841 -0.3509  0.0958  0.2066
 6764SOL     OW31927   0.785   3.755   8.749 -0.5605 -0.3342  0.1051
 6764SOL    HW131928   0.695   3.773   8.720 -0.4834 -0.5661 -0.2718
 6764SOL    HW231929   0.798   3.664   8.724 -1.2542 -0.4374  0.1057
 6765SOL     OW31930   3.793   4.685  10.565 -0.0374 -0.3058  0.2734
 6765SOL    HW131931   3.863   4.735  10.523  1.4950 -0.6323  2.4646
 6765SOL    HW231932   3.717   0.003  10.542  0.6806  0.4275 -0.3715
 6766SOL     OW31933   4.708   2.596  12.525 -0.0300  0.3236 -0.3515
 6766SOL    HW131934   4.677   2.584  12.615  0.9727 -1.4901 -0.2631
 6766SOL    HW231935   0.058   2.637  12.539 -0.6005  0.8581  1.5246
 6767SOL     OW31936   3.952   0.365  13.137  0.1796 -0.2651 -0.0380
 6767SOL    HW131937   3.902   0.291  13.171 -0.3486  0.9250  1.7235
 6767SOL    HW231938   3.882   0.417  13.098 -2.1784 -2.7481  0.8512
 6768SOL     OW31939   3.897   0.188   6.488  0.4374 -0.2471 -0.5130
 6768SOL    HW131940   3.885   0.176   6.583  0.3365  1.1582 -0.3475
 6768SOL    HW231941   3.989   0.215   6.487 -0.9048  4.2429 -1.4562
 6769SOL     OW31942   0.360   2.896  11.641  0.3732  0.4326 -0.4817
 6769SOL    HW131943   0.425   2.940  11.695 -0.9823  0.3754  1.2224
 6769SOL    HW231944   0.318   2.843  11.709  0.7390 -0.1238 -0.6862
 6770SOL     OW31945   1.860   2.380   7.147  0.5224 -0.3157  0.2831
 6770SOL    HW131946   1.801   2.444   7.107 -2.1808 -2.0224  1.5465
 6770SOL    HW231947   1.798   2.314   7.178  1.9504 -0.7182  2.2780
 6771SOL     OW31948   3.288   4.499   4.229 -0.1943  0.3553  0.5487
 6771SOL    HW131949   3.198   4.474   4.248  0.0817 -0.3445  0.9418
 6771SOL    HW231950   3.337   4.423   4.260  0.7570 -0.1059 -2.0549
 6772SOL     OW31951   3.184   1.753   7.991 -0.0723  0.1329  0.1614
 6772SOL    HW131952   3.134   1.832   7.969 -0.8452  0.6169  3.6795
 6772SOL    HW231953   3.252   1.785   8.050  1.9869 -3.1602 -0.4020
 6773SOL     OW31954   1.162   3.633   8.000  0.2716 -0.8007  0.3832
 6773SOL    HW131955   1.105   3.557   8.013 -1.4254  0.7192  1.7269
 6773SOL    HW231956   1.125   3.692   8.066  0.8216 -0.6722  0.5798
 6774SOL     OW31957   3.543   4.695   8.869  0.2927 -0.6788 -0.5671
 6774SOL    HW131958   3.486   4.619   8.876 -2.7302  1.2130 -4.4442
 6774SOL    HW231959   3.540   4.731   8.958  1.6479 -2.6522  0.2697
 6775SOL     OW31960   1.661   3.924   2.292  0.3878 -0.1104 -0.1001
 6775SOL    HW131961   1.631   3.927   2.383  1.2201 -0.3759  0.1823
 6775SOL    HW231962   1.704   3.839   2.291  3.1164  1.3056 -1.3932
 6776SOL     OW31963   1.565   0.462   3.945 -0.8036 -0.6776 -0.4647
 6776SOL    HW131964   1.641   0.519   3.931 -2.2534  1.5090  0.6088
 6776SOL    HW231965   1.559   0.466   4.040  3.5061  2.6691 -0.3286
 6777SOL     OW31966   1.374   3.869   4.325 -0.1972 -0.1486 -0.8970
 6777SOL    HW131967   1.370   3.923   4.246  0.0920 -0.8818 -1.4103
 6777SOL    HW231968   1.444   3.805   4.308  0.0349 -0.1026 -0.1516
 6778SOL     OW31969   2.932   3.334   0.267 -0.8211  0.1777  0.3898
 6778SOL    HW131970   2.963   3.270   0.331  0.7300  2.8472  2.2808
 6778SOL    HW231971   2.912   3.415   0.313  0.8028  1.0926 -0.4985
 6779SOL     OW31972   3.595   2.523   3.772  0.1527 -0.1323 -0.4965
 6779SOL    HW131973   3.689   2.517   3.785 -0.3125 -2.9465  1.5927
 6779SOL    HW231974   3.569   2.431   3.769 -0.0051 -0.1426  1.1090
 6780SOL     OW31975   4.430   4.580   9.276  0.3762  0.2818 -0.0034
 6780SOL    HW131976   4.507   4.571   9.220  1.9419 -0.1353  2.2197
 6780SOL    HW231977   4.413   4.490   9.305 -0.0797  0.0505 -0.9512
 6781SOL     OW31978   0.675   4.515  11.636 -0.4171 -0.1436 -0.4735
 6781SOL    HW131979   0.654   4.556  11.720 -0.0817 -1.7526  0.3983
 6781SOL    HW231980   0.594   4.464  11.631  0.0543 -0.7924 -1.6859
 6782SOL     OW31981   3.557   3.411   4.904  0.0998  0.7230 -0.3846
 6782SOL    HW131982   3.506   3.335   4.928  1.7644  0.1964  1.4692
 6782SOL    HW231983   3.606   3.387   4.825 -2.5457  2.2313 -2.5013
 6783SOL     OW31984   3.208   3.845   0.043 -0.1423 -0.6055 -0.4735
 6783SOL    HW131985   3.209   3.818   0.135  1.2326  0.3695 -0.1958
 6783SOL    HW231986   3.303   3.846   0.032 -0.3721  0.6480 -2.3935
 6784SOL     OW31987   4.164   0.652   8.762  0.1536  0.6996  0.2609
 6784SOL    HW131988   4.222   0.721   8.793  0.8994  0.0227  0.3678
 6784SOL    HW231989   4.218   0.573   8.772 -0.7612 -0.0195 -0.5381
 6785SOL     OW31990   3.299   0.524   2.567 -0.1732  0.1306 -0.2629
 6785SOL    HW131991   3.233   0.460   2.593  2.0733 -1.9311  0.3258
 6785SOL    HW231992   3.344   0.468   2.505  0.0564 -1.2122  1.1185
 6786SOL     OW31993   0.614   3.768  16.773  0.3375 -0.3754 -0.0362
 6786SOL    HW131994   0.533   3.790  16.725  0.6544  1.4844  0.2734
 6786SOL    HW231995   0.672   3.842  16.755 -0.5023  0.0031 -1.2131
 6787SOL     OW31996   3.769   0.969  17.512 -0.3165  0.2721 -0.5733
 6787SOL    HW131997   3.858   0.933  17.505 -0.2604  0.2739  0.1659
 6787SOL    HW231998   3.777   1.064  17.509 -2.8108  0.5149  0.4732
 6788SOL     OW31999   0.608   1.645   1.822  0.2845  0.1187  0.7250
 6788SOL    HW132000   0.704   1.643   1.823  0.2936  0.0791 -0.2741
 6788SOL    HW232001   0.581   1.580   1.758 -0.0109  0.7155  0.2445
 6789SOL     OW32002   1.706   4.411   9.028  0.8420 -0.3868 -0.1081
 6789SOL    HW132003   1.663   4.377   8.949 -0.3700 -1.1794  0.8757
 6789SOL    HW232004   1.782   4.354   9.041  0.5005 -0.9560 -0.5949
 6790SOL     OW32005   2.631   3.636  17.193 -0.7061  0.2082 -0.1566
 6790SOL    HW132006   2.596   3.579  17.124  0.8029 -0.1149 -0.6470
 6790SOL    HW232007   2.587   3.615  17.276 -1.5991  1.6407 -0.2654
 6791SOL     OW32008   2.151   0.387  11.612 -0.3804 -0.0337  0.3347
 6791SOL    HW132009   2.085   0.383  11.544 -0.0329 -1.4688  0.0785
 6791SOL    HW232010   2.107   0.368  11.695  1.1329 -0.0774  1.1338
 6792SOL     OW32011   3.251   1.076   5.068 -0.3029  0.1645  0.3030
 6792SOL    HW132012   3.288   1.135   5.133 -1.1649 -0.2430  1.1618
 6792SOL    HW232013   3.290   0.991   5.088  0.1547 -0.2867 -2.4750
 6793SOL     OW32014   3.696   0.367   4.372  0.6982 -0.3745 -0.7540
 6793SOL    HW132015   3.630   0.311   4.332 -1.3506  0.8092  0.9168
 6793SOL    HW232016   3.713   0.426   4.299 -1.5755 -0.4102 -1.3116
 6794SOL     OW32017   1.960   0.943   5.546 -0.1840  0.4479  0.4753
 6794SOL    HW132018   1.962   0.860   5.499 -1.9325  0.3316  0.6133
 6794SOL    HW232019   1.963   0.922   5.639 -0.1599  0.8903  0.5735
 6795SOL     OW32020   1.058   3.269   2.830 -0.7517 -0.0443  0.2812
 6795SOL    HW132021   1.064   3.220   2.748  0.7167 -1.0827  1.0081
 6795SOL    HW232022   1.024   3.205   2.893  1.1079  0.1635  1.4939
 6796SOL     OW32023   3.008   4.445  17.506 -0.2100 -0.2235  0.1037
 6796SOL    HW132024   2.989   4.463  17.414  0.7537  3.1830  0.5448
 6796SOL    HW232025   2.924   4.421  17.543 -1.0888 -0.4275 -2.0359
 6797SOL     OW32026   2.873   0.998   8.726  0.5304  0.3584 -0.1042
 6797SOL    HW132027   2.967   0.978   8.725  0.2309 -1.0704 -0.3706
 6797SOL    HW232028   2.874   1.083   8.770  3.1561 -0.1594  0.8696
 6798SOL     OW32029   0.557   2.324  16.681 -0.5534  0.2238  0.2815
 6798SOL    HW132030   0.628   2.263  16.659 -2.5090 -1.4367 -1.4059
 6798SOL    HW232031   0.605   2.406  16.695  1.2311 -1.1063  2.0020
 6799SOL     OW32032   2.964   3.296   1.256 -0.3519  0.4657  0.2012
 6799SOL    HW132033   2.869   3.283   1.253 -0.2996 -0.1287  1.1742
 6799SOL    HW232034   2.992   3.210   1.286 -0.5772  0.4817  0.4563
 6800SOL     OW32035   3.611   1.176  13.197  0.2311  0.6715 -0.0978
 6800SOL    HW132036   3.555   1.253  13.186 -2.7698 -1.4824  0.3175
 6800SOL    HW232037   3.568   1.121  13.132  0.2710  0.9662 -0.3745
 6801SOL     OW32038   2.542   3.062  16.249  0.2855 -0.0972 -0.2551
 6801SOL    HW132039   2.511   2.985  16.202 -2.2962 -0.2905  1.7617
 6801SOL    HW232040   2.615   3.091  16.195  1.3333  0.9977  1.7357
 6802SOL     OW32041   4.573   0.697   7.237  0.4569  0.0497  0.1391
 6802SOL    HW132042   4.616   0.615   7.212  0.8453 -0.2753  1.8529
 6802SOL    HW232043   4.595   0.700   7.331  0.6796 -2.1032  0.1495
 6803SOL     OW32044   0.904   1.701   1.078 -0.0973 -0.5249 -0.2111
 6803SOL    HW132045   0.918   1.781   1.028  1.6404  0.2095  1.4489
 6803SOL    HW232046   0.809   1.695   1.071 -0.2018  0.3341  0.4152
 6804SOL     OW32047   0.689   0.940  12.954 -0.6134 -0.5701  0.4072
 6804SOL    HW132048   0.628   1.008  12.983 -2.2256 -1.1833 -1.5796
 6804SOL    HW232049   0.733   0.976  12.878  1.4761 -0.4535  1.6659
 6805SOL     OW32050   2.730   1.106   1.446  0.0074 -0.1370  0.3140
 6805SOL    HW132051   2.816   1.072   1.469 -0.1451 -1.5409 -1.1651
 6805SOL    HW232052   2.754   1.191   1.408  1.9709 -0.7597  0.1950
 6806SOL     OW32053   1.074   2.094   9.071 -0.0611 -0.0615  0.2530
 6806SOL    HW132054   1.124   2.164   9.114 -0.4502 -0.4820  1.3647
 6806SOL    HW232055   1.104   2.011   9.107 -2.8583 -1.7316 -1.2520
 6807SOL     OW32056   3.350   4.545   0.481  0.2285  0.2339  0.3321
 6807SOL    HW132057   3.325   4.631   0.517 -1.6946 -0.7667  1.3984
 6807SOL    HW232058   3.396   4.503   0.554 -1.6987  0.6714  1.8081
 6808SOL     OW32059   1.029   0.101   7.622  0.1532 -0.4132  0.1653
 6808SOL    HW132060   1.078   0.065   7.696 -1.9308  0.9655  2.2291
 6808SOL    HW232061   0.951   0.147   7.654  0.6729  0.4321  0.1952
 6809SOL     OW32062   0.887   0.739   9.148  0.0419 -0.2032  0.7729
 6809SOL    HW132063   0.857   0.666   9.203 -0.4564 -0.8506 -0.3758
 6809SOL    HW232064   0.842   0.722   9.066  0.3007 -1.4859  0.8908
 6810SOL     OW32065   4.207   0.854  15.731 -0.9976  0.7792 -0.2275
 6810SOL    HW132066   4.245   0.883  15.814 -0.6245 -1.7779  0.4965
 6810SOL    HW232067   4.186   0.936  15.686  1.2006  1.4903  0.0527
 6811SOL     OW32068   0.822   2.699   5.293 -0.1690  0.8231 -0.5247
 6811SOL    HW132069   0.885   2.673   5.360 -0.0193 -1.4837 -1.5636
 6811SOL    HW232070   0.885   2.681   5.223 -1.0426  0.9918 -1.3581
 6812SOL     OW32071   0.619   1.711   1.141  0.0125 -0.7959  0.2017
 6812SOL    HW132072   0.633   1.799   1.176  0.2230 -0.7792  0.0738
 6812SOL    HW232073   0.581   1.658   1.211  0.2683 -0.9012  0.2604
 6813SOL     OW32074   0.388   2.332   7.816  0.0896 -0.1166 -0.0839
 6813SOL    HW132075   0.387   2.315   7.910 -1.1764 -2.1841 -0.4783
 6813SOL    HW232076   0.302   2.374   7.806  0.3966  0.4650 -0.2816
 6814SOL     OW32077   0.905   1.432   1.130  0.2846 -0.2247 -0.7049
 6814SOL    HW132078   0.924   1.522   1.102  2.5299 -0.9557 -1.4794
 6814SOL    HW232079   0.942   1.428   1.218  1.7114  1.2068 -1.2509
 6815SOL     OW32080   0.387   4.364   5.656 -0.4152 -0.2194  0.0969
 6815SOL    HW132081   0.305   4.316   5.652 -1.1135  1.2042 -2.3810
 6815SOL    HW232082   0.403   4.383   5.749 -0.9560  1.3901 -0.1391
 6816SOL     OW32083   1.554   2.835   6.732 -0.2161  0.0208 -0.1941
 6816SOL    HW132084   1.547   2.873   6.644  0.8048 -0.9035 -0.6778
 6816SOL    HW232085   1.541   2.912   6.786  0.0093 -1.8619  2.5328
 6817SOL     OW32086   4.524   2.716  15.190 -0.2509  0.3501  0.1120
 6817SOL    HW132087   4.509   2.761  15.273 -0.0846 -0.7612  0.7378
 6817SOL    HW232088   4.587   2.777  15.151 -0.1075 -1.2206 -2.0978
 6818SOL     OW32089   2.100   2.318   3.882  0.6895 -0.2469 -0.2214
 6818SOL    HW132090   2.183   2.362   3.863  0.5234  1.1270  2.2394
 6818SOL    HW232091   2.089   2.256   3.810  1.1943  0.0396 -0.5393
 6819SOL     OW32092   3.694   2.184   4.051 -0.0619 -0.5775  0.0648
 6819SOL    HW132093   3.617   2.141   4.088 -0.3164  0.1844  0.4244
 6819SOL    HW232094   3.722   2.235   4.127  3.1088 -2.3082  0.0654
 6820SOL     OW32095   3.409   0.476   6.660  0.0954 -0.4081  0.0922
 6820SOL    HW132096   3.399   0.418   6.736  0.0158  0.0064  0.3957
 6820SOL    HW232097   3.370   0.555   6.696  1.5219 -0.4091  1.6806
 6821SOL     OW32098   3.399   0.664   5.861 -0.2070 -0.4234  0.3526
 6821SOL    HW132099   3.395   0.727   5.933  1.1457 -1.0519  0.9829
 6821SOL    HW232100   3.318   0.614   5.862 -0.1992 -0.3527  2.7516
 6822SOL     OW32101   3.284   4.109   6.182  0.8958  0.2714  0.2107
 6822SOL    HW132102   3.348   4.051   6.223 -0.6026 -1.1047  0.5858
 6822SOL    HW232103   3.329   4.119   6.098 -0.8290 -0.4853 -0.8094
 6823SOL     OW32104   1.666   2.625   6.007  0.4448 -0.0370 -0.2493
 6823SOL    HW132105   1.750   2.586   6.032 -0.4057 -2.4043 -1.1018
 6823SOL    HW232106   1.648   2.591   5.920  0.1837  2.5564 -1.2233
 6824SOL     OW32107   2.770   4.540   4.274  0.0342 -0.4410  0.3041
 6824SOL    HW132108   2.721   4.461   4.296  0.8590 -1.0526 -0.0892
 6824SOL    HW232109   2.745   4.588   4.354  0.6616 -0.4794  0.5225
 6825SOL     OW32110   4.144   4.303   8.817 -0.2168 -0.3904  0.0345
 6825SOL    HW132111   4.171   4.395   8.821 -2.3764  0.2239  0.5122
 6825SOL    HW232112   4.225   4.267   8.854 -0.2586  0.1366  0.6391
 6826SOL     OW32113   0.783   0.410  16.536 -0.0384 -0.0906 -0.2993
 6826SOL    HW132114   0.753   0.379  16.450  3.1764 -1.6690 -0.8286
 6826SOL    HW232115   0.698   0.429  16.578  0.5775  0.3338  0.7524
 6827SOL     OW32116   3.819   0.110   8.279  0.2361  0.3622  0.4854
 6827SOL    HW132117   3.799   0.016   8.279 -0.8206  0.5940  1.5536
 6827SOL    HW232118   3.914   0.106   8.268  0.0714  2.5110 -1.6637
 6828SOL     OW32119   2.557   2.205   2.356 -0.1306 -0.1867 -1.3093
 6828SOL    HW132120   2.633   2.171   2.309  1.3280 -2.2737  2.5064
 6828SOL    HW232121   2.588   2.284   2.400 -1.0926 -0.5255  0.0058
 6829SOL     OW32122   1.285   0.281   4.660  0.5749  0.4231  0.8773
 6829SOL    HW132123   1.264   0.374   4.662  1.2081  0.5777  0.4401
 6829SOL    HW232124   1.222   0.254   4.727 -0.8454 -0.7881 -0.9769
 6830SOL     OW32125   3.252   3.160  15.768  0.2671 -0.0816  0.2469
 6830SOL    HW132126   3.246   3.130  15.858 -1.3812  1.4737  0.6524
 6830SOL    HW232127   3.328   3.219  15.775 -0.0876  0.3415  0.5172
 6831SOL     OW32128   3.055   1.651   7.570  0.0691  0.0475  0.0367
 6831SOL    HW132129   2.996   1.590   7.526 -2.6999  2.9498 -0.2311
 6831SOL    HW232130   3.086   1.598   7.644 -1.8516  0.5037  1.1790
 6832SOL     OW32131   1.270   0.352  13.309  0.5209  0.0266  0.1363
 6832SOL    HW132132   1.208   0.344  13.236 -1.8244 -3.4678  2.5211
 6832SOL    HW232133   1.352   0.349  13.261  0.8175 -1.5369  0.7428
 6833SOL     OW32134   2.280   3.886  16.155 -0.0981  0.8043 -0.4268
 6833SOL    HW132135   2.260   3.799  16.192  0.4687  1.3005  1.0603
 6833SOL    HW232136   2.374   3.890  16.141  0.3171 -2.9512  1.1664
 6834SOL     OW32137   0.328   3.643   2.630 -0.3137  0.6879  0.3390
 6834SOL    HW132138   0.322   3.553   2.662  1.1524  0.0633 -1.1648
 6834SOL    HW232139   0.417   3.648   2.597  0.6889 -0.8345  2.8103
 6835SOL     OW32140   2.803   4.152   4.618 -0.3682  0.3879  0.5068
 6835SOL    HW132141   2.725   4.097   4.614 -0.5534  0.7491 -0.7921
 6835SOL    HW232142   2.788   4.194   4.703  1.6594  2.9288 -0.3583
 6836SOL     OW32143   0.122   4.521   2.606 -0.2210 -0.1045 -0.4838
 6836SOL    HW132144   0.079   4.475   2.678  0.0175 -0.9011 -0.8431
 6836SOL    HW232145   0.204   4.471   2.601 -0.2728 -0.2972  0.8191
 6837SOL     OW32146   3.466   2.062   4.958  0.4110  0.0187 -0.0982
 6837SOL    HW132147   3.489   2.145   5.000 -1.1046  0.5202 -0.2671
 6837SOL    HW232148   3.396   2.024   5.011  0.6369 -0.8411 -0.4107
 6838SOL     OW32149   4.144   0.575  16.034  0.3902  0.0560 -0.5487
 6838SOL    HW132150   4.098   0.551  15.954 -1.7024  2.1102  0.0394
 6838SOL    HW232151   4.142   0.671  16.038  1.0437  0.0338  0.1898
 6839SOL     OW32152   4.003   2.777   7.268  0.2504 -0.0645 -0.7021
 6839SOL    HW132153   4.045   2.793   7.352 -0.9552 -1.3012  0.1282
 6839SOL    HW232154   3.969   2.859   7.231 -4.9994 -1.0359  1.9762
 6840SOL     OW32155   3.213   0.959   5.445 -0.3544 -0.2323  0.6142
 6840SOL    HW132156   3.212   0.883   5.503  3.0240  1.1745  2.5532
 6840SOL    HW232157   3.182   1.035   5.494 -0.7413  0.3063 -0.4690
 6841SOL     OW32158   0.051   1.667  17.526  0.1247  0.3328  0.4177
 6841SOL    HW132159   4.722   1.628  17.584 -0.2167 -0.6015 -0.5936
 6841SOL    HW232160   0.042   1.759  17.552 -0.8600  0.4152 -0.1968
 6842SOL     OW32161   2.931   0.966  16.142  0.2060  0.8515  0.3661
 6842SOL    HW132162   2.878   0.934  16.215 -1.4188 -0.0947 -1.2095
 6842SOL    HW232163   3.008   1.008  16.181  1.2688 -1.6302  0.9480
 6843SOL     OW32164   1.979   2.884   3.680  0.0345  0.4708 -0.4358
 6843SOL    HW132165   2.034   2.895   3.758 -1.7300 -2.6592  1.2861
 6843SOL    HW232166   1.923   2.962   3.679 -3.1119 -1.7550  0.8853
 6844SOL     OW32167   0.627   1.985  14.096  0.1299  0.3947 -0.4511
 6844SOL    HW132168   0.620   2.044  14.022  0.5186  2.1286  0.8902
 6844SOL    HW232169   0.713   2.001  14.136 -0.3485  0.7422  0.4272
 6845SOL     OW32170   4.329   2.571   9.094 -0.0629  0.3844  0.2178
 6845SOL    HW132171   4.339   2.641   9.030  0.1815  0.6942  0.6001
 6845SOL    HW232172   4.410   2.524   9.075  0.5296  0.8858  1.5486
 6846SOL     OW32173   0.260   4.108  16.248  0.4557 -0.4402  0.0939
 6846SOL    HW132174   0.193   4.177  16.248  0.2571 -0.6380 -0.7897
 6846SOL    HW232175   0.311   4.150  16.178  0.4099  0.2464  0.4684
 6847SOL     OW32176   4.489   3.810   0.237  0.3738  0.4365  0.0031
 6847SOL    HW132177   4.401   3.824   0.202 -0.0719  0.5614  1.2007
 6847SOL    HW232178   4.466   3.734   0.290  2.0690 -0.6383 -0.7730
 6848SOL     OW32179   3.936   2.281   5.579 -0.4147  0.2910  0.0926
 6848SOL    HW132180   3.975   2.247   5.659  0.0235 -1.5975 -0.9366
 6848SOL    HW232181   4.018   2.293   5.530 -0.6419  0.6435 -0.1998
 6849SOL     OW32182   3.361   0.408   0.685 -0.8097 -0.5214 -0.1684
 6849SOL    HW132183   3.319   0.392   0.600  4.0142 -1.7276 -2.3497
 6849SOL    HW232184   3.430   0.343   0.675 -0.4260  0.0637 -1.4177
 6850SOL     OW32185   0.823   3.053  10.985 -0.3590 -0.4954 -0.5022
 6850SOL    HW132186   0.772   3.127  10.950  1.1293  2.5648  3.6994
 6850SOL    HW232187   0.876   3.031  10.909  1.2550 -2.1022  1.0872
 6851SOL     OW32188   4.069   3.740  16.810  0.0138 -0.3889  0.0972
 6851SOL    HW132189   4.131   3.667  16.807 -1.9224 -2.0240 -0.4633
 6851SOL    HW232190   4.075   3.777  16.898  2.1139  2.1680 -1.1417
 6852SOL     OW32191   0.792   3.500  10.495  0.1501  0.3265  0.1558
 6852SOL    HW132192   0.877   3.463  10.470  0.6845  0.3410  1.9885
 6852SOL    HW232193   0.823   3.569  10.553  0.1147 -0.6070  1.2823
 6853SOL     OW32194   0.418   0.738   9.756 -0.8791 -0.3622 -0.1790
 6853SOL    HW132195   0.386   0.698   9.836 -0.0641  1.0201  0.8348
 6853SOL    HW232196   0.348   0.798   9.729  1.7130  2.5440 -0.5147
 6854SOL     OW32197   2.370   2.595  17.721 -0.2414  0.2722  0.2683
 6854SOL    HW132198   2.451   2.644  17.736 -0.0868 -0.0465  0.4633
 6854SOL    HW232199   2.384   2.516   0.030 -0.4638  0.4044  0.5344
 6855SOL     OW32200   1.870   0.823   8.286  0.4052  0.1114  0.6269
 6855SOL    HW132201   1.954   0.780   8.304 -0.9723 -1.6733  2.7941
 6855SOL    HW232202   1.889   0.917   8.290 -1.1766  0.4063  0.9058
 6856SOL     OW32203   3.848   1.575   0.227 -1.0153 -0.0935  0.1723
 6856SOL    HW132204   3.864   1.485   0.257 -1.8957 -0.4657 -0.4703
 6856SOL    HW232205   3.832   1.628   0.305  1.4238 -0.4868  0.9370
 6857SOL     OW32206   0.469   2.345  10.296 -0.5819  0.2198  0.4268
 6857SOL    HW132207   0.419   2.265  10.312 -3.0576  1.8261  0.6414
 6857SOL    HW232208   0.526   2.338  10.372  0.7252 -0.1862 -0.6018
 6858SOL     OW32209   4.058   4.562  12.952 -0.1757  0.3905 -0.0025
 6858SOL    HW132210   3.991   4.575  12.884 -0.5468  0.8408  0.4506
 6858SOL    HW232211   4.124   4.512  12.904 -2.8510 -0.4248 -2.8198
 6859SOL     OW32212   0.480   2.318   6.680 -0.7717  0.1574  0.1500
 6859SOL    HW132213   0.564   2.365   6.680 -0.3598 -0.5705 -0.7246
 6859SOL    HW232214   0.505   2.229   6.654  0.5159  0.6342 -0.2541
 6860SOL     OW32215   0.714   3.478   9.587  0.3170 -0.0652  0.4019
 6860SOL    HW132216   0.787   3.445   9.639  0.2079  0.3521  0.8142
 6860SOL    HW232217   0.674   3.398   9.553 -2.3569  2.2802 -1.9717
 6861SOL     OW32218   0.075   1.964  14.112 -0.0369  0.3358 -0.2533
 6861SOL    HW132219   0.069   2.021  14.189 -1.5361 -1.4934  0.9996
 6861SOL    HW232220   0.169   1.951  14.107  0.1015  0.4027  2.1665
 6862SOL     OW32221   2.601   2.729   2.446 -0.3922 -0.1080 -0.0328
 6862SOL    HW132222   2.522   2.748   2.395  0.1172  1.5652 -0.1941
 6862SOL    HW232223   2.656   2.699   2.374  0.3056  1.4252 -0.1455
 6863SOL     OW32224   1.013   1.472   8.545  0.3477  0.4599 -0.3947
 6863SOL    HW132225   0.992   1.417   8.469  1.0948  0.3147 -0.4956
 6863SOL    HW232226   1.011   1.401   8.609 -0.3448  0.4379 -0.4471
 6864SOL     OW32227   3.017   4.260   6.167  0.5706  0.0059  0.2884
 6864SOL    HW132228   3.104   4.226   6.185  1.2184  0.9404 -1.1231
 6864SOL    HW232229   3.002   4.326   6.236  1.9946  2.0593 -1.3557
 6865SOL     OW32230   3.823   3.063   2.980 -0.0820  0.4937  0.1176
 6865SOL    HW132231   3.880   2.996   3.018  1.6882  1.9139 -0.0633
 6865SOL    HW232232   3.794   3.022   2.899  1.8231  0.5380 -0.5627
 6866SOL     OW32233   1.512   0.044   6.419 -0.3191  0.2277  0.4082
 6866SOL    HW132234   1.597   0.028   6.377  0.9182  4.0009  1.4184
 6866SOL    HW232235   1.524   0.140   6.417  0.0485  0.2272  2.8633
 6867SOL     OW32236   4.119   3.968  15.128 -0.0847 -0.3108 -0.0127
 6867SOL    HW132237   4.057   4.034  15.097  0.5873  0.9508  1.3519
 6867SOL    HW232238   4.070   3.887  15.112 -1.7580  0.6561  0.1573
 6868SOL     OW32239   2.320   0.866   8.067 -0.4865 -0.4045  0.1195
 6868SOL    HW132240   2.338   0.874   7.973  1.9488  0.5938  0.6571
 6868SOL    HW232241   2.388   0.800   8.080 -0.4253 -0.4536 -0.4113
 6869SOL     OW32242   4.153   4.365   6.427  0.0465 -0.1669  0.2455
 6869SOL    HW132243   4.228   4.308   6.407  1.4231  1.7986 -0.1611
 6869SOL    HW232244   4.159   4.368   6.522 -0.5495 -1.9448  0.3536
 6870SOL     OW32245   4.676   1.244   6.702  0.1670 -0.0969 -0.6715
 6870SOL    HW132246   4.684   1.272   6.793  1.8245 -0.5899 -0.6721
 6870SOL    HW232247   0.009   1.292   6.656  1.0170 -1.3608 -0.6908
 6871SOL     OW32248   3.867   1.793   6.316 -0.7258 -0.1243 -0.0280
 6871SOL    HW132249   3.911   1.861   6.267 -2.1783 -0.0993 -1.3132
 6871SOL    HW232250   3.831   1.730   6.253 -1.6293 -0.8359  1.1816
 6872SOL     OW32251   2.371   1.268   7.585  0.2006 -0.5044 -0.3678
 6872SOL    HW132252   2.362   1.229   7.499 -1.8960 -0.1162 -0.3329
 6872SOL    HW232253   2.385   1.190   7.639  1.7292 -0.4675 -0.7218
 6873SOL     OW32254   0.222   3.188  11.989  0.8342  0.0832 -0.1393
 6873SOL    HW132255   0.129   3.207  12.002  0.6123 -1.4983  0.5761
 6873SOL    HW232256   0.220   3.169  11.895  0.4513 -0.6589  0.0190
 6874SOL     OW32257   3.317   3.841   4.264  0.4128 -0.1184  0.1792
 6874SOL    HW132258   3.387   3.848   4.200  1.0986 -1.3781  0.8005
 6874SOL    HW232259   3.375   3.811   4.334 -0.7342 -2.3122  0.1847
 6875SOL     OW32260   1.901   2.390   5.163  0.4304 -0.4213 -0.2912
 6875SOL    HW132261   1.962   2.373   5.236  1.1034 -1.6909 -1.1564
 6875SOL    HW232262   1.830   2.422   5.219  1.5168 -0.0382  0.8810
 6876SOL     OW32263   2.697   3.030   2.024  0.0886 -0.7169 -0.8555
 6876SOL    HW132264   2.705   3.008   2.116 -0.1984  2.4107 -0.0952
 6876SOL    HW232265   2.741   2.955   1.984  1.9686  0.3947 -0.8510
 6877SOL     OW32266   3.553   2.238   9.632  0.6753  0.0661 -0.3335
 6877SOL    HW132267   3.459   2.257   9.636  0.6822  0.2732 -1.2196
 6877SOL    HW232268   3.551   2.148   9.601 -2.0268  0.2502 -0.6444
 6878SOL     OW32269   3.337   1.011   6.781  0.4484 -0.5344 -0.5154
 6878SOL    HW132270   3.367   1.083   6.836 -0.2012 -1.2266  0.7233
 6878SOL    HW232271   3.330   1.054   6.695  0.3936  1.4065  0.4593
 6879SOL     OW32272   2.909   3.517  15.356 -0.1355  0.3799  0.0101
 6879SOL    HW132273   2.839   3.545  15.415  1.6692  0.0925  2.2846
 6879SOL    HW232274   2.870   3.463  15.287  4.1517 -0.7323 -1.5331
 6880SOL     OW32275   1.036   1.132  11.954  0.2234 -0.6184 -0.0737
 6880SOL    HW132276   1.121   1.095  11.932 -0.0914 -2.0227  1.0643
 6880SOL    HW232277   1.016   1.080  12.032  1.4278  0.5265  0.9804
 6881SOL     OW32278   2.829   1.167   6.305 -0.4869  0.3333 -0.7632
 6881SOL    HW132279   2.910   1.175   6.354 -0.3986  1.1615 -1.0440
 6881SOL    HW232280   2.775   1.239   6.339 -2.2278 -0.6785 -1.3856
 6882SOL     OW32281   0.432   2.450   2.001  0.4619 -0.8064 -0.3549
 6882SOL    HW132282   0.347   2.451   2.046  1.0470  0.2247  0.7262
 6882SOL    HW232283   0.482   2.394   2.060 -0.3568  0.5752  1.6454
 6883SOL     OW32284   0.908   4.073  13.592  0.2428  0.0061 -0.5342
 6883SOL    HW132285   1.000   4.061  13.614  0.3161 -0.0086 -0.8481
 6883SOL    HW232286   0.884   4.125  13.669  2.5165  0.5584 -0.2229
 6884SOL     OW32287   2.391   4.475  14.207 -0.5046 -0.0883 -0.0891
 6884SOL    HW132288   2.442   4.539  14.158  0.5263  0.5514  1.8375
 6884SOL    HW232289   2.463   4.441  14.259 -0.8468  2.5193  2.0917
 6885SOL     OW32290   0.610   2.577   7.150  0.7773 -0.4049  0.0720
 6885SOL    HW132291   0.703   2.558   7.151  0.6324 -0.9239  2.3348
 6885SOL    HW232292   0.589   2.528   7.070 -1.2402  2.1904 -1.0251
 6886SOL     OW32293   4.482   3.874  17.273 -0.2960  0.1296 -0.7798
 6886SOL    HW132294   4.576   3.878  17.258  0.2789  1.0706  3.0507
 6886SOL    HW232295   4.468   3.797  17.219  2.9880 -1.6446  0.9296
 6887SOL     OW32296   0.861   3.872  17.503 -0.7287 -0.1585 -0.2924
 6887SOL    HW132297   0.926   3.822  17.552 -0.6221 -1.3535 -1.6552
 6887SOL    HW232298   0.822   3.801  17.451  1.2827 -2.1718  0.9255
 6888SOL     OW32299   0.939   0.307   4.442  0.2428  0.0322 -0.0706
 6888SOL    HW132300   0.890   0.376   4.487 -0.2417 -0.5155  0.2512
 6888SOL    HW232301   0.920   0.232   4.498  0.5588 -0.4752 -0.6528
 6889SOL     OW32302   2.416   0.004   6.143  0.4919  0.4236 -0.0917
 6889SOL    HW132303   2.485   0.059   6.107  1.0971 -0.1488  0.1854
 6889SOL    HW232304   2.440   4.659   6.097  2.2910  0.1485  1.3336
 6890SOL     OW32305   0.241   2.722  11.815 -0.1057 -0.0366 -0.3063
 6890SOL    HW132306   0.164   2.734  11.760 -0.2158 -1.0166 -0.3569
 6890SOL    HW232307   0.199   2.681  11.890 -1.7961  0.0329 -1.2162
 6891SOL     OW32308   1.782   1.431   5.446  0.3852 -0.2612 -0.4085
 6891SOL    HW132309   1.686   1.431   5.450  0.2038 -3.1015 -4.5694
 6891SOL    HW232310   1.798   1.341   5.417  0.4161  0.4615 -2.6191
 6892SOL     OW32311   2.077   3.205   8.536  0.2561  0.0485  0.0694
 6892SOL    HW132312   2.001   3.157   8.570 -1.3926  2.1900 -0.6519
 6892SOL    HW232313   2.047   3.208   8.446 -0.3988 -0.4731  0.2688
 6893SOL     OW32314   3.067   0.634   3.905 -0.5244  0.0730  0.1644
 6893SOL    HW132315   2.998   0.573   3.930 -2.3137  0.9281 -2.6348
 6893SOL    HW232316   3.135   0.570   3.884 -1.6822 -1.3109  0.5975
 6894SOL     OW32317   3.853   2.803  11.366  0.2734 -0.1717  0.8846
 6894SOL    HW132318   3.925   2.790  11.427 -0.0485 -1.1083  1.0700
 6894SOL    HW232319   3.899   2.869  11.315  1.5037 -2.3999 -0.9030
 6895SOL     OW32320   4.718   1.134   2.345  0.6865  0.2474  0.0717
 6895SOL    HW132321   0.041   1.060   2.334  1.3368  0.5348  1.6902
 6895SOL    HW232322   4.725   1.150   2.439 -0.0403 -1.3880  0.3994
 6896SOL     OW32323   1.466   4.022   9.723  0.2132  0.1486  0.1111
 6896SOL    HW132324   1.487   4.095   9.780 -1.7446  1.8928 -1.4151
 6896SOL    HW232325   1.386   3.982   9.758 -0.1649 -0.0295 -0.9671
 6897SOL     OW32326   0.689   2.730   4.770 -0.8697 -0.7275  0.2186
 6897SOL    HW132327   0.781   2.732   4.794 -0.4265 -1.7319 -1.4779
 6897SOL    HW232328   0.659   2.659   4.827 -1.6929 -2.1402 -2.0105
 6898SOL     OW32329   1.139   3.812   3.647 -0.2149  0.3331  0.2695
 6898SOL    HW132330   1.070   3.791   3.710 -2.9712 -2.0785 -3.5308
 6898SOL    HW232331   1.136   3.907   3.656 -0.0273  0.2715  0.9276
 6899SOL     OW32332   0.056   1.535   5.574 -0.3394  0.5388 -0.0575
 6899SOL    HW132333   0.105   1.490   5.505  0.1546  0.2121  0.5040
 6899SOL    HW232334   0.129   1.542   5.635  0.0392 -0.9040 -0.3357
 6900SOL     OW32335   4.391   0.641  13.204  0.0069  0.5709  0.4794
 6900SOL    HW132336   4.331   0.700  13.249  0.7706  0.5340  1.5364
 6900SOL    HW232337   4.473   0.682  13.231  0.5843  0.5820 -1.2524
 6901SOL     OW32338   1.010   3.429   5.909  0.2794  0.5918  0.9303
 6901SOL    HW132339   1.072   3.485   5.956 -0.5073  0.7962  1.7197
 6901SOL    HW232340   0.960   3.378   5.972 -0.7172  1.9476  1.2279
 6902SOL     OW32341   3.118   0.305   3.313 -0.1295  0.1362  0.5133
 6902SOL    HW132342   3.159   0.352   3.386  1.8755  1.5919 -1.5598
 6902SOL    HW232343   3.194   0.270   3.267 -2.8489 -1.5180 -2.6761
 6903SOL     OW32344   4.334   2.354   4.876  0.3736 -0.1838 -0.3385
 6903SOL    HW132345   4.337   2.444   4.908  2.1268 -0.5137  0.4530
 6903SOL    HW232346   4.246   2.348   4.840 -0.3203  1.9949  0.9591
 6904SOL     OW32347   0.867   0.295   2.150 -0.0919  0.3289 -0.0589
 6904SOL    HW132348   0.853   0.212   2.104  0.0899 -1.0920  2.4432
 6904SOL    HW232349   0.808   0.276   2.222 -0.2238  0.0530 -0.2389
 6905SOL     OW32350   3.958   0.091   1.821 -0.5997  0.0821  0.2112
 6905SOL    HW132351   4.001   0.015   1.861  0.5021  0.7290  0.2640
 6905SOL    HW232352   4.031   0.109   1.762  1.0092 -0.5268  2.0111
 6906SOL     OW32353   4.285   0.835  13.349 -0.0543  0.0100 -0.0873
 6906SOL    HW132354   4.199   0.814  13.386  0.7094  2.3458  2.9660
 6906SOL    HW232355   4.318   0.904  13.406 -1.4985 -0.4272  1.2868
 6907SOL     OW32356   2.984   3.472   9.332 -0.0448 -0.4598 -0.3793
 6907SOL    HW132357   3.050   3.490   9.399 -0.4878 -2.5643  0.6290
 6907SOL    HW232358   2.904   3.456   9.381 -0.4312 -0.3514 -0.9726
 6908SOL     OW32359   0.456   0.814   7.046 -0.3410 -0.0640  0.4420
 6908SOL    HW132360   0.421   0.833   7.133  0.0908  1.1416  0.3517
 6908SOL    HW232361   0.486   0.726   7.065 -0.1302  0.0104  0.4492
 6909SOL     OW32362   3.237   3.024  16.013  0.3138 -0.1754  0.0047
 6909SOL    HW132363   3.244   2.942  16.061  2.5221  0.3696  0.6019
 6909SOL    HW232364   3.146   3.014  15.985  0.6349 -0.7865 -0.8240
 6910SOL     OW32365   4.155   1.635   1.120 -0.1763 -0.1887 -0.2287
 6910SOL    HW132366   4.196   1.716   1.088 -0.4536  0.0785  0.0939
 6910SOL    HW232367   4.169   1.584   1.041  0.2503  0.2786 -0.4568
 6911SOL     OW32368   3.503   3.340   2.050  0.3670 -0.1623  0.0295
 6911SOL    HW132369   3.427   3.287   2.076  0.8813 -1.3596 -0.8705
 6911SOL    HW232370   3.515   3.316   1.958 -1.1881  0.6427 -0.3833
 6912SOL     OW32371   2.208   2.389   2.906 -0.3358  0.3106  0.0455
 6912SOL    HW132372   2.187   2.481   2.924 -3.7610 -0.7724  1.6746
 6912SOL    HW232373   2.273   2.372   2.973  0.8952  1.2098 -0.9182
 6913SOL     OW32374   0.558   0.012   1.156 -0.1774  0.0501 -0.4388
 6913SOL    HW132375   0.602   4.731   1.072  0.8468  2.1700 -0.3193
 6913SOL    HW232376   0.600   4.683   1.213  0.2855  2.3123  1.8131
 6914SOL     OW32377   0.988   0.518  13.976  0.0460  0.1502  0.2412
 6914SOL    HW132378   1.061   0.545  13.919 -1.2888 -0.1265 -1.5725
 6914SOL    HW232379   1.041   0.500  14.054  3.9924  0.7423 -2.2628
 6915SOL     OW32380   1.377   1.802   3.059  1.2593 -0.1643  0.4062
 6915SOL    HW132381   1.316   1.735   3.091  1.7615  0.4958  2.7755
 6915SOL    HW232382   1.444   1.785   3.125 -0.8321 -2.7809  1.8785
 6916SOL     OW32383   1.855   4.668   8.001 -0.2289 -0.5974  0.0493
 6916SOL    HW132384   1.775   4.615   8.006 -0.9164  0.3260 -1.1345
 6916SOL    HW232385   1.824   0.004   8.056 -1.6192 -3.0906  2.5344
 6917SOL     OW32386   2.075   2.944  11.747 -0.2927 -0.1979  0.0056
 6917SOL    HW132387   2.093   2.974  11.836  0.6730  0.1108 -0.2920
 6917SOL    HW232388   2.133   2.867  11.744  0.3823  0.4196 -2.7823
 6918SOL     OW32389   2.676   0.289  15.442  0.7135 -0.9471 -0.3178
 6918SOL    HW132390   2.770   0.281  15.457  0.8780  0.5249 -0.5539
 6918SOL    HW232391   2.680   0.364  15.383 -1.5728 -1.5946 -1.3007
 6919SOL     OW32392   3.202   3.626   4.806 -0.0129 -0.4219 -0.3218
 6919SOL    HW132393   3.235   3.617   4.716 -1.0383 -1.9311 -0.5369
 6919SOL    HW232394   3.282   3.619   4.858 -1.4565 -0.2985  1.9156
 6920SOL     OW32395   4.489   2.217  11.958 -0.0159  0.1028 -0.1873
 6920SOL    HW132396   4.550   2.240  12.028  0.6784  3.0772 -1.7696
 6920SOL    HW232397   4.498   2.290  11.896  0.3014 -0.0112 -0.2761
 6921SOL     OW32398   3.898   2.539   7.156  0.3775 -0.6590  0.4815
 6921SOL    HW132399   3.902   2.496   7.242  0.1523 -2.6926 -0.5185
 6921SOL    HW232400   3.906   2.630   7.184  0.8124 -0.4231 -0.4145
 6922SOL     OW32401   2.513   0.565   9.026  0.2995 -0.1969  0.4253
 6922SOL    HW132402   2.448   0.635   9.021  0.3479 -0.1293  0.7367
 6922SOL    HW232403   2.552   0.564   9.114 -1.6214 -0.4540  1.2663
 6923SOL     OW32404   3.745   0.386  17.650  0.1383 -0.1505  0.0522
 6923SOL    HW132405   3.787   0.404  17.734  1.0371  0.7019 -0.5782
 6923SOL    HW232406   3.817   0.374  17.589 -0.2219 -0.4089 -0.3215
 6924SOL     OW32407   2.348   2.004   3.042 -0.2178  0.1744  0.5074
 6924SOL    HW132408   2.288   1.953   3.096 -2.0892  0.6770 -1.0938
 6924SOL    HW232409   2.396   1.938   2.992  0.8660  1.7856 -0.5540
 6925SOL     OW32410   0.275   3.388   9.562 -0.4203  0.0786  0.4348
 6925SOL    HW132411   0.300   3.301   9.529 -2.6386  0.3619 -1.9250
 6925SOL    HW232412   0.181   3.391   9.547 -0.6316  2.4356  2.1892
 6926SOL     OW32413   0.240   1.572   2.454 -0.0617 -0.1705 -0.5413
 6926SOL    HW132414   0.259   1.498   2.513  1.3008  0.1189 -0.6215
 6926SOL    HW232415   0.311   1.631   2.479 -0.3338 -0.5123  1.0958
 6927SOL     OW32416   4.639   3.590   7.514 -0.0171  0.3835  0.3903
 6927SOL    HW132417   4.587   3.538   7.453  0.6525  0.7494 -0.4966
 6927SOL    HW232418   4.602   3.555   7.595  1.5166  0.6473  1.2252
 6928SOL     OW32419   3.411   0.692   3.848  0.4123 -0.3101  0.8275
 6928SOL    HW132420   3.401   0.719   3.939  1.6156  3.2089 -0.0742
 6928SOL    HW232421   3.377   0.603   3.858  0.7852 -0.4821  0.5479
 6929SOL     OW32422   3.338   4.636   6.199 -0.3153  0.4637  0.2053
 6929SOL    HW132423   3.254   4.625   6.244  0.6803 -0.1355  1.9159
 6929SOL    HW232424   3.307   4.686   6.123 -0.6624 -1.4013 -0.8870
 6930SOL     OW32425   3.529   0.746  13.162  0.2159  0.1230 -0.4051
 6930SOL    HW132426   3.547   0.818  13.102 -1.2144  0.4227 -0.4611
 6930SOL    HW232427   3.523   0.678  13.095  0.2235 -0.7947  0.5284
 6931SOL     OW32428   2.605   4.011  14.738  0.6946  0.5318  0.1324
 6931SOL    HW132429   2.542   4.066  14.691  1.8525  1.7337 -0.0185
 6931SOL    HW232430   2.543   3.943  14.763  0.5869  0.2502 -0.9142
 6932SOL     OW32431   4.517   0.020  13.411  0.2241 -0.0928  0.0688
 6932SOL    HW132432   4.516   0.043  13.504  2.1637  0.2051  0.0198
 6932SOL    HW232433   4.544   0.103  13.372  1.7685 -0.4018  0.4801
 6933SOL     OW32434   0.504   1.527   9.691  0.4945  0.0692 -0.0353
 6933SOL    HW132435   0.421   1.523   9.643 -0.5712 -1.9999  1.9247
 6933SOL    HW232436   0.477   1.477   9.769  0.7216  0.8161  0.5170
 6934SOL     OW32437   3.737   1.091   9.388  0.1218 -0.0759 -0.3011
 6934SOL    HW132438   3.680   1.129   9.322 -0.7758  0.1393  0.5982
 6934SOL    HW232439   3.706   1.004   9.364  0.2861 -0.0275 -0.6894
 6935SOL     OW32440   3.627   0.352  14.970  0.0011  0.0648 -0.0036
 6935SOL    HW132441   3.597   0.442  14.967 -2.5488 -0.8062 -0.4709
 6935SOL    HW232442   3.717   0.361  14.937  1.2176 -1.4830  2.8273
 6936SOL     OW32443   2.640   2.790   8.457  0.2682 -0.4479  0.1959
 6936SOL    HW132444   2.652   2.880   8.425 -3.1317 -0.4375 -1.0201
 6936SOL    HW232445   2.557   2.767   8.416  0.6913 -2.6155  0.5465
 6937SOL     OW32446   1.566   3.059   4.070  0.1974  0.4434  0.0401
 6937SOL    HW132447   1.625   2.998   4.026  1.4202  1.6612 -0.0155
 6937SOL    HW232448   1.483   3.031   4.034 -0.2787  0.3354  1.2206
 6938SOL     OW32449   3.852   4.633   2.838  0.6543 -0.4288  0.0088
 6938SOL    HW132450   3.864   4.539   2.852  0.9727 -0.5972 -1.4404
 6938SOL    HW232451   3.759   4.655   2.843  0.6053 -1.0265  1.9815
 6939SOL     OW32452   0.298   0.848  10.160 -0.0103  0.4842 -0.3965
 6939SOL    HW132453   0.376   0.864  10.107 -0.1123  0.0555 -0.6696
 6939SOL    HW232454   0.246   0.801  10.095 -0.5551  0.5470 -0.0119
 6940SOL     OW32455   1.898   2.146   5.361 -0.5392 -0.1582 -0.1223
 6940SOL    HW132456   1.961   2.218   5.361  0.2904 -0.8928 -2.1753
 6940SOL    HW232457   1.954   2.070   5.376  0.9606  0.5037 -2.4711
 6941SOL     OW32458   4.324   3.738  15.055  0.7104 -0.8993  0.4954
 6941SOL    HW132459   4.332   3.659  15.109  2.0010 -0.0173  1.6123
 6941SOL    HW232460   4.231   3.751  15.072  0.4235 -0.7546 -1.2378
 6942SOL     OW32461   3.336   1.224   3.264 -0.1855  0.0983  0.2715
 6942SOL    HW132462   3.378   1.310   3.256  0.1099 -0.1371 -0.8133
 6942SOL    HW232463   3.274   1.255   3.330  0.3582 -1.9417  1.7098
 6943SOL     OW32464   3.723   3.973   1.824  0.0305 -0.4657 -0.2763
 6943SOL    HW132465   3.640   3.926   1.811 -0.7342  0.7102  0.3516
 6943SOL    HW232466   3.685   4.048   1.869  1.3703 -1.1060  1.8907
 6944SOL     OW32467   3.550   0.579  12.316  0.6300 -0.5923 -0.2763
 6944SOL    HW132468   3.488   0.534  12.373  0.8291 -0.0777  0.3400
 6944SOL    HW232469   3.487   0.628  12.263 -0.2671  1.5125  2.7877
 6945SOL     OW32470   1.635   4.482   3.068  0.3743 -0.4002  0.2862
 6945SOL    HW132471   1.605   4.391   3.063 -0.3446 -0.1629  0.3623
 6945SOL    HW232472   1.551   4.515   3.037  0.3227 -0.1583  0.6852
 6946SOL     OW32473   1.358   0.964   3.373  0.3669 -0.1373 -0.0537
 6946SOL    HW132474   1.362   0.891   3.435  0.2549  0.0555  0.1801
 6946SOL    HW232475   1.414   0.932   3.303  0.0305  0.1665 -0.4580
 6947SOL     OW32476   2.897   0.902   7.591 -0.2316  0.6407 -0.2028
 6947SOL    HW132477   2.963   0.832   7.588 -0.5774  0.3776 -1.7529
 6947SOL    HW232478   2.936   0.963   7.529  0.4434 -0.4877 -0.8980
 6948SOL     OW32479   1.866   4.673   3.824  0.5794  0.6291  0.7421
 6948SOL    HW132480   1.915   4.643   3.747 -0.7916  0.7714 -0.1930
 6948SOL    HW232481   1.886   4.592   3.871 -0.6242 -0.5242 -0.7008
 6949SOL     OW32482   1.758   2.597   6.296 -0.3850  0.1128 -0.4929
 6949SOL    HW132483   1.742   2.521   6.241  0.0818 -0.3328 -0.0059
 6949SOL    HW232484   1.823   2.567   6.359 -1.9533 -1.3987  0.4079
 6950SOL     OW32485   0.487   4.233  11.352 -0.1668  0.4157  0.2378
 6950SOL    HW132486   0.546   4.230  11.276  1.9351 -0.8018  1.9168
 6950SOL    HW232487   0.543   4.273  11.419  1.2878 -2.5487  0.7901
 6951SOL     OW32488   0.589   1.382   3.835  0.4662  0.0369 -0.2317
 6951SOL    HW132489   0.516   1.395   3.775 -1.1241 -0.5286  1.5758
 6951SOL    HW232490   0.655   1.364   3.768  0.4071 -0.5334 -0.1313
 6952SOL     OW32491   0.895   2.734  16.071  0.4782 -0.1386 -0.2781
 6952SOL    HW132492   0.863   2.824  16.059  0.2572 -0.3026 -0.9284
 6952SOL    HW232493   0.984   2.758  16.043  0.1369  1.4216 -0.0205
 6953SOL     OW32494   4.391   0.623  11.210  0.2025  0.3528 -0.8176
 6953SOL    HW132495   4.359   0.533  11.201 -1.9511  1.1574 -1.3657
 6953SOL    HW232496   4.321   0.678  11.175 -3.3071 -2.0727  2.4158
 6954SOL     OW32497   2.476   2.848  16.582  0.1577 -0.0741 -0.6437
 6954SOL    HW132498   2.481   2.844  16.677 -2.0573 -1.1874 -0.5974
 6954SOL    HW232499   2.502   2.937  16.561  0.8133 -0.4497 -1.4237
 6955SOL     OW32500   0.311   1.182   2.072  0.1813  0.4433  0.4849
 6955SOL    HW132501   0.375   1.253   2.074  1.1225 -0.4459  1.4418
 6955SOL    HW232502   0.241   1.237   2.107  0.6764 -0.5079  2.9748
 6956SOL     OW32503   1.008   3.044   6.600 -0.1905  0.1998  0.2755
 6956SOL    HW132504   0.928   3.070   6.554  1.8223 -0.8083 -3.7999
 6956SOL    HW232505   1.038   3.134   6.611  2.8904 -0.4576 -2.6426
 6957SOL     OW32506   4.585   1.534   1.628 -0.3854 -0.2216  0.0049
 6957SOL    HW132507   4.523   1.602   1.654  2.3993  1.9381  0.9012
 6957SOL    HW232508   4.651   1.588   1.586 -0.7822 -1.5926 -2.4169
 6958SOL     OW32509   1.367   2.150   2.757 -0.1188 -0.2743 -0.1483
 6958SOL    HW132510   1.429   2.222   2.752  0.5987 -0.9615 -1.1466
 6958SOL    HW232511   1.396   2.117   2.842  0.5616  1.8140  0.4295
 6959SOL     OW32512   4.698   2.144   7.106 -0.6565 -0.0558  0.3194
 6959SOL    HW132513   4.697   2.135   7.011  0.0685  1.2138  0.1916
 6959SOL    HW232514   0.052   2.117   7.125 -0.2246  1.3848  0.3192
 6960SOL     OW32515   0.856   2.893  10.120 -0.2201  0.0857  0.2801
 6960SOL    HW132516   0.878   2.884  10.027 -1.9664  3.2389 -0.4321
 6960SOL    HW232517   0.765   2.864  10.113 -0.0307 -0.8006  1.4964
 6961SOL     OW32518   1.309   3.546   3.369  0.4665 -0.6629  0.2435
 6961SOL    HW132519   1.280   3.631   3.402  4.8642  0.8678  0.0580
 6961SOL    HW232520   1.315   3.508   3.457 -0.7410 -1.4245 -0.0051
 6962SOL     OW32521   2.895   4.174   5.701  1.1420 -0.7559 -0.2562
 6962SOL    HW132522   2.988   4.165   5.723  0.6709  0.2830  2.2374
 6962SOL    HW232523   2.878   4.258   5.745 -0.0265 -0.4149 -1.3707
 6963SOL     OW32524   2.743   0.571   3.711  0.2812  0.2610  0.3852
 6963SOL    HW132525   2.712   0.611   3.792 -0.6446 -2.1658  1.2407
 6963SOL    HW232526   2.732   0.478   3.730  0.0046  0.6920  2.4111
 6964SOL     OW32527   3.153   3.406   2.120  0.2133 -0.2309 -0.3823
 6964SOL    HW132528   3.104   3.325   2.132  0.0971  0.2529  2.5340
 6964SOL    HW232529   3.146   3.415   2.025  3.4454 -1.7782 -0.7534
 6965SOL     OW32530   2.754   3.591   0.847  0.3889  0.0702 -0.4239
 6965SOL    HW132531   2.773   3.614   0.938  0.5070 -4.0371  0.6086
 6965SOL    HW232532   2.736   3.497   0.854 -1.8160  0.5104 -0.1787
 6966SOL     OW32533   0.467   0.770   3.715  0.2393  0.2069 -0.3567
 6966SOL    HW132534   0.538   0.722   3.672  0.8670 -0.5698  1.5768
 6966SOL    HW232535   0.501   0.797   3.800  2.4279  0.2332 -1.2267
 6967SOL     OW32536   0.384   3.779   4.511  0.3473 -0.3668  0.0183
 6967SOL    HW132537   0.449   3.781   4.441 -0.4453  0.3477 -0.6853
 6967SOL    HW232538   0.362   3.872   4.506 -5.4921 -1.7352  0.7352
 6968SOL     OW32539   4.343   3.462   3.762 -0.2025  0.2439  0.3479
 6968SOL    HW132540   4.267   3.407   3.779 -1.0891  1.6960  1.1404
 6968SOL    HW232541   4.304   3.523   3.699 -0.0519 -0.2435 -0.2102
 6969SOL     OW32542   3.590   1.922  10.469  0.1827 -0.2767  0.8047
 6969SOL    HW132543   3.604   2.015  10.482  3.9929  0.0948 -5.6352
 6969SOL    HW232544   3.534   1.907  10.544 -3.3016  0.7933 -1.5884
 6970SOL     OW32545   0.528   2.043   5.632  0.3280  0.5018  0.4607
 6970SOL    HW132546   0.453   2.041   5.572 -0.2743 -0.2613  1.2253
 6970SOL    HW232547   0.523   2.135   5.658 -0.8659  0.6991 -0.4514
 6971SOL     OW32548   2.119   1.927   5.061 -0.3323  0.4648  0.2453
 6971SOL    HW132549   2.066   2.007   5.055 -2.0334 -0.7430 -0.8769
 6971SOL    HW232550   2.063   1.863   5.105  0.6072 -0.7725 -0.3736
 6972SOL     OW32551   1.881   3.320   9.108 -0.4533  0.1006  0.2806
 6972SOL    HW132552   1.885   3.294   9.016 -1.3526 -0.9032  0.5229
 6972SOL    HW232553   1.796   3.288   9.136  0.0607 -2.8938 -1.5758
 6973SOL     OW32554   0.473   3.443  12.265  0.6747  0.0181 -0.1029
 6973SOL    HW132555   0.520   3.469  12.186 -1.3864 -0.6961 -1.5561
 6973SOL    HW232556   0.432   3.360  12.241  0.7816  0.5483 -2.1079
 6974SOL     OW32557   1.901   3.653   5.848 -0.1057  0.4006  0.1183
 6974SOL    HW132558   1.956   3.669   5.925 -0.4844 -0.6843  0.6147
 6974SOL    HW232559   1.898   3.742   5.814  0.0190  0.8168  1.2027
 6975SOL     OW32560   3.584   4.285  14.203 -0.8026 -1.5768 -0.1446
 6975SOL    HW132561   3.608   4.362  14.253 -0.0664 -2.2644  0.5664
 6975SOL    HW232562   3.618   4.317  14.119 -0.7520  2.2590  1.3599
 6976SOL     OW32563   3.534   1.973   5.428  0.1385  0.3442 -0.6073
 6976SOL    HW132564   3.484   1.936   5.355  1.8141  0.6745 -1.9252
 6976SOL    HW232565   3.569   1.890   5.460  1.6719  1.5778  0.9052
 6977SOL     OW32566   1.779   1.207   6.461  0.0342  0.5856 -0.7413
 6977SOL    HW132567   1.702   1.175   6.508  0.4597  0.6779  0.0266
 6977SOL    HW232568   1.786   1.137   6.396  0.4189  0.6201 -0.7418
 6978SOL     OW32569   2.703   1.729   5.780  0.1728 -0.7796  0.1672
 6978SOL    HW132570   2.709   1.747   5.686 -0.1436 -0.2460  0.2446
 6978SOL    HW232571   2.771   1.664   5.795  1.6501  0.7601  0.1271
 6979SOL     OW32572   1.509   2.781  13.431  0.3983 -0.1159  0.3209
 6979SOL    HW132573   1.505   2.816  13.342 -0.0507  1.3106  0.8999
 6979SOL    HW232574   1.584   2.722  13.423  2.8395  2.9657  0.5378
 6980SOL     OW32575   2.463   4.683   4.146 -0.6282  0.3212 -0.3456
 6980SOL    HW132576   2.513   4.602   4.134 -0.1763  0.3139  1.7165
 6980SOL    HW232577   2.376   4.654   4.115 -0.5089  1.7183 -1.9666
 6981SOL     OW32578   0.665   1.502   8.997 -0.1330  0.0586  0.2194
 6981SOL    HW132579   0.661   1.503   9.092  0.3556  0.3707  0.2355
 6981SOL    HW232580   0.759   1.484   8.987 -0.5814 -1.4925 -1.3514
 6982SOL     OW32581   1.340   3.118   7.118  0.1830  0.4440  0.1910
 6982SOL    HW132582   1.262   3.094   7.068  0.3028  0.8133 -0.1708
 6982SOL    HW232583   1.307   3.111   7.208  0.9563 -1.1725  0.3425
 6983SOL     OW32584   2.121   4.039   5.337  0.1627 -0.3299  0.0326
 6983SOL    HW132585   2.071   4.121   5.343  0.2216 -0.2980  0.0914
 6983SOL    HW232586   2.080   3.981   5.401 -2.2850  2.1122  0.6956
 6984SOL     OW32587   2.225   4.264   7.352  0.1842 -0.3638  0.6885
 6984SOL    HW132588   2.267   4.241   7.435  1.2010  0.1305  0.3193
 6984SOL    HW232589   2.181   4.347   7.369 -4.7025 -2.3378 -2.4661
 6985SOL     OW32590   1.577   2.989   3.000  0.2770 -0.2273  0.1365
 6985SOL    HW132591   1.564   2.992   2.906  0.7313 -1.5659  0.0388
 6985SOL    HW232592   1.600   2.897   3.012  1.2210 -0.2028 -1.5282
 6986SOL     OW32593   2.979   2.747  13.582 -0.4562  0.4643 -0.1568
 6986SOL    HW132594   2.983   2.734  13.677  0.3072  2.2462  0.0560
 6986SOL    HW232595   3.023   2.832  13.582  0.9109 -0.2344  0.4609
 6987SOL     OW32596   0.026   3.435  12.525 -0.4096  0.8821  0.5343
 6987SOL    HW132597   0.081   3.357  12.523 -1.0670  0.4965 -4.2055
 6987SOL    HW232598   4.690   3.415  12.585  0.9581  3.0436  2.8382
 6988SOL     OW32599   0.347   3.108   2.625 -0.0456  0.3330 -0.0314
 6988SOL    HW132600   0.433   3.091   2.664 -0.4659  0.6768  1.0585
 6988SOL    HW232601   0.363   3.067   2.540 -1.2351 -1.1446  0.4554
 6989SOL     OW32602   3.749   4.043   7.256  0.8770 -0.1010  0.4346
 6989SOL    HW132603   3.817   4.051   7.189 -1.8153  1.0863 -2.1508
 6989SOL    HW232604   3.795   4.000   7.327  1.3279  0.1680  0.3040
 6990SOL     OW32605   3.284   2.419   3.484 -0.3390  0.4073 -0.3027
 6990SOL    HW132606   3.374   2.386   3.492 -0.0457  1.3256  0.2043
 6990SOL    HW232607   3.259   2.404   3.575  0.2958  1.6347  0.0844
 6991SOL     OW32608   1.000   4.159   2.669 -0.1775  0.2519 -0.0874
 6991SOL    HW132609   0.932   4.224   2.686 -0.0482  0.7411 -1.3982
 6991SOL    HW232610   1.067   4.216   2.631 -1.4544  2.4646  0.9298
 6992SOL     OW32611   0.877   1.904   3.372 -0.4599 -0.5081 -0.2398
 6992SOL    HW132612   0.970   1.906   3.396 -0.3041 -0.6408 -0.8394
 6992SOL    HW232613   0.840   1.896   3.460  1.7931  0.8306  0.8331
 6993SOL     OW32614   2.828   2.386  15.973  0.1844  0.3144 -0.5985
 6993SOL    HW132615   2.802   2.455  16.034 -0.7796 -0.9659  0.4426
 6993SOL    HW232616   2.839   2.436  15.892  2.2407  0.0487 -0.4873
 6994SOL     OW32617   3.307   2.754   3.615  0.3681 -0.2180 -0.0029
 6994SOL    HW132618   3.377   2.695   3.585 -0.7513 -0.9856 -1.1190
 6994SOL    HW232619   3.254   2.771   3.537 -1.0284 -0.8322  0.8110
 6995SOL     OW32620   2.857   0.316   3.147  0.1354 -0.0018  0.4302
 6995SOL    HW132621   2.875   0.388   3.208  0.1515  0.4297 -0.0891
 6995SOL    HW232622   2.937   0.322   3.095 -0.0053  1.5709  0.4027
 6996SOL     OW32623   2.044   1.775   4.732 -0.0579 -0.0965 -0.5117
 6996SOL    HW132624   1.971   1.800   4.789 -0.3099  2.5421 -1.9708
 6996SOL    HW232625   1.990   1.740   4.660  0.5466 -0.9482 -0.5536
 6997SOL     OW32626   0.754   0.379  13.802 -0.5691 -0.4319 -0.6615
 6997SOL    HW132627   0.684   0.381  13.738 -0.0127  0.3450 -1.2491
 6997SOL    HW232628   0.770   0.469  13.831 -2.7249 -0.0230 -0.7502
 6998SOL     OW32629   1.828   2.334   3.791 -0.1260  0.3334 -0.4090
 6998SOL    HW132630   1.910   2.358   3.833 -0.2349 -0.4846  0.2581
 6998SOL    HW232631   1.852   2.353   3.700 -3.8099  2.4622 -0.9263
 6999SOL     OW32632   2.117   2.774   9.562  0.4007 -0.1521  0.0290
 6999SOL    HW132633   2.146   2.705   9.502 -3.3664 -1.0389 -0.7236
 6999SOL    HW232634   2.119   2.852   9.507  0.4133 -0.1397  0.0471
 7000SOL     OW32635   0.724   2.652  10.192  0.2388  0.2604 -0.4752
 7000SOL    HW132636   0.651   2.714  10.186  1.7887  2.2031  0.2687
 7000SOL    HW232637   0.748   2.636  10.101  0.3475 -1.5381 -0.1313
 7001SOL     OW32638   0.670   2.492   6.642  0.4920  0.3048  0.1305
 7001SOL    HW132639   0.759   2.514   6.616  0.1226  1.0917 -0.4881
 7001SOL    HW232640   0.638   2.571   6.686 -0.4953  0.8739 -1.5690
 7002SOL     OW32641   0.743   0.035   3.891  0.0843  0.4263 -0.0454
 7002SOL    HW132642   0.778   0.082   3.816 -2.2755  2.2828  0.0097
 7002SOL    HW232643   0.757   4.679   3.870  1.7261  0.3908  1.2078
 7003SOL     OW32644   2.322   0.780   5.525 -0.2326  0.2560 -0.0671
 7003SOL    HW132645   2.376   0.728   5.466 -0.0664 -0.2564  0.5279
 7003SOL    HW232646   2.388   0.829   5.574  0.6364 -0.6235 -0.3826
 7004SOL     OW32647   1.499   3.137   6.114 -0.0745 -0.3433  0.4418
 7004SOL    HW132648   1.553   3.148   6.036  0.5429 -0.4807  0.8529
 7004SOL    HW232649   1.568   3.126   6.179  0.3520 -1.4269 -0.1782
 7005SOL     OW32650   1.538   2.832  14.568  0.0303 -0.1391  0.6552
 7005SOL    HW132651   1.529   2.862  14.659  0.8630  1.4633  0.2284
 7005SOL    HW232652   1.560   2.740  14.579  1.3058  0.1222  0.3838
 7006SOL     OW32653   1.745   2.621   3.934 -0.1233  0.0977 -0.3540
 7006SOL    HW132654   1.786   2.581   3.857 -2.0056 -1.7994 -0.3977
 7006SOL    HW232655   1.758   2.712   3.909  0.2386  0.1219 -0.0714
 7007SOL     OW32656   1.170   0.576  14.677 -0.1931  0.1231 -0.0920
 7007SOL    HW132657   1.217   0.644  14.628 -0.7519 -1.3432 -2.6384
 7007SOL    HW232658   1.178   0.611  14.766 -1.4097  0.5275 -0.1340
 7008SOL     OW32659   2.605   1.684   7.680 -0.8636 -0.3329 -0.2168
 7008SOL    HW132660   2.606   1.603   7.629 -1.4673  0.2154 -1.0937
 7008SOL    HW232661   2.676   1.731   7.635 -1.8305  2.7982  1.5760
 7009SOL     OW32662   2.612   4.415   1.996 -0.0381  0.2230 -0.4533
 7009SOL    HW132663   2.541   4.429   2.059 -0.0979  0.9691 -0.6923
 7009SOL    HW232664   2.605   4.323   1.969  1.0082  0.5976 -1.9328
 7010SOL     OW32665   2.773   4.685   8.873  0.0685  0.0799 -0.4006
 7010SOL    HW132666   2.690   4.727   8.895  0.5417 -0.8318  3.0777
 7010SOL    HW232667   2.751   4.592   8.878 -1.5691  0.6180  2.4282
 7011SOL     OW32668   1.050   1.753   5.701  0.0483  0.7524  0.4474
 7011SOL    HW132669   0.971   1.747   5.647  1.9750 -0.4948 -2.2826
 7011SOL    HW232670   1.048   1.847   5.715  1.2335  0.8129  0.2592
 7012SOL     OW32671   0.850   0.048   9.542  0.2723  0.0554 -0.1194
 7012SOL    HW132672   0.909   4.709   9.555 -0.4491 -0.1264  2.0071
 7012SOL    HW232673   0.865   0.078   9.452  1.2091 -0.1265 -0.0337
 7013SOL     OW32674   1.597   2.316   3.911 -0.4430 -0.7424  0.0995
 7013SOL    HW132675   1.664   2.335   3.846  0.6400  0.1152  1.4706
 7013SOL    HW232676   1.634   2.357   3.989 -0.3785  0.6103 -0.6576
 7014SOL     OW32677   1.325   0.537  14.341 -0.3185 -0.0050 -0.3362
 7014SOL    HW132678   1.320   0.619  14.391 -1.6101  0.9217 -1.9634
 7014SOL    HW232679   1.396   0.499  14.392  1.4992  1.5792 -1.6813
 7015SOL     OW32680   4.314   0.265   8.265 -0.3711 -0.2267 -0.2778
 7015SOL    HW132681   4.279   0.257   8.354 -0.1481 -1.1586 -0.2742
 7015SOL    HW232682   4.303   0.359   8.250 -1.5688  0.1619  3.0888
 7016SOL     OW32683   0.378   1.854   3.125  0.9162 -0.2975  0.1526
 7016SOL    HW132684   0.469   1.883   3.124  1.0883 -0.8440 -0.3108
 7016SOL    HW232685   0.370   1.800   3.046 -0.3803 -0.2110  0.2277
 7017SOL     OW32686   0.313   0.586  14.927  0.0127 -0.3475  0.3605
 7017SOL    HW132687   0.250   0.586  14.999  0.4086  2.1040  0.6861
 7017SOL    HW232688   0.336   0.678  14.934 -0.8549 -0.1330  0.3329
 7018SOL     OW32689   1.949   1.065   4.045  0.6150  0.5730 -0.1986
 7018SOL    HW132690   1.954   0.973   4.021  3.0852  0.5953  0.2121
 7018SOL    HW232691   1.890   1.097   3.978 -0.5880 -0.9636  0.1455
 7019SOL     OW32692   2.597   1.569  14.645  0.0457  0.3215  0.3226
 7019SOL    HW132693   2.647   1.586  14.565 -0.6192  1.6135  0.1957
 7019SOL    HW232694   2.667   1.581  14.710  0.5875 -0.3519 -0.1308
 7020SOL     OW32695   4.345   3.188   0.692  0.0384  0.3061  0.2875
 7020SOL    HW132696   4.381   3.113   0.645  0.3903  0.6425  0.0116
 7020SOL    HW232697   4.405   3.258   0.664  1.2307 -0.1382  1.7262
 7021SOL     OW32698   1.313   3.100   9.803  0.9915 -0.1303 -0.3332
 7021SOL    HW132699   1.285   3.112   9.894 -0.6096  0.3783 -0.8889
 7021SOL    HW232700   1.328   3.005   9.805 -2.8019 -0.7591 -1.0430
 7022SOL     OW32701   3.704   4.211   5.947  0.3681 -0.3090 -0.6688
 7022SOL    HW132702   3.677   4.155   5.875 -2.2982  0.9435 -0.6644
 7022SOL    HW232703   3.766   4.276   5.915  0.1428 -0.8971 -2.2999
 7023SOL     OW32704   3.636   4.326   7.549 -0.3519  0.6149 -0.1372
 7023SOL    HW132705   3.729   4.301   7.541 -0.3425  0.6764 -0.2219
 7023SOL    HW232706   3.640   4.421   7.540  1.3499  0.5111 -0.5337
 7024SOL     OW32707   4.152   0.420  10.965  0.4539 -0.2306  0.1577
 7024SOL    HW132708   4.202   0.413  11.047  1.0145 -4.9252 -0.5694
 7024SOL    HW232709   4.153   0.516  10.960  0.0713 -0.2869 -0.9464
 7025SOL     OW32710   1.493   2.297   7.555 -0.3288 -0.0608  0.3113
 7025SOL    HW132711   1.456   2.320   7.640  0.9653 -1.1245  1.1775
 7025SOL    HW232712   1.410   2.280   7.509 -1.3991  1.2193  1.7677
 7026SOL     OW32713   1.350   1.375   2.365 -0.0835 -0.3346 -0.1388
 7026SOL    HW132714   1.383   1.461   2.338  1.2970 -0.9334 -0.3266
 7026SOL    HW232715   1.337   1.397   2.457 -0.1434 -0.0668 -0.2102
 7027SOL     OW32716   4.580   1.782   4.100 -0.4456  0.1571 -0.1142
 7027SOL    HW132717   4.519   1.829   4.044 -0.2469 -1.0652 -1.3520
 7027SOL    HW232718   4.575   1.832   4.182  0.4742 -0.7683  0.5047
 7028SOL     OW32719   2.150   0.384   8.039 -0.6635  0.2289 -0.1512
 7028SOL    HW132720   2.232   0.415   8.001 -1.7851  1.7666 -1.3093
 7028SOL    HW232721   2.173   0.378   8.132  0.0526 -0.6124 -0.3839
 7029SOL     OW32722   3.728   1.597   9.318  0.6747  0.1571 -0.6565
 7029SOL    HW132723   3.772   1.514   9.332  0.2999 -0.2109 -1.6864
 7029SOL    HW232724   3.699   1.581   9.228  1.4355  0.1892 -0.9075
 7030SOL     OW32725   2.534   3.120   7.494  0.4669  0.3942 -0.1400
 7030SOL    HW132726   2.524   3.040   7.442 -0.3819 -0.1702  0.8835
 7030SOL    HW232727   2.448   3.162   7.492  0.5218  0.5379  0.5147
 7031SOL     OW32728   2.488   1.774  11.881  0.2888 -0.1320 -0.2088
 7031SOL    HW132729   2.476   1.824  11.800  1.0170 -0.4317 -0.5022
 7031SOL    HW232730   2.499   1.687  11.843 -2.5665 -0.8496  0.5615
 7032SOL     OW32731   0.053   1.575  15.609  0.2482  0.1254 -0.0090
 7032SOL    HW132732   0.070   1.656  15.561  0.4572 -0.1664 -0.4275
 7032SOL    HW232733   0.143   1.556  15.634 -0.8952 -0.5550  3.7318
 7033SOL     OW32734   2.620   2.686   9.251  0.2431 -0.1126  0.2488
 7033SOL    HW132735   2.553   2.682   9.183  1.7895 -0.0184 -1.2731
 7033SOL    HW232736   2.590   2.771   9.283 -1.3492 -0.7348  0.4180
 7034SOL     OW32737   2.687   4.656  14.323 -0.2196 -0.3419 -0.2128
 7034SOL    HW132738   2.661   4.603  14.248 -0.0368 -0.9402  0.1495
 7034SOL    HW232739   2.776   4.679  14.295 -0.6598  1.5591 -0.0330
 7035SOL     OW32740   2.063   3.718   7.826  0.3763 -0.2505  0.3774
 7035SOL    HW132741   1.979   3.759   7.805 -0.4482 -2.7016 -1.0882
 7035SOL    HW232742   2.121   3.768   7.769 -0.0332  0.5819  0.6921
 7036SOL     OW32743   1.715   0.585   8.750  0.2491  0.1017 -0.4503
 7036SOL    HW132744   1.647   0.518   8.753 -3.0584  3.2679 -4.4970
 7036SOL    HW232745   1.699   0.639   8.828 -0.6550 -1.4035  0.4015
 7037SOL     OW32746   0.549   1.504  13.916  0.2240 -0.0140  0.0916
 7037SOL    HW132747   0.588   1.514  13.829  1.8200  0.2677  0.8421
 7037SOL    HW232748   0.501   1.584  13.935 -0.0280  0.2300 -1.5404
 7038SOL     OW32749   4.570   1.557   7.607 -0.0877  0.1553  0.1008
 7038SOL    HW132750   4.632   1.603   7.664 -0.4516 -0.8917  1.3503
 7038SOL    HW232751   4.634   1.513   7.550  1.8748 -1.5289  3.5871
 7039SOL     OW32752   3.126   0.814  16.385  0.5935  0.3252 -0.5638
 7039SOL    HW132753   3.034   0.839  16.376  0.8157  1.4464  0.2751
 7039SOL    HW232754   3.150   0.885  16.444 -2.3197 -0.7990  2.0112
 7040SOL     OW32755   4.242   0.550   9.136  0.1290 -0.5219 -0.1319
 7040SOL    HW132756   4.321   0.496   9.129  1.2502  1.0070  0.4457
 7040SOL    HW232757   4.226   0.538   9.230 -1.2776 -1.1143 -0.4546
 7041SOL     OW32758   1.452   0.879  12.675  0.5116 -0.0443 -0.1207
 7041SOL    HW132759   1.477   0.798  12.720 -2.5299 -0.9348  0.0128
 7041SOL    HW232760   1.529   0.905  12.625  1.1010 -0.9371  0.3174
 7042SOL     OW32761   1.644   2.691   4.213  0.4520 -0.3926 -0.1485
 7042SOL    HW132762   1.692   2.724   4.136  0.0494  0.9689  0.1881
 7042SOL    HW232763   1.661   2.597   4.208 -0.0628 -0.5890  1.9281
 7043SOL     OW32764   2.672   1.788   8.400  0.3070 -0.0880  1.0791
 7043SOL    HW132765   2.603   1.749   8.454  0.2629 -0.8586  0.4515
 7043SOL    HW232766   2.695   1.717   8.341  4.8364  1.1478  1.3626
 7044SOL     OW32767   0.485   0.761   1.322  0.4014  0.3267  0.1396
 7044SOL    HW132768   0.403   0.802   1.350 -0.8391 -1.6814 -0.4895
 7044SOL    HW232769   0.488   0.689   1.386 -3.2333 -1.6878 -1.9509
 7045SOL     OW32770   2.824   1.695   2.561 -0.1756 -0.0840  0.4826
 7045SOL    HW132771   2.807   1.705   2.655  1.2934 -1.7722  0.9409
 7045SOL    HW232772   2.811   1.786   2.534 -2.8396 -1.1814 -1.8694
 7046SOL     OW32773   0.206   4.636   8.245 -0.5358  0.0920  0.5042
 7046SOL    HW132774   0.218   4.587   8.326 -0.3149  0.2943  0.5939
 7046SOL    HW232775   0.189   4.719   8.290 -0.7182 -0.7973  2.0961
 7047SOL     OW32776   1.201   3.897  10.035  0.1202  0.0989  0.0740
 7047SOL    HW132777   1.251   3.945   9.970  1.7433 -1.8757 -0.1594
 7047SOL    HW232778   1.226   3.947  10.113  1.7848  0.1523 -0.5014
 7048SOL     OW32779   0.876   1.090   6.065  0.0893 -0.3365  0.2720
 7048SOL    HW132780   0.885   1.181   6.090  0.3528 -0.3079  0.0757
 7048SOL    HW232781   0.862   1.060   6.155 -4.1036  0.2406 -0.2052
 7049SOL     OW32782   3.538   1.014   2.466  0.5557  0.7126  0.3977
 7049SOL    HW132783   3.569   1.055   2.547  3.4357  0.6393 -0.6609
 7049SOL    HW232784   3.459   0.965   2.490  0.1923  0.1908 -1.8351
 7050SOL     OW32785   4.100   1.714  14.251 -0.4247  0.0117 -0.0008
 7050SOL    HW132786   4.158   1.790  14.238  0.3063 -0.5584 -0.0749
 7050SOL    HW232787   4.068   1.729  14.340 -0.9404 -0.6616 -0.0812
 7051SOL     OW32788   0.875   1.499  13.194  0.0348  0.1422 -0.2311
 7051SOL    HW132789   0.891   1.548  13.275  1.2181  0.6928 -0.7839
 7051SOL    HW232790   0.909   1.564  13.132 -2.5184  0.3139 -1.4367
 7052SOL     OW32791   4.728   2.161   4.320  0.1144 -0.5100 -0.7443
 7052SOL    HW132792   0.032   2.098   4.260  1.7688 -0.5812  0.4307
 7052SOL    HW232793   4.697   2.225   4.256 -0.8280  0.3794  0.6022
 7053SOL     OW32794   1.909   0.226  12.393  0.5049 -0.3789  0.0307
 7053SOL    HW132795   1.895   0.232  12.299 -1.2204 -0.1823  0.2970
 7053SOL    HW232796   1.971   0.153  12.399  1.0617  0.2117  1.3732
 7054SOL     OW32797   2.281   1.967   2.305  0.2402  0.5292  0.0920
 7054SOL    HW132798   2.315   1.886   2.267  0.1432  1.2128 -1.4550
 7054SOL    HW232799   2.274   2.017   2.223  4.0455 -0.7646 -1.0228
 7055SOL     OW32800   1.818   3.313  15.496  0.3000  0.3573 -0.2068
 7055SOL    HW132801   1.800   3.397  15.538 -1.1974  0.8257 -1.7863
 7055SOL    HW232802   1.789   3.332  15.407 -0.7302 -1.1167 -0.1818
 7056SOL     OW32803   1.348   2.672   5.851 -0.3757 -0.1483 -0.5271
 7056SOL    HW132804   1.392   2.757   5.857 -1.4890  0.4388 -0.7073
 7056SOL    HW232805   1.260   2.700   5.826  0.1296  0.8594 -1.1753
 7057SOL     OW32806   1.455   0.798  11.920  0.0139 -0.0613 -0.8530
 7057SOL    HW132807   1.445   0.848  12.001 -1.2777  0.1504 -1.1452
 7057SOL    HW232808   1.491   0.719  11.963  1.6234  0.4398 -1.2679
 7058SOL     OW32809   3.540   4.073   7.516  0.1335 -0.4093 -0.0463
 7058SOL    HW132810   3.493   4.061   7.433 -0.4197 -0.5472  0.2868
 7058SOL    HW232811   3.566   4.165   7.513 -0.8008 -0.1842 -1.0856
 7059SOL     OW32812   3.119   4.603   1.166 -0.2320  0.4200  0.4694
 7059SOL    HW132813   3.067   4.604   1.246 -0.6813  0.7416  0.1734
 7059SOL    HW232814   3.195   4.570   1.213  0.1029 -1.0114 -1.0652
 7060SOL     OW32815   0.695   2.544   3.438 -0.3545 -0.2116  0.8742
 7060SOL    HW132816   0.721   2.632   3.411  1.6034 -1.0402  0.0495
 7060SOL    HW232817   0.611   2.562   3.481  0.3247  0.7259  1.7965
 7061SOL     OW32818   3.544   3.423  15.530 -0.0341 -0.3474 -0.0482
 7061SOL    HW132819   3.516   3.514  15.535 -2.3779 -1.0425  0.0009
 7061SOL    HW232820   3.524   3.404  15.438  0.3890  0.4753 -0.3065
 7062SOL     OW32821   0.331   3.756  16.641  0.7955 -0.2584  0.0594
 7062SOL    HW132822   0.327   3.777  16.548  0.9429  0.6522  0.2532
 7062SOL    HW232823   0.274   3.823  16.679  0.0272 -0.7756 -0.1916
 7063SOL     OW32824   0.171   2.956   5.621 -1.2163  0.3250 -0.6198
 7063SOL    HW132825   0.198   3.040   5.658  1.6812 -0.9473  0.1345
 7063SOL    HW232826   0.210   2.954   5.534  0.1717 -0.2340  0.0070
 7064SOL     OW32827   3.181   2.656   7.391  0.6426  0.7666  0.3186
 7064SOL    HW132828   3.253   2.662   7.328 -1.8698  1.6467 -2.4760
 7064SOL    HW232829   3.108   2.637   7.332  3.6561 -1.4071 -2.7183
 7065SOL     OW32830   0.559   1.461   8.739 -0.6082  0.0218  0.5981
 7065SOL    HW132831   0.563   1.554   8.715 -0.8822 -0.6072 -1.9015
 7065SOL    HW232832   0.614   1.458   8.817 -2.1234 -1.7545  1.5895
 7066SOL     OW32833   0.595   3.276   9.418  0.2602 -0.4536 -0.1935
 7066SOL    HW132834   0.605   3.299   9.325 -0.9219 -0.8956 -0.4336
 7066SOL    HW232835   0.504   3.247   9.423 -0.5286  1.7120 -1.6744
 7067SOL     OW32836   4.684   4.634  12.439  0.0010  0.4853 -0.7500
 7067SOL    HW132837   4.626   4.585  12.498  0.5738  0.2060 -0.4240
 7067SOL    HW232838   0.028   4.643  12.490 -0.6679  0.3775  0.3231
 7068SOL     OW32839   2.943   0.069   6.575 -0.0016 -0.2419  0.0384
 7068SOL    HW132840   2.848   0.068   6.583 -0.0870 -1.6211 -1.3385
 7068SOL    HW232841   2.966   0.053   6.667 -0.7393  0.7946  0.4179
 7069SOL     OW32842   3.545   1.442   4.150 -0.3476 -0.5849 -0.1776
 7069SOL    HW132843   3.463   1.427   4.103 -0.9686 -2.2628  1.4457
 7069SOL    HW232844   3.529   1.517   4.208  0.2505 -0.7655  0.2163
 7070SOL     OW32845   0.359   3.204  11.523  0.2454 -0.4771  0.2436
 7070SOL    HW132846   0.419   3.242  11.458  0.7748 -1.7474 -0.0181
 7070SOL    HW232847   0.409   3.125  11.544  0.3548  0.1092  2.1798
 7071SOL     OW32848   0.570   1.353   7.364 -0.3252 -0.5774  0.0932
 7071SOL    HW132849   0.500   1.288   7.366 -1.2690  0.4144 -1.3924
 7071SOL    HW232850   0.525   1.437   7.358  0.1139 -0.2585  1.2308
 7072SOL     OW32851   0.911   2.863   3.745  0.1426 -0.5285  0.2649
 7072SOL    HW132852   0.895   2.769   3.754 -0.2286 -0.3508  1.4971
 7072SOL    HW232853   0.825   2.896   3.771  0.0181  0.7661 -1.8145
 7073SOL     OW32854   0.510   2.167   3.976  0.1679  0.4031  0.5447
 7073SOL    HW132855   0.501   2.098   3.911  1.5457  1.2957 -0.5944
 7073SOL    HW232856   0.492   2.248   3.928 -0.5215 -1.3257 -2.1182
 7074SOL     OW32857   0.409   2.134   3.382  0.1685  0.0082  0.3931
 7074SOL    HW132858   0.430   2.115   3.291 -1.8490 -2.5965  0.4792
 7074SOL    HW232859   0.494   2.118   3.424 -0.2753 -1.6018  0.6830
 7075SOL     OW32860   1.599   4.625  17.223  0.1566  0.1807  0.5326
 7075SOL    HW132861   1.517   4.642  17.270 -0.7157  2.3965 -1.7355
 7075SOL    HW232862   1.665   4.599  17.287 -0.8882  0.0806  1.5775
 7076SOL     OW32863   0.160   2.885   4.241  0.0003  0.2406  0.3373
 7076SOL    HW132864   0.181   2.915   4.330 -0.8008  0.6531  0.3860
 7076SOL    HW232865   0.244   2.843   4.225 -0.0860 -0.3394  1.3999
 7077SOL     OW32866   1.074   1.320  16.461  0.2273  0.5395 -0.0366
 7077SOL    HW132867   1.138   1.367  16.408  1.1777 -1.5847 -0.7669
 7077SOL    HW232868   1.108   1.236  16.493 -0.0345  0.5947  0.3924
 7078SOL     OW32869   0.562   2.935   9.814 -0.2587 -0.2524  0.1555
 7078SOL    HW132870   0.550   2.906   9.724 -1.4056  1.1988 -0.1581
 7078SOL    HW232871   0.567   3.030   9.820  1.9451 -0.5834  3.5573
 7079SOL     OW32872   0.725   3.136   1.999 -0.0838 -0.4561  0.1055
 7079SOL    HW132873   0.746   3.142   2.092  0.2668 -0.3369  0.0198
 7079SOL    HW232874   0.792   3.075   1.966  1.7248  0.1602  2.6492
 7080SOL     OW32875   3.973   0.897   0.830 -0.1022 -0.1906 -0.5938
 7080SOL    HW132876   3.957   0.953   0.753 -1.7163 -1.0579 -0.8951
 7080SOL    HW232877   3.887   0.895   0.872  0.0353  1.3823 -0.2273
 7081SOL     OW32878   0.134   3.850  17.526  0.0686 -0.1247 -0.0455
 7081SOL    HW132879   0.175   3.934  17.549 -2.3494  1.0189  0.1401
 7081SOL    HW232880   0.121   3.848  17.431  0.9710  0.9916 -0.1926
 7082SOL     OW32881   0.447   0.093  11.021  0.1278  0.0808  0.4264
 7082SOL    HW132882   0.376   0.144  11.059 -1.8267 -0.1400 -2.9406
 7082SOL    HW232883   0.437   0.116  10.929 -0.9565  1.3432  0.8573
 7083SOL     OW32884   1.605   2.061   9.443  0.0394 -0.3578 -0.0244
 7083SOL    HW132885   1.586   1.978   9.486 -1.0282 -0.8334 -1.4435
 7083SOL    HW232886   1.691   2.085   9.478 -0.0249 -2.0355  1.2769
 7084SOL     OW32887   1.520   3.072   6.880 -0.4523 -0.3726  0.0007
 7084SOL    HW132888   1.603   3.120   6.886 -0.7769  0.2366 -0.3735
 7084SOL    HW232889   1.465   3.104   6.952  0.9711  2.8372 -0.3012
 7085SOL     OW32890   2.090   1.660   2.458  0.0901 -0.3318  0.1429
 7085SOL    HW132891   2.014   1.705   2.495  0.6664 -0.1261  1.0766
 7085SOL    HW232892   2.163   1.716   2.485 -0.1778 -0.2023  0.6089
 7086SOL     OW32893   0.122   1.367   3.685 -0.0964  0.7797 -0.6808
 7086SOL    HW132894   0.039   1.381   3.730  0.7640 -0.8066  1.4549
 7086SOL    HW232895   0.100   1.302   3.619 -1.9930 -1.4757  2.1820
 7087SOL     OW32896   0.019   3.581   3.322 -0.1928  0.6523 -0.1632
 7087SOL    HW132897   4.709   3.520   3.380  1.2662 -0.4511 -0.1795
 7087SOL    HW232898   0.112   3.571   3.341 -0.4192  0.1541  0.6931
 7088SOL     OW32899   0.074   3.288  10.399 -0.0313  0.3282 -0.4876
 7088SOL    HW132900   0.123   3.369  10.408  0.7380 -0.1613 -0.2807
 7088SOL    HW232901   0.153   3.235  10.394 -1.5854 -1.8500 -2.1659
 7089SOL     OW32902   3.627   1.512  13.399 -0.4105 -0.0190 -0.0289
 7089SOL    HW132903   3.533   1.510  13.414 -0.5685 -0.3020 -1.0597
 7089SOL    HW232904   3.648   1.583  13.338 -2.2275 -0.4149 -1.0986
 7090SOL     OW32905   2.733   2.634   3.207  0.1248 -0.1291  0.0065
 7090SOL    HW132906   2.797   2.572   3.242  0.8913  1.0936  0.7456
 7090SOL    HW232907   2.694   2.581   3.137 -0.6309 -2.7158  2.3455
 7091SOL     OW32908   1.398   0.149   7.004  0.4541  0.0985 -0.0461
 7091SOL    HW132909   1.368   0.175   6.917  0.4296 -1.0493 -0.3824
 7091SOL    HW232910   1.461   0.084   6.973 -0.7319 -0.6598 -0.8585
 7092SOL     OW32911   2.164   2.863   1.784 -0.3792  0.2917 -0.0534
 7092SOL    HW132912   2.134   2.870   1.693  0.3579  0.2592 -0.2990
 7092SOL    HW232913   2.099   2.812   1.832 -1.5658  0.5889 -1.3623
 7093SOL     OW32914   4.065   4.608   5.312  0.3920 -0.0794 -0.1392
 7093SOL    HW132915   4.029   4.616   5.401  0.5922 -1.9708  0.1098
 7093SOL    HW232916   3.992   4.632   5.255  1.7097 -1.2832 -2.3075
 7094SOL     OW32917   3.910   0.538   9.142 -0.1630 -0.2350  0.6856
 7094SOL    HW132918   3.879   0.511   9.056 -0.8643  1.4350  0.4121
 7094SOL    HW232919   4.003   0.557   9.126 -0.0837 -0.6579  0.6452
 7095SOL     OW32920   0.005   4.236   6.984 -0.2500  0.1266  0.3479
 7095SOL    HW132921   0.092   4.271   6.967 -0.7698  0.6620 -1.1867
 7095SOL    HW232922   0.018   4.170   7.052  0.6164  0.4972  0.5369
 7096SOL     OW32923   1.937   2.644  10.018 -0.1521 -0.3957  0.0453
 7096SOL    HW132924   1.910   2.688  10.098  3.8906 -0.0347  1.1986
 7096SOL    HW232925   1.861   2.588  10.000 -0.8304 -0.4530  3.1029
 7097SOL     OW32926   0.527   4.404   5.415 -0.2467  0.4937 -0.5818
 7097SOL    HW132927   0.543   4.317   5.379  2.0212  1.8178 -2.7324
 7097SOL    HW232928   0.496   4.386   5.504  1.6009  1.0350  0.1747
 7098SOL     OW32929   2.523   0.727   6.833  0.1957 -0.1933  0.2543
 7098SOL    HW132930   2.580   0.728   6.910  1.5113  1.6262 -0.7299
 7098SOL    HW232931   2.484   0.646   6.864  0.2754 -0.2638  0.1692
 7099SOL     OW32932   3.411   0.311  13.017 -0.0070  0.4607  0.3216
 7099SOL    HW132933   3.345   0.350  13.075 -1.5428 -0.0661 -1.0947
 7099SOL    HW232934   3.374   0.222  13.012 -0.9253  0.7318  2.0901
 7100SOL     OW32935   3.051   4.255   1.319 -0.1394  0.0732 -0.3797
 7100SOL    HW132936   3.019   4.309   1.247  1.6156  1.4688 -0.1002
 7100SOL    HW232937   2.999   4.176   1.305 -0.0824 -0.1015  0.4264
 7101SOL     OW32938   4.643   0.051   5.555 -0.3280  0.3338 -0.2131
 7101SOL    HW132939   4.682   0.057   5.643 -1.4775  0.6963  0.2750
 7101SOL    HW232940   4.717   0.093   5.512 -1.2910 -0.2224 -2.3959
 7102SOL     OW32941   0.053   3.760   8.633 -0.8210 -0.1532  0.1378
 7102SOL    HW132942   0.115   3.693   8.664 -0.1832  1.3060  1.9752
 7102SOL    HW232943   4.705   3.726   8.663 -1.4092  0.6622 -0.6150
 7103SOL     OW32944   0.596   4.679   7.501  0.2538 -0.3523 -0.0770
 7103SOL    HW132945   0.614   0.037   7.499  1.2698 -0.5899 -2.4287
 7103SOL    HW232946   0.658   4.649   7.567  1.2177 -0.5881 -1.0870
 7104SOL     OW32947   1.989   2.031  10.862  0.5856  0.0074 -0.3261
 7104SOL    HW132948   2.062   2.047  10.802 -0.8284  0.8049 -1.8227
 7104SOL    HW232949   2.028   1.988  10.938  1.0251 -0.5263 -0.8557
 7105SOL     OW32950   3.862   1.792   6.567 -0.3579  0.2226 -0.2920
 7105SOL    HW132951   3.864   1.785   6.472  0.6755  0.0542 -0.2585
 7105SOL    HW232952   3.939   1.736   6.582 -0.0069  0.7238 -0.2238
 7106SOL     OW32953   2.306   0.640   0.072  0.2938 -0.5008 -0.1488
 7106SOL    HW132954   2.379   0.622   0.012  1.1987  0.8458  0.5724
 7106SOL    HW232955   2.265   0.707   0.017 -0.9773 -2.5659 -1.7184
 7107SOL     OW32956   1.565   1.513  10.904 -0.0306 -0.1872  0.2730
 7107SOL    HW132957   1.505   1.521  10.830 -1.8207  1.2844  1.8888
 7107SOL    HW232958   1.532   1.429  10.937 -1.9930  0.3598 -0.3630
 7108SOL     OW32959   1.218   1.711   9.349 -0.2513 -0.0717  0.2417
 7108SOL    HW132960   1.210   1.623   9.385 -0.6858  0.4374  1.4160
 7108SOL    HW232961   1.126   1.735   9.362 -0.2443  0.7222 -1.1663
 7109SOL     OW32962   1.834   1.896   1.298 -0.0507  0.1706  0.2135
 7109SOL    HW132963   1.879   1.966   1.346  0.9047 -1.5946  1.8907
 7109SOL    HW232964   1.747   1.930   1.280  0.0278 -1.2023 -2.7285
 7110SOL     OW32965   2.668   1.059   3.307 -0.2297 -0.1445  0.2647
 7110SOL    HW132966   2.649   1.009   3.386 -0.2759  0.6188  0.7383
 7110SOL    HW232967   2.678   0.980   3.255 -0.0932  0.1899 -0.2110
 7111SOL     OW32968   1.572   1.311   6.919  0.2832  0.2050 -0.3524
 7111SOL    HW132969   1.478   1.318   6.904 -0.0375  1.2570  2.1701
 7111SOL    HW232970   1.572   1.269   7.005  2.7822 -1.1894 -1.0386
 7112SOL     OW32971   0.936   0.174  15.400 -0.7410 -0.1344 -0.0765
 7112SOL    HW132972   1.021   0.131  15.389 -1.2313 -0.7559 -1.4329
 7112SOL    HW232973   0.955   0.258  15.443  0.9369 -1.5194  1.8911
 7113SOL     OW32974   1.274   1.118   5.868 -0.2058 -0.1166 -0.0252
 7113SOL    HW132975   1.321   1.133   5.786  0.9687  1.1799  0.9045
 7113SOL    HW232976   1.341   1.151   5.928  0.6758 -0.1835 -0.9764
 7114SOL     OW32977   2.970   4.361   9.765  0.1609 -0.1306  0.0092
 7114SOL    HW132978   2.943   4.283   9.718 -3.1040  2.0431 -1.7195
 7114SOL    HW232979   2.881   4.396   9.772 -0.1131 -0.8691  0.1570
 7115SOL     OW32980   4.367   3.362   6.041 -0.0645  0.2322 -0.3063
 7115SOL    HW132981   4.310   3.413   6.099  1.7320  1.4017  0.4528
 7115SOL    HW232982   4.411   3.427   5.987 -0.6204 -0.1086 -1.1567
 7116SOL     OW32983   2.941   1.540   9.150  0.4362  0.5225  0.2451
 7116SOL    HW132984   3.034   1.558   9.140  0.4310  1.4813  1.9330
 7116SOL    HW232985   2.905   1.629   9.148  0.9576  0.6406 -2.9887
 7117SOL     OW32986   1.164   3.526   9.483  0.0023  0.0766  0.2591
 7117SOL    HW132987   1.077   3.564   9.471  0.4178  1.1485  0.5813
 7117SOL    HW232988   1.148   3.432   9.488 -1.2268  0.3648  1.6936
 7118SOL     OW32989   0.490   3.159   2.941  0.5004 -0.2501 -0.2431
 7118SOL    HW132990   0.438   3.230   2.977  0.3351 -0.5325  0.0668
 7118SOL    HW232991   0.463   3.092   3.003  1.9456 -0.6928 -0.0817
 7119SOL     OW32992   4.404   0.788   7.678 -0.4441  0.0195  0.6176
 7119SOL    HW132993   4.411   0.716   7.741  1.2810 -0.8732 -0.5689
 7119SOL    HW232994   4.314   0.814   7.696 -0.8724 -1.1002  0.0731
 7120SOL     OW32995   1.054   3.911   4.932  0.8163  0.3710  0.7080
 7120SOL    HW132996   1.062   4.001   4.962  1.8459  0.7509 -0.7438
 7120SOL    HW232997   0.961   3.890   4.919  0.6597  2.0235 -0.7583
 7121SOL     OW32998   0.244   0.138   6.152 -0.4993  0.7571 -0.2124
 7121SOL    HW132999   0.168   0.177   6.109 -2.0604 -1.7224  0.3382
 7121SOL    HW233000   0.259   0.060   6.099 -3.6417 -0.2244  0.3678
 7122SOL     OW33001   0.473   3.611   5.259  0.1336  0.0938 -0.1304
 7122SOL    HW133002   0.533   3.613   5.333  0.1178  1.1297 -0.1454
 7122SOL    HW233003   0.421   3.689   5.276  0.1324  0.6052 -2.4448
 7123SOL     OW33004   2.844   2.016   5.967 -0.6013 -0.5991 -0.0997
 7123SOL    HW133005   2.816   2.070   5.893  0.8361  0.0757 -0.1692
 7123SOL    HW233006   2.910   1.960   5.926  0.3839 -0.0146  0.6831
 7124SOL     OW33007   4.113   4.350   0.003  0.6014  0.1107  0.0198
 7124SOL    HW133008   4.050   4.331  17.676  0.9406  2.3579 -0.9247
 7124SOL    HW233009   4.159   4.428  17.713 -1.9062  0.8438 -1.7216
 7125SOL     OW33010   0.259   3.909   3.222 -0.5472  0.7762 -0.2802
 7125SOL    HW133011   0.345   3.942   3.246 -0.1807 -0.5622  0.2493
 7125SOL    HW233012   0.272   3.820   3.189 -0.1680  1.1609 -1.1526
 7126SOL     OW33013   0.006   0.483   7.190 -0.6069 -0.2181 -0.1151
 7126SOL    HW133014   4.719   0.475   7.097  1.1814  0.2805 -0.5851
 7126SOL    HW233015   0.091   0.440   7.191 -0.1796  0.6128 -0.7529
 7127SOL     OW33016   1.244   0.640   4.676  0.8627  0.8722 -0.1424
 7127SOL    HW133017   1.208   0.591   4.603 -0.9093  1.2910  0.4664
 7127SOL    HW233018   1.314   0.685   4.627 -0.0946  1.7233 -0.7139
 7128SOL     OW33019   4.241   1.024   9.432 -0.0921 -0.2299 -0.1290
 7128SOL    HW133020   4.314   1.038   9.373 -0.0703  2.6093  0.5745
 7128SOL    HW233021   4.278   1.045   9.518 -0.5959 -2.8714  0.7265
 7129SOL     OW33022   0.391   2.035   4.434 -0.1337  0.0345 -0.3725
 7129SOL    HW133023   0.343   2.101   4.384  1.8895  1.7080 -0.1407
 7129SOL    HW233024   0.377   1.955   4.384  1.1306 -0.4133 -0.0081
 7130SOL     OW33025   2.536   2.177   4.363  0.3279 -0.1801 -0.0175
 7130SOL    HW133026   2.528   2.154   4.456 -0.2805  1.2842  0.2940
 7130SOL    HW233027   2.465   2.241   4.355 -0.4740 -0.7259  2.7976
 7131SOL     OW33028   0.322   3.380   8.401 -0.0801 -0.2325 -0.0969
 7131SOL    HW133029   0.317   3.324   8.479  0.7476  0.4507  0.4388
 7131SOL    HW233030   0.404   3.358   8.356  0.2112 -0.1255  0.3771
 7132SOL     OW33031   3.490   0.655  17.179  0.1416 -0.5319  0.2738
 7132SOL    HW133032   3.521   0.724  17.237  3.1400 -0.1804 -1.7447
 7132SOL    HW233033   3.519   0.581  17.233 -0.3646 -0.8253  0.1434
 7133SOL     OW33034   0.798   3.177   6.962 -0.4679 -0.5490 -0.0705
 7133SOL    HW133035   0.776   3.104   7.020 -0.8785 -0.3161  0.0613
 7133SOL    HW233036   0.750   3.164   6.880 -1.3558  1.1436  0.1989
 7134SOL     OW33037   3.170   3.472  10.085  0.0157 -0.0132 -0.1463
 7134SOL    HW133038   3.167   3.428  10.000  0.8027  0.3290 -0.3480
 7134SOL    HW233039   3.094   3.435  10.130 -1.9449  1.8324 -1.8926
 7135SOL     OW33040   4.254   2.406   4.576  0.5190 -0.2001 -0.3657
 7135SOL    HW133041   4.202   2.337   4.617  0.1224  0.0346 -0.4844
 7135SOL    HW233042   4.245   2.465   4.650 -2.9525  1.6407 -2.2919
 7136SOL     OW33043   3.601   3.500   3.343  0.1687 -0.1519  0.1917
 7136SOL    HW133044   3.615   3.535   3.255  1.9003 -0.3450  0.4041
 7136SOL    HW233045   3.633   3.571   3.398 -1.3075 -1.2707  2.5298
 7137SOL     OW33046   0.111   1.845  15.537 -0.7022 -0.2846  0.0507
 7137SOL    HW133047   0.092   1.930  15.496 -1.7954 -1.1501 -1.2054
 7137SOL    HW233048   0.173   1.880  15.602  0.1129 -1.5380 -0.0436
 7138SOL     OW33049   1.531   3.928   3.698  0.1261  0.2092  0.2254
 7138SOL    HW133050   1.594   3.965   3.636 -2.2156  1.4816 -1.3773
 7138SOL    HW233051   1.576   3.932   3.783  0.1181  0.6474  0.2062
 7139SOL     OW33052   4.394   0.492  14.999 -0.2739 -0.2515  0.2234
 7139SOL    HW133053   4.480   0.488  14.957 -1.1334 -0.0520 -1.5547
 7139SOL    HW233054   4.353   0.554  14.938  0.2769  0.7967  0.9111
 7140SOL     OW33055   2.734   3.645  11.745  0.2018 -0.5647  0.1901
 7140SOL    HW133056   2.691   3.674  11.825  0.1603  1.8127 -0.7093
 7140SOL    HW233057   2.656   3.602  11.709 -0.6649 -0.3280  1.8140
 7141SOL     OW33058   1.029   0.303   9.482 -0.1000 -0.0886  0.2071
 7141SOL    HW133059   1.102   0.317   9.422  0.2675  0.5761  0.8204
 7141SOL    HW233060   0.976   0.249   9.422  1.7914 -2.2359  0.4966
 7142SOL     OW33061   0.627   3.223   7.859  0.4593  0.5691 -0.1669
 7142SOL    HW133062   0.683   3.295   7.831 -1.5996  1.1973 -2.7034
 7142SOL    HW233063   0.663   3.148   7.812  1.4730  1.6285 -1.0744
 7143SOL     OW33064   3.101   3.217  15.268 -0.4168  0.1394 -0.1381
 7143SOL    HW133065   3.141   3.167  15.197 -1.4130 -1.8009  0.6826
 7143SOL    HW233066   3.110   3.308  15.241  0.6907  0.0920  0.0723
 7144SOL     OW33067   3.799   1.042  15.998  0.3332 -1.0658 -0.2226
 7144SOL    HW133068   3.827   1.124  16.038  0.4703 -1.1772 -0.0905
 7144SOL    HW233069   3.714   1.061  15.958  0.0309 -0.2454  0.8013
 7145SOL     OW33070   3.038   1.449   4.898 -0.3205 -0.1331  0.9447
 7145SOL    HW133071   3.032   1.358   4.867  1.1188  0.3428 -0.7894
 7145SOL    HW233072   2.983   1.498   4.838  0.6596  0.9834  0.9559
 7146SOL     OW33073   4.567   0.641   7.508 -0.4443  0.1238 -0.0085
 7146SOL    HW133074   4.497   0.695   7.547 -0.2692  0.3619 -0.0254
 7146SOL    HW233075   4.524   0.556   7.497 -0.4208  0.1963 -0.6188
 7147SOL     OW33076   3.410   3.622  10.726  0.5427 -0.6101 -0.3448
 7147SOL    HW133077   3.380   3.630  10.635 -0.1167 -3.1293 -0.3746
 7147SOL    HW233078   3.387   3.709  10.758 -0.0377 -1.1005  0.5720
 7148SOL     OW33079   1.216   2.572   2.768 -0.1064 -0.1420 -0.1703
 7148SOL    HW133080   1.230   2.552   2.676  1.1767  0.6423 -0.1532
 7148SOL    HW233081   1.272   2.650   2.772  0.2605 -0.3488 -1.3330
 7149SOL     OW33082   2.227   3.436   3.697 -0.1196  0.0970 -0.3710
 7149SOL    HW133083   2.140   3.456   3.731  0.9634 -1.0444  3.1019
 7149SOL    HW233084   2.268   3.521   3.683  0.6733 -0.3545 -0.8118
 7150SOL     OW33085   2.678   4.215   2.548  0.0101  0.0095 -0.5795
 7150SOL    HW133086   2.642   4.171   2.472  0.6198  2.3548 -2.2316
 7150SOL    HW233087   2.597   4.229   2.597 -0.0990 -0.7474 -0.5543
 7151SOL     OW33088   4.035   0.724  13.510  0.6277 -0.1365  0.0110
 7151SOL    HW133089   4.029   0.641  13.464 -0.0210 -1.0508  1.7631
 7151SOL    HW233090   3.945   0.753  13.522  0.0534 -1.9563 -0.0236
 7152SOL     OW33091   4.680   0.154   3.443  0.4526  1.3376  0.1501
 7152SOL    HW133092   4.691   0.117   3.355 -0.7117  2.3479 -0.4334
 7152SOL    HW233093   4.667   0.066   3.477 -0.6828  1.2473 -0.4933
 7153SOL     OW33094   2.097   2.277   2.117 -0.3854  0.9897 -0.1274
 7153SOL    HW133095   2.174   2.285   2.173 -0.2569 -0.7225 -0.0625
 7153SOL    HW233096   2.089   2.365   2.080 -1.1374  0.3181 -1.5317
 7154SOL     OW33097   4.627   3.260   6.214  0.1769 -0.3590 -0.7412
 7154SOL    HW133098   4.648   3.346   6.176  0.5517 -0.0112  0.2653
 7154SOL    HW233099   4.669   3.218   6.139 -0.2911 -0.2542 -1.0629
 7155SOL     OW33100   0.800   2.540   6.891 -1.1722 -0.0982  0.1343
 7155SOL    HW133101   0.772   2.452   6.867 -0.1630 -0.3311 -0.1899
 7155SOL    HW233102   0.895   2.533   6.901 -1.2191 -0.2333  0.4921
 7156SOL     OW33103   2.522   2.571   4.898  0.0553  0.0393  0.0822
 7156SOL    HW133104   2.477   2.580   4.982  0.8727  1.0870  0.4010
 7156SOL    HW233105   2.464   2.502   4.867  0.1158 -0.9054  2.0905
 7157SOL     OW33106   1.094   2.344   1.700 -0.5448 -0.0383 -0.2298
 7157SOL    HW133107   1.005   2.315   1.683 -0.5026  0.2081 -0.8605
 7157SOL    HW233108   1.147   2.264   1.694 -0.7999 -0.0784 -1.9419
 7158SOL     OW33109   0.707   0.941   6.983  0.3488  0.4581  0.4109
 7158SOL    HW133110   0.649   0.871   6.952  0.5679  0.0300  0.9703
 7158SOL    HW233111   0.698   0.996   6.905  1.0989  2.1552  1.5466
 7159SOL     OW33112   2.781   3.415  15.125 -0.5872 -0.5675 -0.0757
 7159SOL    HW133113   2.686   3.406  15.117 -0.8097  2.4073 -0.5338
 7159SOL    HW233114   2.803   3.478  15.056  0.5478 -1.2791 -0.3715
 7160SOL     OW33115   4.181   1.167   8.453  0.2173 -0.5368 -0.7680
 7160SOL    HW133116   4.230   1.209   8.382  1.4127  0.3905  0.6084
 7160SOL    HW233117   4.185   1.075   8.426 -3.1412 -0.3330 -1.9952
 7161SOL     OW33118   4.349   4.160   6.429 -0.3163  0.9222  0.2733
 7161SOL    HW133119   4.408   4.155   6.504 -1.5708  3.4802  1.4349
 7161SOL    HW233120   4.282   4.103   6.466 -0.0136  0.0254 -0.5380
 7162SOL     OW33121   2.439   1.404   6.275 -0.6066  0.6388  0.0451
 7162SOL    HW133122   2.401   1.491   6.267 -2.4655 -0.2212 -0.5767
 7162SOL    HW233123   2.443   1.383   6.181  1.7157  1.3766 -0.0293
 7163SOL     OW33124   0.375   1.124   9.055  0.7896 -0.3120 -0.3721
 7163SOL    HW133125   0.428   1.159   8.983 -0.1337  1.5950 -0.1230
 7163SOL    HW233126   0.430   1.125   9.133  2.0899 -0.0510 -1.2941
 7164SOL     OW33127   4.077   3.869  13.962  0.1247  0.5967 -0.0473
 7164SOL    HW133128   4.097   3.901  13.874  0.0186 -2.1144 -1.0684
 7164SOL    HW233129   4.146   3.910  14.013  2.6672 -2.5025 -0.9950
 7165SOL     OW33130   2.458   4.463   3.360  0.1169  0.1947  0.1699
 7165SOL    HW133131   2.495   4.520   3.427 -0.2044  1.1734 -0.4802
 7165SOL    HW233132   2.484   4.513   3.282  0.1394 -1.0041 -0.5935
 7166SOL     OW33133   0.530   3.035  16.959  0.1801 -0.2036  0.1523
 7166SOL    HW133134   0.622   3.013  16.967  0.5153  0.7821 -1.0889
 7166SOL    HW233135   0.509   3.060  17.049  1.0959  1.4807 -0.1136
 7167SOL     OW33136   2.141   1.504   7.972 -0.1170 -0.2267  0.3390
 7167SOL    HW133137   2.167   1.506   7.880 -1.9058 -0.4685 -0.1769
 7167SOL    HW233138   2.208   1.558   8.013 -1.0863  2.3449 -1.4748
 7168SOL     OW33139   4.557   3.174  12.439  0.2169 -0.5898  0.6102
 7168SOL    HW133140   4.578   3.256  12.484  0.1494 -0.5233  0.5208
 7168SOL    HW233141   4.477   3.192  12.390  0.5963 -0.4359  0.0422
 7169SOL     OW33142   1.474   3.977   0.850  0.2243  0.3543  0.3386
 7169SOL    HW133143   1.410   4.048   0.854  0.9431  1.0220 -0.1624
 7169SOL    HW233144   1.426   3.923   0.787  2.3115  0.1776 -1.0920
 7170SOL     OW33145   4.481   4.149   0.338 -0.0915 -0.4996  0.5710
 7170SOL    HW133146   4.488   4.149   0.242 -2.5530 -0.9852  0.3920
 7170SOL    HW233147   4.405   4.206   0.351  0.7222  0.7743 -0.3209
 7171SOL     OW33148   0.765   1.971   5.468 -0.5215 -0.4513 -0.4153
 7171SOL    HW133149   0.705   2.014   5.530 -0.2559 -1.9306  0.8616
 7171SOL    HW233150   0.706   1.971   5.393 -0.8069 -2.2142 -0.1845
 7172SOL     OW33151   4.634   2.918  15.687 -0.4760  0.5873 -0.2843
 7172SOL    HW133152   4.690   2.902  15.763  0.5786  1.9230 -0.7670
 7172SOL    HW233153   4.562   2.974  15.714 -0.3962  0.8016 -0.5068
 7173SOL     OW33154   3.960   4.530  13.954  0.5279  0.2060  0.3387
 7173SOL    HW133155   3.944   4.493  13.867  1.8272  2.2296 -0.7676
 7173SOL    HW233156   3.920   4.617  13.950  0.0492 -0.0789 -1.2055
 7174SOL     OW33157   4.348   1.796   7.133 -0.3223  0.0427 -0.1979
 7174SOL    HW133158   4.360   1.887   7.109 -1.3676  0.0997 -0.5027
 7174SOL    HW233159   4.319   1.808   7.224  2.2469 -0.3819  0.6605
 7175SOL     OW33160   0.531   3.571   3.572  0.5648 -0.2203  0.0881
 7175SOL    HW133161   0.544   3.571   3.666  2.0155 -2.7586 -0.1272
 7175SOL    HW233162   0.619   3.574   3.534  0.9280 -0.5379  0.9206
 7176SOL     OW33163   4.697   0.228  13.397 -0.3558 -0.4095  0.0384
 7176SOL    HW133164   0.015   0.237  13.319 -2.8177 -0.7206 -1.7157
 7176SOL    HW233165   4.682   0.314  13.436 -0.4559  0.1062 -1.1370
 7177SOL     OW33166   3.429   4.672  10.681 -0.0066 -0.5246 -0.7955
 7177SOL    HW133167   3.485   4.596  10.693 -0.4776 -0.7435  0.0638
 7177SOL    HW233168   3.492   4.731  10.639  0.1178 -0.3253 -0.3381
 7178SOL     OW33169   1.829   2.416   9.625  0.2708 -0.0312  0.0328
 7178SOL    HW133170   1.850   2.325   9.603  0.6240  0.2626 -0.8400
 7178SOL    HW233171   1.854   2.463   9.545 -0.6156  0.3164 -0.0359
 7179SOL     OW33172   0.452   4.256   2.190  0.8679 -0.2719 -0.1864
 7179SOL    HW133173   0.462   4.160   2.192 -3.2276 -0.6553  0.7069
 7179SOL    HW233174   0.527   4.280   2.244  1.2638 -0.2448 -0.7531
 7180SOL     OW33175   3.717   3.088   5.060 -0.5263  0.0749 -0.7151
 7180SOL    HW133176   3.767   3.044   4.991 -0.0933 -0.6798  0.0755
 7180SOL    HW233177   3.792   3.124   5.107  0.4818 -0.5878 -1.8115
 7181SOL     OW33178   2.835   1.022   2.649 -0.0497 -0.1934 -0.4598
 7181SOL    HW133179   2.863   1.054   2.563 -0.2993  2.3203  0.3932
 7181SOL    HW233180   2.744   1.048   2.659  0.5956  1.8486  0.2067
 7182SOL     OW33181   2.674   4.478   7.265  0.3317  0.2108  0.2310
 7182SOL    HW133182   2.597   4.421   7.262  0.3315  0.2333 -0.1469
 7182SOL    HW233183   2.736   4.419   7.307  0.0268 -1.2074 -1.3365
 7183SOL     OW33184   2.080   4.395   2.690 -0.8460 -0.3030  0.6511
 7183SOL    HW133185   2.111   4.339   2.619  1.8587  2.4183 -0.2872
 7183SOL    HW233186   2.088   4.339   2.768  1.1361 -1.9819 -0.7630
 7184SOL     OW33187   3.614   1.660  17.620 -0.2665 -0.0787 -0.2218
 7184SOL    HW133188   3.653   1.576  17.597 -0.6214 -0.7634  1.6537
 7184SOL    HW233189   3.528   1.645  17.580 -0.9604  0.8576  0.8867
 7185SOL     OW33190   1.026   1.234  15.184 -0.6234 -0.4196 -0.2872
 7185SOL    HW133191   1.024   1.319  15.228 -3.4063 -0.7830  0.2877
 7185SOL    HW233192   1.024   1.265  15.094  1.3331  0.9397  0.1452
 7186SOL     OW33193   3.421   4.075   8.276 -0.1927 -0.1372 -0.1857
 7186SOL    HW133194   3.430   3.980   8.273 -1.4022 -0.3005  1.5608
 7186SOL    HW233195   3.328   4.090   8.258  0.1611  1.9873 -0.2672
 7187SOL     OW33196   1.667   3.971  14.781  0.2551  0.0591 -0.3786
 7187SOL    HW133197   1.695   3.975  14.873 -1.0837 -1.0737  0.0701
 7187SOL    HW233198   1.572   3.969  14.790  0.2972  0.3725  0.1198
 7188SOL     OW33199   0.293   4.526   9.091  0.4236  0.4648  0.6105
 7188SOL    HW133200   0.249   4.547   9.173 -3.1727 -0.5618 -1.0455
 7188SOL    HW233201   0.349   4.604   9.082  0.1104  0.6053 -0.1065
 7189SOL     OW33202   2.660   4.174   9.454 -0.1172 -0.4090 -0.6606
 7189SOL    HW133203   2.569   4.148   9.463 -0.5526  1.0802 -0.7494
 7189SOL    HW233204   2.687   4.132   9.372  2.1994 -0.8557  0.3203
 7190SOL     OW33205   4.572   0.288   5.208 -0.3935 -0.1012 -0.5364
 7190SOL    HW133206   4.666   0.293   5.189 -0.2362 -0.9043  0.0161
 7190SOL    HW233207   4.562   0.220   5.275  1.8210  0.8769  0.8099
 7191SOL     OW33208   2.030   0.356  13.538 -0.4292 -0.0722 -0.3093
 7191SOL    HW133209   2.026   0.261  13.530  1.1878 -0.1011 -0.6240
 7191SOL    HW233210   1.956   0.362  13.599 -0.1429 -0.3867  0.0677
 7192SOL     OW33211   4.630   1.818   0.510  0.3516 -0.2370 -0.1713
 7192SOL    HW133212   4.678   1.735   0.517 -0.5686 -0.7713 -0.0850
 7192SOL    HW233213   4.593   1.814   0.422  1.9037  0.7474 -0.8662
 7193SOL     OW33214   0.098   2.149  10.163 -0.3079 -0.0533  0.4027
 7193SOL    HW133215   0.130   2.220  10.218  0.0157  1.7269 -2.1000
 7193SOL    HW233216   0.012   2.184  10.142  0.1058  0.0173 -1.1702
 7194SOL     OW33217   0.802   2.826  10.721 -0.1088 -0.2700  0.3135
 7194SOL    HW133218   0.873   2.886  10.742 -2.0947  1.3754  2.2625
 7194SOL    HW233219   0.752   2.872  10.653  1.4533  0.2382 -0.5109
 7195SOL     OW33220   3.433   2.084   4.696  0.0003 -0.3084 -0.2279
 7195SOL    HW133221   3.396   1.996   4.692 -0.7451 -0.0467  0.7858
 7195SOL    HW233222   3.453   2.075   4.789  1.2104  1.6979 -0.2823
 7196SOL     OW33223   4.499   3.949   3.461 -0.0958  0.0604 -0.1427
 7196SOL    HW133224   4.534   4.016   3.521 -2.2413  0.8370  0.2542
 7196SOL    HW233225   4.407   3.976   3.463  0.5869  2.4516 -0.6351
 7197SOL     OW33226   0.582   3.082   8.081 -0.1756 -0.2599  0.3325
 7197SOL    HW133227   0.648   3.118   8.141 -0.9952  0.0248  1.0634
 7197SOL    HW233228   0.607   3.137   8.006 -1.0270  1.1000  1.0583
 7198SOL     OW33229   0.657   0.718   7.485  0.0835 -0.3476  0.0446
 7198SOL    HW133230   0.637   0.624   7.478  1.3759 -0.6060 -0.2866
 7198SOL    HW233231   0.737   0.743   7.439 -0.2568  0.4634 -0.1052
 7199SOL     OW33232   0.498   0.861   4.013  0.3754 -0.3408  0.0557
 7199SOL    HW133233   0.501   0.944   3.965 -1.2814 -0.8462 -0.9365
 7199SOL    HW233234   0.479   0.900   4.098 -0.5328  1.0280 -0.7766
 7200SOL     OW33235   0.034   0.432   3.412 -0.5885  0.1712  0.5247
 7200SOL    HW133236   4.698   0.424   3.349  0.4364  0.3975 -0.6651
 7200SOL    HW233237   0.050   0.340   3.434 -0.3058  0.4252  1.4228
 7201SOL     OW33238   4.711   2.866   1.183  0.0338 -0.1625 -0.2277
 7201SOL    HW133239   4.621   2.846   1.211 -0.1149  1.0680  0.1693
 7201SOL    HW233240   4.725   2.953   1.221  1.8708 -0.4793 -0.1839
 7202SOL     OW33241   2.967   3.078  15.493 -0.0076  0.7467 -0.2033
 7202SOL    HW133242   2.879   3.100  15.460 -0.5308 -0.1668  0.5732
 7202SOL    HW233243   3.013   3.128  15.426 -2.5148  0.7449 -1.9246
 7203SOL     OW33244   1.132   1.843   6.294 -0.3122  0.1771 -0.2774
 7203SOL    HW133245   1.093   1.760   6.265 -0.4531 -0.4500  1.7083
 7203SOL    HW233246   1.180   1.862   6.214  1.6262  1.7406  1.2514
 7204SOL     OW33247   3.846   0.406   7.701  0.3151  0.2709 -0.5498
 7204SOL    HW133248   3.924   0.448   7.666  1.1821  0.3100  1.4366
 7204SOL    HW233249   3.873   0.314   7.705 -1.4790 -0.2134  0.6172
 7205SOL     OW33250   4.598   2.590   9.767  0.2481  0.4558 -0.1075
 7205SOL    HW133251   4.547   2.554   9.695  1.1830  2.4363 -1.7668
 7205SOL    HW233252   4.617   2.675   9.728  0.5270  1.4371  2.1576
 7206SOL     OW33253   0.670   3.534   6.812 -0.0442 -0.0676  0.2467
 7206SOL    HW133254   0.592   3.478   6.814  0.7023 -1.1294 -0.6078
 7206SOL    HW233255   0.716   3.519   6.895 -1.2647 -1.5297  0.6731
 7207SOL     OW33256   3.898   3.425   6.936  0.4234 -0.2758 -0.6293
 7207SOL    HW133257   3.990   3.405   6.919 -0.1456 -2.9781 -0.6140
 7207SOL    HW233258   3.882   3.374   7.015 -0.9635  1.3197  0.1145
 7208SOL     OW33259   0.293   4.020   9.890 -0.3645 -0.4451 -0.4078
 7208SOL    HW133260   0.306   4.056   9.803 -0.2420 -1.4770 -0.8187
 7208SOL    HW233261   0.325   3.930   9.895  1.4565  0.2815  1.0025
 7209SOL     OW33262   3.099   2.748   1.946  0.5248 -0.1281  0.2145
 7209SOL    HW133263   3.180   2.704   1.971 -0.1822 -1.1670  0.6878
 7209SOL    HW233264   3.097   2.710   1.859  0.3120  1.1879 -0.3460
 7210SOL     OW33265   4.452   4.561   4.605 -0.5923 -0.2567 -0.2548
 7210SOL    HW133266   4.413   4.636   4.560 -0.2793 -1.4495 -2.5020
 7210SOL    HW233267   4.386   4.494   4.588  0.9914 -1.5467 -1.3491
 7211SOL     OW33268   2.124   0.883   6.641  0.1007 -0.1455  0.5154
 7211SOL    HW133269   2.126   0.822   6.715 -0.0458  2.4601  2.6570
 7211SOL    HW233270   2.216   0.865   6.622 -0.5563 -0.2270 -2.4829
 7212SOL     OW33271   2.305   3.014   5.668 -0.0582 -0.2461  0.0079
 7212SOL    HW133272   2.222   3.049   5.635 -0.7008  0.0053  1.8828
 7212SOL    HW233273   2.298   3.032   5.761  3.5391 -1.0183  0.4040
 7213SOL     OW33274   2.999   1.189   5.221 -0.2661  0.0024  0.3607
 7213SOL    HW133275   2.949   1.184   5.302  0.4163  2.2761  0.9176
 7213SOL    HW233276   3.083   1.154   5.250 -0.3275 -1.2329 -0.9484
 7214SOL     OW33277   3.185   1.710  14.538 -0.0185 -0.5173 -0.0848
 7214SOL    HW133278   3.207   1.730  14.629  1.9101 -1.9875 -0.2526
 7214SOL    HW233279   3.228   1.785  14.497 -0.6856 -1.0137 -1.7151
 7215SOL     OW33280   0.264   3.488  16.670 -0.2251 -0.3118 -0.4874
 7215SOL    HW133281   0.171   3.500  16.654  0.3886  0.5859 -3.2993
 7215SOL    HW233282   0.300   3.577  16.670  0.5400 -0.6234 -1.2342
 7216SOL     OW33283   1.751   2.577   6.684 -0.1292  0.3672  0.5052
 7216SOL    HW133284   1.746   2.524   6.763 -1.2171  0.6710  0.6451
 7216SOL    HW233285   1.658   2.591   6.666  0.7301 -0.3558 -4.4782
 7217SOL     OW33286   4.144   1.508   3.076 -0.8035  0.2698 -0.5307
 7217SOL    HW133287   4.170   1.457   3.001 -0.4610  0.3193 -0.4435
 7217SOL    HW233288   4.093   1.440   3.120 -3.6584  2.0830 -0.9542
 7218SOL     OW33289   0.395   4.282   8.021 -0.2096 -0.3360 -0.5471
 7218SOL    HW133290   0.438   4.353   7.973 -0.1543  0.5384  0.7948
 7218SOL    HW233291   0.309   4.269   7.982 -0.7106  0.9074  0.1412
 7219SOL     OW33292   2.428   3.316   2.910  0.1247 -0.1628 -0.1263
 7219SOL    HW133293   2.434   3.256   2.985 -0.7075 -0.7737 -0.5460
 7219SOL    HW233294   2.520   3.339   2.906 -0.5535  2.2818 -1.3266
 7220SOL     OW33295   2.442   3.299   8.098 -0.2733 -0.4199 -0.3563
 7220SOL    HW133296   2.397   3.384   8.095  0.0874 -0.2598 -1.1342
 7220SOL    HW233297   2.529   3.333   8.122  0.2224  0.0386 -2.8775
 7221SOL     OW33298   3.395   2.335  10.691 -0.2202 -0.7177  0.4480
 7221SOL    HW133299   3.431   2.417  10.659  0.8390 -1.1907  0.4490
 7221SOL    HW233300   3.305   2.361  10.712 -0.7015 -2.4158  0.4605
 7222SOL     OW33301   4.287   4.332  16.570 -0.1591  0.1655 -0.6106
 7222SOL    HW133302   4.239   4.333  16.487 -0.2400 -1.0378 -0.5753
 7222SOL    HW233303   4.334   4.415  16.564  0.0959 -0.0774 -1.9024
 7223SOL     OW33304   1.379   3.900  14.717  0.1844 -0.0466 -0.5413
 7223SOL    HW133305   1.324   3.834  14.759 -0.8486  0.2784 -1.3775
 7223SOL    HW233306   1.345   3.901  14.627 -1.9337 -0.0326  0.2658
 7224SOL     OW33307   4.323   3.653   4.663  0.6091 -0.4586  0.1208
 7224SOL    HW133308   4.306   3.559   4.652 -0.5167 -0.0597 -1.5499
 7224SOL    HW233309   4.401   3.650   4.719 -0.8454  1.8515  2.2260
 7225SOL     OW33310   1.231   2.330   9.187 -0.2537  0.3693 -0.2118
 7225SOL    HW133311   1.291   2.277   9.239 -1.3009  0.2831  0.9020
 7225SOL    HW233312   1.285   2.371   9.119 -0.4784 -0.4899 -0.9104
 7226SOL     OW33313   0.009   1.290   6.959 -0.3956 -0.2236  0.2077
 7226SOL    HW133314   4.678   1.357   6.969  4.1645  4.1873  1.1154
 7226SOL    HW233315   0.056   1.292   7.042  0.5571  0.8002 -0.3614
 7227SOL     OW33316   4.301   4.047  14.911  0.9061  0.2724  0.0845
 7227SOL    HW133317   4.371   4.101  14.946 -2.3554  3.2116  2.1060
 7227SOL    HW233318   4.262   4.017  14.993  0.7331 -0.7500 -0.3650
 7228SOL     OW33319   0.489   1.968   2.322 -0.5572  0.2310  0.4786
 7228SOL    HW133320   0.435   2.015   2.257  1.1495  2.4585  0.6703
 7228SOL    HW233321   0.531   2.046   2.358 -0.7382  0.4203  0.2835
 7229SOL     OW33322   4.127   3.348   0.379 -0.1227 -0.7375  0.4282
 7229SOL    HW133323   4.188   3.308   0.317  0.8572  2.0690 -0.4249
 7229SOL    HW233324   4.109   3.277   0.440  4.0047 -0.3036  2.1636
 7230SOL     OW33325   3.252   3.233   2.571  0.2278  0.2206 -0.2600
 7230SOL    HW133326   3.258   3.155   2.515 -1.1078  1.3246 -1.9587
 7230SOL    HW233327   3.157   3.247   2.568  0.3098  1.1332  1.2630
 7231SOL     OW33328   3.235   0.527   9.282  0.3035  0.1084  0.4354
 7231SOL    HW133329   3.242   0.622   9.272  2.7136  0.0621  1.6714
 7231SOL    HW233330   3.143   0.519   9.307  0.4023 -1.0911  0.4327
 7232SOL     OW33331   0.730   3.189  10.202  0.1343  0.0845 -0.4214
 7232SOL    HW133332   0.676   3.116  10.170  0.9781 -0.5552 -0.3784
 7232SOL    HW233333   0.695   3.265  10.155 -0.5818 -0.0276 -0.0771
 7233SOL     OW33334   3.232   2.342   3.743  0.1288 -0.3058  0.2645
 7233SOL    HW133335   3.155   2.306   3.787 -0.5853 -1.1148 -1.6533
 7233SOL    HW233336   3.287   2.264   3.729  0.0035 -0.9915  3.4097
 7234SOL     OW33337   1.876   0.553  15.294 -0.1909  0.2423  0.4805
 7234SOL    HW133338   1.785   0.581  15.282 -0.5168 -1.2883 -0.5270
 7234SOL    HW233339   1.882   0.505  15.211 -4.4319  3.1074 -1.4764
 7235SOL     OW33340   3.239   1.210   3.947 -0.0767  0.3276  0.0861
 7235SOL    HW133341   3.219   1.260   4.026 -0.8981 -2.0142  1.3447
 7235SOL    HW233342   3.158   1.182   3.905 -0.3888  0.9596  0.2593
 7236SOL     OW33343   4.372   4.731   6.046  0.0460  0.0193 -0.2806
 7236SOL    HW133344   4.335   0.070   6.093 -3.2486 -1.0143 -1.2262
 7236SOL    HW233345   4.341   4.656   6.097  0.0135 -0.7098 -1.3828
 7237SOL     OW33346   1.260   1.235  10.847 -0.3083 -0.4458 -0.8843
 7237SOL    HW133347   1.350   1.260  10.868 -0.6783 -0.0039  0.1713
 7237SOL    HW233348   1.227   1.320  10.817  1.2807  0.9639  1.3437
 7238SOL     OW33349   0.830   3.905   8.080 -0.4118 -0.5453 -0.4019
 7238SOL    HW133350   0.860   3.954   8.003 -1.4153  2.0113  0.8032
 7238SOL    HW233351   0.735   3.920   8.074 -0.3075  0.8310  1.5360
 7239SOL     OW33352   2.518   0.894   5.664 -0.0093  0.1085 -0.1048
 7239SOL    HW133353   2.535   0.965   5.726 -1.4108 -0.7038  1.2232
 7239SOL    HW233354   2.600   0.871   5.621 -1.4715 -4.5688 -0.4459
 7240SOL     OW33355   1.524   4.644  10.159  0.3555 -0.8495  0.0008
 7240SOL    HW133356   1.599   4.701  10.176  0.1603 -0.9959  1.3761
 7240SOL    HW233357   1.529   4.599  10.243 -0.1210 -1.3685 -0.2517
 7241SOL     OW33358   3.322   3.793   6.734 -0.3834 -0.3081 -0.9096
 7241SOL    HW133359   3.347   3.841   6.813  0.5846 -0.9685 -0.8076
 7241SOL    HW233360   3.283   3.875   6.705  1.4217  0.5920 -0.7606
 7242SOL     OW33361   3.130   4.459   5.462  0.1777  0.4104  0.0294
 7242SOL    HW133362   3.073   4.394   5.421 -0.0403  0.3060  0.4964
 7242SOL    HW233363   3.073   4.535   5.476  1.5121  0.8628  2.8811
 7243SOL     OW33364   0.140   1.785  10.306 -0.3193  0.4360 -0.1903
 7243SOL    HW133365   0.102   1.822  10.385  0.7233  0.0357  0.4944
 7243SOL    HW233366   0.142   1.690  10.322 -0.0126  0.6799  1.1742
 7244SOL     OW33367   2.897   1.525   5.441 -0.1811 -0.5589 -0.1018
 7244SOL    HW133368   2.909   1.456   5.376 -1.2124 -0.0622 -0.8273
 7244SOL    HW233369   2.803   1.546   5.444  0.1785  0.8930  1.2635
 7245SOL     OW33370   1.875   1.281  12.725 -0.0989 -0.4226 -0.3350
 7245SOL    HW133371   1.782   1.289  12.703  0.3684  0.4074 -2.0239
 7245SOL    HW233372   1.898   1.369  12.754  0.4908 -0.0160 -2.0716
 7246SOL     OW33373   2.855   2.173   6.993 -0.5027 -0.0933  0.2734
 7246SOL    HW133374   2.851   2.267   7.015  0.2188 -0.1115  0.4914
 7246SOL    HW233375   2.940   2.172   6.949  0.3233  0.3815  1.8246
 7247SOL     OW33376   2.715   2.975   7.035 -0.1597  0.2130  0.2073
 7247SOL    HW133377   2.647   2.923   7.078  0.2125 -0.7086 -0.3138
 7247SOL    HW233378   2.704   3.060   7.077  0.6791  0.6973 -0.5597
 7248SOL     OW33379   2.249   0.441  16.039  0.1147 -0.1341  0.5396
 7248SOL    HW133380   2.168   0.437  15.988  0.0413  2.8898  0.4094
 7248SOL    HW233381   2.204   0.460  16.122 -1.6040 -0.2053 -0.3818
 7249SOL     OW33382   3.337   4.729   6.588  0.3101  0.1886  0.6901
 7249SOL    HW133383   3.402   0.042   6.638  0.2675  1.5521 -0.5686
 7249SOL    HW233384   3.381   4.710   6.505 -1.8822 -1.5089 -0.0859
 7250SOL     OW33385   0.431   3.089   3.755  0.2896  0.1639  0.4298
 7250SOL    HW133386   0.366   3.129   3.698  0.7534  1.4755  0.8229
 7250SOL    HW233387   0.466   3.169   3.795  1.4185 -0.6941  1.1592
 7251SOL     OW33388   3.366   1.010   6.496  0.1034 -0.0608  0.6779
 7251SOL    HW133389   3.454   0.984   6.471 -0.6691 -0.4577 -1.5981
 7251SOL    HW233390   3.352   1.101   6.468  0.0904  0.1501  1.3664
 7252SOL     OW33391   0.040   0.371  13.149  0.6303 -0.3572  0.7776
 7252SOL    HW133392   0.049   0.459  13.186 -0.8725 -0.1165  0.5809
 7252SOL    HW233393   4.680   0.362  13.147  0.3426  2.7032  1.4682
 7253SOL     OW33394   4.347   0.428   0.718 -0.2445  0.4915  0.2690
 7253SOL    HW133395   4.417   0.479   0.678  0.3481 -2.0419 -1.9281
 7253SOL    HW233396   4.404   0.368   0.766  0.3191 -0.9034 -2.1987
 7254SOL     OW33397   3.467   0.448   3.292  0.1364 -0.2297 -0.1896
 7254SOL    HW133398   3.501   0.537   3.299 -0.8277  0.2400 -1.5631
 7254SOL    HW233399   3.431   0.440   3.381  0.8129 -4.2594 -0.2764
 7255SOL     OW33400   2.991   0.797   2.614  0.1749  0.0247 -0.7031
 7255SOL    HW133401   2.933   0.872   2.626  0.1714  0.0286 -0.7442
 7255SOL    HW233402   2.950   0.730   2.668  3.0852 -0.2253  1.2062
 7256SOL     OW33403   3.770   3.661   7.518 -0.5520 -0.5954 -0.1781
 7256SOL    HW133404   3.709   3.678   7.446 -0.0247  2.0022 -0.0099
 7256SOL    HW233405   3.785   3.747   7.558  1.4402 -1.1055  0.1977
 7257SOL     OW33406   1.157   2.115   5.897 -0.0722 -0.3250  0.2213
 7257SOL    HW133407   1.205   2.035   5.917 -1.2304 -0.6187  1.7675
 7257SOL    HW233408   1.204   2.143   5.818 -1.0822 -1.4826 -0.7787
 7258SOL     OW33409   4.721   1.882   9.517  0.4913  0.2586  0.3735
 7258SOL    HW133410   4.626   1.883   9.510  0.5298 -0.7995 -0.2963
 7258SOL    HW233411   0.001   1.827   9.593  1.3524  1.1032  0.8047
 7259SOL     OW33412   3.051   4.423   6.660  0.2430 -0.2256 -0.3188
 7259SOL    HW133413   3.025   4.346   6.712  0.5141 -0.5178 -0.6169
 7259SOL    HW233414   3.024   4.487   6.727 -1.9299 -0.0752 -1.3468
 7260SOL     OW33415   1.949   1.871   9.144  1.0258 -0.0080  0.0243
 7260SOL    HW133416   2.005   1.866   9.067  0.5761 -1.4568 -0.2107
 7260SOL    HW233417   2.006   1.835   9.212 -0.4263 -1.0621  0.6886
 7261SOL     OW33418   2.133   4.369  11.903  0.7249  0.4020 -0.1199
 7261SOL    HW133419   2.086   4.410  11.975  0.9033 -0.3851  0.4421
 7261SOL    HW233420   2.165   4.284  11.934 -1.0431  0.1060  0.8896
 7262SOL     OW33421   2.839   3.944  15.384 -0.0703 -0.6257 -0.0810
 7262SOL    HW133422   2.897   4.018  15.397  1.2952 -1.8139  0.4895
 7262SOL    HW233423   2.897   3.885  15.335  1.0801  2.0983 -1.9563
 7263SOL     OW33424   2.511   4.248   9.008  0.0963 -0.2231 -0.2670
 7263SOL    HW133425   2.436   4.279   9.060 -0.1912 -0.2223 -0.6877
 7263SOL    HW233426   2.471   4.202   8.934  0.0471 -1.0040  0.2469
 7264SOL     OW33427   1.725   0.011   1.878 -0.2536 -0.4176  0.2645
 7264SOL    HW133428   1.778   0.078   1.923 -1.6553  0.8032  0.0722
 7264SOL    HW233429   1.665   0.070   1.833  0.9828 -0.6888 -1.7289
 7265SOL     OW33430   1.694   1.507   7.898  0.2758  0.5819  0.0838
 7265SOL    HW133431   1.737   1.574   7.846  0.2517  2.1764  2.1147
 7265SOL    HW233432   1.698   1.439   7.830  0.7983 -0.0479  0.7391
 7266SOL     OW33433   1.971   2.666   4.754 -0.4676  0.0710 -0.1093
 7266SOL    HW133434   2.055   2.622   4.741 -2.0449 -2.4125 -1.9590
 7266SOL    HW233435   1.909   2.594   4.739 -0.6632  0.2667 -0.2436
 7267SOL     OW33436   1.874   4.728   2.530 -0.6932  0.0204  0.6495
 7267SOL    HW133437   1.891   0.070   2.477  0.3917 -0.2483  0.5965
 7267SOL    HW233438   1.948   4.681   2.493 -0.4873 -2.1005  3.7539
 7268SOL     OW33439   0.135   3.769   6.136  0.5426  0.0992 -0.5825
 7268SOL    HW133440   0.071   3.747   6.069 -0.4827  1.6759 -0.1030
 7268SOL    HW233441   0.117   3.706   6.206  0.3343  0.8389  0.0272
 7269SOL     OW33442   2.646   2.681  11.715  0.2027  0.0144  0.1934
 7269SOL    HW133443   2.593   2.743  11.765  0.0873  0.8566 -0.9629
 7269SOL    HW233444   2.635   2.713  11.626 -0.5356 -1.5269 -0.2669
 7270SOL     OW33445   0.374   4.329   4.625  0.2467  0.3497  0.1666
 7270SOL    HW133446   0.298   4.366   4.580  0.4654  0.8866  0.2464
 7270SOL    HW233447   0.328   4.282   4.695 -1.7993  2.7531  0.4217
 7271SOL     OW33448   2.007   1.811  14.151  0.1677  0.0319 -0.1955
 7271SOL    HW133449   1.933   1.780  14.202  1.0645 -0.2595  0.9312
 7271SOL    HW233450   1.963   1.861  14.082 -1.2068  0.7635  1.2116
 7272SOL     OW33451   1.321   0.182   6.152 -0.2041 -0.4649  0.2244
 7272SOL    HW133452   1.300   0.142   6.236  1.5473 -1.2006  0.3194
 7272SOL    HW233453   1.321   0.108   6.092 -1.7101 -0.9444  0.8320
 7273SOL     OW33454   1.978   4.365   0.016  0.1251  0.1554 -0.1459
 7273SOL    HW133455   2.014   4.292   0.067  0.6043  0.0811 -0.5867
 7273SOL    HW233456   2.060   4.406  17.730 -1.6304  2.7350 -1.4962
 7274SOL     OW33457   1.757   2.459   7.646  0.4659 -0.4202 -0.2662
 7274SOL    HW133458   1.744   2.365   7.634  2.3860 -0.9885  1.8285
 7274SOL    HW233459   1.711   2.467   7.730  1.0111  5.6616 -0.5940
 7275SOL     OW33460   1.280   3.915   3.066 -0.1950 -0.1777  0.1181
 7275SOL    HW133461   1.211   3.943   3.006  1.5624  0.1594 -1.7407
 7275SOL    HW233462   1.234   3.887   3.145  0.2890 -2.0651 -0.2435
 7276SOL     OW33463   2.246   0.152   5.929 -0.3356 -0.0350 -0.1835
 7276SOL    HW133464   2.301   0.144   6.007 -2.1542  0.6485  1.1864
 7276SOL    HW233465   2.301   0.186   5.859 -0.2252 -1.5894 -0.8524
 7277SOL     OW33466   4.160   1.092  15.637 -0.0395  0.2788 -0.0070
 7277SOL    HW133467   4.228   1.160  15.635 -2.5650  2.7533 -1.1165
 7277SOL    HW233468   4.084   1.139  15.605  1.5514  2.4618 -0.5661
 7278SOL     OW33469   1.480   2.547   6.329  1.2151  0.4000  0.6962
 7278SOL    HW133470   1.433   2.609   6.273  0.3555  0.3956  1.4174
 7278SOL    HW233471   1.567   2.588   6.325  1.0358  0.8255  1.1694
 7279SOL     OW33472   1.339   0.275   6.772  0.0888  0.4938  0.0882
 7279SOL    HW133473   1.248   0.304   6.766  0.1216  0.4767 -0.4312
 7279SOL    HW233474   1.381   0.306   6.692 -0.1087 -1.3468 -0.7207
 7280SOL     OW33475   1.433   2.642  11.242 -0.1148 -0.5689  0.0486
 7280SOL    HW133476   1.525   2.617  11.241 -0.3464 -1.3895 -0.6241
 7280SOL    HW233477   1.437   2.737  11.259  2.0553 -0.7593  0.5650
 7281SOL     OW33478   2.928   4.028   6.290 -0.2929 -0.4198  0.2165
 7281SOL    HW133479   3.019   3.999   6.298 -0.9148 -2.5690 -0.4938
 7281SOL    HW233480   2.951   4.116   6.261  3.4123 -1.6690 -0.6654
 7282SOL     OW33481   0.091   3.338   6.423  0.0068  0.2862 -0.1780
 7282SOL    HW133482   0.043   3.413   6.459  2.1586  1.3793  0.4339
 7282SOL    HW233483   0.026   3.288   6.375  1.0408 -1.4535  0.2414
 7283SOL     OW33484   0.755   0.291  10.087  0.0563 -0.2800  0.0870
 7283SOL    HW133485   0.772   0.342  10.008 -1.5863  2.1877  1.3138
 7283SOL    HW233486   0.810   0.333  10.153 -0.9590  1.6835 -0.3008
 7284SOL     OW33487   3.390   4.496   3.961  0.0866 -0.1736  0.3761
 7284SOL    HW133488   3.330   4.478   4.033 -0.9405 -0.1926 -0.4922
 7284SOL    HW233489   3.472   4.483   4.009  0.0695 -1.1214  0.1552
 7285SOL     OW33490   0.401   0.397   3.864 -0.0371  0.1944  0.2463
 7285SOL    HW133491   0.374   0.484   3.895  1.4714  1.1428 -1.0656
 7285SOL    HW233492   0.495   0.401   3.848 -0.3504 -2.4460 -2.3080
 7286SOL     OW33493   2.334   1.462   8.297 -0.6024  0.0553 -0.0421
 7286SOL    HW133494   2.273   1.512   8.352  1.2785  3.1009 -0.7775
 7286SOL    HW233495   2.334   1.508   8.213 -1.7798  1.9711  1.0117
 7287SOL     OW33496   2.984   0.542  15.488 -0.0945  0.1326 -0.2841
 7287SOL    HW133497   3.079   0.537  15.494 -0.2091 -1.5707  0.1686
 7287SOL    HW233498   2.955   0.451  15.493  2.2086 -0.6897 -2.0213
 7288SOL     OW33499   1.821   3.025   4.674 -0.0883 -0.4622 -0.3032
 7288SOL    HW133500   1.744   3.078   4.655  1.6107  1.9327 -0.5301
 7288SOL    HW233501   1.828   3.033   4.769 -0.8217  0.2903 -0.3118
 7289SOL     OW33502   0.621   1.339   5.602 -0.2562 -0.2379  0.0106
 7289SOL    HW133503   0.536   1.295   5.611 -0.4850  0.0850 -0.5915
 7289SOL    HW233504   0.683   1.318   5.672  2.3852  1.6276 -1.7891
 7290SOL     OW33505   2.535   3.593   3.088  0.4352 -0.3902  0.3664
 7290SOL    HW133506   2.506   3.513   3.131  1.0788 -1.4236 -1.1526
 7290SOL    HW233507   2.540   3.643   3.170 -0.4903  2.1833 -1.1238
 7291SOL     OW33508   0.646   2.537  12.812  0.1963 -0.1847 -0.1105
 7291SOL    HW133509   0.714   2.565  12.750 -0.3160  1.2156 -0.0485
 7291SOL    HW233510   0.595   2.618  12.808  0.1551 -0.1639  0.8476
 7292SOL     OW33511   1.192   0.964   6.154 -0.2253 -0.2929 -0.0974
 7292SOL    HW133512   1.271   0.974   6.207 -0.3654 -1.3530  0.3107
 7292SOL    HW233513   1.216   0.990   6.065 -1.4158 -1.6086 -0.8119
 7293SOL     OW33514   4.339   2.851  16.384 -0.0238 -0.3421 -0.0957
 7293SOL    HW133515   4.284   2.861  16.307 -1.0179  0.2332  0.6983
 7293SOL    HW233516   4.376   2.763  16.371  2.4584  0.8813 -1.2673
 7294SOL     OW33517   3.797   0.404   4.635  0.8720  0.5075 -0.2079
 7294SOL    HW133518   3.735   0.360   4.693 -1.1529  1.2917 -1.7715
 7294SOL    HW233519   3.756   0.391   4.549  1.6640  1.7296 -0.7779
 7295SOL     OW33520   2.469   0.991   4.970 -0.2470 -0.1596  0.1153
 7295SOL    HW133521   2.400   0.979   4.906 -0.1386  1.6353 -0.3458
 7295SOL    HW233522   2.460   1.082   4.999 -0.9497 -0.5339  1.0608
 7296SOL     OW33523   3.158   0.111   8.774 -0.0092 -0.6512 -0.5925
 7296SOL    HW133524   3.125   0.021   8.773 -0.7533 -0.4135  3.0051
 7296SOL    HW233525   3.249   0.107   8.744  0.0118  1.7047 -0.8527
 7297SOL     OW33526   2.972   2.624   4.266  0.1484 -0.1600 -0.5680
 7297SOL    HW133527   3.004   2.666   4.346  1.4552  0.0194 -1.1816
 7297SOL    HW233528   2.889   2.671   4.256 -0.8687 -1.8013  0.2224
 7298SOL     OW33529   0.556   0.875  10.064 -0.1091  0.1057  0.3149
 7298SOL    HW133530   0.528   0.930   9.992 -0.8919 -1.1736 -0.3471
 7298SOL    HW233531   0.651   0.886  10.061 -0.1743  1.1237  1.8914
 7299SOL     OW33532   0.582   3.892   7.804  0.8524  0.1827  0.2628
 7299SOL    HW133533   0.494   3.857   7.785  0.8644 -1.1921  2.7346
 7299SOL    HW233534   0.576   3.895   7.900  0.9256 -0.7883  0.3031
 7300SOL     OW33535   3.813   1.560  17.306  0.0454 -0.0583 -0.5945
 7300SOL    HW133536   3.837   1.652  17.297 -1.8105  0.5958  1.2218
 7300SOL    HW233537   3.872   1.535  17.377 -1.5161  1.2520  1.1761
 7301SOL     OW33538   4.447   0.290  14.751 -0.6027 -0.1360 -0.2340
 7301SOL    HW133539   4.351   0.282  14.750 -0.4478 -1.8821 -1.6323
 7301SOL    HW233540   4.474   0.200  14.765 -1.2555 -0.3983 -0.6263
 7302SOL     OW33541   1.236   1.152   7.461  0.7495 -0.2560 -0.7426
 7302SOL    HW133542   1.229   1.083   7.395 -0.1367 -0.6899 -0.1976
 7302SOL    HW233543   1.158   1.132   7.512  1.4603 -0.8339  0.1364
 7303SOL     OW33544   0.821   1.711   5.551 -0.2364  0.3782  0.1299
 7303SOL    HW133545   0.741   1.666   5.579  0.0196 -0.8084 -1.0488
 7303SOL    HW233546   0.779   1.786   5.506 -0.2198  0.2595 -0.0851
 7304SOL     OW33547   3.204   4.669   8.060  0.1802 -0.2015  0.7208
 7304SOL    HW133548   3.182   4.731   8.129 -2.9365 -0.6892  0.1946
 7304SOL    HW233549   3.160   4.585   8.075 -1.6477  0.7172  0.4711
 7305SOL     OW33550   0.333   3.848   7.733  0.2205 -0.0811  0.3246
 7305SOL    HW133551   0.280   3.885   7.803 -0.1515  1.5278 -0.8134
 7305SOL    HW233552   0.291   3.766   7.707 -4.6447  1.6550  2.6980
 7306SOL     OW33553   3.740   1.626   8.291  0.6580  0.6184  0.3876
 7306SOL    HW133554   3.695   1.641   8.208 -1.2041  0.7299  1.4197
 7306SOL    HW233555   3.667   1.612   8.351  0.7182 -2.5200 -0.2753
 7307SOL     OW33556   2.740   1.892   1.911  0.1265 -0.6946 -0.9499
 7307SOL    HW133557   2.667   1.830   1.911 -0.9801  0.6145 -1.5459
 7307SOL    HW233558   2.745   1.913   2.005  0.1336  1.3815 -1.4181
 7308SOL     OW33559   0.090   0.081  13.605  0.6029  0.4922 -0.5535
 7308SOL    HW133560   0.051   0.113  13.524 -1.3631 -0.2631  0.1077
 7308SOL    HW233561   0.039   0.136  13.664 -0.7047 -1.2349 -0.0938
 7309SOL     OW33562   1.101   1.585   8.843 -0.0582  0.4758  0.0021
 7309SOL    HW133563   1.084   1.559   8.752 -1.5796  1.3138  0.0402
 7309SOL    HW233564   1.191   1.613   8.830  0.7172 -3.2355 -2.6836
 7310SOL     OW33565   4.141   3.198   5.991  0.4746 -0.5078 -0.0615
 7310SOL    HW133566   4.212   3.262   6.001  0.4517 -0.2906 -1.2560
 7310SOL    HW233567   4.133   3.169   6.082  1.0321 -0.6163 -0.0434
 7311SOL     OW33568   0.292   4.683   7.970 -0.1778 -0.1576  0.1486
 7311SOL    HW133569   0.383   4.666   7.944  0.0442 -0.7597  1.3240
 7311SOL    HW233570   0.291   4.677   8.066  0.9959 -0.2262  0.1561
 7312SOL     OW33571   4.343   1.885   4.425  0.5601 -0.0947  0.0056
 7312SOL    HW133572   4.355   1.884   4.520 -2.7884  0.2471  0.4591
 7312SOL    HW233573   4.320   1.978   4.411  0.1397 -0.3376 -0.9541
 7313SOL     OW33574   1.219   2.340   7.970  0.5645 -0.8238  0.0646
 7313SOL    HW133575   1.212   2.299   8.056  0.5329 -0.0349  0.4381
 7313SOL    HW233576   1.162   2.289   7.912  2.1070 -1.9992 -0.4294
 7314SOL     OW33577   4.421   2.458   9.340 -0.1999 -0.3711 -0.0269
 7314SOL    HW133578   4.504   2.434   9.299  0.4042  0.7508  0.5363
 7314SOL    HW233579   4.391   2.522   9.275 -2.2258 -2.2557 -0.9604
 7315SOL     OW33580   2.883   2.794   1.664  0.3160 -0.3868 -0.3367
 7315SOL    HW133581   2.941   2.866   1.641 -0.4873  0.2344 -0.4374
 7315SOL    HW233582   2.821   2.841   1.721  2.4623  0.6881  1.1040
 7316SOL     OW33583   0.347   4.129   5.066 -0.3686  0.6028 -0.1573
 7316SOL    HW133584   0.422   4.153   5.012  0.4875  2.8103  2.0457
 7316SOL    HW233585   0.301   4.212   5.056  0.3074  0.9567 -0.3126
 7317SOL     OW33586   1.010   0.381   3.681  0.4104 -0.0493  0.1139
 7317SOL    HW133587   1.023   0.450   3.617  1.8313 -0.0466  0.4127
 7317SOL    HW233588   0.942   0.325   3.643 -0.8360  2.0078 -0.6475
 7318SOL     OW33589   1.949   1.547   1.648 -0.5916  0.0084 -0.1343
 7318SOL    HW133590   1.940   1.610   1.719 -0.0944 -2.3577  2.0030
 7318SOL    HW233591   1.932   1.468   1.699 -0.4590 -1.4557 -2.3468
 7319SOL     OW33592   0.416   3.644   3.857  0.3643 -0.1900 -0.3524
 7319SOL    HW133593   0.467   3.725   3.861 -0.8238  0.4567  1.5959
 7319SOL    HW233594   0.453   3.591   3.927  1.6422  0.0379 -0.8662
 7320SOL     OW33595   4.036   4.089   5.530 -0.6954 -0.1719  0.2822
 7320SOL    HW133596   4.046   4.136   5.448 -0.8378 -0.2953  0.1929
 7320SOL    HW233597   3.944   4.061   5.527 -0.8713  0.2180  1.7318
 7321SOL     OW33598   1.619   1.403  15.763 -0.4302 -0.3688  0.5776
 7321SOL    HW133599   1.585   1.377  15.848 -1.9661  0.8190  0.3388
 7321SOL    HW233600   1.693   1.347  15.740 -1.9550 -1.5641 -1.3873
 7322SOL     OW33601   1.358   1.689   8.760 -0.1438 -0.0126  0.3093
 7322SOL    HW133602   1.439   1.640   8.772 -0.0242 -0.0739 -0.7370
 7322SOL    HW233603   1.393   1.778   8.765 -2.0455  0.7169  0.3178
 7323SOL     OW33604   1.342   2.118   2.483  0.1157  0.1420 -0.3855
 7323SOL    HW133605   1.321   2.025   2.472  0.8253 -0.1095  0.4322
 7323SOL    HW233606   1.341   2.133   2.577  1.1459  0.5028 -0.4308
 7324SOL     OW33607   2.458   3.895   1.230  0.1673  0.3790 -0.4966
 7324SOL    HW133608   2.432   3.809   1.262  2.0626 -0.5078 -1.3780
 7324SOL    HW233609   2.403   3.899   1.152 -1.5678  0.1690  0.7098
 7325SOL     OW33610   2.892   0.894   4.542  0.5638 -0.2458 -0.0927
 7325SOL    HW133611   2.980   0.931   4.537 -0.7639  2.5307 -2.7317
 7325SOL    HW233612   2.844   0.943   4.609 -1.5839 -1.5509 -0.6616
 7326SOL     OW33613   4.596   0.315  10.027  0.4801 -0.3227 -0.5180
 7326SOL    HW133614   4.594   0.227  10.063 -0.1717 -0.4431 -0.8555
 7326SOL    HW233615   4.505   0.342  10.018  0.1617 -0.2449  2.9200
 7327SOL     OW33616   4.251   2.992   8.285  0.2827  0.8145  0.0262
 7327SOL    HW133617   4.272   3.078   8.320 -0.1849  1.1133 -0.4310
 7327SOL    HW233618   4.252   2.998   8.189  2.0353  0.4001  0.0192
 7328SOL     OW33619   2.557   2.193  13.524 -0.4304  0.4752  0.1885
 7328SOL    HW133620   2.592   2.138  13.454 -0.5255  0.2108  0.3495
 7328SOL    HW233621   2.614   2.269  13.529 -1.1580  1.0670 -0.3590
 7329SOL     OW33622   3.420   2.139   5.653  0.0968  0.2947  0.0713
 7329SOL    HW133623   3.429   2.080   5.579  0.4460  0.2182  0.1760
 7329SOL    HW233624   3.363   2.205   5.613 -0.0252 -1.1343 -2.0831
 7330SOL     OW33625   0.179   2.396   3.871 -0.8057  1.1395  0.5261
 7330SOL    HW133626   0.189   2.445   3.953 -0.6110  3.3072 -0.8165
 7330SOL    HW233627   0.121   2.454   3.823  0.3651  2.2853  0.4981
 7331SOL     OW33628   2.772   1.476  13.575 -0.6188  0.0741  0.0871
 7331SOL    HW133629   2.796   1.520  13.493  0.4757  0.2251  0.4882
 7331SOL    HW233630   2.732   1.547  13.626  0.5139  1.4178 -0.8835
 7332SOL     OW33631   0.182   4.286  16.060 -0.0670 -0.1218  0.1561
 7332SOL    HW133632   0.202   4.376  16.083 -0.5026  0.0580 -0.1859
 7332SOL    HW233633   0.177   4.296  15.965 -1.1810  0.6297  0.2986
 7333SOL     OW33634   2.709   3.599   6.320  0.4780 -0.0901  0.6907
 7333SOL    HW133635   2.802   3.618   6.312  0.0837  1.4578 -0.3064
 7333SOL    HW233636   2.704   3.530   6.254 -1.6228 -0.5242  1.2754
 7334SOL     OW33637   2.644   1.390   2.119 -0.3784  0.0610  0.2613
 7334SOL    HW133638   2.708   1.330   2.080 -1.3940 -0.4707 -0.5861
 7334SOL    HW233639   2.633   1.347   2.204  3.5340 -0.5081  0.4922
 7335SOL     OW33640   1.915   0.815   2.123 -0.0105  0.8203 -0.3125
 7335SOL    HW133641   1.951   0.871   2.192  0.6040  1.7538 -1.3899
 7335SOL    HW233642   1.821   0.833   2.124 -0.1067  0.3610 -1.6678
 7336SOL     OW33643   3.346   3.402   1.414 -0.1854 -0.1173  0.4161
 7336SOL    HW133644   3.335   3.325   1.357  1.2434 -0.6657  0.8684
 7336SOL    HW233645   3.332   3.473   1.352  0.5049  0.4214  0.8843
 7337SOL     OW33646   0.555   1.398   3.082 -0.2538 -0.2480  0.2590
 7337SOL    HW133647   0.583   1.466   3.144  1.7792 -1.1652  0.3362
 7337SOL    HW233648   0.548   1.451   3.002  3.5150 -0.2648 -0.0887
 7338SOL     OW33649   2.613   0.694   1.264 -0.2058  0.3953 -0.5769
 7338SOL    HW133650   2.613   0.709   1.170 -1.3471  0.9167 -0.4920
 7338SOL    HW233651   2.688   0.744   1.294 -0.6685  0.1488  1.0466
 7339SOL     OW33652   2.363   0.348   2.670  0.2577 -0.2888 -0.4580
 7339SOL    HW133653   2.385   0.432   2.630 -0.1821  1.1196  2.2535
 7339SOL    HW233654   2.316   0.390   2.742 -0.3166 -0.5597 -0.6805
 7340SOL     OW33655   0.767   0.432  11.362 -0.0654 -0.2015 -0.0733
 7340SOL    HW133656   0.703   0.470  11.422 -0.1466  0.5681 -0.6550
 7340SOL    HW233657   0.760   0.338  11.380  0.3774 -0.0415  0.9293
 7341SOL     OW33658   2.339   0.148   9.817  0.1788 -0.2779 -0.1854
 7341SOL    HW133659   2.306   0.235   9.840 -0.5534 -1.0626  1.7822
 7341SOL    HW233660   2.311   0.143   9.726  1.1609 -0.4002 -0.4768
 7342SOL     OW33661   1.456   3.295  12.364 -0.6523 -0.5488  0.6589
 7342SOL    HW133662   1.427   3.382  12.335 -0.1493 -0.7553 -0.4694
 7342SOL    HW233663   1.488   3.301  12.454 -0.2473 -0.9851  0.5429
 7343SOL     OW33664   2.090   0.202  17.265 -0.3741 -0.1286 -0.3124
 7343SOL    HW133665   2.002   0.199  17.303 -0.2497  1.8569  0.1069
 7343SOL    HW233666   2.060   0.186  17.176  2.4602 -1.0250 -1.1205
 7344SOL     OW33667   1.118   4.342  10.052 -0.2058  0.3805  0.0778
 7344SOL    HW133668   1.087   4.417  10.002 -0.9746 -0.5195 -0.7643
 7344SOL    HW233669   1.213   4.354  10.044 -0.5455  1.6446 -1.8940
 7345SOL     OW33670   1.169   4.616   9.838 -0.7459  0.2001 -0.5537
 7345SOL    HW133671   1.079   4.598   9.865 -0.1025 -2.6431 -0.2783
 7345SOL    HW233672   1.186   4.580   9.751  0.4043 -0.0526 -0.2276
 7346SOL     OW33673   2.912   2.295  10.244  0.1911 -0.0286  0.0998
 7346SOL    HW133674   3.006   2.312  10.255  0.0775  0.7430 -0.1639
 7346SOL    HW233675   2.913   2.207  10.206  0.5501 -0.5724  1.3534
 7347SOL     OW33676   1.477   1.741   7.740  0.0267 -0.2922  0.1671
 7347SOL    HW133677   1.494   1.660   7.691  1.1555 -0.8848  1.5333
 7347SOL    HW233678   1.481   1.709   7.830 -0.4597  1.0091  0.6460
 7348SOL     OW33679   3.440   0.972   7.662  0.4358 -0.2684 -0.3998
 7348SOL    HW133680   3.359   1.023   7.651  0.0507 -0.9349 -0.6138
 7348SOL    HW233681   3.490   1.022   7.727 -1.7791  2.1259 -0.5301
 7349SOL     OW33682   4.138   3.522   4.388 -0.3189 -0.4335 -0.1542
 7349SOL    HW133683   4.109   3.478   4.467 -0.4548 -0.5056 -0.2440
 7349SOL    HW233684   4.086   3.471   4.325 -2.0705  0.4871  0.5497
 7350SOL     OW33685   1.848   2.887  16.364 -0.3075 -0.2998 -0.0400
 7350SOL    HW133686   1.937   2.922  16.358 -0.4753 -0.2048 -2.1430
 7350SOL    HW233687   1.795   2.967  16.366  0.0820  0.0488 -2.6784
 7351SOL     OW33688   0.484   2.212  15.071 -0.0155  0.0483 -0.1427
 7351SOL    HW133689   0.533   2.185  14.993 -0.5493  1.0549 -0.8253
 7351SOL    HW233690   0.539   2.186  15.144  0.5407 -0.0848 -0.6121
 7352SOL     OW33691   0.630   2.401   3.859  0.4532 -0.1057 -0.2375
 7352SOL    HW133692   0.616   2.495   3.869  0.1781 -0.1423 -0.2895
 7352SOL    HW233693   0.641   2.393   3.764 -1.6245 -2.2234 -0.2958
 7353SOL     OW33694   2.186   2.919   5.926 -0.0388  0.6420 -0.3480
 7353SOL    HW133695   2.128   2.882   5.993 -1.0562  1.7745 -0.5926
 7353SOL    HW233696   2.158   2.869   5.848 -0.2872  0.5280 -0.1865
 7354SOL     OW33697   3.570   4.689   2.806 -0.7564  0.4328 -0.0016
 7354SOL    HW133698   3.525   4.644   2.734  0.5188 -1.2851  0.2846
 7354SOL    HW233699   3.586   0.035   2.760  1.9444 -0.7220 -1.0919
 7355SOL     OW33700   3.469   3.807   5.831 -0.2858  0.4151 -0.1040
 7355SOL    HW133701   3.536   3.768   5.775  0.2842 -0.3876  1.1265
 7355SOL    HW233702   3.506   3.887   5.867  0.5226  0.3228 -0.7307
 7356SOL     OW33703   2.799   3.773   6.013  0.4494 -0.2160  0.2631
 7356SOL    HW133704   2.726   3.819   6.055  1.1933 -0.0120  1.3318
 7356SOL    HW233705   2.791   3.803   5.922  0.4084 -0.1668  0.2827
 7357SOL     OW33706   0.463   1.412  11.177 -0.5001 -0.5461  0.1809
 7357SOL    HW133707   0.449   1.401  11.083 -0.4524  0.5156  0.0516
 7357SOL    HW233708   0.407   1.340  11.208 -0.8068 -0.2352  0.3530
 7358SOL     OW33709   3.961   2.994   0.768  0.7573  0.0600  0.3130
 7358SOL    HW133710   4.013   2.960   0.841  1.6946  0.7157 -0.0543
 7358SOL    HW233711   3.943   2.918   0.712  2.7993  0.9323 -1.5384
 7359SOL     OW33712   2.881   4.654   3.381 -0.4927 -0.6147  0.0170
 7359SOL    HW133713   2.905   4.712   3.309 -0.3181  1.2130  1.5318
 7359SOL    HW233714   2.882   4.569   3.338  2.4983 -0.0832 -0.9430
 7360SOL     OW33715   3.510   3.762   1.841  0.0574 -0.5428 -0.7180
 7360SOL    HW133716   3.457   3.714   1.777  0.5379  0.5076 -1.9111
 7360SOL    HW233717   3.596   3.724   1.825  0.1784 -0.9030  0.7683
 7361SOL     OW33718   4.361   3.442   5.513 -0.0536 -0.4637  0.6927
 7361SOL    HW133719   4.338   3.506   5.446  0.6800 -0.3908  0.5070
 7361SOL    HW233720   4.457   3.438   5.507  0.0358  1.0018  1.1307
 7362SOL     OW33721   4.685   1.607   5.193 -0.5908 -0.2922 -0.1393
 7362SOL    HW133722   4.610   1.664   5.175  0.1404  0.2146 -1.5414
 7362SOL    HW233723   0.011   1.645   5.131 -0.5541  1.1353  0.7856
 7363SOL     OW33724   1.740   3.826   3.066 -0.2004 -0.5638  0.1287
 7363SOL    HW133725   1.675   3.863   3.006 -1.0615 -1.8088  0.2862
 7363SOL    HW233726   1.683   3.790   3.134 -0.6704 -2.2943 -1.1962
 7364SOL     OW33727   0.001   3.150   8.640 -0.2692  0.0547  0.5774
 7364SOL    HW133728   0.030   3.241   8.632 -0.0249 -0.0230  0.5534
 7364SOL    HW233729   4.667   3.160   8.704 -0.1194  1.7621  0.4606
 7365SOL     OW33730   3.768   0.106   4.545 -0.5519 -0.5984 -0.3028
 7365SOL    HW133731   3.689   0.079   4.592 -1.0614 -0.3858 -1.0239
 7365SOL    HW233732   3.737   0.191   4.514  1.0323  0.3524  0.7132
 7366SOL     OW33733   3.086   2.025   6.168 -0.2764  0.5139 -0.8413
 7366SOL    HW133734   2.994   2.051   6.162 -0.8848 -0.8809  2.6240
 7366SOL    HW233735   3.111   2.012   6.076  0.2753 -0.6933 -0.5205
 7367SOL     OW33736   0.757   0.911  13.207  0.1762 -0.4709  0.0087
 7367SOL    HW133737   0.684   0.971  13.221  1.0356  0.0047  2.3614
 7367SOL    HW233738   0.760   0.912  13.111 -2.6448 -0.8648 -0.0929
 7368SOL     OW33739   2.657   0.622   9.464 -0.0728 -0.3714  0.0834
 7368SOL    HW133740   2.735   0.608   9.517  0.5593 -2.2226 -1.3717
 7368SOL    HW233741   2.679   0.687   9.397  0.0371  0.9063  1.3455
 7369SOL     OW33742   0.003   1.151   5.381  0.7227 -0.4791  0.0542
 7369SOL    HW133743   4.650   1.165   5.415  0.4943 -3.0637  0.5529
 7369SOL    HW233744   0.038   1.239   5.372  1.0080 -0.4891  1.0443
 7370SOL     OW33745   2.725   1.842   5.522 -0.0210 -0.2427 -0.4908
 7370SOL    HW133746   2.811   1.877   5.498 -0.8741  2.5045  0.3432
 7370SOL    HW233747   2.670   1.845   5.444 -1.3318  2.7362  0.5287
 7371SOL     OW33748   2.593   1.691   0.788 -0.1716  0.5952  0.0221
 7371SOL    HW133749   2.570   1.716   0.878  0.9443  1.9236 -0.0700
 7371SOL    HW233750   2.658   1.623   0.801 -1.4596 -0.9687 -1.6841
 7372SOL     OW33751   1.590   3.902   8.617 -0.2405 -0.1314  0.5188
 7372SOL    HW133752   1.636   3.982   8.644  2.3057 -1.0203 -1.1505
 7372SOL    HW233753   1.563   3.875   8.704 -0.3281 -1.0492  0.1978
 7373SOL     OW33754   3.174   2.024   9.752 -0.5701  0.0785  0.1257
 7373SOL    HW133755   3.190   2.074   9.671 -1.7485 -0.2910 -0.3432
 7373SOL    HW233756   3.198   1.938   9.719 -0.1206 -0.2597  1.3494
 7374SOL     OW33757   4.095   0.220   2.802  0.0268 -0.4840 -0.6156
 7374SOL    HW133758   4.015   0.243   2.755  0.1188 -0.6036 -0.8298
 7374SOL    HW233759   4.128   0.141   2.760 -1.5425 -1.2067 -0.5085
 7375SOL     OW33760   1.521   1.623   6.889 -0.0801  0.3894 -0.2649
 7375SOL    HW133761   1.502   1.530   6.894 -4.1721  1.3007  0.9600
 7375SOL    HW233762   1.557   1.627   6.800  0.5804 -0.2082 -0.0235
 7376SOL     OW33763   0.612   1.537   6.366  0.3523  0.1941  0.4372
 7376SOL    HW133764   0.690   1.547   6.420  0.3307 -1.6245  0.8029
 7376SOL    HW233765   0.565   1.615   6.392  3.1538  1.3500  2.0774
 7377SOL     OW33766   3.534   2.299   3.523  0.0843  0.3040  0.3893
 7377SOL    HW133767   3.568   2.265   3.606 -0.7092  2.3146  1.5447
 7377SOL    HW233768   3.613   2.341   3.488 -0.3555  2.1549  1.5624
 7378SOL     OW33769   1.764   4.663   6.373  0.4858  0.8628 -0.2039
 7378SOL    HW133770   1.817   4.626   6.302  0.6523 -2.0166  1.4285
 7378SOL    HW233771   1.818   0.003   6.397 -1.7542  1.5092  2.7595
 7379SOL     OW33772   4.309   1.350  14.162  0.1018  0.4001  0.7787
 7379SOL    HW133773   4.245   1.279  14.166  0.6372 -0.2047 -1.3810
 7379SOL    HW233774   4.369   1.324  14.231  0.0427  0.5895  0.9024
 7380SOL     OW33775   3.695   4.412   3.259 -0.1750 -0.3039  0.1963
 7380SOL    HW133776   3.654   4.499   3.250  1.7102  0.4863 -0.7827
 7380SOL    HW233777   3.741   4.396   3.176 -1.1401  0.1218 -0.4255
 7381SOL     OW33778   4.122   0.623   8.012  0.6072  0.1253 -0.2635
 7381SOL    HW133779   4.096   0.536   8.043  0.8496  0.0402 -0.2940
 7381SOL    HW233780   4.107   0.677   8.089 -1.5361 -0.8943  0.0237
 7382SOL     OW33781   3.722   4.681   8.664 -0.0761  0.8033  0.0299
 7382SOL    HW133782   3.806   4.642   8.689 -1.3487 -0.6286  2.0913
 7382SOL    HW233783   3.668   4.689   8.742 -1.5497 -0.7920 -0.8353
 7383SOL     OW33784   4.124   3.635   4.101  0.4931  0.7303 -0.0795
 7383SOL    HW133785   4.160   3.721   4.123  2.9977  0.4137 -2.9899
 7383SOL    HW233786   4.076   3.655   4.020 -0.1859  0.1528  0.1865
 7384SOL     OW33787   3.012   2.547   6.401 -0.5371 -0.0960 -0.0303
 7384SOL    HW133788   2.976   2.483   6.462  0.3329 -2.6786 -2.1987
 7384SOL    HW233789   3.105   2.529   6.417 -0.0411  1.6890 -0.9226
 7385SOL     OW33790   3.918   2.318   0.471 -0.1312 -0.5630  0.4032
 7385SOL    HW133791   3.934   2.236   0.423 -1.6249 -1.0957  0.8037
 7385SOL    HW233792   3.920   2.289   0.562 -0.6703 -0.3568  0.4818
 7386SOL     OW33793   1.514   3.303   1.938  0.0240  0.0693 -0.3950
 7386SOL    HW133794   1.453   3.250   1.988  0.8748 -0.7005 -0.1732
 7386SOL    HW233795   1.471   3.383   1.907 -0.8319 -1.0370 -2.0774
 7387SOL     OW33796   2.158   1.837   6.198  0.2487  0.8206  0.4904
 7387SOL    HW133797   2.182   1.913   6.146 -0.3511  1.1336  0.6615
 7387SOL    HW233798   2.221   1.841   6.270 -0.6076  0.8512  1.2500
 7388SOL     OW33799   4.556   3.877   7.906 -0.1017  0.0166 -0.5595
 7388SOL    HW133800   4.525   3.967   7.903  0.7871  0.3567  0.4629
 7388SOL    HW233801   4.478   3.831   7.937  0.5055 -0.1249  0.7534
 7389SOL     OW33802   1.402   2.876   4.541 -0.5219  0.1231 -0.1680
 7389SOL    HW133803   1.377   2.906   4.629 -1.4109 -0.1592 -0.3250
 7389SOL    HW233804   1.430   2.957   4.497  0.1651 -0.3515 -0.6105
 7390SOL     OW33805   2.677   1.041   4.377 -0.2801 -0.5322 -0.2138
 7390SOL    HW133806   2.761   1.013   4.342 -0.2075  0.4410 -0.8215
 7390SOL    HW233807   2.624   0.967   4.346 -1.2451 -0.6129  1.6303
 7391SOL     OW33808   1.009   1.118   7.613 -0.4267  0.2829 -0.3764
 7391SOL    HW133809   0.921   1.112   7.576  0.5358  0.0823 -2.6086
 7391SOL    HW233810   1.006   1.039   7.667 -1.8918  1.2462  0.9771
 7392SOL     OW33811   0.847   0.509   4.982  0.5187 -0.0813 -0.5008
 7392SOL    HW133812   0.891   0.593   4.999 -0.0625 -0.3502  2.3313
 7392SOL    HW233813   0.891   0.449   5.042  0.9967  0.8438  0.0868
 7393SOL     OW33814   1.716   2.225  12.151  0.2253 -0.3574  0.0669
 7393SOL    HW133815   1.806   2.232  12.183  0.5598  1.6515 -1.2854
 7393SOL    HW233816   1.664   2.247  12.229 -1.8544  0.2955 -1.4958
 7394SOL     OW33817   1.752   2.006   3.099 -0.0830  0.5678  0.2566
 7394SOL    HW133818   1.786   2.094   3.119 -0.2630  0.1990  2.2583
 7394SOL    HW233819   1.822   1.958   3.056  0.8890  2.2620 -0.0613
 7395SOL     OW33820   2.144   2.083   4.462  0.0688 -0.4941 -0.1307
 7395SOL    HW133821   2.125   2.030   4.385  0.1984 -2.8966  1.4941
 7395SOL    HW233822   2.062   2.078   4.511  2.9001  0.1239  4.6074
 7396SOL     OW33823   1.070   2.481   1.929 -0.5984 -0.3101  0.0788
 7396SOL    HW133824   1.149   2.463   1.981  0.7493 -0.9129 -2.1824
 7396SOL    HW233825   1.088   2.438   1.845 -0.2996 -2.1161  1.0502
 7397SOL     OW33826   0.051   4.386   1.605 -0.8961 -0.0858 -0.5584
 7397SOL    HW133827   0.008   4.313   1.561 -1.4198 -1.8253  2.8797
 7397SOL    HW233828   4.730   4.403   1.680  1.1375  1.2609  0.6738
 7398SOL     OW33829   0.725   0.104   4.134  0.1243  0.2040 -0.1316
 7398SOL    HW133830   0.716   0.082   4.041 -0.8705 -1.2006  0.2983
 7398SOL    HW233831   0.753   0.022   4.175  0.6857  1.2224  1.4950
 7399SOL     OW33832   4.129   2.823   7.512 -0.2623 -0.3450 -0.3105
 7399SOL    HW133833   4.217   2.855   7.492 -1.0236  0.6271 -2.1273
 7399SOL    HW233834   4.088   2.902   7.548 -0.4800 -0.1921 -0.8913
 7400SOL     OW33835   0.619   3.663   2.496  0.2049  0.1797  0.0814
 7400SOL    HW133836   0.695   3.678   2.440  0.7268 -1.3300  0.3899
 7400SOL    HW233837   0.634   3.732   2.560 -1.1809  0.0161  0.5947
 7401SOL     OW33838   2.564   2.913   8.188 -0.1497  0.0684 -0.2934
 7401SOL    HW133839   2.480   2.872   8.208  1.0045 -1.7674  0.7285
 7401SOL    HW233840   2.544   2.963   8.108 -3.0466  1.0325  1.0365
 7402SOL     OW33841   3.100   1.234  11.749 -0.2921 -0.2121  0.1202
 7402SOL    HW133842   3.169   1.221  11.684 -1.0468  0.8871 -0.8752
 7402SOL    HW233843   3.092   1.144  11.782 -1.5753  0.0552  0.5262
 7403SOL     OW33844   1.715   1.933   2.316 -0.2931  0.6763  0.0086
 7403SOL    HW133845   1.696   1.981   2.235 -0.6441 -1.4251 -1.1619
 7403SOL    HW233846   1.760   2.000   2.368 -0.2416  0.3265  0.4153
 7404SOL     OW33847   4.703   0.892  11.783  0.5305  0.3950  0.3096
 7404SOL    HW133848   0.014   0.954  11.839  1.1660  0.8681 -0.7669
 7404SOL    HW233849   4.676   0.824  11.845  0.0436  1.0187  0.7884
 7405SOL     OW33850   0.483   2.949   4.957 -0.6890  0.1020 -0.2663
 7405SOL    HW133851   0.523   2.868   4.924 -0.0131 -0.2509  1.4083
 7405SOL    HW233852   0.522   2.958   5.044  0.6113 -1.5510 -0.6724
 7406SOL     OW33853   3.097   3.413   4.318  0.4289  0.3591  0.0299
 7406SOL    HW133854   3.185   3.391   4.349 -1.0740 -2.4260  2.3669
 7406SOL    HW233855   3.067   3.328   4.285 -1.3286  0.5719  1.0554
 7407SOL     OW33856   3.112   4.675  16.728 -0.5733  0.0588  0.0294
 7407SOL    HW133857   3.108   0.016  16.672 -1.5712 -0.1457 -0.1846
 7407SOL    HW233858   3.205   4.657  16.720 -0.8075 -0.8040 -0.7461
 7408SOL     OW33859   1.667   0.305   4.499  0.3234 -0.1516  0.1561
 7408SOL    HW133860   1.725   0.245   4.452 -1.1429  0.6516 -2.6651
 7408SOL    HW233861   1.652   0.262   4.584  1.0002  1.4532  1.0783
 7409SOL     OW33862   3.418   0.012   8.381 -0.4275  0.4285 -0.0985
 7409SOL    HW133863   3.429   0.102   8.350  0.5316  0.3098 -0.1110
 7409SOL    HW233864   3.357   4.708   8.319 -0.9906  1.8720 -0.4783
 7410SOL     OW33865   0.285   1.379   9.551 -0.3089  0.1923 -0.2032
 7410SOL    HW133866   0.263   1.465   9.515  3.6699  0.2288 -2.5989
 7410SOL    HW233867   0.201   1.333   9.543 -0.8305  1.5034 -2.3704
 7411SOL     OW33868   1.214   0.761   8.820  0.0321  0.3587  0.4440
 7411SOL    HW133869   1.261   0.792   8.742  1.7589 -0.0957  1.3111
 7411SOL    HW233870   1.278   0.711   8.869 -0.9206 -1.1439  0.1544
 7412SOL     OW33871   4.092   4.054   8.514 -0.4305  0.1925  0.6657
 7412SOL    HW133872   3.998   4.036   8.506 -0.1686 -0.8992  0.0174
 7412SOL    HW233873   4.096   4.147   8.491  1.4993 -0.2830 -0.8753
 7413SOL     OW33874   3.177   0.296   4.482 -0.1902  0.3376 -0.0610
 7413SOL    HW133875   3.111   0.291   4.413 -0.9001 -1.6850  0.7618
 7413SOL    HW233876   3.199   0.204   4.499  1.1131  0.7501  0.5105
 7414SOL     OW33877   0.649   0.446   7.463  0.0859 -0.3326  0.0248
 7414SOL    HW133878   0.734   0.431   7.422  1.4433  0.8770  2.4056
 7414SOL    HW233879   0.583   0.412   7.402 -0.1757 -0.3439  0.3138
 7415SOL     OW33880   0.566   2.814   3.424  0.2767 -0.0290  0.5664
 7415SOL    HW133881   0.570   2.904   3.457 -3.0265 -0.6883  2.8384
 7415SOL    HW233882   0.537   2.753   3.492 -0.7348  1.2573  1.2763
 7416SOL     OW33883   0.225   3.672   0.201  0.1457 -0.5714 -0.2915
 7416SOL    HW133884   0.250   3.700   0.289  0.2633 -0.4524 -0.3632
 7416SOL    HW233885   0.285   3.731   0.155 -0.0038 -0.2614 -0.0875
 7417SOL     OW33886   4.343   4.324  14.212 -0.3681 -0.0537 -0.0793
 7417SOL    HW133887   4.265   4.350  14.163  1.0170  1.4977 -1.4662
 7417SOL    HW233888   4.373   4.253  14.155  2.8185  1.1357  0.1009
 7418SOL     OW33889   1.901   2.436   1.652  0.2231 -0.0912 -0.2205
 7418SOL    HW133890   1.974   2.426   1.712 -0.6349  1.4931  1.0842
 7418SOL    HW233891   1.857   2.514   1.686  1.6230 -0.0711  1.5315
 7419SOL     OW33892   4.363   4.466   7.582 -0.4222 -0.0325 -0.5171
 7419SOL    HW133893   4.423   4.392   7.585  0.9318  1.1044  0.5502
 7419SOL    HW233894   4.403   4.512   7.656  0.6360 -0.4605 -0.8302
 7420SOL     OW33895   4.263   0.971   9.843 -0.6388  0.2855  0.1499
 7420SOL    HW133896   4.289   0.936   9.928  0.4736 -1.3176 -0.8411
 7420SOL    HW233897   4.173   0.994   9.862 -0.7383 -1.2674  1.6154
 7421SOL     OW33898   3.822   4.137  13.923  0.1569  0.3694  0.7475
 7421SOL    HW133899   3.727   4.142  13.908  0.1487 -0.3732  0.5722
 7421SOL    HW233900   3.847   4.084  13.848 -0.4591 -0.2823  0.9978
 7422SOL     OW33901   3.833   0.487   7.343  0.2646  0.1435  0.3321
 7422SOL    HW133902   3.754   0.434   7.356 -0.5278  1.6758  1.7336
 7422SOL    HW233903   3.900   0.419   7.341 -0.7938 -0.9681  3.3343
 7423SOL     OW33904   0.312   2.311   5.033 -0.3264  0.9684 -0.2532
 7423SOL    HW133905   0.286   2.282   5.120  1.5864 -2.1843 -0.7493
 7423SOL    HW233906   0.241   2.279   4.977 -1.7641  0.4830  1.8535
 7424SOL     OW33907   2.020   1.712   3.415  0.0981 -0.2218  0.2255
 7424SOL    HW133908   2.062   1.682   3.496 -0.5525  0.0171  0.6456
 7424SOL    HW233909   1.955   1.643   3.403  0.9933 -0.9982 -0.1890
 7425SOL     OW33910   1.943   2.037   6.073 -0.5427 -0.2269  0.4493
 7425SOL    HW133911   1.920   2.105   6.010 -0.8170 -1.1696 -0.4622
 7425SOL    HW233912   1.859   1.993   6.079 -0.9991  1.0366  3.3641
 7426SOL     OW33913   4.170   1.141   2.797  0.3649 -0.2644 -0.1651
 7426SOL    HW133914   4.119   1.114   2.720 -2.5684  2.2714  0.8701
 7426SOL    HW233915   4.106   1.128   2.867  1.2966 -0.6293  0.6065
 7427SOL     OW33916   3.764   3.797   4.248  0.2702 -0.1774 -0.2088
 7427SOL    HW133917   3.794   3.706   4.242 -1.6467 -1.0314  3.1115
 7427SOL    HW233918   3.793   3.820   4.336 -1.2106  0.9075  0.0084
 7428SOL     OW33919   0.806   1.145  15.347  0.8158 -0.1048  0.1172
 7428SOL    HW133920   0.884   1.165  15.296 -0.6504  0.7334 -1.7922
 7428SOL    HW233921   0.744   1.135  15.274 -0.0155  1.0389  0.6590
 7429SOL     OW33922   4.300   0.946   6.892 -0.1360  0.2267 -0.6366
 7429SOL    HW133923   4.371   0.908   6.944  1.4377  1.0234 -2.2175
 7429SOL    HW233924   4.228   0.922   6.950 -0.0042  0.6695 -0.2886
 7430SOL     OW33925   3.842   0.322   2.707  0.2902  0.2394  0.3264
 7430SOL    HW133926   3.848   0.377   2.629 -1.5380 -2.5512 -1.7919
 7430SOL    HW233927   3.752   0.342   2.731  0.5330 -0.3040  1.7146
 7431SOL     OW33928   3.965   4.306  12.633  0.0724  0.1545 -0.5634
 7431SOL    HW133929   3.875   4.290  12.662  0.7536 -0.7007  1.1234
 7431SOL    HW233930   3.937   4.357  12.558 -0.8040  0.6956  0.1261
 7432SOL     OW33931   4.430   4.610  14.072 -0.1537 -0.1548 -0.3878
 7432SOL    HW133932   4.363   4.579  14.011  0.0524  1.1476 -1.2788
 7432SOL    HW233933   4.493   4.540  14.089 -0.9240 -0.6480  0.4078
 7433SOL     OW33934   0.664   0.898   3.135 -0.3242  0.2458  0.6089
 7433SOL    HW133935   0.588   0.954   3.142 -0.3923 -0.0200  1.9573
 7433SOL    HW233936   0.734   0.940   3.185  1.6631 -1.7610 -0.4594
 7434SOL     OW33937   0.812   0.373  17.392  0.0359 -0.2097 -0.4340
 7434SOL    HW133938   0.886   0.413  17.346 -1.8635  2.1475 -1.4550
 7434SOL    HW233939   0.858   0.296  17.426  1.2909 -0.1859 -2.0557
 7435SOL     OW33940   0.428   4.023   1.344  0.1099 -0.0533 -0.5031
 7435SOL    HW133941   0.425   3.928   1.340 -2.3930 -0.0768  1.9891
 7435SOL    HW233942   0.421   4.052   1.253 -1.3053  2.9076  0.5205
 7436SOL     OW33943   0.626   1.535   6.926 -0.0745  0.3720 -0.6661
 7436SOL    HW133944   0.566   1.587   6.979  2.4935  1.2705  1.3703
 7436SOL    HW233945   0.688   1.491   6.985 -0.9609 -0.5919 -0.4503
 7437SOL     OW33946   3.597   0.333   4.804  0.0861 -0.0370  0.0001
 7437SOL    HW133947   3.515   0.352   4.848 -0.6111  1.7338 -2.1008
 7437SOL    HW233948   3.573   0.289   4.723  2.3015  0.1108 -0.7601
 7438SOL     OW33949   1.926   1.368   8.049  0.0931 -0.6714 -0.1566
 7438SOL    HW133950   1.853   1.428   8.062  1.3269  0.2285  2.6071
 7438SOL    HW233951   1.996   1.424   8.016 -0.5652  1.3264  1.8053
 7439SOL     OW33952   2.682   4.691   4.503  0.1097 -0.1267  0.3473
 7439SOL    HW133953   2.737   4.731   4.571  0.7148 -1.5086  0.6530
 7439SOL    HW233954   2.661   0.022   4.438  1.8831 -1.8151 -1.9805
 7440SOL     OW33955   1.657   0.623   8.488 -0.1743  0.2241 -0.2687
 7440SOL    HW133956   1.621   0.711   8.482 -1.4466 -0.3852 -1.8107
 7440SOL    HW233957   1.695   0.617   8.575  2.7768  0.2500 -1.5616
 7441SOL     OW33958   3.946   0.336   9.330  0.4773 -0.2180  0.2723
 7441SOL    HW133959   3.873   0.351   9.390  0.9851 -0.4614  0.9408
 7441SOL    HW233960   3.952   0.420   9.285  0.7208 -0.5742 -0.3735
 7442SOL     OW33961   3.293   3.002   3.940 -0.0072 -0.3850 -0.3148
 7442SOL    HW133962   3.256   2.985   3.854  1.7462  1.2017 -1.3849
 7442SOL    HW233963   3.363   2.938   3.958  1.3103  0.8708 -0.9459
 7443SOL     OW33964   0.043   1.188   6.107 -0.1259 -0.2767 -0.2697
 7443SOL    HW133965   0.007   1.172   6.194  2.1920  0.2227  0.7961
 7443SOL    HW233966   4.722   1.135   6.051  0.7584 -2.7177  1.1680
 7444SOL     OW33967   1.728   3.316   3.828  0.0783  0.3256 -0.3630
 7444SOL    HW133968   1.659   3.332   3.892  0.7873  1.8915  0.0072
 7444SOL    HW233969   1.775   3.241   3.865  0.2091  0.8744  0.5682
 7445SOL     OW33970   3.397   2.164   4.409 -0.6169 -0.0802  0.1011
 7445SOL    HW133971   3.302   2.173   4.399 -0.9277 -1.1745  2.0816
 7445SOL    HW233972   3.403   2.132   4.499  0.0386 -0.8199 -0.2042
 7446SOL     OW33973   4.223   0.329   6.778 -0.3526  0.4682  0.4620
 7446SOL    HW133974   4.266   0.411   6.800  0.8576 -0.6995  2.4451
 7446SOL    HW233975   4.190   0.309   6.865 -0.7503 -1.0621 -0.0364
 7447SOL     OW33976   0.799   1.363   7.788 -0.0428  0.4069 -0.2295
 7447SOL    HW133977   0.794   1.269   7.809 -1.0929  0.8770  1.6554
 7447SOL    HW233978   0.892   1.385   7.791 -0.4259  1.9642  0.1452
 7448SOL     OW33979   1.573   4.635   2.565 -0.7214 -0.1306 -0.1539
 7448SOL    HW133980   1.665   4.663   2.566 -0.6846 -0.2282 -0.7766
 7448SOL    HW233981   1.535   4.678   2.488  0.5157  3.9222  1.4998
 7449SOL     OW33982   3.712   4.393  17.111 -0.1460 -0.1123  0.0963
 7449SOL    HW133983   3.652   4.325  17.140  0.2345 -1.2638 -1.8554
 7449SOL    HW233984   3.726   4.357  17.024  2.5127  0.6074  0.2192
 7450SOL     OW33985   4.167   3.109   1.202  0.1724 -0.0043  0.7311
 7450SOL    HW133986   4.248   3.059   1.211  0.6211  1.0301  2.5325
 7450SOL    HW233987   4.182   3.149   1.117  1.1076 -2.2040 -0.1396
 7451SOL     OW33988   3.388   1.166   2.314  0.7234 -0.1940  0.3142
 7451SOL    HW133989   3.441   1.110   2.370 -0.8359  0.3017  2.2685
 7451SOL    HW233990   3.388   1.233   2.382 -0.4180 -1.1141  1.2149
 7452SOL     OW33991   2.627   0.669   4.557 -0.2337  0.6588  0.1253
 7452SOL    HW133992   2.651   0.748   4.509  0.4660 -0.4274 -1.3036
 7452SOL    HW233993   2.686   0.613   4.507 -1.0530  2.1828 -2.5003
 7453SOL     OW33994   0.555   1.633   3.343 -0.2446 -0.3827  0.1291
 7453SOL    HW133995   0.649   1.618   3.331 -0.2709  0.1515 -0.7188
 7453SOL    HW233996   0.529   1.716   3.303  0.7749  0.1336  0.5304
 7454SOL     OW33997   1.023   2.262   2.917  0.1902  0.1292 -0.3912
 7454SOL    HW133998   1.037   2.188   2.975  1.9034 -1.0955 -2.3656
 7454SOL    HW233999   1.073   2.335   2.952 -1.3222  1.3596 -0.7914
 7455SOL     OW34000   0.718   1.846   9.723  0.4348  0.3178 -0.4479
 7455SOL    HW134001   0.625   1.830   9.736  0.5609  0.9891  1.3915
 7455SOL    HW234002   0.722   1.907   9.650 -0.9000 -1.2314 -1.7992
 7456SOL     OW34003   3.579   0.086   6.062  0.2539  0.3834 -0.2919
 7456SOL    HW134004   3.637   0.125   5.997  1.9339 -0.6446  0.5958
 7456SOL    HW234005   3.643   0.055   6.127  2.0920  0.2771 -2.1647
 7457SOL     OW34006   1.529   2.861   9.746 -0.0615  1.0130  0.3610
 7457SOL    HW134007   1.559   2.770   9.746 -0.4197  0.8885 -0.9290
 7457SOL    HW234008   1.521   2.888   9.654  0.0689  0.5924  0.2235
 7458SOL     OW34009   2.789   3.962   1.902  0.2197  0.2259 -0.1168
 7458SOL    HW134010   2.828   3.960   1.814 -1.3940  5.5991 -0.9764
 7458SOL    HW234011   2.863   3.965   1.962 -0.3611 -0.8312  0.6402
 7459SOL     OW34012   2.392   3.417   8.877  0.3576 -0.3861 -0.3693
 7459SOL    HW134013   2.435   3.430   8.961 -1.1680  1.6434  0.0943
 7459SOL    HW234014   2.318   3.359   8.894  0.4991  0.2435  2.3139
 7460SOL     OW34015   0.235   4.430   8.822 -0.4254  0.0731  0.0207
 7460SOL    HW134016   0.306   4.467   8.770  0.5949  0.1388  1.4596
 7460SOL    HW234017   0.270   4.431   8.912  0.4469 -1.1792 -0.2995
 7461SOL     OW34018   1.518   4.171  16.754 -0.3176  0.0758  0.2248
 7461SOL    HW134019   1.500   4.201  16.843 -1.6683 -1.6768  0.5452
 7461SOL    HW234020   1.460   4.227  16.702  0.4676  0.2165 -0.5083
 7462SOL     OW34021   2.225   4.703   5.165 -0.7346 -0.2597  0.1061
 7462SOL    HW134022   2.130   4.701   5.172 -0.8772 -0.9106 -2.1270
 7462SOL    HW234023   2.215   4.685   5.071  0.4004 -0.5005  0.0235
 7463SOL     OW34024   1.180   2.934   3.425 -0.1073 -0.0283 -0.3393
 7463SOL    HW134025   1.174   2.947   3.331 -1.5299 -1.6904 -0.4779
 7463SOL    HW234026   1.086   2.941   3.447 -0.1921 -0.8791 -0.4504
 7464SOL     OW34027   2.076   3.197   2.476 -0.3812 -0.3342  0.2115
 7464SOL    HW134028   2.078   3.110   2.436  2.1418 -0.1102 -0.1993
 7464SOL    HW234029   2.026   3.177   2.555 -0.4079 -1.7017 -0.1472
 7465SOL     OW34030   0.138   0.399   9.167  0.1504  0.6034  0.3169
 7465SOL    HW134031   0.211   0.427   9.111 -0.6721 -1.6482 -1.8548
 7465SOL    HW234032   0.148   0.455   9.244 -1.3874 -0.4538  1.2979
 7466SOL     OW34033   4.692   3.555   6.557  0.6662 -0.0376  0.2638
 7466SOL    HW134034   0.013   3.631   6.570  1.2237 -0.3711 -0.2598
 7466SOL    HW234035   4.702   3.522   6.646 -0.1681  0.4707  0.5467
 7467SOL     OW34036   0.594   2.245   1.592  0.1046 -0.1477 -0.4835
 7467SOL    HW134037   0.604   2.157   1.629 -1.0205  0.1432  0.4831
 7467SOL    HW234038   0.502   2.270   1.585 -0.0531 -0.5145  0.3470
 7468SOL     OW34039   2.301   1.315   7.073 -0.1953  0.5280 -0.0715
 7468SOL    HW134040   2.287   1.407   7.053  0.2872  0.2679 -1.5772
 7468SOL    HW234041   2.300   1.279   6.984 -0.3216 -1.4987  0.7355
 7469SOL     OW34042   2.823   2.412   9.028  0.3676 -0.3482 -0.2958
 7469SOL    HW134043   2.844   2.502   9.055 -2.7438  0.7513 -1.6163
 7469SOL    HW234044   2.779   2.379   9.106  2.9545  2.3874  2.3570
 7470SOL     OW34045   0.504   1.232   2.688 -0.3968 -0.3339  0.1346
 7470SOL    HW134046   0.496   1.158   2.748 -0.7018 -0.1955  0.2624
 7470SOL    HW234047   0.580   1.281   2.718 -2.4530  2.3425  0.9405
 7471SOL     OW34048   4.224   1.512   4.210  0.6923  0.7871  0.0899
 7471SOL    HW134049   4.150   1.470   4.166 -0.2375  2.4512  0.0661
 7471SOL    HW234050   4.237   1.458   4.288 -0.9352 -0.0929 -0.2346
 7472SOL     OW34051   2.573   3.362   9.140 -0.1057  0.2545 -0.9275
 7472SOL    HW134052   2.664   3.358   9.110 -0.0920  0.3113 -0.8943
 7472SOL    HW234053   2.583   3.443   9.190 -0.8981 -0.1715 -0.0816
 7473SOL     OW34054   0.538   0.227   1.354  0.6922 -0.2456 -0.3571
 7473SOL    HW134055   0.474   0.252   1.287 -0.1756  0.1654  0.6375
 7473SOL    HW234056   0.589   0.166   1.300 -1.0398 -1.9637 -0.0667
 7474SOL     OW34057   3.600   2.934   7.590  0.2813 -0.3511  0.6732
 7474SOL    HW134058   3.634   2.868   7.650 -1.8781 -0.2000  2.0378
 7474SOL    HW234059   3.660   3.005   7.612 -1.8537  1.6504  0.1596
 7475SOL     OW34060   2.599   4.189   5.229  0.7048  0.0664 -0.5296
 7475SOL    HW134061   2.642   4.109   5.200 -0.5389 -1.5138  1.8949
 7475SOL    HW234062   2.660   4.254   5.195 -0.5028  0.7326 -1.4198
 7476SOL     OW34063   0.660   1.408   9.293 -0.2311 -0.2008 -0.0727
 7476SOL    HW134064   0.614   1.326   9.276 -0.2542  0.2374 -2.1155
 7476SOL    HW234065   0.707   1.391   9.375  1.1060  0.7328 -0.6349
 7477SOL     OW34066   2.331   0.640   2.129 -0.3626 -0.5075 -0.8048
 7477SOL    HW134067   2.335   0.736   2.123 -0.6139 -0.3396  1.6535
 7477SOL    HW234068   2.257   0.622   2.071 -0.3081  1.4620 -1.5132
 7478SOL     OW34069   3.491   2.832   7.363  0.3089  0.3037 -0.4161
 7478SOL    HW134070   3.454   2.746   7.384  1.5560  0.0447  0.7368
 7478SOL    HW234071   3.515   2.858   7.452  0.6440  2.7976 -1.2507
 7479SOL     OW34072   1.266   2.201   4.232 -0.4350 -0.1731  0.1998
 7479SOL    HW134073   1.266   2.173   4.323  1.1749  2.0497  0.8863
 7479SOL    HW234074   1.219   2.129   4.191  0.3596 -1.2453  1.1773
 7480SOL     OW34075   2.351   0.006   1.966 -0.2253  0.1242  0.5631
 7480SOL    HW134076   2.432   4.711   2.004 -0.0483  1.2771  1.1409
 7480SOL    HW234077   2.307   4.665   1.930  0.2169 -0.3048  0.9464
 7481SOL     OW34078   2.390   4.514   7.541  0.4510  0.2918  0.0064
 7481SOL    HW134079   2.374   4.419   7.546 -1.1161  0.5442 -0.3095
 7481SOL    HW234080   2.314   4.547   7.494 -0.7157  0.9669  2.3330
 7482SOL     OW34081   2.687   1.180   7.251  0.3111 -0.6081  0.0023
 7482SOL    HW134082   2.606   1.146   7.290 -0.3712  1.8738  0.7717
 7482SOL    HW234083   2.661   1.271   7.235  1.6173 -0.2445 -0.0058
 7483SOL     OW34084   3.902   0.527   8.391  0.0858  0.0034  0.2324
 7483SOL    HW134085   3.853   0.445   8.399  2.0393 -1.0577  1.3283
 7483SOL    HW234086   3.897   0.549   8.484  0.8777  1.6812 -0.1188
 7484SOL     OW34087   1.836   3.926   7.824 -0.1294 -0.0127  0.0322
 7484SOL    HW134088   1.907   3.990   7.827  1.4935 -1.6847 -3.0278
 7484SOL    HW234089   1.800   3.930   7.735 -0.2988 -1.6607  0.0191
 7485SOL     OW34090   2.934   2.327   4.316 -0.3191 -0.4694 -0.3435
 7485SOL    HW134091   2.967   2.410   4.280 -2.4870  0.0030 -1.2411
 7485SOL    HW234092   2.839   2.336   4.311 -0.2259  0.1731 -0.9351
 7486SOL     OW34093   1.271   2.678   4.904 -0.6242  0.0155 -0.3557
 7486SOL    HW134094   1.321   2.597   4.889  0.0748  0.6217 -1.2857
 7486SOL    HW234095   1.188   2.649   4.866  0.3866 -3.2957 -0.0681
 7487SOL     OW34096   3.651   4.480   4.830  0.2135 -0.5600  0.1108
 7487SOL    HW134097   3.644   4.515   4.919  0.3100 -0.2551 -0.0040
 7487SOL    HW234098   3.575   4.421   4.831 -1.6528  1.9143  4.0247
 7488SOL     OW34099   3.015   3.732  12.516 -0.2096 -0.3982  0.0380
 7488SOL    HW134100   3.019   3.745  12.611 -2.0559  0.2448  0.0271
 7488SOL    HW234101   2.943   3.787  12.483  0.8085 -0.5070 -2.3521
 7489SOL     OW34102   3.030   4.714   5.449  0.4356  0.0518 -0.3563
 7489SOL    HW134103   3.059   0.004   5.537 -0.2429 -1.2992  0.2711
 7489SOL    HW234104   3.060   0.061   5.411  1.0644 -0.2685 -0.5579
 7490SOL     OW34105   4.425   1.742   9.217  0.0722 -0.1834  0.5972
 7490SOL    HW134106   4.512   1.717   9.246  0.2715 -1.2553 -0.9552
 7490SOL    HW234107   4.415   1.822   9.269  1.3280  0.4577 -0.1672
 7491SOL     OW34108   0.746   0.795   7.763  0.2615 -0.1586 -0.4855
 7491SOL    HW134109   0.717   0.739   7.691 -1.1891  2.0883 -1.6467
 7491SOL    HW234110   0.678   0.862   7.770  0.1651 -0.2184 -0.8610
 7492SOL     OW34111   4.189   0.082  15.834 -0.1088 -0.0204  0.3934
 7492SOL    HW134112   4.139   0.105  15.755 -1.1974  0.4663  1.2216
 7492SOL    HW234113   4.196   0.167  15.879 -0.6594  0.8157 -1.0973
 7493SOL     OW34114   2.623   1.047   9.227 -0.0173  0.5357 -0.2229
 7493SOL    HW134115   2.634   1.069   9.319 -0.5233  1.2922 -0.3374
 7493SOL    HW234116   2.535   1.082   9.212  0.4165  1.4538 -0.6209
 7494SOL     OW34117   2.232   0.889   7.761  0.2814 -0.0909  0.2289
 7494SOL    HW134118   2.154   0.941   7.742  0.0640 -0.4229  0.2133
 7494SOL    HW234119   2.202   0.799   7.773  1.9529 -0.6904 -0.0531
 7495SOL     OW34120   3.028   0.854   5.229 -0.0471 -0.0910  0.1963
 7495SOL    HW134121   3.030   0.765   5.264 -0.3031 -0.5462 -0.9286
 7495SOL    HW234122   3.094   0.890   5.288 -0.4229 -1.0095  1.1822
 7496SOL     OW34123   2.700   1.028   0.985  0.3367  0.1540 -0.2961
 7496SOL    HW134124   2.709   1.031   0.890  3.5746 -0.9325 -0.0334
 7496SOL    HW234125   2.723   0.939   1.012  0.2972  0.4887  0.8574
 7497SOL     OW34126   0.788   1.579   9.622 -0.0462 -0.3737 -0.6547
 7497SOL    HW134127   0.807   1.655   9.676 -0.4433 -0.1714 -0.7945
 7497SOL    HW234128   0.692   1.582   9.626 -0.0097  1.0401 -0.9170
 7498SOL     OW34129   4.343   2.526   0.541  0.4381  0.5806  0.5432
 7498SOL    HW134130   4.438   2.541   0.540  0.3256  1.3519  2.2818
 7498SOL    HW234131   4.362   2.455   0.603  2.2781 -0.5214 -1.2819
 7499SOL     OW34132   4.462   1.343   9.502 -0.3152  0.0385 -0.5615
 7499SOL    HW134133   4.528   1.412   9.496  2.8967 -2.9210  1.0583
 7499SOL    HW234134   4.424   1.342   9.415  0.2650  1.9870 -0.8311
 7500SOL     OW34135   2.772   3.004   2.279 -0.0210 -0.1732 -0.2827
 7500SOL    HW134136   2.745   3.060   2.353 -0.2256 -0.3264 -0.2404
 7500SOL    HW234137   2.855   2.965   2.306 -0.2700  0.3832  1.3221
 7501SOL     OW34138   4.080   0.957   2.355 -0.1719  0.1546 -0.3376
 7501SOL    HW134139   4.174   0.948   2.368 -0.2941 -0.3054  0.1866
 7501SOL    HW234140   4.072   0.908   2.273 -1.7627  0.8724 -0.6151
 7502SOL     OW34141   4.262   3.192   7.390  0.2960 -0.0770 -0.7543
 7502SOL    HW134142   4.292   3.102   7.383 -0.2622 -0.2537 -0.8800
 7502SOL    HW234143   4.306   3.224   7.312  0.9489  0.9649  0.0379
 7503SOL     OW34144   4.351   1.784   6.167 -0.0737 -0.3776 -0.4327
 7503SOL    HW134145   4.405   1.852   6.128 -3.0340  1.7911 -0.7658
 7503SOL    HW234146   4.332   1.733   6.088 -2.1368  0.1658 -0.2864
 7504SOL     OW34147   0.529   0.155   6.062  0.4259  0.2130  0.1899
 7504SOL    HW134148   0.570   0.070   6.049  0.0343  0.2250 -1.1326
 7504SOL    HW234149   0.454   0.121   6.111  0.7038 -0.1288  0.3755
 7505SOL     OW34150   0.982   1.095  11.684  0.4351  0.5662  0.0846
 7505SOL    HW134151   0.887   1.084  11.678  0.5580  0.6328 -1.7886
 7505SOL    HW234152   0.984   1.137  11.770  0.6462  0.9264 -0.0947
 7506SOL     OW34153   0.977   1.715   6.077 -0.0138  0.1206 -0.5345
 7506SOL    HW134154   0.915   1.765   6.128  0.9862 -1.3169  2.0894
 7506SOL    HW234155   1.012   1.784   6.021  1.5668  0.9342  1.4603
 7507SOL     OW34156   1.417   0.130   3.188 -0.2767 -0.2086 -0.4257
 7507SOL    HW134157   1.445   0.048   3.228  0.3762  0.4316  0.4312
 7507SOL    HW234158   1.429   0.183   3.267 -0.5581 -0.1779 -0.4022
 7508SOL     OW34159   0.343   4.390   2.692 -0.0188 -0.1751 -0.3017
 7508SOL    HW134160   0.393   4.310   2.710  2.8830  1.6237 -0.3578
 7508SOL    HW234161   0.268   4.367   2.747  0.4655 -1.9183 -0.3689
 7509SOL     OW34162   0.758   4.137  13.825  0.6104 -0.2967  0.5298
 7509SOL    HW134163   0.762   4.042  13.817 -1.7283 -0.3976  0.6429
 7509SOL    HW234164   0.785   4.143  13.916 -2.4233 -1.9106  1.5308
 7510SOL     OW34165   4.580   2.186   9.666 -0.1227 -0.3230 -0.2277
 7510SOL    HW134166   4.675   2.172   9.669 -0.4810 -2.4151  1.6593
 7510SOL    HW234167   4.556   2.156   9.753 -2.0329  2.6112  0.2442
 7511SOL     OW34168   4.020   3.398   1.204  0.5295  0.1172 -0.2103
 7511SOL    HW134169   3.954   3.447   1.155  1.1031  0.7982 -0.3047
 7511SOL    HW234170   4.071   3.384   1.125  0.4617 -1.1573 -0.0273
 7512SOL     OW34171   2.366   4.104   9.453 -0.1014 -0.2204 -1.2179
 7512SOL    HW134172   2.273   4.122   9.438 -0.4485  0.4583  1.6739
 7512SOL    HW234173   2.364   4.081   9.546  1.1942  0.1702 -1.0983
 7513SOL     OW34174   0.860   2.965   2.924 -0.6861 -0.2577 -0.4109
 7513SOL    HW134175   0.826   3.026   2.989 -1.9050 -2.8597  1.3434
 7513SOL    HW234176   0.776   2.925   2.904 -1.2472  1.0044 -0.5408
 7514SOL     OW34177   1.497   3.758   8.157  0.3716 -0.1986  0.5075
 7514SOL    HW134178   1.536   3.708   8.229 -3.5304 -0.3057  2.5531
 7514SOL    HW234179   1.446   3.826   8.201 -0.3663 -1.9319  2.3138
 7515SOL     OW34180   2.938   3.486   8.471 -0.4685 -0.1033  0.0159
 7515SOL    HW134181   2.911   3.434   8.548 -1.1945  1.2708  0.6815
 7515SOL    HW234182   2.851   3.524   8.455 -1.4405 -2.4690 -0.3460
 7516SOL     OW34183   4.098   2.323   7.695 -0.1967 -0.1697  0.1177
 7516SOL    HW134184   4.082   2.268   7.618 -1.3857  0.2780  0.0469
 7516SOL    HW234185   4.067   2.409   7.666  1.9267  1.3068  2.2721
 7517SOL     OW34186   2.393   3.724   3.328  0.3766  0.3231 -0.1882
 7517SOL    HW134187   2.320   3.759   3.277  0.2529  1.2630  0.6378
 7517SOL    HW234188   2.418   3.793   3.390  0.2124 -0.3762  0.6623
 7518SOL     OW34189   1.261   2.265   4.883 -0.0311 -0.0860 -0.0487
 7518SOL    HW134190   1.336   2.319   4.858  0.6770 -1.1498 -0.2364
 7518SOL    HW234191   1.306   2.197   4.934  0.3661  1.2155  1.3290
 7519SOL     OW34192   4.578   3.847   4.335  0.4518 -0.2401 -0.5550
 7519SOL    HW134193   4.491   3.809   4.346 -0.4134  1.7758 -0.5312
 7519SOL    HW234194   4.550   3.936   4.318  0.9890  0.4843  2.3384
 7520SOL     OW34195   4.588   4.044   5.251 -0.3898 -0.4375  0.1822
 7520SOL    HW134196   4.673   4.001   5.242 -0.1691 -0.2062  1.1806
 7520SOL    HW234197   4.592   4.104   5.176 -0.8744 -0.4240  0.1662
 7521SOL     OW34198   3.045   0.919   3.493  0.6022  0.7138 -0.4260
 7521SOL    HW134199   3.024   1.012   3.482 -1.0314  0.4960  0.8656
 7521SOL    HW234200   2.960   0.879   3.511  1.0850  0.0483  0.3808
 7522SOL     OW34201   0.890   0.152   1.791  0.3243  0.1564 -0.2132
 7522SOL    HW134202   0.844   0.140   1.874  1.9724 -0.2864  0.6453
 7522SOL    HW234203   0.868   0.245   1.783 -2.5533 -0.3185  2.2643
 7523SOL     OW34204   3.343   1.003   9.674 -0.1399 -0.4236  0.6884
 7523SOL    HW134205   3.311   1.090   9.695  0.2281 -0.4188  1.2211
 7523SOL    HW234206   3.350   1.011   9.579 -0.9381 -2.8685  0.4143
 7524SOL     OW34207   3.000   0.895   3.156  0.5323 -0.2676 -0.3042
 7524SOL    HW134208   3.012   0.963   3.222 -0.3042 -0.6842  0.2804
 7524SOL    HW234209   2.943   0.946   3.097  0.8140 -1.4563 -1.6124
 7525SOL     OW34210   2.521   3.802   5.762  0.0117 -0.2146  0.2023
 7525SOL    HW134211   2.471   3.822   5.841  0.0352 -0.5213  0.2946
 7525SOL    HW234212   2.570   3.882   5.743 -1.6969  0.8878  0.4383
 7526SOL     OW34213   1.246   2.749   4.165  0.0092  0.2593  0.4384
 7526SOL    HW134214   1.322   2.715   4.212  0.8478 -0.0429 -1.1237
 7526SOL    HW234215   1.255   2.675   4.105 -1.2792 -1.0244  1.8275
 7527SOL     OW34216   4.496   0.401  13.166  0.3277  0.0205 -0.5407
 7527SOL    HW134217   4.449   0.484  13.172 -0.8508 -0.8799  2.2468
 7527SOL    HW234218   4.442   0.340  13.217  2.0392 -0.1338  1.0746
 7528SOL     OW34219   3.143   3.546  14.751 -0.5347 -0.1346 -0.0908
 7528SOL    HW134220   3.098   3.558  14.835  1.2942 -1.7811  1.1108
 7528SOL    HW234221   3.094   3.603  14.691 -0.2805  0.4141  0.2189
 7529SOL     OW34222   2.421   2.447   5.879 -0.3224 -0.0473  0.4978
 7529SOL    HW134223   2.459   2.506   5.814 -0.1392  0.0489  0.6941
 7529SOL    HW234224   2.500   2.393   5.884 -0.9581 -1.3107 -2.6713
 7530SOL     OW34225   1.097   3.349  10.970 -0.6182  0.5463  0.6263
 7530SOL    HW134226   1.185   3.337  11.004 -0.1192 -0.0787 -0.8858
 7530SOL    HW234227   1.069   3.261  10.998 -0.7135 -0.1802 -1.7610
 7531SOL     OW34228   3.245   0.735   5.590 -0.4785 -0.1117  0.1615
 7531SOL    HW134229   3.341   0.736   5.582 -0.3929 -0.8260  1.1933
 7531SOL    HW234230   3.223   0.642   5.598  0.3860 -0.3637 -0.3290
 7532SOL     OW34231   2.859   0.983   2.929  0.0880  0.2389 -0.0619
 7532SOL    HW134232   2.818   1.066   2.954 -0.5494 -0.1469  0.1704
 7532SOL    HW234233   2.849   0.996   2.834 -2.6224  3.1361  0.6348
 7533SOL     OW34234   3.934   3.937   7.073  0.2131  0.5247  0.4766
 7533SOL    HW134235   4.002   3.947   7.006 -0.4652  0.7054 -0.1821
 7533SOL    HW234236   3.937   3.842   7.083  2.2654  0.5186 -0.1580
 7534SOL     OW34237   3.321   0.300   1.974 -0.3217  0.2150  0.0550
 7534SOL    HW134238   3.307   0.284   2.068 -1.0583 -0.4671 -0.1797
 7534SOL    HW234239   3.244   0.261   1.934  0.8688  0.1564 -2.1773
 7535SOL     OW34240   0.965   2.353  15.706  0.2378 -0.0942  0.0630
 7535SOL    HW134241   0.984   2.440  15.672  0.2991 -0.8591 -1.8054
 7535SOL    HW234242   0.973   2.371  15.800 -0.2369  0.5197 -0.0130
 7536SOL     OW34243   1.147   3.195   7.854  0.7668 -0.2841  0.1102
 7536SOL    HW134244   1.131   3.100   7.859  0.7523 -0.2915 -0.0653
 7536SOL    HW234245   1.159   3.193   7.759 -1.0631 -0.6338 -0.1092
 7537SOL     OW34246   4.152   4.496   2.904 -0.3200 -0.3114  0.1254
 7537SOL    HW134247   4.198   4.486   2.820  0.2001 -0.6430  0.4503
 7537SOL    HW234248   4.093   4.425   2.879  0.2971 -1.0873  0.8578
 7538SOL     OW34249   4.301   2.087   0.353  0.4424  0.7397 -0.3849
 7538SOL    HW134250   4.395   2.084   0.336  0.3235  1.2740 -1.1082
 7538SOL    HW234251   4.277   2.174   0.322 -0.9078  0.6015  0.2537
 7539SOL     OW34252   0.428   2.924  10.325  0.0430  0.4675  0.0472
 7539SOL    HW134253   0.472   2.901  10.244  1.4372  0.1925  0.8815
 7539SOL    HW234254   0.346   2.877  10.309  0.9442 -0.5210 -1.6280
 7540SOL     OW34255   3.338   0.412   3.519 -0.1845 -0.1519 -0.4495
 7540SOL    HW134256   3.339   0.494   3.568 -1.2636 -0.8787  0.7861
 7540SOL    HW234257   3.337   0.346   3.588  2.9363 -0.8175 -1.0374
 7541SOL     OW34258   2.473   0.979  15.220  0.5031 -0.1708  0.2562
 7541SOL    HW134259   2.505   1.038  15.289  0.7436  0.8462 -0.7334
 7541SOL    HW234260   2.390   0.967  15.267 -0.7899  1.1645 -1.7059
 7542SOL     OW34261   4.105   4.622  17.693  0.3888  0.6222 -0.1415
 7542SOL    HW134262   4.172   4.646  17.629  0.8373 -1.6703 -0.5300
 7542SOL    HW234263   4.024   4.605  17.645  0.9833  0.6851 -1.1867
 7543SOL     OW34264   4.173   2.126  15.040 -0.5013 -0.4244 -0.0332
 7543SOL    HW134265   4.126   2.184  14.980 -1.9360 -1.5155  0.0309
 7543SOL    HW234266   4.226   2.195  15.079  1.6926 -1.6172 -0.9073
 7544SOL     OW34267   2.745   3.480   8.060  0.1297  0.1069 -0.0615
 7544SOL    HW134268   2.722   3.561   8.105 -1.4976 -0.7263  0.5741
 7544SOL    HW234269   2.819   3.452   8.114 -0.9241 -1.1313  0.7342
 7545SOL     OW34270   0.363   2.697   7.616 -0.1418  0.3470  0.0889
 7545SOL    HW134271   0.278   2.740   7.605 -0.0590  0.7209  0.9374
 7545SOL    HW234272   0.363   2.648   7.534  0.3511  0.4765  0.0141
 7546SOL     OW34273   0.272   3.103   8.567 -0.0531  0.6466 -0.2589
 7546SOL    HW134274   0.177   3.093   8.578 -0.1376  3.2986  1.4737
 7546SOL    HW234275   0.274   3.080   8.474 -0.4281  0.3634 -0.1981
 7547SOL     OW34276   3.041   2.652  10.284  1.0727 -0.1496  0.8219
 7547SOL    HW134277   3.008   2.691  10.203  1.1155 -0.4606  0.6547
 7547SOL    HW234278   2.959   2.631  10.328  1.4092 -0.5486  1.2634
 7548SOL     OW34279   2.043   0.839   4.595  0.1049  0.1864 -0.7041
 7548SOL    HW134280   1.993   0.848   4.676 -1.2682  1.8042 -1.7292
 7548SOL    HW234281   2.082   0.926   4.583  1.3479 -0.3065 -0.3275
 7549SOL     OW34282   2.488   4.164   2.759  0.0671  0.3320  0.9493
 7549SOL    HW134283   2.456   4.253   2.774  2.5874  1.4176 -0.0672
 7549SOL    HW234284   2.425   4.119   2.816 -0.3963  1.4171  1.3031
 7550SOL     OW34285   3.026   1.880   3.936  0.6413  0.4703  0.3931
 7550SOL    HW134286   3.054   1.790   3.951  0.0719  0.1746 -0.3176
 7550SOL    HW234287   2.950   1.873   3.994  0.0895  1.4388 -0.2083
 7551SOL     OW34288   1.360   2.928   3.949  0.4480 -0.1325 -0.0842
 7551SOL    HW134289   1.290   2.909   3.887 -0.1447  1.2901  0.1304
 7551SOL    HW234290   1.321   2.907   4.034 -0.4212  0.1214 -0.4232
 7552SOL     OW34291   0.976   3.922   4.478 -0.1361  0.2432 -0.6506
 7552SOL    HW134292   1.043   3.897   4.541 -0.8780 -1.3667 -0.5120
 7552SOL    HW234293   0.974   4.015   4.501  0.4458 -0.0753  0.6788
 7553SOL     OW34294   4.299   2.670   3.109  0.1267  0.2061 -0.0273
 7553SOL    HW134295   4.256   2.740   3.158 -1.9742 -1.4316  0.4644
 7553SOL    HW234296   4.253   2.602   3.158 -0.4729  1.1610  0.7244
 7554SOL     OW34297   4.533   2.695   8.138 -0.0998  0.5311 -0.3052
 7554SOL    HW134298   4.536   2.774   8.191  0.6802  1.7175 -2.0882
 7554SOL    HW234299   4.440   2.691   8.113  0.2976 -0.8653 -1.5239
 7555SOL     OW34300   3.287   3.080   0.671 -0.3441  0.0310  0.2773
 7555SOL    HW134301   3.318   3.085   0.761  0.3273  0.1173  0.0438
 7555SOL    HW234302   3.206   3.130   0.681 -2.4036 -2.6226 -3.3663
 7556SOL     OW34303   0.962   2.266  11.679  0.4887  0.1495 -0.1820
 7556SOL    HW134304   1.038   2.288  11.625  0.7674  0.3480  0.2912
 7556SOL    HW234305   0.886   2.309  11.640  1.4508  2.9743  1.1113
 7557SOL     OW34306   3.898   2.044   0.978 -0.5200  0.0739 -0.2780
 7557SOL    HW134307   3.883   1.987   1.054 -0.4066 -2.0116 -1.8512
 7557SOL    HW234308   3.814   2.045   0.934 -0.2377  0.0739 -0.8103
 7558SOL     OW34309   2.222   1.020   5.981  0.2753 -0.5969 -0.3830
 7558SOL    HW134310   2.243   1.111   6.003 -0.2526 -0.4190 -0.6096
 7558SOL    HW234311   2.126   1.026   5.987  0.1561 -2.5069 -0.1564
 7559SOL     OW34312   0.450   0.191   2.083 -0.2010 -0.0733  0.2852
 7559SOL    HW134313   0.497   0.174   2.165 -0.7884 -1.5966  0.3102
 7559SOL    HW234314   0.471   0.112   2.034 -0.3949 -1.3212  2.1892
 7560SOL     OW34315   1.888   0.952   6.087 -0.0021  0.0263 -0.5369
 7560SOL    HW134316   1.812   0.896   6.097 -0.8539  0.6641 -3.2028
 7560SOL    HW234317   1.864   1.027   6.142 -2.8369 -0.4391 -1.1763
 7561SOL     OW34318   3.635   2.339   4.853 -0.0598 -0.0529 -0.6469
 7561SOL    HW134319   3.647   2.289   4.934 -1.6002 -1.9461 -1.5861
 7561SOL    HW234320   3.549   2.376   4.869  0.9027  0.9042  2.2478
 7562SOL     OW34321   4.207   1.538   7.451 -0.6288 -0.7055  0.1648
 7562SOL    HW134322   4.162   1.621   7.438 -0.4148 -0.2377  2.4906
 7562SOL    HW234323   4.144   1.482   7.407 -1.6726  0.7959 -0.2473
 7563SOL     OW34324   1.485   3.851   9.345  0.2591  0.7960 -0.3264
 7563SOL    HW134325   1.550   3.781   9.354 -0.8828 -0.3160 -0.7220
 7563SOL    HW234326   1.548   3.911   9.384 -0.3989  0.9547  0.4981
 7564SOL     OW34327   3.144   1.063   7.814  0.1831  0.2926  0.2846
 7564SOL    HW134328   3.049   1.054   7.807  0.3579 -1.0988 -0.3176
 7564SOL    HW234329   3.157   1.145   7.766 -1.0392  0.2847 -0.0468
 7565SOL     OW34330   4.234   2.236   8.387  0.0943 -0.3503  0.2477
 7565SOL    HW134331   4.228   2.210   8.479  0.8356  0.7617  0.6135
 7565SOL    HW234332   4.243   2.147   8.353 -0.2067 -0.6528  0.9668
 7566SOL     OW34333   2.544   4.050   2.349 -0.6230 -0.2327  0.2648
 7566SOL    HW134334   2.456   4.079   2.324 -0.2184 -0.9664 -2.0011
 7566SOL    HW234335   2.529   3.973   2.404  0.4817 -1.0094 -0.5312
 7567SOL     OW34336   4.112   3.014   6.849  0.6501 -0.8946  0.0709
 7567SOL    HW134337   4.080   3.067   6.921 -0.6501 -0.3579 -0.9041
 7567SOL    HW234338   4.151   2.940   6.896 -0.5050 -0.6326  1.4232
 7568SOL     OW34339   1.417   1.675   9.078  0.3913 -0.2755  0.0202
 7568SOL    HW134340   1.471   1.630   9.014 -0.0124  1.7315 -1.7401
 7568SOL    HW234341   1.438   1.612   9.147 -0.5279 -1.2288 -0.5713
 7569SOL     OW34342   1.349   1.446   6.216 -0.3300 -0.4227 -0.2469
 7569SOL    HW134343   1.345   1.537   6.187 -0.0557 -0.9342 -1.8707
 7569SOL    HW234344   1.272   1.407   6.176  0.6380 -2.9071  0.2969
 7570SOL     OW34345   2.449   1.100   1.845  0.2170 -0.5014  0.0856
 7570SOL    HW134346   2.410   1.016   1.822  1.0162 -0.2230 -2.2813
 7570SOL    HW234347   2.476   1.137   1.761 -1.8002 -0.0209 -0.3528
 7571SOL     OW34348   2.933   0.215   2.567 -0.2760 -0.5931 -0.0695
 7571SOL    HW134349   2.948   0.223   2.473 -1.1680  0.3625 -0.1347
 7571SOL    HW234350   2.855   0.268   2.583  1.1318  1.3424  0.3868
 7572SOL     OW34351   4.009   4.229   1.646 -0.0474 -0.5386 -0.5782
 7572SOL    HW134352   4.014   4.312   1.693  2.7928 -2.2379  2.0714
 7572SOL    HW234353   3.917   4.222   1.618 -0.3719 -0.9250  0.5811
 7573SOL     OW34354   3.107   2.427   2.360 -0.1100 -0.6670 -0.4041
 7573SOL    HW134355   3.017   2.412   2.390  0.5196  4.6194  4.0773
 7573SOL    HW234356   3.091   2.500   2.300  0.8293  0.8477  1.2149
 7574SOL     OW34357   1.726   0.598   2.750  0.6386 -1.0623 -0.0692
 7574SOL    HW134358   1.643   0.561   2.721 -0.5058  0.5478  1.1972
 7574SOL    HW234359   1.743   0.555   2.834  3.4419 -1.0348 -0.5949
 7575SOL     OW34360   2.358   0.109  10.942  0.0658  0.3399 -0.3491
 7575SOL    HW134361   2.340   0.052  11.017 -2.2006  2.8429  1.0347
 7575SOL    HW234362   2.450   0.118  10.921  0.0362  0.2233 -0.5212
 7576SOL     OW34363   3.871   1.544   4.227 -1.6418 -0.1106 -0.3381
 7576SOL    HW134364   3.781   1.546   4.260 -0.6409 -2.1680  2.5623
 7576SOL    HW234365   3.862   1.532   4.132 -2.9519 -0.7039 -0.1412
 7577SOL     OW34366   0.546   2.408   6.288 -0.1518 -0.5609  0.1479
 7577SOL    HW134367   0.581   2.460   6.216 -1.9508 -1.5059 -1.4183
 7577SOL    HW234368   0.502   2.479   6.335  0.0098 -0.2396 -0.1891
 7578SOL     OW34369   0.655   2.249   7.910 -0.1624 -0.3477  0.5817
 7578SOL    HW134370   0.586   2.294   7.862  0.9925  1.4980  0.6791
 7578SOL    HW234371   0.612   2.223   7.991 -0.0494  0.7750  0.9995
 7579SOL     OW34372   0.663   2.913   3.795  0.0815  0.1136  0.6930
 7579SOL    HW134373   0.650   2.921   3.890  0.6726 -1.3906  0.9084
 7579SOL    HW234374   0.587   2.958   3.758  0.7573  0.3292 -0.4302
 7580SOL     OW34375   4.196   4.469   4.090  0.2269  0.3316 -0.0303
 7580SOL    HW134376   4.165   4.405   4.026  0.4903  0.4120 -0.2405
 7580SOL    HW234377   4.292   4.480   4.091 -0.0852  2.9942  0.8119
 7581SOL     OW34378   0.734   2.846   8.564  0.0726  0.2083 -0.6769
 7581SOL    HW134379   0.656   2.876   8.611 -0.3168 -0.5532 -0.8438
 7581SOL    HW234380   0.703   2.766   8.521 -2.0689 -0.7765  2.6272
 7582SOL     OW34381   0.378   0.329  14.862 -0.2415  0.1458  0.5909
 7582SOL    HW134382   0.362   0.422  14.875  0.5186  0.0653  2.0244
 7582SOL    HW234383   0.336   0.294  14.941 -3.0912 -1.1689 -1.5072
 7583SOL     OW34384   1.397   3.575   4.052 -0.1004 -0.4065  0.6448
 7583SOL    HW134385   1.488   3.554   4.031 -0.2600  2.2319 -2.6060
 7583SOL    HW234386   1.405   3.666   4.023  0.6139 -0.2249  1.4122
 7584SOL     OW34387   0.103   1.663   1.526  0.3595 -0.3148 -0.7608
 7584SOL    HW134388   0.121   1.617   1.444 -0.3821  1.7068 -2.0486
 7584SOL    HW234389   0.137   1.749   1.505  1.0309 -0.5523 -0.6387
 7585SOL     OW34390   4.034   1.593   9.346  0.4935  0.2385 -0.2003
 7585SOL    HW134391   3.966   1.546   9.299  0.7596 -2.5621  2.2234
 7585SOL    HW234392   4.100   1.593   9.277  1.3807 -0.5750  0.6486
 7586SOL     OW34393   2.475   4.511  17.193  0.1050  0.4037  0.2973
 7586SOL    HW134394   2.525   4.591  17.182 -1.9540  2.0984  3.3505
 7586SOL    HW234395   2.527   4.454  17.135 -0.4195  1.8765 -1.6030
 7587SOL     OW34396   3.892   1.781   7.967  0.4968 -0.4265  0.0731
 7587SOL    HW134397   3.803   1.763   7.996  1.5831 -2.1773  2.3030
 7587SOL    HW234398   3.944   1.732   8.030  1.4204 -0.6007 -0.8294
 7588SOL     OW34399   3.643   0.252   5.666  0.2032 -0.4501  0.3783
 7588SOL    HW134400   3.679   0.234   5.753 -0.7354 -0.7634  0.7054
 7588SOL    HW234401   3.678   0.339   5.647 -1.3096  0.1583  0.3164
 7589SOL     OW34402   1.099   1.221   9.059 -0.2641  0.0526 -0.1303
 7589SOL    HW134403   1.170   1.232   9.122  1.0311 -2.6195 -1.0938
 7589SOL    HW234404   1.095   1.127   9.043  1.1898  0.3500 -2.1686
 7590SOL     OW34405   3.038   1.901   5.790  0.3189 -0.3354 -0.3249
 7590SOL    HW134406   3.132   1.883   5.783  0.3424 -0.6511  0.8821
 7590SOL    HW234407   3.002   1.819   5.824 -1.0157  0.1646 -0.5126
 7591SOL     OW34408   1.172   0.721   3.122  0.3837  0.4126  0.7608
 7591SOL    HW134409   1.255   0.748   3.082  0.7616 -3.0338 -0.7882
 7591SOL    HW234410   1.200   0.691   3.209 -0.0480 -3.1617 -0.3369
 7592SOL     OW34411   4.592   0.218  16.581  0.0719  0.2557 -0.6065
 7592SOL    HW134412   4.520   0.240  16.522  1.1270  1.0513 -1.6184
 7592SOL    HW234413   4.622   0.132  16.551 -2.2914 -0.3298 -1.2605
 7593SOL     OW34414   0.700   0.905   5.980  0.1751 -0.3744 -0.2500
 7593SOL    HW134415   0.762   0.972   6.011  3.0485 -2.7554 -0.9142
 7593SOL    HW234416   0.726   0.826   6.027  3.1061 -0.4298 -2.0007
 7594SOL     OW34417   0.916   0.985   1.761 -0.3901  0.4022  0.3617
 7594SOL    HW134418   0.937   1.045   1.832 -4.2717  1.5006  0.5588
 7594SOL    HW234419   0.823   1.000   1.745 -0.9110 -0.7227  2.3320
 7595SOL     OW34420   2.472   1.012   7.633 -0.0745  0.3985 -0.6807
 7595SOL    HW134421   2.455   0.972   7.547 -3.4302 -0.2439  0.3012
 7595SOL    HW234422   2.403   0.966   7.680  1.0595  1.2282  1.7771
 7596SOL     OW34423   1.618   4.380   4.773 -0.4813  0.0563 -0.2095
 7596SOL    HW134424   1.701   4.383   4.725  0.4154  1.7835  1.4272
 7596SOL    HW234425   1.625   4.465   4.817  0.9543  0.3418 -0.9711
 7597SOL     OW34426   3.922   0.072   2.341  0.2145  0.3804 -0.2620
 7597SOL    HW134427   3.852   0.128   2.373 -0.9111 -0.7134 -0.8195
 7597SOL    HW234428   3.966   0.135   2.284  2.2419 -0.8077 -0.0012
 7598SOL     OW34429   3.957   4.699   5.562  0.4399  0.6953  0.1027
 7598SOL    HW134430   4.016   0.038   5.548  1.1516  0.0163 -0.5148
 7598SOL    HW234431   3.900   4.724   5.635 -0.1090 -1.8838  0.5349
 7599SOL     OW34432   4.627   3.869   6.950  0.2953  0.0130  0.3511
 7599SOL    HW134433   4.620   3.919   6.868  1.2002  2.4403  1.7519
 7599SOL    HW234434   4.722   3.866   6.960  0.2199  0.7338  1.2076
 7600SOL     OW34435   0.583   3.858   3.335 -0.1051 -0.1111 -0.0699
 7600SOL    HW134436   0.573   3.877   3.428  0.0091 -0.3586 -0.0077
 7600SOL    HW234437   0.549   3.941   3.302  1.8117  0.3183 -0.9730
 7601SOL     OW34438   0.865   3.539   8.406  0.1004 -0.2156 -0.4047
 7601SOL    HW134439   0.812   3.482   8.462  0.5767 -0.3200 -0.0612
 7601SOL    HW234440   0.924   3.475   8.365  1.4415  0.3642  0.6335
 7602SOL     OW34441   4.107   2.003   7.646  0.0196  0.9962  0.2886
 7602SOL    HW134442   4.032   2.058   7.623 -2.9622 -2.6739  1.4448
 7602SOL    HW234443   4.060   1.929   7.682 -2.2826  2.2934 -0.0225
 7603SOL     OW34444   2.298   0.757  14.319 -0.3913  0.3940  0.0017
 7603SOL    HW134445   2.292   0.746  14.414  1.3152  2.5681  0.3366
 7603SOL    HW234446   2.222   0.706  14.291 -0.8109  0.5179  0.9031
 7604SOL     OW34447   1.313   2.013  10.702  0.4936  0.8338 -0.1818
 7604SOL    HW134448   1.300   2.052  10.616  0.6445  0.3097 -0.4465
 7604SOL    HW234449   1.310   2.091  10.757 -1.3288  0.9971 -0.5339
 7605SOL     OW34450   1.007   0.975   2.289 -0.2502  0.1773  0.1898
 7605SOL    HW134451   1.089   0.928   2.275 -0.6074  0.2861 -2.3494
 7605SOL    HW234452   0.943   0.904   2.296 -0.2036  0.1794  0.6338
 7606SOL     OW34453   2.792   4.136  10.425  0.4703 -0.3405 -0.3080
 7606SOL    HW134454   2.823   4.084  10.499  0.2267  0.5133  0.3963
 7606SOL    HW234455   2.750   4.071  10.369  1.7337 -0.9167 -0.5793
 7607SOL     OW34456   0.908   2.471   9.503  0.6864  0.0319 -0.0637
 7607SOL    HW134457   0.995   2.441   9.476  0.9833  1.5707 -0.8102
 7607SOL    HW234458   0.866   2.403   9.451  0.9041  0.8082 -1.2455
 7608SOL     OW34459   4.594   1.044   5.978  0.4296 -0.0740 -0.0033
 7608SOL    HW134460   4.553   0.960   5.996  0.5249  0.1591  1.3475
 7608SOL    HW234461   4.535   1.093   5.921 -0.0469  0.4709  0.9445
 7609SOL     OW34462   3.914   0.623   2.282 -0.3986  0.4161  0.2593
 7609SOL    HW134463   4.010   0.616   2.281 -0.3997  0.7335 -1.3149
 7609SOL    HW234464   3.905   0.706   2.237  1.3776  0.4156 -0.0859
 7610SOL     OW34465   3.856   0.923  12.588 -0.5261 -0.0762  0.8322
 7610SOL    HW134466   3.914   0.859  12.629  0.0595 -1.3861 -2.0151
 7610SOL    HW234467   3.843   0.885  12.501  1.1357  2.7028 -0.6195
 7611SOL     OW34468   4.389   2.319   9.993  0.5038  0.2867 -0.2858
 7611SOL    HW134469   4.328   2.301  10.065 -0.0362  2.0601 -0.3096
 7611SOL    HW234470   4.418   2.409  10.006  2.2962 -0.6145  1.9892
 7612SOL     OW34471   0.391   2.065   0.662 -0.2348  0.7533 -0.2621
 7612SOL    HW134472   0.327   1.994   0.670 -0.4162  0.8259 -1.0160
 7612SOL    HW234473   0.339   2.118   0.602 -2.4031 -0.5241  0.5061
 7613SOL     OW34474   0.832   1.453   7.093  0.4953 -0.1127  0.2551
 7613SOL    HW134475   0.898   1.455   7.162 -0.6928 -1.0371  1.4023
 7613SOL    HW234476   0.776   1.382   7.123  0.4612  0.0003  0.4525
 7614SOL     OW34477   0.637   4.101   9.116  0.3738 -0.4725 -0.2705
 7614SOL    HW134478   0.560   4.152   9.140 -0.3879 -2.5199  1.6757
 7614SOL    HW234479   0.694   4.170   9.082 -1.0556  0.4511 -0.8131
 7615SOL     OW34480   2.694   2.751   0.682  0.8960  0.0437  0.3609
 7615SOL    HW134481   2.648   2.825   0.722  3.6637  0.4204  2.8130
 7615SOL    HW234482   2.737   2.725   0.763  0.6184 -1.4219  0.0370
 7616SOL     OW34483   0.988   1.160   9.957 -0.4687  0.3623 -0.7308
 7616SOL    HW134484   1.028   1.222   9.895  1.1506 -0.0532 -0.0959
 7616SOL    HW234485   0.908   1.132   9.913 -1.6210  1.2107  0.8303
 7617SOL     OW34486   1.685   3.412   6.043 -0.5378 -0.3039  0.2431
 7617SOL    HW134487   1.779   3.409   6.063 -0.5701 -1.2200  0.2741
 7617SOL    HW234488   1.651   3.403   6.132  1.4979  2.4245  1.3059
 7618SOL     OW34489   0.818   0.609   7.049  0.7706  0.0884 -0.1818
 7618SOL    HW134490   0.886   0.673   7.024  1.5750 -0.4128  0.7482
 7618SOL    HW234491   0.829   0.550   6.974  1.7875  2.0514 -1.5995
 7619SOL     OW34492   0.733   2.870   6.590  0.1357  0.6249  0.5860
 7619SOL    HW134493   0.680   2.800   6.626  0.1424 -0.5303 -1.6622
 7619SOL    HW234494   0.795   2.817   6.540  0.0633 -0.1096  1.2862
 7620SOL     OW34495   0.381   3.209   1.846 -0.1840  0.5893 -0.2341
 7620SOL    HW134496   0.351   3.127   1.805 -0.9642  0.4798  0.5509
 7620SOL    HW234497   0.320   3.207   1.920  1.1122 -1.6567  0.7947
 7621SOL     OW34498   0.903   4.135  11.530 -0.3997 -0.8026  0.0863
 7621SOL    HW134499   0.959   4.205  11.497 -1.7477  1.3975  2.4741
 7621SOL    HW234500   0.879   4.168  11.616 -0.6180  0.1204 -0.3294
 7622SOL     OW34501   4.391   2.932   2.599 -0.1557 -0.5239  0.0651
 7622SOL    HW134502   4.324   2.920   2.667 -0.2377 -0.7918 -0.0605
 7622SOL    HW234503   4.352   2.993   2.537  0.3091  0.4470  0.7346
 7623SOL     OW34504   3.977   3.759   1.331 -0.1659  0.2105  0.5388
 7623SOL    HW134505   3.961   3.847   1.366  0.7941  0.2825  0.8144
 7623SOL    HW234506   3.980   3.711   1.414  0.1732  1.4415  1.2490
 7624SOL     OW34507   1.589   2.974  14.819 -0.6836  0.3056  0.1771
 7624SOL    HW134508   1.597   2.940  14.908  1.3831 -0.4860 -0.3146
 7624SOL    HW234509   1.627   3.062  14.825 -1.8556  0.9052 -1.1234
 7625SOL     OW34510   1.276   0.601   1.130  0.2025 -0.0274  0.6262
 7625SOL    HW134511   1.190   0.575   1.098 -0.7473  2.7721  0.8881
 7625SOL    HW234512   1.299   0.682   1.085  0.4584  0.3157  1.3799
 7626SOL     OW34513   3.080   4.202   4.091  0.1922  0.2886 -0.7252
 7626SOL    HW134514   3.004   4.219   4.035 -0.4750  1.3543  0.5098
 7626SOL    HW234515   3.083   4.280   4.146 -0.7852  1.8505 -2.8676
 7627SOL     OW34516   0.595   3.308   9.123  0.3937 -0.0439 -0.1800
 7627SOL    HW134517   0.600   3.241   9.055 -0.3068  0.1043 -0.3733
 7627SOL    HW234518   0.522   3.358   9.086 -0.7755 -0.0052  2.1842
 7628SOL     OW34519   3.761   4.323  15.468 -0.3407  0.3948  0.1218
 7628SOL    HW134520   3.843   4.335  15.419  0.1435 -4.4257 -0.2817
 7628SOL    HW234521   3.764   4.240  15.516 -1.3862  2.9824  4.5768
 7629SOL     OW34522   2.258   3.216   6.271 -0.5038 -0.3066  0.4313
 7629SOL    HW134523   2.312   3.289   6.241 -0.3385 -1.0129 -0.9978
 7629SOL    HW234524   2.288   3.155   6.203 -0.5105 -1.3330  1.3463
 7630SOL     OW34525   3.844   3.409   7.207 -0.2547 -0.3984 -0.3667
 7630SOL    HW134526   3.873   3.402   7.298  0.3804  2.4908 -0.3412
 7630SOL    HW234527   3.752   3.420   7.231  0.0482  0.7518  0.2788
 7631SOL     OW34528   3.809   3.796  12.208 -0.4412 -0.1117  0.4354
 7631SOL    HW134529   3.866   3.723  12.232  0.8362  0.2869 -1.3704
 7631SOL    HW234530   3.797   3.845  12.289 -1.5896  0.2204  0.0587
 7632SOL     OW34531   1.718   0.828   4.490  0.4055 -0.1332  0.4441
 7632SOL    HW134532   1.653   0.897   4.480  0.0249 -0.8726 -2.2893
 7632SOL    HW234533   1.782   0.846   4.420 -0.4827  2.2922  0.2485
 7633SOL     OW34534   3.705   3.673   2.291 -0.6134 -0.3376  0.2796
 7633SOL    HW134535   3.651   3.750   2.309  0.0770  1.0783 -3.5265
 7633SOL    HW234536   3.666   3.642   2.209  1.5173 -2.6215  0.1413
 7634SOL     OW34537   0.642   3.923   6.332  0.6304 -0.3666  0.5273
 7634SOL    HW134538   0.688   3.937   6.415  0.8503 -1.4036  0.5773
 7634SOL    HW234539   0.648   4.010   6.292  1.8126 -0.7278 -0.0914
 7635SOL     OW34540   1.743   2.963   8.976  0.2967 -0.1883 -0.1856
 7635SOL    HW134541   1.711   2.910   8.902  1.8436 -1.9493  0.4162
 7635SOL    HW234542   1.836   2.966   8.957  0.3277 -1.4193 -0.2087
 7636SOL     OW34543   0.973   4.426   7.087  0.3249  0.0139 -0.3008
 7636SOL    HW134544   0.918   4.347   7.081 -0.1132  0.1278  2.1952
 7636SOL    HW234545   1.051   4.411   7.033  0.2016  1.5970 -0.9071
 7637SOL     OW34546   4.167   3.150  16.495  0.1071 -0.9686  0.0302
 7637SOL    HW134547   4.123   3.234  16.483  1.8985  0.0455  0.5213
 7637SOL    HW234548   4.107   3.098  16.442 -1.5971 -0.8736  1.8824
 7638SOL     OW34549   1.493   2.067   3.030 -0.3594  0.6215  0.0207
 7638SOL    HW134550   1.584   2.043   3.047 -0.3029 -0.7927 -2.3855
 7638SOL    HW234551   1.444   1.987   3.012 -1.4849  0.8743  1.9401
 7639SOL     OW34552   0.286   2.862  11.095 -0.0360  0.0556  0.0981
 7639SOL    HW134553   0.359   2.921  11.078 -1.5044  0.8995 -3.1895
 7639SOL    HW234554   0.268   2.871  11.189  1.3633  0.6723  0.2909
 7640SOL     OW34555   0.544   2.173   8.483 -0.5759 -0.2355  0.3935
 7640SOL    HW134556   0.550   2.263   8.515  0.5401 -0.3505  0.4998
 7640SOL    HW234557   0.461   2.175   8.436 -0.1132  0.6148 -0.3938
 7641SOL     OW34558   0.979   4.115   5.814  0.1836 -0.8093 -0.9095
 7641SOL    HW134559   1.002   4.022   5.810 -0.7615 -1.0325 -1.1336
 7641SOL    HW234560   1.053   4.140   5.870 -0.9795  1.9650 -0.6357
 7642SOL     OW34561   0.425   2.149  13.594 -0.6284 -0.0304  0.0966
 7642SOL    HW134562   0.432   2.225  13.652  1.1287  1.0895 -1.6051
 7642SOL    HW234563   0.333   2.122  13.598 -1.3560  2.8169  2.0554
 7643SOL     OW34564   3.469   2.653  10.041 -0.2192 -0.5147  0.2145
 7643SOL    HW134565   3.544   2.628   9.988  0.8198  2.2563  0.3508
 7643SOL    HW234566   3.397   2.597  10.013  0.0214 -0.8464  0.2656
 7644SOL     OW34567   1.665   0.295   9.675  0.4145 -0.1054  0.0720
 7644SOL    HW134568   1.682   0.342   9.757 -0.9538 -0.5912  0.6281
 7644SOL    HW234569   1.576   0.268   9.696  0.0266  1.2096  0.0939
 7645SOL     OW34570   2.836   4.705  12.360  0.7202  0.5480 -0.3800
 7645SOL    HW134571   2.875   0.036  12.303 -0.1424  0.7033 -0.7803
 7645SOL    HW234572   2.770   4.682  12.295  0.6735 -0.0640 -0.1118
 7646SOL     OW34573   4.299   0.787   3.828 -0.3049 -0.0402 -0.2772
 7646SOL    HW134574   4.326   0.695   3.822 -1.5783 -0.3848 -0.8801
 7646SOL    HW234575   4.225   0.786   3.889 -0.1525 -1.4288 -0.1210
 7647SOL     OW34576   3.229   1.329   4.224  0.0750  0.7863  0.7532
 7647SOL    HW134577   3.135   1.335   4.242 -0.4080 -0.8688 -1.1905
 7647SOL    HW234578   3.263   1.308   4.311  2.2768  1.3505  0.0057
 7648SOL     OW34579   0.695   3.433   6.023  0.4518  0.3424  0.1222
 7648SOL    HW134580   0.742   3.510   6.057  0.4328  1.2911 -1.9763
 7648SOL    HW234581   0.625   3.472   5.971 -1.0384 -2.9858 -0.3175
 7649SOL     OW34582   4.332   1.214   6.791  0.2720  0.0596 -0.5998
 7649SOL    HW134583   4.386   1.207   6.870 -0.2481  2.8118  0.0048
 7649SOL    HW234584   4.307   1.123   6.774 -1.5600  0.5559 -0.5524
 7650SOL     OW34585   3.001   1.970   7.261  0.4464  0.2211  0.2406
 7650SOL    HW134586   2.937   2.019   7.312  0.8101  1.0348 -0.0985
 7650SOL    HW234587   2.944   1.902   7.224  1.7977 -0.2475 -0.9612
 7651SOL     OW34588   2.586   3.823   0.045 -0.0312  0.1059 -0.2392
 7651SOL    HW134589   2.592   3.810  17.693 -1.3182 -2.5890  0.0494
 7651SOL    HW234590   2.523   3.895   0.043  3.0116  2.7466 -0.6924
 7652SOL     OW34591   0.660   2.666  16.193  0.3136  0.1731  0.4554
 7652SOL    HW134592   0.584   2.653  16.136  0.9436  1.7849 -0.7280
 7652SOL    HW234593   0.731   2.667  16.130  1.7405  2.8305  2.1105
 7653SOL     OW34594   2.179   2.591   8.946 -0.3610 -0.3417  0.5585
 7653SOL    HW134595   2.089   2.562   8.932 -0.8305 -0.1786  3.3245
 7653SOL    HW234596   2.178   2.670   8.892  1.3151 -0.0785  0.9133
 7654SOL     OW34597   2.225   4.528  11.053  0.4286 -0.0476 -0.7259
 7654SOL    HW134598   2.241   4.446  11.100  0.5662  1.2578  1.5098
 7654SOL    HW234599   2.314   4.562  11.045 -0.2844  1.4826 -2.1735
 7655SOL     OW34600   0.905   1.099   2.536  0.3281 -0.4883  0.0439
 7655SOL    HW134601   0.834   1.121   2.475 -0.0966 -2.0345 -0.0234
 7655SOL    HW234602   0.969   1.056   2.479  1.4018 -2.1494  2.5100
 7656SOL     OW34603   4.173   3.199   8.877  0.4674  0.0980 -0.0597
 7656SOL    HW134604   4.198   3.144   8.802 -1.6153  1.4461 -1.7171
 7656SOL    HW234605   4.101   3.246   8.835 -0.7010 -2.0477 -0.4327
 7657SOL     OW34606   3.950   0.938   4.715  0.0949  0.5026  0.5652
 7657SOL    HW134607   3.957   0.863   4.656 -0.0995  1.1505 -0.2914
 7657SOL    HW234608   3.856   0.955   4.723 -0.3807 -1.0371 -1.4846
 7658SOL     OW34609   3.869   3.983   4.009  0.2880 -0.4485 -0.0574
 7658SOL    HW134610   3.796   4.028   3.966  0.0331 -0.2169  0.6164
 7658SOL    HW234611   3.829   3.912   4.060 -2.0362  0.8862 -0.0563
 7659SOL     OW34612   1.001   1.275   5.204 -0.5322 -0.2503 -0.2064
 7659SOL    HW134613   0.906   1.266   5.213 -0.9207  4.2348  0.0804
 7659SOL    HW234614   1.008   1.367   5.230  0.3256 -0.3452 -0.1210
 7660SOL     OW34615   4.328   3.942   2.022  0.3889  0.5656 -0.5636
 7660SOL    HW134616   4.274   3.899   1.956 -0.3925  0.5983  0.0527
 7660SOL    HW234617   4.377   3.866   2.055  0.8833  1.5710  1.0513
 7661SOL     OW34618   1.197   1.495   4.017  0.1262 -0.1851 -0.4662
 7661SOL    HW134619   1.279   1.544   4.010  1.5050 -2.1392  2.0452
 7661SOL    HW234620   1.208   1.427   3.951 -0.1659 -0.8756  0.1899
 7662SOL     OW34621   3.195   0.932   2.698 -0.1072 -0.4090  0.6050
 7662SOL    HW134622   3.134   0.870   2.658  1.2112 -0.2848 -1.6320
 7662SOL    HW234623   3.182   0.929   2.792  0.3131  0.6693  0.7042
 7663SOL     OW34624   2.299   4.537   7.920 -0.1582  0.6269  0.0779
 7663SOL    HW134625   2.212   4.570   7.899 -0.8798 -0.6933  0.9676
 7663SOL    HW234626   2.352   4.596   7.867 -0.0306 -0.1149 -0.6314
 7664SOL     OW34627   1.484   1.533   5.432 -0.1939 -0.3784 -0.0999
 7664SOL    HW134628   1.404   1.552   5.383 -2.6455 -1.5474  3.5295
 7664SOL    HW234629   1.468   1.440   5.448 -1.9639  0.4612  2.8978
 7665SOL     OW34630   3.253   3.373   9.668  0.0387  0.0635  0.4535
 7665SOL    HW134631   3.299   3.338   9.744 -0.0929 -0.7107  0.1792
 7665SOL    HW234632   3.303   3.328   9.600 -0.2030  0.9969 -0.3451
 7666SOL     OW34633   3.696   4.321   8.802  0.3726 -0.0792  0.1001
 7666SOL    HW134634   3.769   4.346   8.744  0.8369 -0.1427  0.6640
 7666SOL    HW234635   3.691   4.405   8.848 -0.1384 -0.0216 -0.0597
 7667SOL     OW34636   1.546   3.301   7.125  0.0691 -0.3220  0.0367
 7667SOL    HW134637   1.617   3.246   7.159 -0.4081 -1.0680 -0.1685
 7667SOL    HW234638   1.469   3.243   7.126 -0.7068  0.7248  0.4480
 7668SOL     OW34639   2.999   4.513   1.675 -0.4828  0.4229 -0.0974
 7668SOL    HW134640   3.063   4.510   1.747  0.4216  0.2433 -0.9073
 7668SOL    HW234641   2.957   4.431   1.700  2.4087 -1.0208 -0.0049
 7669SOL     OW34642   2.248   1.451   2.153 -0.2438  0.2840  0.3251
 7669SOL    HW134643   2.333   1.493   2.150 -0.0836  0.1513  2.7297
 7669SOL    HW234644   2.255   1.399   2.073 -0.4407  0.7877 -0.0183
 7670SOL     OW34645   3.447   1.472   3.329 -0.5381 -0.4757  0.1997
 7670SOL    HW134646   3.400   1.555   3.325 -0.1141 -0.3097 -1.4822
 7670SOL    HW234647   3.530   1.498   3.288 -0.6646  1.0466  0.9113
 7671SOL     OW34648   0.779   0.591  10.044  0.0545 -0.6494  0.2565
 7671SOL    HW134649   0.796   0.593  10.139  1.9480  0.0963 -0.1059
 7671SOL    HW234650   0.684   0.601  10.045  0.2404  1.2044  0.3113
 7672SOL     OW34651   3.214   3.724   7.738 -0.3366 -0.1253 -1.1325
 7672SOL    HW134652   3.277   3.691   7.802 -0.0917  2.0718 -0.2624
 7672SOL    HW234653   3.216   3.664   7.663  1.1616 -0.9849 -0.3919
 7673SOL     OW34654   0.685   3.467  15.846  0.0113  0.3098 -0.3306
 7673SOL    HW134655   0.665   3.438  15.934 -0.8767 -2.1677 -1.3426
 7673SOL    HW234656   0.599   3.474  15.806  0.1952  1.6118 -0.4993
 7674SOL     OW34657   3.016   2.265   3.889  0.1016  0.1248  0.5843
 7674SOL    HW134658   3.020   2.195   3.955 -1.0648  0.1886  0.7222
 7674SOL    HW234659   3.069   2.326   3.940 -0.1702 -1.4906  2.8026
 7675SOL     OW34660   4.726   1.498   2.329  0.4528 -1.0614  0.1141
 7675SOL    HW134661   0.068   1.516   2.380 -0.0945  1.7902 -0.0754
 7675SOL    HW234662   4.675   1.463   2.403  0.9033 -1.0550  0.4277
 7676SOL     OW34663   0.924   0.654  11.337 -0.1053  0.0742  0.4110
 7676SOL    HW134664   0.857   0.587  11.320  0.7642 -0.8445  0.5741
 7676SOL    HW234665   0.996   0.607  11.379  0.3668 -0.1203 -0.6254
 7677SOL     OW34666   0.337   3.415   7.914  0.7650 -0.8703 -0.3805
 7677SOL    HW134667   0.347   3.401   7.819 -0.3021 -2.0267 -0.3249
 7677SOL    HW234668   0.321   3.509   7.914 -0.9190 -1.1509 -1.6902
 7678SOL     OW34669   0.151   1.202   8.060 -0.2215  0.1429 -0.2714
 7678SOL    HW134670   0.195   1.281   8.028  0.4145  0.1838  0.6686
 7678SOL    HW234671   0.058   1.221   8.057 -1.0227 -4.2680 -3.0054
 7679SOL     OW34672   2.297   3.255  12.985  0.2152 -0.4616 -0.0329
 7679SOL    HW134673   2.378   3.207  12.975 -0.9246 -2.4679  0.4204
 7679SOL    HW234674   2.254   3.266  12.900  0.1424  1.8800  0.3018
 7680SOL     OW34675   0.207   2.834  10.210  0.0437  0.3364  0.2470
 7680SOL    HW134676   0.199   2.739  10.216  3.1879 -0.0692 -1.7347
 7680SOL    HW234677   0.114   2.855  10.212 -0.2155 -1.0384  2.0431
 7681SOL     OW34678   0.951   4.477   3.130 -0.2965 -0.1387 -0.0032
 7681SOL    HW134679   0.921   4.527   3.055  0.2430 -0.4218 -0.4062
 7681SOL    HW234680   0.986   4.546   3.186 -0.3441 -0.2258  0.1362
 7682SOL     OW34681   0.109   0.742   9.038  0.4869 -0.4164 -0.3105
 7682SOL    HW134682   0.097   0.825   8.992 -1.5276 -0.9824 -0.8281
 7682SOL    HW234683   0.183   0.767   9.094  0.1500 -2.3064  0.9722
 7683SOL     OW34684   1.249   2.595   5.267  0.0375  0.8439 -0.1855
 7683SOL    HW134685   1.184   2.536   5.229 -0.1869 -0.7344  2.6659
 7683SOL    HW234686   1.325   2.581   5.212  0.3708  0.4609  0.3815
 7684SOL     OW34687   3.205   2.718   7.660 -0.2588  0.4696 -0.1276
 7684SOL    HW134688   3.112   2.740   7.666 -0.4360 -0.6275  1.0399
 7684SOL    HW234689   3.204   2.689   7.569 -1.4765  1.7147 -0.5012
 7685SOL     OW34690   3.231   3.532  12.508  0.4558  0.0622  0.2492
 7685SOL    HW134691   3.156   3.587  12.484  1.1802  0.8052 -0.2974
 7685SOL    HW234692   3.242   3.557  12.600  1.1737  1.2303 -0.1556
 7686SOL     OW34693   0.451   0.030   8.208  0.3026 -0.1849 -0.1463
 7686SOL    HW134694   0.396   4.697   8.243 -0.1385  0.2892  0.0983
 7686SOL    HW234695   0.440   0.095   8.277  0.9174  1.2181 -1.3644
 7687SOL     OW34696   0.423   0.568  17.273  0.6931  0.2381  0.3103
 7687SOL    HW134697   0.336   0.596  17.243  0.7481  0.5018  0.3946
 7687SOL    HW234698   0.471   0.606  17.200  1.2284  1.4874  1.3098
 7688SOL     OW34699   3.355   3.245   9.462 -0.1629  0.4731  0.0896
 7688SOL    HW134700   3.399   3.297   9.394  0.5848  0.4491  0.5574
 7688SOL    HW234701   3.283   3.200   9.417 -1.0258  1.8386  0.1150
 7689SOL     OW34702   3.479   2.356  15.914 -0.0479  0.3606 -0.3343
 7689SOL    HW134703   3.427   2.372  15.836 -0.8260 -1.1253 -0.1279
 7689SOL    HW234704   3.431   2.293  15.968 -0.4414  0.9724  0.0188
 7690SOL     OW34705   4.202   3.551  16.448 -0.7075  0.2215  0.6605
 7690SOL    HW134706   4.297   3.540  16.445 -0.8981  0.0564 -4.1244
 7690SOL    HW234707   4.184   3.485  16.516 -1.5144 -1.2168 -0.9410
 7691SOL     OW34708   1.242   0.037   5.266 -0.1646  0.5413  0.2769
 7691SOL    HW134709   1.260   0.035   5.172 -1.7730  0.2433 -0.0248
 7691SOL    HW234710   1.291   4.694   5.289  0.3234  0.7020 -0.2116
 7692SOL     OW34711   3.740   3.433   6.685  0.2854  0.0134  0.8932
 7692SOL    HW134712   3.784   3.427   6.770  0.5721 -0.1735  0.7333
 7692SOL    HW234713   3.712   3.525   6.685 -0.9153 -0.3640  1.6174
 7693SOL     OW34714   1.592   2.245   2.422  0.0373 -0.0937 -0.4184
 7693SOL    HW134715   1.539   2.264   2.499 -1.1462  1.6602 -1.6419
 7693SOL    HW234716   1.530   2.196   2.367 -0.1231 -1.0895  0.6555
 7694SOL     OW34717   2.837   4.022   0.123  0.3172  1.1738 -0.2180
 7694SOL    HW134718   2.756   4.060   0.158  0.5955  0.8660  0.7576
 7694SOL    HW234719   2.794   3.941   0.098  1.3992  0.7534 -0.7511
 7695SOL     OW34720   3.064   0.879   0.289  0.3231 -0.8596  0.4398
 7695SOL    HW134721   3.037   0.796   0.328 -1.3732 -0.9299 -0.8951
 7695SOL    HW234722   3.158   0.885   0.308  0.6170 -1.5996 -0.7119
 7696SOL     OW34723   0.102   3.065   9.558  0.2761  0.3647 -0.0606
 7696SOL    HW134724   0.087   3.073   9.652 -0.7373 -0.3032 -0.1622
 7696SOL    HW234725   0.016   3.087   9.521  0.1982 -0.9819 -0.6926
 7697SOL     OW34726   3.883   0.889   0.375  0.3467  0.0225 -0.1968
 7697SOL    HW134727   3.826   0.938   0.434 -1.9904  0.0627 -2.4744
 7697SOL    HW234728   3.968   0.890   0.419 -0.4529  2.0931  1.2624
 7698SOL     OW34729   3.670   2.581   3.293  0.4202 -0.2525 -0.2025
 7698SOL    HW134730   3.751   2.629   3.278  0.2210  0.5487  1.2898
 7698SOL    HW234731   3.607   2.636   3.247  0.6430 -0.9812 -1.3804
 7699SOL     OW34732   4.231   4.402  12.546 -0.1818 -0.8021  0.0663
 7699SOL    HW134733   4.151   4.355  12.568 -0.4717 -1.3074 -2.0823
 7699SOL    HW234734   4.217   4.496  12.560  0.9009 -0.0966 -3.4886
 7700SOL     OW34735   2.268   2.589   1.562 -1.0904 -0.4039  0.0878
 7700SOL    HW134736   2.228   2.569   1.646 -4.2739  0.0841 -1.3052
 7700SOL    HW234737   2.359   2.587   1.590 -1.0650 -2.7552 -0.1419
 7701SOL     OW34738   2.191   2.282   6.629 -0.3710  0.2520 -0.3043
 7701SOL    HW134739   2.245   2.251   6.556 -0.1592 -0.8118  0.3091
 7701SOL    HW234740   2.130   2.211   6.650  1.1543 -0.7502  0.7643
 7702SOL     OW34741   2.936   3.061   0.716  0.5931  0.0807  0.1939
 7702SOL    HW134742   2.892   3.098   0.640  0.2099  0.8111  0.7698
 7702SOL    HW234743   3.009   3.122   0.720  0.1978  0.6008 -0.5456
 7703SOL     OW34744   2.851   2.073   4.516  0.0818  0.2339 -0.0360
 7703SOL    HW134745   2.856   1.978   4.525 -0.0652  0.0122 -2.2546
 7703SOL    HW234746   2.765   2.091   4.553  0.4556  2.1105 -0.1015
 7704SOL     OW34747   2.597   2.426   8.791  0.4528 -0.1924  1.2060
 7704SOL    HW134748   2.534   2.381   8.847 -2.7554  1.5616 -1.0404
 7704SOL    HW234749   2.590   2.509   8.836 -0.4206 -0.6169  1.8523
 7705SOL     OW34750   0.591   3.369   8.271  0.1458  0.2422 -0.4800
 7705SOL    HW134751   0.633   3.285   8.249  0.1527 -0.5048  2.3984
 7705SOL    HW234752   0.619   3.421   8.195 -1.1570  1.9826  0.2497
 7706SOL     OW34753   4.569   2.954  17.191  0.0932 -0.3193 -0.0187
 7706SOL    HW134754   4.615   2.987  17.114  0.6797  1.0435  0.9006
 7706SOL    HW234755   4.598   3.014  17.260  2.1133 -0.7688 -0.4833
 7707SOL     OW34756   0.966   2.146  10.612  0.2075  0.2020 -0.1904
 7707SOL    HW134757   0.963   2.207  10.538  1.8529  1.6481  0.9210
 7707SOL    HW234758   1.021   2.198  10.671 -1.8793  1.9092  0.2238
 7708SOL     OW34759   0.835   1.341   1.839 -0.0701 -0.3853  0.2505
 7708SOL    HW134760   0.837   1.250   1.868  1.0695  0.5399  3.0296
 7708SOL    HW234761   0.797   1.389   1.913 -1.2573 -0.9872  0.0347
 7709SOL     OW34762   3.822   1.377  11.091 -0.6015 -0.0535 -0.2719
 7709SOL    HW134763   3.741   1.420  11.119 -0.8726 -0.8572  0.1986
 7709SOL    HW234764   3.792   1.286  11.095  2.2867 -0.9680  0.7740
 7710SOL     OW34765   3.854   1.354   3.012 -0.5057  0.0739  0.6671
 7710SOL    HW134766   3.861   1.391   3.100  0.3980  0.5642  0.3938
 7710SOL    HW234767   3.761   1.331   3.020 -0.0443 -2.2131 -0.7679
 7711SOL     OW34768   2.388   3.538   6.487 -0.0940  0.5263 -0.3018
 7711SOL    HW134769   2.401   3.486   6.407  0.0872  1.7224 -1.0534
 7711SOL    HW234770   2.394   3.629   6.456  2.0868 -0.1864 -1.9914
 7712SOL     OW34771   0.277   0.711   6.108  0.1445  0.4436  0.1575
 7712SOL    HW134772   0.301   0.803   6.116 -0.9713  0.5710  2.0722
 7712SOL    HW234773   0.236   0.712   6.021 -0.0497 -0.7662  0.2330
 7713SOL     OW34774   4.569   0.896  11.540 -0.1210  0.8753  0.1753
 7713SOL    HW134775   4.602   0.903  11.629 -2.0681  2.8314  0.7370
 7713SOL    HW234776   4.475   0.894  11.557 -0.6735  0.3523 -2.9453
 7714SOL     OW34777   0.137   2.347   4.523  0.0535 -0.3461 -0.0781
 7714SOL    HW134778   0.212   2.390   4.481 -0.3706 -0.1728 -0.6647
 7714SOL    HW234779   0.112   2.277   4.463 -0.5139 -0.0742 -0.1597
 7715SOL     OW34780   4.166   3.097   3.354  0.3008 -0.1207 -0.0877
 7715SOL    HW134781   4.245   3.142   3.385  0.2762  0.2110 -0.4999
 7715SOL    HW234782   4.125   3.172   3.310 -0.5671 -2.3406 -3.0159
 7716SOL     OW34783   2.262   0.906   2.052 -0.7718  0.1790  0.0044
 7716SOL    HW134784   2.298   0.890   1.965 -1.3047  1.1944 -0.4017
 7716SOL    HW234785   2.191   0.969   2.039  0.3395  0.7707 -3.1834
 7717SOL     OW34786   1.819   2.827   9.395 -0.2198 -0.4021 -0.2620
 7717SOL    HW134787   1.911   2.848   9.376  0.3659 -1.3242  1.4937
 7717SOL    HW234788   1.808   2.881   9.474 -1.8803  0.4113 -1.0553
 7718SOL     OW34789   0.588   1.613   5.670 -0.3436  0.5473  0.2588
 7718SOL    HW134790   0.595   1.519   5.653 -1.0748  0.5479 -0.0598
 7718SOL    HW234791   0.634   1.632   5.751  2.2209  2.6190 -1.6880
 7719SOL     OW34792   0.529   3.723   4.939 -0.5647 -0.1903 -0.1444
 7719SOL    HW134793   0.459   3.703   5.001 -1.1373  0.9516 -0.4249
 7719SOL    HW234794   0.474   3.783   4.888 -2.6080 -1.1802  0.9055
 7720SOL     OW34795   2.871   4.135   5.020 -0.2766  0.0398 -0.0085
 7720SOL    HW134796   2.899   4.099   5.104  0.8225  0.3586 -0.2329
 7720SOL    HW234797   2.907   4.223   5.026 -0.0760  0.0623 -1.5384
 7721SOL     OW34798   4.221   2.372   6.611  0.2827 -0.1673  0.8661
 7721SOL    HW134799   4.194   2.331   6.529  1.8273  0.7820 -0.1397
 7721SOL    HW234800   4.208   2.304   6.676 -3.7652 -1.6490 -1.4970
 7722SOL     OW34801   0.132   0.023   8.637  0.5341  0.1687 -0.3256
 7722SOL    HW134802   0.125   0.047   8.545 -2.4183 -0.7331 -0.3364
 7722SOL    HW234803   0.208   4.700   8.633  1.1829  1.0931 -1.5583
 7723SOL     OW34804   3.561   3.387   0.471  0.1757 -0.1116  0.3844
 7723SOL    HW134805   3.576   3.299   0.505  0.8323 -0.6201 -1.1891
 7723SOL    HW234806   3.637   3.384   0.413  0.9221  2.0156  1.3073
 7724SOL     OW34807   2.058   0.095  11.698 -0.6850  0.2775 -0.1476
 7724SOL    HW134808   1.982   0.153  11.685  0.0533  1.7689  2.1074
 7724SOL    HW234809   2.019   0.013  11.728 -0.1023  0.2578  0.5470
 7725SOL     OW34810   1.048   1.818   3.756 -0.0959  0.3017 -0.3112
 7725SOL    HW134811   1.112   1.748   3.744  1.5463  1.1618  3.4433
 7725SOL    HW234812   1.077   1.883   3.691  0.1159 -1.2266 -1.7450
 7726SOL     OW34813   1.649   0.846   9.405  0.1627  0.2477  0.3916
 7726SOL    HW134814   1.723   0.903   9.426 -0.3364  1.4946 -1.2111
 7726SOL    HW234815   1.611   0.817   9.488  1.2464  1.4622  1.3013
 7727SOL     OW34816   3.721   2.600   7.590 -0.0151 -0.2831  0.3845
 7727SOL    HW134817   3.678   2.640   7.666 -0.0849 -1.0045  0.7163
 7727SOL    HW234818   3.695   2.508   7.595 -0.2313 -0.2510 -0.0673
 7728SOL     OW34819   2.978   0.333   7.482 -0.3411 -0.2184 -0.4055
 7728SOL    HW134820   2.902   0.300   7.531 -0.3822 -0.0890 -0.3800
 7728SOL    HW234821   3.004   0.246   7.453  3.1364  1.2522 -1.6063
 7729SOL     OW34822   2.534   3.409   1.730  0.1748  0.5338  0.2125
 7729SOL    HW134823   2.509   3.320   1.751 -0.2273  0.7081  0.4718
 7729SOL    HW234824   2.566   3.435   1.816  1.6622 -0.8663  0.0766
 7730SOL     OW34825   1.713   0.056   1.093 -0.3382 -0.1232  0.8112
 7730SOL    HW134826   1.727   0.015   1.179  1.5108 -0.1150  0.5092
 7730SOL    HW234827   1.803   0.071   1.064 -0.8783  0.8126 -0.3539
 7731SOL     OW34828   3.510   1.465   4.856  0.4260 -0.3847  1.0278
 7731SOL    HW134829   3.534   1.383   4.900 -1.0952 -0.9032  0.9008
 7731SOL    HW234830   3.540   1.441   4.768 -1.6958  0.0306  0.1866
 7732SOL     OW34831   3.696   3.760  10.560 -0.1209 -0.1354  0.1249
 7732SOL    HW134832   3.634   3.691  10.585 -3.5450  2.0940 -2.2730
 7732SOL    HW234833   3.642   3.818  10.507 -0.4928 -1.8260 -1.3579
 7733SOL     OW34834   3.260   0.363  10.632 -0.0991 -0.7551 -0.1920
 7733SOL    HW134835   3.336   0.407  10.594  1.2778 -0.1697  3.2377
 7733SOL    HW234836   3.193   0.373  10.565 -1.6395 -3.1323  0.9760
 7734SOL     OW34837   4.109   3.645   8.134 -0.0162  0.5396  0.0251
 7734SOL    HW134838   4.070   3.649   8.221 -1.1105 -0.2441 -0.4195
 7734SOL    HW234839   4.101   3.550   8.118 -1.5359  0.5066  0.9557
 7735SOL     OW34840   1.605   2.497  13.247  0.1104 -0.2138  0.3947
 7735SOL    HW134841   1.656   2.535  13.319  0.1690  1.8058 -0.7134
 7735SOL    HW234842   1.541   2.446  13.297  1.3753 -1.5713  0.6387
 7736SOL     OW34843   1.128   0.233  10.197  0.3057  0.1237 -0.7646
 7736SOL    HW134844   1.127   0.328  10.187  0.3614  0.1411 -0.5990
 7736SOL    HW234845   1.222   0.220  10.187  0.0513 -1.7908 -0.5376
 7737SOL     OW34846   0.529   4.116   3.382  0.2112  0.0366 -0.1398
 7737SOL    HW134847   0.447   4.129   3.430  0.9194  0.9698  0.8112
 7737SOL    HW234848   0.559   4.204   3.357  0.3866 -0.0699 -0.3117
 7738SOL     OW34849   3.968   1.700   1.294 -0.6019 -0.4140  0.5712
 7738SOL    HW134850   3.932   1.779   1.253  1.3998 -0.2244 -0.8478
 7738SOL    HW234851   4.033   1.678   1.228 -1.1215  0.9632 -0.4038
 7739SOL     OW34852   1.182   3.815   6.535  0.5187 -0.1125  0.7930
 7739SOL    HW134853   1.175   3.867   6.615  0.7412  0.4971  0.4234
 7739SOL    HW234854   1.129   3.872   6.478 -1.5297 -1.8222  0.9854
 7740SOL     OW34855   1.513   0.168   0.392  0.3171  0.7949 -0.4081
 7740SOL    HW134856   1.525   0.136   0.481 -0.3328 -0.5287 -0.7974
 7740SOL    HW234857   1.585   0.230   0.380  0.8051 -0.0861 -2.0785
 7741SOL     OW34858   4.663   1.687   9.353 -0.1320 -0.1474  0.2325
 7741SOL    HW134859   4.709   1.762   9.391 -0.4490  1.2057 -2.0821
 7741SOL    HW234860   4.623   1.657   9.434  2.0137 -0.3683  1.2278
 7742SOL     OW34861   2.402   4.518  17.496 -0.6645  0.2149  0.6078
 7742SOL    HW134862   2.482   4.567  17.515  0.3234 -1.4643  0.7981
 7742SOL    HW234863   2.412   4.505  17.402  0.1026 -0.7220  0.8173
 7743SOL     OW34864   0.492   1.868   1.679  0.5023  0.0092  0.3043
 7743SOL    HW134865   0.565   1.818   1.716  0.2905  0.0685  0.8029
 7743SOL    HW234866   0.488   1.835   1.589 -2.2251  1.8087 -0.2370
 7744SOL     OW34867   2.146   3.984   7.279 -0.0165 -0.2466  0.5626
 7744SOL    HW134868   2.237   3.953   7.286  1.0881  2.9817  0.6987
 7744SOL    HW234869   2.156   4.077   7.298 -0.4998 -0.4178  1.6736
 7745SOL     OW34870   0.199   3.090   7.249 -0.4156 -0.5982 -0.3472
 7745SOL    HW134871   0.244   3.022   7.198 -1.6235 -0.2788 -1.8531
 7745SOL    HW234872   0.272   3.123   7.301  0.6676 -0.2763 -2.0385
 7746SOL     OW34873   4.440   4.609   5.271  0.8005 -0.0976  0.0235
 7746SOL    HW134874   4.521   4.605   5.323  2.1992 -1.7768 -2.2543
 7746SOL    HW234875   4.440   4.514   5.256  0.1733 -0.3970  1.9527
 7747SOL     OW34876   1.046   0.852   4.562  0.2607 -0.5164 -0.3993
 7747SOL    HW134877   0.989   0.883   4.633  0.3611 -1.3001  0.0209
 7747SOL    HW234878   1.086   0.784   4.616 -0.1362  0.8183  1.6024
 7748SOL     OW34879   0.601   4.735  11.243 -0.3365 -0.1982 -0.2140
 7748SOL    HW134880   0.540   0.030  11.177 -0.1214  0.9707  0.1435
 7748SOL    HW234881   0.685   0.003  11.196 -0.5968 -0.6679 -0.7235
 7749SOL     OW34882   1.094   4.713   9.159 -0.1709  0.4317  0.1835
 7749SOL    HW134883   1.026   4.651   9.132  0.8185  0.4509 -2.2819
 7749SOL    HW234884   1.161   4.691   9.095 -1.6101  1.2763 -1.5948
 7750SOL     OW34885   0.242   1.135   4.958 -0.0958 -0.2835 -0.3094
 7750SOL    HW134886   0.223   1.050   4.999 -1.1782  0.9278  1.7204
 7750SOL    HW234887   0.162   1.160   4.913  0.6544  1.0705 -0.9076
 7751SOL     OW34888   3.273   0.203   3.714  0.0974 -0.0308 -0.0011
 7751SOL    HW134889   3.299   0.131   3.771 -1.3677 -1.5535 -1.2787
 7751SOL    HW234890   3.185   0.175   3.691  0.3325 -0.4343 -0.4011
 7752SOL     OW34891   0.287   2.787   3.674 -0.3738  0.3106  0.0549
 7752SOL    HW134892   0.284   2.777   3.769  0.7339 -0.5283  0.0036
 7752SOL    HW234893   0.241   2.870   3.660 -3.1656 -1.4791 -1.5025
 7753SOL     OW34894   2.416   0.227   4.987  0.4423  0.0983 -0.3472
 7753SOL    HW134895   2.434   0.316   4.959  1.0055 -0.2816 -1.1975
 7753SOL    HW234896   2.387   0.241   5.078  2.9250 -3.1939  0.9662
 7754SOL     OW34897   2.103   2.286   9.772 -0.3329 -0.2880  0.6530
 7754SOL    HW134898   2.139   2.345   9.838  1.0235 -0.8583  0.4379
 7754SOL    HW234899   2.144   2.312   9.689 -2.2255 -1.1964 -0.5799
 7755SOL     OW34900   0.125   2.875   7.691 -0.6854 -0.2092 -0.0950
 7755SOL    HW134901   0.157   2.884   7.781  0.5479  0.7059 -0.6239
 7755SOL    HW234902   0.064   2.950   7.691  0.3699  0.6454  0.8099
 7756SOL     OW34903   3.713   1.656   3.287  0.4604  0.6849 -0.0421
 7756SOL    HW134904   3.756   1.740   3.273 -0.2951  1.1137  0.2685
 7756SOL    HW234905   3.692   1.669   3.379 -0.6968 -1.2902 -0.0240
 7757SOL     OW34906   4.601   0.957   5.626  0.3632  0.9198  0.0791
 7757SOL    HW134907   4.618   0.899   5.552  0.5563 -1.0997  1.6886
 7757SOL    HW234908   4.657   0.914   5.691  1.3605  1.5909 -0.3260
 7758SOL     OW34909   3.371   3.379   3.665  0.8615  0.6251 -0.3117
 7758SOL    HW134910   3.380   3.380   3.570  0.5033  2.3930 -0.3175
 7758SOL    HW234911   3.317   3.300   3.661  2.9602 -0.8148 -0.5185
 7759SOL     OW34912   3.904   1.754  10.689 -0.0352 -0.2624 -0.3008
 7759SOL    HW134913   3.881   1.846  10.700  0.5694 -0.3267  1.3999
 7759SOL    HW234914   3.903   1.723  10.779 -0.1613  0.9488  0.1196
 7760SOL     OW34915   4.222   0.050  13.605  0.5768  0.1315 -0.0532
 7760SOL    HW134916   4.206   0.043  13.511 -1.7249  0.4773  0.2932
 7760SOL    HW234917   4.205   4.695  13.629 -0.7779  0.4108  0.0621
 7761SOL     OW34918   4.387   1.700   1.739  0.0291  0.6790 -0.0250
 7761SOL    HW134919   4.328   1.748   1.681  0.5536  0.3595 -0.8343
 7761SOL    HW234920   4.364   1.733   1.825 -0.4163  2.4257 -0.8231
 7762SOL     OW34921   3.980   0.913   9.583 -0.5214  0.1738  0.3244
 7762SOL    HW134922   3.912   0.958   9.533 -0.9057  0.0644  0.7537
 7762SOL    HW234923   4.061   0.949   9.547 -0.7185  0.7112  0.4083
 7763SOL     OW34924   1.959   2.878   6.078  0.1799  0.3523  0.4124
 7763SOL    HW134925   1.992   2.808   6.134 -1.5519  1.1176  2.3883
 7763SOL    HW234926   1.866   2.855   6.072 -0.5158  2.9389  1.2114
 7764SOL     OW34927   1.025   4.366   9.285  0.3930  0.5425  0.6983
 7764SOL    HW134928   1.035   4.400   9.196  1.8756 -0.5502  0.4594
 7764SOL    HW234929   1.046   4.273   9.280  1.4658  0.7332  1.9176
 7765SOL     OW34930   3.153   0.277   2.237 -0.8157  0.0468 -0.5691
 7765SOL    HW134931   3.144   0.193   2.284 -0.1205  0.6181  0.5879
 7765SOL    HW234932   3.076   0.324   2.269 -0.0957  0.5593  0.4277
 7766SOL     OW34933   4.519   2.162   1.956  0.1268 -0.2220  0.3102
 7766SOL    HW134934   4.582   2.183   2.024 -1.5202  1.2725  1.3864
 7766SOL    HW234935   4.435   2.160   2.002  0.8243 -2.3445  1.4650
 7767SOL     OW34936   2.050   0.839   9.178  0.3324  0.1800  0.0493
 7767SOL    HW134937   2.122   0.810   9.234  0.6141  0.3576 -0.2159
 7767SOL    HW234938   2.096   0.911   9.133  0.5058 -0.3128 -0.5550
 7768SOL     OW34939   4.458   0.142   9.342  0.4086  0.0530 -0.0216
 7768SOL    HW134940   4.364   0.159   9.350  0.0270 -0.5239 -3.1727
 7768SOL    HW234941   4.447   0.048   9.324  0.0307  0.0467  0.2443
 7769SOL     OW34942   1.260   3.854   9.736 -0.3938  0.1381 -0.5143
 7769SOL    HW134943   1.207   3.850   9.657  1.2594  0.8255 -1.6417
 7769SOL    HW234944   1.295   3.766   9.724  0.5239  0.7259 -2.0686
 7770SOL     OW34945   3.587   1.211  12.916 -0.6137 -0.6615 -0.2609
 7770SOL    HW134946   3.521   1.206  12.847  2.8368  0.9946 -3.7090
 7770SOL    HW234947   3.632   1.129  12.895  0.3335 -0.0379 -0.6578
 7771SOL     OW34948   1.308   2.903   7.456  0.2531 -0.0862 -0.0906
 7771SOL    HW134949   1.298   2.995   7.429  0.0874  0.3878  1.5707
 7771SOL    HW234950   1.307   2.856   7.373  1.1859 -0.5814  0.1794
 7772SOL     OW34951   2.034   3.215   1.723  0.0542  0.2625  0.1614
 7772SOL    HW134952   1.948   3.226   1.763  0.4688 -1.0915  1.4450
 7772SOL    HW234953   2.013   3.152   1.653 -3.0700  0.4147  0.9376
 7773SOL     OW34954   2.144   1.923  11.092 -0.1639 -0.2586  0.4475
 7773SOL    HW134955   2.190   1.889  11.015 -2.3258  0.1156 -1.0166
 7773SOL    HW234956   2.213   1.928  11.159  1.6236 -1.1536 -1.3227
 7774SOL     OW34957   2.288   2.648   4.439 -0.1940 -0.2953 -0.4969
 7774SOL    HW134958   2.298   2.555   4.420  0.8978  0.0640 -1.7236
 7774SOL    HW234959   2.255   2.679   4.354 -0.7393  0.9347  0.1608
 7775SOL     OW34960   4.153   4.542  13.623  0.1267  0.1114  0.2362
 7775SOL    HW134961   4.059   4.530  13.634  0.2876 -0.1888  1.3008
 7775SOL    HW234962   4.182   4.451  13.618 -1.0787 -0.2657  0.1092
 7776SOL     OW34963   0.051   4.049   4.685  0.5617 -0.3221  0.5412
 7776SOL    HW134964   0.072   3.971   4.736  1.6862 -0.1474  0.3521
 7776SOL    HW234965   0.047   4.123   4.744  0.5762  0.5819 -0.5920
 7777SOL     OW34966   2.809   1.584   4.249 -0.5405 -0.5561  0.4656
 7777SOL    HW134967   2.823   1.530   4.171 -2.9088 -0.8238  0.2104
 7777SOL    HW234968   2.821   1.517   4.316  3.0368 -0.2012  0.1585
 7778SOL     OW34969   1.712   0.227  12.972  0.7096 -0.0446 -0.2208
 7778SOL    HW134970   1.769   0.303  12.989  0.6643  0.0604 -0.5411
 7778SOL    HW234971   1.726   0.212  12.879  2.5024  0.3820 -0.0150
 7779SOL     OW34972   0.922   4.664  12.184  0.4543 -0.6656  0.1331
 7779SOL    HW134973   0.922   0.015  12.144  0.9259  0.2657  2.1654
 7779SOL    HW234974   0.996   4.669  12.244 -0.2271  0.6203  0.8539
 7780SOL     OW34975   1.821   0.846   7.259 -0.0195  0.7636 -0.2658
 7780SOL    HW134976   1.814   0.858   7.165 -0.2783 -2.9417 -0.7177
 7780SOL    HW234977   1.728   0.832   7.281 -0.0125 -0.1344 -0.7964
 7781SOL     OW34978   3.722   2.331   4.562 -0.2932  0.1054  0.2136
 7781SOL    HW134979   3.766   2.248   4.579 -1.0613 -0.5606 -1.0614
 7781SOL    HW234980   3.648   2.315   4.619  0.1580 -0.0662  0.7511
 7782SOL     OW34981   2.379   3.291   7.813 -0.0896  0.2689 -0.4162
 7782SOL    HW134982   2.388   3.253   7.900 -0.8942 -0.2356 -0.5477
 7782SOL    HW234983   2.286   3.272   7.798 -0.3928  1.0583  0.4451
 7783SOL     OW34984   4.603   0.506  14.798  0.0583  0.2117 -0.1910
 7783SOL    HW134985   4.565   0.420  14.777  0.3952  0.0882 -0.2988
 7783SOL    HW234986   4.607   0.542  14.709  3.1039  0.0561 -0.0966
 7784SOL     OW34987   1.089   4.508   2.582 -0.6331  0.4312 -0.1532
 7784SOL    HW134988   1.076   4.532   2.491 -0.4755  1.6430  0.1356
 7784SOL    HW234989   1.157   4.572   2.604 -0.7901  0.5859 -0.1181
 7785SOL     OW34990   4.587   1.388   4.273  0.4328  0.3823  0.2001
 7785SOL    HW134991   4.656   1.434   4.227 -0.2238  1.4491  0.2749
 7785SOL    HW234992   4.522   1.355   4.210  0.5723 -0.8913  0.7364
 7786SOL     OW34993   0.398   3.185   8.780 -0.1797  0.3594 -0.4654
 7786SOL    HW134994   0.337   3.136   8.835  1.3944  1.0711  1.9276
 7786SOL    HW234995   0.343   3.181   8.702  1.9297 -0.9839 -1.9105
 7787SOL     OW34996   2.427   3.617   7.788  0.7044  0.7495  0.2392
 7787SOL    HW134997   2.522   3.633   7.794  0.7951  0.4859 -0.5727
 7787SOL    HW234998   2.420   3.574   7.873 -0.3736  0.0023 -0.2374
 7788SOL     OW34999   1.228   2.124  10.006 -0.7777  0.3878  0.0653
 7788SOL    HW135000   1.259   2.036   9.985 -0.9917  0.1897  0.5844
 7788SOL    HW235001   1.157   2.109  10.067 -0.0518  2.8938  1.4945
 7789SOL     OW35002   0.721   2.274   2.863  0.3707 -0.2656  0.1047
 7789SOL    HW135003   0.676   2.354   2.834 -0.3183  0.5824  3.4604
 7789SOL    HW235004   0.813   2.302   2.857  0.5601 -1.0621 -0.6399
 7790SOL     OW35005   4.583   2.668   2.351  0.9350  0.2852  0.0535
 7790SOL    HW135006   4.595   2.574   2.345  1.8338  0.4827 -1.2132
 7790SOL    HW235007   4.501   2.673   2.301 -1.0201 -1.4393  3.1148
 7791SOL     OW35008   3.583   4.700   7.224  0.0915 -0.2233  0.1494
 7791SOL    HW135009   3.521   4.641   7.266  1.0156 -1.8221 -0.6893
 7791SOL    HW235010   3.524   0.020   7.175  0.1388 -1.5823 -1.4609
 7792SOL     OW35011   4.035   3.032   8.447 -0.2446  0.6247 -0.0229
 7792SOL    HW135012   3.968   2.964   8.453  0.2039 -0.0196 -2.6075
 7792SOL    HW235013   4.092   3.004   8.376 -2.5748  2.7579 -2.7513
 7793SOL     OW35014   2.981   2.278   4.967  0.2618 -0.0741 -0.1190
 7793SOL    HW135015   2.958   2.354   4.915 -1.9964 -0.3129  0.5122
 7793SOL    HW235016   3.047   2.235   4.912  2.1001  2.4019  0.1993
 7794SOL     OW35017   1.661   0.432   7.386 -0.5283  0.2957  0.2083
 7794SOL    HW135018   1.579   0.395   7.418 -0.5044  0.7433  0.8066
 7794SOL    HW235019   1.710   0.431   7.468 -0.5855 -0.8031  0.2239
 7795SOL     OW35020   0.736   1.004   7.242  0.0863  0.1303 -1.0942
 7795SOL    HW135021   0.727   0.969   7.153  1.0145 -3.7154  0.3092
 7795SOL    HW235022   0.789   0.934   7.279 -1.6569 -1.4034 -1.4520
 7796SOL     OW35023   3.363   0.422   4.941  0.7717 -0.0786  0.1977
 7796SOL    HW135024   3.284   0.385   4.901 -0.0071 -0.2617  1.9072
 7796SOL    HW235025   3.346   0.515   4.949  0.0227 -0.1430 -0.5764
 7797SOL     OW35026   4.561   3.390  13.595  0.1409  0.3753 -0.0005
 7797SOL    HW135027   4.635   3.449  13.582 -0.6883  1.4427  0.1363
 7797SOL    HW235028   4.501   3.439  13.539  0.0376 -0.6302 -0.7715
 7798SOL     OW35029   0.692   0.378   3.174  0.1208 -0.2483 -0.0942
 7798SOL    HW135030   0.741   0.311   3.126  3.2229  1.3633  0.8546
 7798SOL    HW235031   0.617   0.390   3.116 -0.3037  1.1436  0.7497
 7799SOL     OW35032   0.556   3.977  14.171 -0.1333  0.0753  0.3517
 7799SOL    HW135033   0.627   4.033  14.140  0.2004 -0.5007  0.0737
 7799SOL    HW235034   0.568   3.901  14.114 -0.5141 -0.6611  1.2468
 7800SOL     OW35035   1.107   3.354   7.052 -0.2022  0.2445  0.4680
 7800SOL    HW135036   1.097   3.267   7.013  1.2532  0.0828  0.4586
 7800SOL    HW235037   1.022   3.395   7.066 -0.1099  0.9189 -0.9277
 7801SOL     OW35038   2.458   3.786   4.352  0.7929  0.1791  0.6836
 7801SOL    HW135039   2.381   3.838   4.376  0.4823  0.1910 -0.3441
 7801SOL    HW235040   2.459   3.808   4.259  0.2843 -1.1252  0.3611
 7802SOL     OW35041   3.156   3.196   3.658 -0.2808  0.5887 -0.0755
 7802SOL    HW135042   3.145   3.116   3.709  0.5231 -0.3156 -1.3278
 7802SOL    HW235043   3.133   3.155   3.574 -1.6268  0.3130  0.4247
 7803SOL     OW35044   4.735   4.450   8.216  0.1249  0.3288  0.4197
 7803SOL    HW135045   0.082   4.496   8.232 -1.1002  2.9960 -0.7551
 7803SOL    HW235046   0.030   4.365   8.187 -1.7415  0.2643 -1.4148
 7804SOL     OW35047   4.356   0.735   5.584 -0.1769  0.1744  0.0798
 7804SOL    HW135048   4.445   0.769   5.588 -0.8237  1.5754  2.3692
 7804SOL    HW235049   4.327   0.739   5.493  0.2222  0.8278 -0.0172
 7805SOL     OW35050   2.606   1.424   7.140 -0.7506 -0.2302 -0.4923
 7805SOL    HW135051   2.546   1.440   7.213 -1.8055 -0.2953 -1.3632
 7805SOL    HW235052   2.565   1.470   7.068 -3.1275 -0.1809  0.8981
 7806SOL     OW35053   4.427   0.724   9.377  0.5239 -0.5894 -0.3147
 7806SOL    HW135054   4.443   0.711   9.470  3.9227 -0.5721 -0.8811
 7806SOL    HW235055   4.360   0.659   9.357  1.1734 -0.7848 -1.8531
 7807SOL     OW35056   1.307   1.071  11.514  0.0423 -0.9758  0.6999
 7807SOL    HW135057   1.326   0.982  11.545  0.0098 -1.5104 -0.8280
 7807SOL    HW235058   1.387   1.121  11.530 -1.6924  1.8007  0.5783
 7808SOL     OW35059   3.567   0.036   7.784 -0.1483 -0.0483  0.3660
 7808SOL    HW135060   3.568   0.127   7.813 -1.5462 -0.7975  2.6876
 7808SOL    HW235061   3.487   0.034   7.732 -0.6603 -0.1112  1.1659
 7809SOL     OW35062   2.855   3.990   3.791 -0.0519  0.3750  0.1918
 7809SOL    HW135063   2.850   3.895   3.793 -1.1512  0.3998 -1.2023
 7809SOL    HW235064   2.819   4.009   3.704 -1.4708 -0.0517  0.6952
 7810SOL     OW35065   2.481   4.608   5.551 -0.0576 -0.1933 -0.2625
 7810SOL    HW135066   2.515   4.522   5.526  0.8932  0.1318 -0.0814
 7810SOL    HW235067   2.392   4.575   5.563 -0.2687 -0.3073 -2.2124
 7811SOL     OW35068   3.419   2.865   9.455 -0.9218 -0.3621  0.3622
 7811SOL    HW135069   3.463   2.846   9.539 -0.9154  2.3362  0.9556
 7811SOL    HW235070   3.461   2.943   9.418  1.8719 -1.2195  1.6635
 7812SOL     OW35071   3.472   3.470   6.052  0.3191 -0.1026  0.1371
 7812SOL    HW135072   3.398   3.528   6.032  1.2946  0.2865 -2.3577
 7812SOL    HW235073   3.515   3.459   5.967  0.7038 -5.7243  1.0985
 7813SOL     OW35074   3.376   4.609   5.400 -0.1719 -0.2753  0.1227
 7813SOL    HW135075   3.400   4.700   5.383  2.1362 -0.7250  0.9020
 7813SOL    HW235076   3.281   4.609   5.401 -0.1790  1.9187  0.0415
 7814SOL     OW35077   1.126   3.701  10.275 -0.2970  0.3655 -0.4045
 7814SOL    HW135078   1.035   3.679  10.295 -0.4053  0.8583 -0.3478
 7814SOL    HW235079   1.113   3.791  10.244 -1.9648  0.0926 -0.5238
 7815SOL     OW35080   4.467   2.666  17.546  0.0336 -0.5254  0.6055
 7815SOL    HW135081   4.486   2.573  17.559 -1.4184 -1.0733 -1.3349
 7815SOL    HW235082   4.389   2.680  17.600  0.8669  0.9529  1.4236
 7816SOL     OW35083   0.215   2.883  17.494  0.5300  0.4233  0.2062
 7816SOL    HW135084   0.121   2.864  17.498  0.3472  1.4867  1.2452
 7816SOL    HW235085   0.212   2.968  17.539 -1.9497  0.0737  0.6840
 7817SOL     OW35086   3.214   1.571   3.020 -0.3033  0.5802  0.3773
 7817SOL    HW135087   3.195   1.506   2.953 -1.3068 -0.5448  1.7738
 7817SOL    HW235088   3.286   1.626   2.986  0.7161 -1.4907 -0.8182
 7818SOL     OW35089   1.453   1.730   5.633 -0.2031  0.2842  0.5797
 7818SOL    HW135090   1.387   1.672   5.670 -0.3333  0.3431  0.4382
 7818SOL    HW235091   1.487   1.671   5.566 -2.3024 -0.8723  0.5383
 7819SOL     OW35092   3.061   4.333   5.074 -0.2421 -0.1233 -0.0113
 7819SOL    HW135093   3.110   4.251   5.081  1.3642  0.7665 -0.9067
 7819SOL    HW235094   3.119   4.393   5.121  1.7550 -1.0360 -1.3049
 7820SOL     OW35095   2.451   3.365   0.736  0.4228  0.0532  0.2013
 7820SOL    HW135096   2.495   3.295   0.687  2.2015  0.1505  1.6612
 7820SOL    HW235097   2.515   3.383   0.806 -1.6628  2.0485  1.6049
 7821SOL     OW35098   2.706   4.298   4.817 -0.3810  0.1094  0.2842
 7821SOL    HW135099   2.734   4.277   4.906  1.2197  1.1014  0.0102
 7821SOL    HW235100   2.765   4.370   4.796  1.7196 -0.9173  2.6197
 7822SOL     OW35101   1.666   0.547   6.268 -0.3565  0.3471  0.2957
 7822SOL    HW135102   1.720   0.526   6.192 -0.9713 -0.9734  0.2196
 7822SOL    HW235103   1.736   0.588   6.319 -0.3741 -0.2989  0.8468
 7823SOL     OW35104   2.191   1.510  14.666 -0.0337 -0.0070  0.2186
 7823SOL    HW135105   2.102   1.476  14.665  0.0841 -0.3224  0.5641
 7823SOL    HW235106   2.240   1.431  14.646 -1.2841 -0.5945 -0.4811
 7824SOL     OW35107   3.132   2.723   6.972  0.5296  0.9454  0.0277
 7824SOL    HW135108   3.082   2.670   6.910 -0.2829 -0.6918  2.0901
 7824SOL    HW235109   3.161   2.790   6.910  2.3891  1.1865  1.1304
 7825SOL     OW35110   4.181   2.513   8.645 -0.2318 -1.1480 -0.5595
 7825SOL    HW135111   4.194   2.451   8.716 -0.0025  2.0642  2.1783
 7825SOL    HW235112   4.274   2.521   8.623 -0.5945  1.7933 -1.0253
 7826SOL     OW35113   3.967   1.415   8.770 -0.0934  0.1653 -0.2632
 7826SOL    HW135114   4.010   1.329   8.761 -0.3445 -0.1263  1.2800
 7826SOL    HW235115   3.921   1.408   8.854 -0.5312  2.9768 -0.2799
 7827SOL     OW35116   1.339   3.118   3.014  0.5333  1.0610  0.3783
 7827SOL    HW135117   1.412   3.056   3.007 -0.1593  0.1137  1.4985
 7827SOL    HW235118   1.279   3.085   2.948  1.7431  0.9189 -0.6470
 7828SOL     OW35119   1.140   0.085   1.935 -0.0987 -0.1046  0.0019
 7828SOL    HW135120   1.148   0.160   1.994  0.5757 -0.7430  0.7182
 7828SOL    HW235121   1.049   0.098   1.909 -0.7434 -2.2742  1.1823
 7829SOL     OW35122   4.428   0.341   7.789 -0.1915 -0.2967  0.0823
 7829SOL    HW135123   4.397   0.375   7.706  0.9275  0.4908 -0.0097
 7829SOL    HW235124   4.520   0.320   7.775  0.2498  2.0937 -0.6264
 7830SOL     OW35125   2.280   2.640   3.858 -0.0779  0.0464 -0.0606
 7830SOL    HW135126   2.355   2.687   3.822 -0.6646  1.1877  0.1960
 7830SOL    HW235127   2.319   2.571   3.911 -3.3225  0.9024  3.4667
 7831SOL     OW35128   4.617   1.446   1.913 -0.0978 -0.4876 -0.2554
 7831SOL    HW135129   4.688   1.505   1.939 -2.1666  0.4879  3.1035
 7831SOL    HW235130   4.622   1.455   1.818 -0.4804  2.1141 -0.0384
 7832SOL     OW35131   3.963   0.753  13.939  0.1206 -0.5000  0.3444
 7832SOL    HW135132   4.027   0.738  13.870  1.2260  0.1766  1.2212
 7832SOL    HW235133   3.883   0.781  13.895  0.8228 -0.8297 -1.1377
 7833SOL     OW35134   0.853   1.203   4.618  0.3021 -1.3944 -0.7687
 7833SOL    HW135135   0.776   1.258   4.603  0.4884 -0.8326  0.2810
 7833SOL    HW235136   0.867   1.187   4.525 -1.1944  0.1093 -1.2568
 7834SOL     OW35137   2.482   0.137   3.885 -0.1442 -0.4854 -0.1394
 7834SOL    HW135138   2.454   0.102   3.970 -1.3962 -0.0363 -0.3679
 7834SOL    HW235139   2.481   0.055   3.836  0.9872 -0.7683  0.3136
 7835SOL     OW35140   4.348   0.451   7.552  0.0565  0.6034 -0.2468
 7835SOL    HW135141   4.295   0.373   7.532 -1.5749  1.7115 -0.2964
 7835SOL    HW235142   4.293   0.514   7.505 -0.7214  2.1086  2.6801
 7836SOL     OW35143   3.763   2.672   6.123  0.2259 -0.3097  0.1384
 7836SOL    HW135144   3.734   2.630   6.042  1.4304  2.0301 -1.5027
 7836SOL    HW235145   3.849   2.702   6.094 -0.8801  1.8353 -0.8911
 7837SOL     OW35146   0.413   1.463   0.865  0.2276  0.3611 -0.1581
 7837SOL    HW135147   0.418   1.368   0.874 -2.0692  0.4368  1.7396
 7837SOL    HW235148   0.434   1.473   0.772  2.8807  2.2935  0.6225
 7838SOL     OW35149   2.325   2.004   1.969  0.3283 -0.9503  0.0355
 7838SOL    HW135150   2.361   1.933   1.916  1.2762 -0.1458 -0.4042
 7838SOL    HW235151   2.337   2.081   1.914  0.5562 -1.3643 -0.4915
 7839SOL     OW35152   3.970   1.306  14.597  0.2994  0.8413  0.6950
 7839SOL    HW135153   4.058   1.289  14.565 -0.3313 -0.2514 -0.4624
 7839SOL    HW235154   3.927   1.353  14.526 -0.4228  0.2646  0.7405
 7840SOL     OW35155   2.723   3.578  12.052  0.0663  0.0050 -0.0049
 7840SOL    HW135156   2.813   3.597  12.076  0.3835  2.4608 -3.1422
 7840SOL    HW235157   2.681   3.591  12.136 -0.2485  2.0867 -0.4868
 7841SOL     OW35158   3.648   0.256   8.761 -0.1247  0.0593  0.0718
 7841SOL    HW135159   3.583   0.186   8.771 -0.7877  0.8448  1.3085
 7841SOL    HW235160   3.665   0.243   8.668 -3.1527 -0.0776 -0.4567
 7842SOL     OW35161   1.337   2.675   9.219  0.4770  0.2361 -0.1341
 7842SOL    HW135162   1.402   2.620   9.176  0.3171 -1.1461  1.4234
 7842SOL    HW235163   1.250   2.665   9.181  0.6046  0.0818 -0.3827
 7843SOL     OW35164   0.260   2.815   8.873 -0.2637  0.8934  0.3010
 7843SOL    HW135165   0.213   2.898   8.881 -2.9682 -0.6697  0.7790
 7843SOL    HW235166   0.335   2.835   8.929  0.0102  3.9390 -1.1258
 7844SOL     OW35167   3.918   3.074   7.308 -0.1076  0.4665  0.2724
 7844SOL    HW135168   3.960   3.059   7.392 -1.0932 -0.7888  0.5366
 7844SOL    HW235169   3.846   3.135   7.327  0.7086  1.4556  0.1830
 7845SOL     OW35170   1.761   3.551   3.428  0.1116  0.1864 -0.1654
 7845SOL    HW135171   1.767   3.497   3.349  3.7218  0.4956 -0.1180
 7845SOL    HW235172   1.853   3.571   3.447 -0.3370  1.1899  0.9393
 7846SOL     OW35173   1.502   0.427   8.346 -0.0215 -0.5248  0.0249
 7846SOL    HW135174   1.561   0.466   8.410 -1.2032  0.6805  0.3747
 7846SOL    HW235175   1.496   0.497   8.281  2.1337  0.7695  1.2256
 7847SOL     OW35176   2.053   3.211   5.845  0.7515 -0.2375 -0.4850
 7847SOL    HW135177   1.991   3.267   5.893  1.4063  0.4908 -0.4854
 7847SOL    HW235178   2.114   3.281   5.820 -0.8948  1.2127 -0.4189
 7848SOL     OW35179   3.672   4.212  13.429  0.4200 -0.3544 -0.3400
 7848SOL    HW135180   3.592   4.247  13.390  0.6508  0.2563 -0.2622
 7848SOL    HW235181   3.748   4.229  13.373  0.0141 -1.3634 -1.1977
 7849SOL     OW35182   0.407   4.150   6.541  0.6951  0.0499 -0.5893
 7849SOL    HW135183   0.465   4.214   6.582  1.0853  0.6246 -2.0278
 7849SOL    HW235184   0.417   4.074   6.598 -1.1750 -0.3796 -0.8365
 7850SOL     OW35185   1.766   4.159   2.849  0.2600  0.0089 -0.5218
 7850SOL    HW135186   1.805   4.078   2.883 -1.8048 -1.4144 -1.5539
 7850SOL    HW235187   1.744   4.203   2.932  0.6502  0.6248 -0.7489
 7851SOL     OW35188   1.351   0.473  15.965  0.5864  0.1669  0.6835
 7851SOL    HW135189   1.430   0.494  15.915 -0.9590  0.9456 -1.4111
 7851SOL    HW235190   1.342   0.540  16.033 -1.1541  0.0505  0.5634
 7852SOL     OW35191   0.362   2.873   6.203  0.0544  0.4636 -0.8269
 7852SOL    HW135192   0.296   2.930   6.244  0.0918  0.2317 -0.4415
 7852SOL    HW235193   0.445   2.905   6.237 -1.0684 -0.6985  2.9816
 7853SOL     OW35194   3.957   1.833   9.467 -0.0049  0.2291  0.2012
 7853SOL    HW135195   3.979   1.754   9.418 -1.7081 -0.8398  1.1496
 7853SOL    HW235196   4.048   1.862   9.473 -0.0721  0.4540  0.1416
 7854SOL     OW35197   3.724   2.548   6.683 -0.0677 -0.4150  0.0795
 7854SOL    HW135198   3.776   2.561   6.762  1.9470  0.2566 -1.3493
 7854SOL    HW235199   3.784   2.518   6.614  0.0511  1.6299 -0.7142
 7855SOL     OW35200   3.323   0.818  12.861 -0.0745  0.0279  0.4462
 7855SOL    HW135201   3.247   0.760  12.854  0.0782 -0.1526  0.2812
 7855SOL    HW235202   3.395   0.755  12.870 -0.5431 -0.6158 -0.2413
 7856SOL     OW35203   4.070   2.804   8.128 -0.2222 -0.2999  0.2930
 7856SOL    HW135204   4.145   2.853   8.095 -0.1205 -0.8966 -0.3662
 7856SOL    HW235205   4.006   2.822   8.060 -1.0074 -0.1883  1.0715
 7857SOL     OW35206   1.130   0.317   4.885  0.3761 -0.4225  0.2375
 7857SOL    HW135207   1.086   0.307   4.970 -0.7532 -1.5181 -0.4761
 7857SOL    HW235208   1.178   0.397   4.905  0.9281 -0.6501 -0.1596
 7858SOL     OW35209   3.730   1.694  13.223  0.0250 -0.4184  0.0037
 7858SOL    HW135210   3.795   1.737  13.279 -0.2118  0.1235 -0.1343
 7858SOL    HW235211   3.654   1.749  13.245  1.9092  1.3013  2.2690
 7859SOL     OW35212   2.540   2.545   4.122  0.3292  0.3121  0.0726
 7859SOL    HW135213   2.606   2.475   4.124 -0.6836 -0.6407 -0.4236
 7859SOL    HW235214   2.469   2.494   4.085  2.1435 -1.0401 -1.5542
 7860SOL     OW35215   1.246   4.069   5.459  0.2910 -0.7640 -0.4639
 7860SOL    HW135216   1.255   3.989   5.407  1.6665  0.7173 -2.5085
 7860SOL    HW235217   1.175   4.108   5.409  3.3212  1.3847 -3.1034
 7861SOL     OW35218   0.232   3.934  11.547 -0.2555 -0.5069  0.4926
 7861SOL    HW135219   0.193   3.962  11.464 -1.0859  0.2395  1.1390
 7861SOL    HW235220   0.321   3.952  11.518 -0.7596 -1.9420 -1.9884
 7862SOL     OW35221   0.986   2.539   3.258 -0.1798 -0.7922  0.2098
 7862SOL    HW135222   0.915   2.570   3.202 -0.9467 -0.0493  1.6189
 7862SOL    HW235223   1.059   2.523   3.198  0.2325  0.4480  0.3896
 7863SOL     OW35224   3.967   2.189   0.707 -0.2017 -0.5423 -0.1334
 7863SOL    HW135225   3.984   2.168   0.798  0.5581 -1.1419 -0.4140
 7863SOL    HW235226   3.980   2.107   0.658  1.2621  0.6829 -1.8086
 7864SOL     OW35227   1.624   3.909   6.087  0.2370  0.2670 -0.4022
 7864SOL    HW135228   1.619   3.965   6.164  0.7091 -1.8434  1.1627
 7864SOL    HW235229   1.681   3.840   6.122 -2.4236 -1.4746  0.5067
 7865SOL     OW35230   2.767   4.305   6.038 -0.2484  0.5227 -0.2144
 7865SOL    HW135231   2.811   4.351   5.966 -1.7062  0.6177 -1.0476
 7865SOL    HW235232   2.835   4.276   6.098  1.2062  1.5085 -1.3820
 7866SOL     OW35233   1.127   0.312   2.084 -0.2489 -0.5523  0.1229
 7866SOL    HW135234   1.034   0.316   2.107 -0.5942  1.8134 -1.6332
 7866SOL    HW235235   1.132   0.401   2.048  1.6254 -1.1053 -0.9701
 7867SOL     OW35236   0.244   2.250  17.052  0.0712 -0.6479  0.4436
 7867SOL    HW135237   0.324   2.277  17.005  0.0817 -0.6137  0.4818
 7867SOL    HW235238   0.195   2.199  16.987 -0.5038  0.3590  0.0932
 7868SOL     OW35239   1.982   3.061   6.635  0.1447 -0.1368 -0.0380
 7868SOL    HW135240   1.990   2.971   6.667  1.6401 -0.0022 -0.0041
 7868SOL    HW235241   1.890   3.084   6.642 -0.1284 -1.0617 -0.5305
 7869SOL     OW35242   1.938   0.107  13.942 -0.4801  0.1888 -0.0570
 7869SOL    HW135243   2.021   0.105  13.989  0.0191 -1.0586 -0.9924
 7869SOL    HW235244   1.926   0.013  13.926 -1.2998  0.4090 -0.7112
 7870SOL     OW35245   4.218   0.195   3.938  0.1507 -0.0305  0.1952
 7870SOL    HW135246   4.215   0.149   4.022 -1.4852  0.4243  0.3786
 7870SOL    HW235247   4.170   0.132   3.884  0.8744 -1.2606  0.9797
 7871SOL     OW35248   4.559   1.078  13.261 -0.3057  0.0304  0.2081
 7871SOL    HW135249   4.642   1.124  13.264 -0.6117  0.4694  1.6981
 7871SOL    HW235250   4.537   1.102  13.170 -0.4448  0.4565  0.3538
 7872SOL     OW35251   3.576   1.084   1.959 -0.0519  0.3221  0.6871
 7872SOL    HW135252   3.528   1.040   2.029 -0.6544  1.7579  1.1827
 7872SOL    HW235253   3.636   1.013   1.939  0.1662  1.1528 -1.5380
 7873SOL     OW35254   2.909   3.556   3.202 -0.0818 -0.6192  0.1821
 7873SOL    HW135255   2.870   3.527   3.284  2.0387 -1.5606  0.8595
 7873SOL    HW235256   2.983   3.495   3.203  1.2775  0.9585 -3.2428
 7874SOL     OW35257   1.812   4.064   4.880  0.3125 -0.0443 -0.1214
 7874SOL    HW135258   1.733   4.079   4.828  0.5060 -0.7151 -0.6014
 7874SOL    HW235259   1.877   4.116   4.833  0.1356 -0.5642 -0.9299
 7875SOL     OW35260   3.837   3.186   4.458 -0.0929  0.0530 -0.0969
 7875SOL    HW135261   3.751   3.199   4.499 -0.3076 -1.6060  0.0112
 7875SOL    HW235262   3.816   3.109   4.404 -0.0877  1.0851 -1.5444
 7876SOL     OW35263   0.838   2.265   7.522 -0.3077 -0.3973  0.2193
 7876SOL    HW135264   0.867   2.343   7.474  0.8152 -1.4061 -0.7396
 7876SOL    HW235265   0.761   2.291   7.572 -0.9606  1.2866 -1.6149
 7877SOL     OW35266   3.733   0.395  12.963  0.1215 -0.1868  0.0665
 7877SOL    HW135267   3.647   0.354  12.957 -0.2858  0.5445  0.8747
 7877SOL    HW235268   3.776   0.342  12.896  2.1690  2.9951 -1.1449
 7878SOL     OW35269   2.395   0.989  10.795 -0.1641 -0.0203  0.3354
 7878SOL    HW135270   2.377   0.898  10.819 -2.1867  0.4961  0.7288
 7878SOL    HW235271   2.337   0.986  10.719 -0.1303  2.8840  0.1887
 7879SOL     OW35272   3.753   0.503   4.978 -0.6577  0.1401  0.2314
 7879SOL    HW135273   3.701   0.477   4.901  1.5961  2.5551 -2.1095
 7879SOL    HW235274   3.752   0.418   5.022  3.4855 -0.3518 -0.6617
 7880SOL     OW35275   3.116   4.489   1.990 -0.5567  0.0516 -0.2590
 7880SOL    HW135276   3.165   4.410   1.967 -0.3431 -0.0904  0.6704
 7880SOL    HW235277   3.085   4.465   2.077 -1.0750 -1.3338 -0.8242
 7881SOL     OW35278   4.575   1.551  10.482 -0.2670 -0.6025 -0.5797
 7881SOL    HW135279   4.590   1.476  10.539 -1.7343 -0.8612 -0.5324
 7881SOL    HW235280   4.601   1.627  10.534 -1.4639 -0.2656 -0.4753
 7882SOL     OW35281   4.468   4.660   6.881 -0.0565 -0.1655  0.2807
 7882SOL    HW135282   4.550   4.618   6.856 -1.1571 -1.3230 -1.4467
 7882SOL    HW235283   4.400   4.631   6.820  0.8774 -2.7533  0.4644
 7883SOL     OW35284   2.674   2.764   5.127 -0.1364  0.2562 -0.3019
 7883SOL    HW135285   2.607   2.738   5.064 -0.2540 -0.7586  0.2419
 7883SOL    HW235286   2.660   2.858   5.140  1.6364  0.1967  2.1247
 7884SOL     OW35287   0.193   2.543   6.394 -0.0679 -0.2541 -0.1765
 7884SOL    HW135288   0.218   2.455   6.366 -1.2478 -0.5579 -0.2846
 7884SOL    HW235289   0.282   2.566   6.420 -0.0932 -0.1230 -0.2063
 7885SOL     OW35290   0.091   1.407   0.323  0.0438  0.6356  0.3693
 7885SOL    HW135291   0.045   1.323   0.328  1.4296 -0.1216  0.3458
 7885SOL    HW235292   0.159   1.405   0.256  0.7129  0.6781  1.0458
 7886SOL     OW35293   0.763   2.195   9.324 -0.1504  0.6732 -0.2771
 7886SOL    HW135294   0.801   2.252   9.257  1.4472  1.5072  1.3622
 7886SOL    HW235295   0.845   2.163   9.361 -1.1153 -0.4597  0.8460
 7887SOL     OW35296   0.490   3.030   0.889  0.1826 -0.2276 -0.3468
 7887SOL    HW135297   0.407   3.054   0.929  0.2706  0.8045 -0.7790
 7887SOL    HW235298   0.551   3.025   0.963 -2.0023  0.4875  1.5280
 7888SOL     OW35299   1.454   0.928  16.675  0.1162  0.2404  0.2574
 7888SOL    HW135300   1.415   0.991  16.736 -2.2403  0.5116 -1.5195
 7888SOL    HW235301   1.538   0.970  16.662  0.1867  0.2366  0.7078
 7889SOL     OW35302   0.489   1.856   4.074  0.3357 -0.0330 -0.0653
 7889SOL    HW135303   0.569   1.902   4.047 -0.3696 -0.5442 -2.9907
 7889SOL    HW235304   0.461   1.817   3.991  0.0220 -0.5762  0.2967
 7890SOL     OW35305   1.606   0.270  17.417 -0.5881  0.1475  0.6791
 7890SOL    HW135306   1.547   0.199  17.443 -1.0171 -0.1617 -1.0957
 7890SOL    HW235307   1.552   0.349  17.410  2.1495  1.8674 -0.8011
 7891SOL     OW35308   4.731   3.628   9.497  0.8641  0.0751  0.3997
 7891SOL    HW135309   4.646   3.636   9.454  0.9981  0.7639  0.2553
 7891SOL    HW235310   0.002   3.534   9.512  2.6284  0.1010 -0.2501
 7892SOL     OW35311   3.055   1.547   8.714  0.4835 -0.5619 -0.6508
 7892SOL    HW135312   2.981   1.515   8.765 -0.9387  2.2827 -0.9349
 7892SOL    HW235313   3.097   1.469   8.678 -1.0028 -1.0049 -1.4210
 7893SOL     OW35314   2.530   1.769  17.062 -0.5570  0.0087  0.4823
 7893SOL    HW135315   2.567   1.775  16.973 -0.5575  1.3610  0.5752
 7893SOL    HW235316   2.489   1.683  17.051 -2.2322  0.8090  0.5589
 7894SOL     OW35317   1.761   1.010  11.940 -0.0074 -0.3656 -0.4821
 7894SOL    HW135318   1.682   1.064  11.946  0.9772  1.2713 -2.1265
 7894SOL    HW235319   1.751   0.969  12.026  0.4661  0.3963 -0.0599
 7895SOL     OW35320   4.479   4.573   6.461  0.0405  0.0172 -0.0064
 7895SOL    HW135321   4.414   4.600   6.396 -3.3743 -3.4403  2.0345
 7895SOL    HW235322   4.561   4.617   6.437 -0.7045  0.5190 -1.5960
 7896SOL     OW35323   3.840   3.481   2.411  0.5806  0.5133  0.3131
 7896SOL    HW135324   3.785   3.417   2.365 -0.0170  1.2218  0.0417
 7896SOL    HW235325   3.807   3.562   2.371  2.0964  1.2834  0.6203
 7897SOL     OW35326   1.266   0.729  10.151  0.0281 -0.0300  0.3669
 7897SOL    HW135327   1.186   0.748  10.200 -1.2697  0.5217 -1.9405
 7897SOL    HW235328   1.296   0.812  10.114 -1.5504  0.3350 -0.1071
 7898SOL     OW35329   3.913   4.458   6.308 -0.7578  0.4395  0.6054
 7898SOL    HW135330   3.902   4.551   6.325 -0.9731  0.2889  1.2963
 7898SOL    HW235331   3.999   4.435   6.344 -0.9375 -1.8606 -0.3885
 7899SOL     OW35332   0.657   3.869   3.612  0.7283  0.5752 -0.3903
 7899SOL    HW135333   0.701   3.786   3.593  0.2264  0.0677  0.6524
 7899SOL    HW235334   0.736   3.916   3.642  0.5822  0.2538  0.4975
 7900SOL     OW35335   0.148   0.672   3.110 -0.0034  0.2122 -0.3909
 7900SOL    HW135336   0.242   0.657   3.124  0.3630  1.9698 -0.8840
 7900SOL    HW235337   0.126   0.605   3.045 -0.1278 -0.1556  0.0338
 7901SOL     OW35338   4.152   2.248  11.640  0.1233  0.5429 -0.3057
 7901SOL    HW135339   4.067   2.244  11.595  0.1226  0.8031 -0.3259
 7901SOL    HW235340   4.211   2.213  11.574 -2.4295 -0.7571 -1.9161
 7902SOL     OW35341   3.320   4.709  16.034 -0.2663 -0.5084 -0.2206
 7902SOL    HW135342   3.272   0.046  16.073  0.2331  0.4933 -1.4734
 7902SOL    HW235343   3.278   4.705  15.948  2.0164 -0.0222 -1.3685
 7903SOL     OW35344   0.173   3.732  16.226 -0.1626  0.1412 -0.6352
 7903SOL    HW135345   0.126   3.751  16.144 -0.7085 -0.1848 -0.4017
 7903SOL    HW235346   0.098   3.692  16.270  2.1872 -1.9386  1.4668
 7904SOL     OW35347   0.152   2.261   5.268 -0.1734 -0.2030  0.7749
 7904SOL    HW135348   0.073   2.306   5.298  0.6426  2.5833 -1.2325
 7904SOL    HW235349   0.173   2.221   5.353 -0.8956 -0.1691  0.9668
 7905SOL     OW35350   1.117   3.258   9.402 -0.2586  0.1813  0.9569
 7905SOL    HW135351   1.115   3.272   9.308  0.0499 -2.8796  0.4985
 7905SOL    HW235352   1.025   3.242   9.423 -0.4725 -1.1230 -1.0338
 7906SOL     OW35353   1.921   1.566   6.930 -0.0812  0.6272 -0.2628
 7906SOL    HW135354   2.000   1.526   6.893  1.1456  2.2531  0.6090
 7906SOL    HW235355   1.954   1.594   7.015 -0.6646 -1.8450  0.7619
 7907SOL     OW35356   0.038   2.591   3.753 -0.2650 -0.2483  0.7082
 7907SOL    HW135357   4.716   2.602   3.678  0.1823  0.7382  0.5211
 7907SOL    HW235358   0.018   2.668   3.806  0.6579  0.4054  0.0970
 7908SOL     OW35359   3.456   0.306   6.271  0.4131 -0.0333  0.3634
 7908SOL    HW135360   3.488   0.232   6.219  1.1558  0.9122 -0.5383
 7908SOL    HW235361   3.471   0.379   6.211  0.3276 -0.2853  0.0314
 7909SOL     OW35362   0.293   2.322   1.577  0.2592 -0.0328  0.7149
 7909SOL    HW135363   0.229   2.382   1.614  0.5012  0.2602  0.6662
 7909SOL    HW235364   0.240   2.273   1.514 -0.8379 -0.5731  2.0847
 7910SOL     OW35365   3.137   3.097  11.361  0.1456  0.2957  0.4098
 7910SOL    HW135366   3.122   3.138  11.446 -1.0410 -1.4629  1.0524
 7910SOL    HW235367   3.054   3.051  11.349  1.6940 -2.2907 -0.4140
 7911SOL     OW35368   2.017   2.839   8.970 -0.8391 -0.2012 -0.5765
 7911SOL    HW135369   2.071   2.843   8.891  4.5998  0.1563  3.1632
 7911SOL    HW235370   1.956   2.768   8.949 -1.6871  0.6222 -0.8978
 7912SOL     OW35371   2.464   1.806   1.801  0.1564  0.0450 -0.0595
 7912SOL    HW135372   2.501   1.739   1.858  0.3082  1.6140  1.6428
 7912SOL    HW235373   2.456   1.755   1.720 -3.0650  0.6507 -0.1275
 7913SOL     OW35374   2.736   0.287   6.871 -0.2077 -0.0197 -0.6260
 7913SOL    HW135375   2.707   0.223   6.807 -4.3539  0.6423  0.6027
 7913SOL    HW235376   2.682   0.362   6.847 -0.3673 -0.3820 -1.3881
 7914SOL     OW35377   1.133   3.877   3.325  0.0434 -0.5756  0.6399
 7914SOL    HW135378   1.139   3.845   3.415 -1.9399 -0.7977  0.6927
 7914SOL    HW235379   1.039   3.868   3.305  0.3733  0.4166 -1.2989
 7915SOL     OW35380   4.711   0.589  17.690  0.5583  0.5979  0.1913
 7915SOL    HW135381   0.006   0.549  17.609 -0.2626  1.1587 -0.3965
 7915SOL    HW235382   4.695   0.516   0.008  0.5591  1.9524  1.8420
 7916SOL     OW35383   1.228   2.310   6.826  0.1422 -0.6330  0.1889
 7916SOL    HW135384   1.322   2.323   6.820  0.1282 -0.0117  1.2998
 7916SOL    HW235385   1.204   2.273   6.741 -2.6370  0.8556  0.3169
 7917SOL     OW35386   4.234   1.116   5.560 -0.2972 -0.6541 -0.4251
 7917SOL    HW135387   4.250   1.180   5.491 -1.3187 -0.7728 -0.7684
 7917SOL    HW235388   4.178   1.052   5.517 -0.8848 -1.0536  0.9214
 7918SOL     OW35389   4.310   1.080  14.597 -0.0610 -0.5377 -0.0430
 7918SOL    HW135390   4.268   1.162  14.572  1.6990  0.2411 -0.4716
 7918SOL    HW235391   4.238   1.032  14.638 -0.2214  0.5530  0.9543
 7919SOL     OW35392   0.603   2.956  10.577 -0.1680  0.0967  0.3507
 7919SOL    HW135393   0.540   2.972  10.647 -1.1420  0.6288 -0.6647
 7919SOL    HW235394   0.539   2.935  10.510 -0.6244  1.9953  0.1973
 7920SOL     OW35395   3.068   3.016  13.492  0.2352 -0.7729 -0.0872
 7920SOL    HW135396   3.063   3.009  13.397  2.5031 -0.7538 -0.2067
 7920SOL    HW235397   3.161   3.039  13.498  0.1808 -1.0820  2.0797
 7921SOL     OW35398   0.609   1.501   2.804  0.3097 -0.3973 -0.4300
 7921SOL    HW135399   0.645   1.585   2.834 -0.9114  0.0366 -0.1980
 7921SOL    HW235400   0.603   1.526   2.712 -0.8705 -1.2349 -0.5692
 7922SOL     OW35401   2.594   1.247   4.157  0.4249  0.0762  0.2020
 7922SOL    HW135402   2.668   1.298   4.125 -0.0495  0.5437 -0.1478
 7922SOL    HW235403   2.633   1.201   4.231  0.1526  2.1597  1.6619
 7923SOL     OW35404   3.076   4.141   8.328  0.3533 -0.2400  0.0292
 7923SOL    HW135405   3.003   4.092   8.290  0.0880  0.3045 -0.1742
 7923SOL    HW235406   3.128   4.076   8.375  0.8560 -0.3641 -0.6994
 7924SOL     OW35407   0.863   0.850   0.714 -0.0715  1.1450  0.2639
 7924SOL    HW135408   0.820   0.781   0.664 -1.3280  3.4723 -1.8347
 7924SOL    HW235409   0.917   0.885   0.643 -0.2212 -3.6145 -2.2052
 7925SOL     OW35410   3.896   3.518   3.186 -0.0110  0.1007  0.9289
 7925SOL    HW135411   3.919   3.499   3.095 -1.0245  3.1101  0.0300
 7925SOL    HW235412   3.808   3.550   3.165 -0.2201  1.0621  3.2270
 7926SOL     OW35413   4.632   2.553  10.274  0.2773 -0.0705 -0.9792
 7926SOL    HW135414   4.598   2.564  10.185 -4.1581 -2.3855  0.4157
 7926SOL    HW235415   4.581   2.475  10.298  1.7620 -0.2804  1.4658
 7927SOL     OW35416   4.385   3.444   4.086 -0.1660 -0.1070  0.1365
 7927SOL    HW135417   4.366   3.398   4.005 -1.6020  2.7564 -1.1354
 7927SOL    HW235418   4.297   3.477   4.103 -0.5088 -0.7346 -0.3835
 7928SOL     OW35419   2.923   0.650  16.621 -0.5983  0.3477 -0.6251
 7928SOL    HW135420   2.999   0.667  16.566 -2.0820  0.8179 -2.5281
 7928SOL    HW235421   2.965   0.601  16.692 -0.1108  2.2089  0.3658
 7929SOL     OW35422   0.734   0.636   1.929  0.2321 -0.0738  0.3792
 7929SOL    HW135423   0.690   0.693   1.866 -0.6026 -1.2383 -0.0770
 7929SOL    HW235424   0.824   0.667   1.920 -0.1318  0.2810 -2.0912
 7930SOL     OW35425   2.936   0.549   6.988  0.9329  0.9621 -0.1660
 7930SOL    HW135426   2.943   0.473   7.045 -2.3467  0.7638 -0.0425
 7930SOL    HW235427   2.917   0.507   6.904 -0.8944 -0.2915  0.8946
 7931SOL     OW35428   1.348   0.639   8.615  0.2410 -0.6105 -0.6905
 7931SOL    HW135429   1.253   0.624   8.616  0.4969 -2.0060  1.3088
 7931SOL    HW235430   1.384   0.568   8.561 -0.8742  0.4539 -2.8305
 7932SOL     OW35431   0.040   1.235   4.812 -0.0602 -0.3727  0.0703
 7932SOL    HW135432   4.682   1.232   4.831  0.0166  1.2594  0.6877
 7932SOL    HW235433   0.068   1.326   4.802 -0.2283 -0.2952  0.2946
 7933SOL     OW35434   3.672   3.805   8.671  0.3635  0.4079  0.1760
 7933SOL    HW135435   3.607   3.750   8.628  0.2281  1.2466 -0.7067
 7933SOL    HW235436   3.672   3.786   8.765 -1.7365 -0.1628  0.0409
 7934SOL     OW35437   4.481   3.282   2.752  0.0814  0.0331  0.1487
 7934SOL    HW135438   4.509   3.362   2.706 -0.3871 -0.4981 -1.0679
 7934SOL    HW235439   4.514   3.293   2.841  1.8983  0.6086 -0.6072
 7935SOL     OW35440   4.410   2.412  11.106 -0.2917 -0.0723  0.2675
 7935SOL    HW135441   4.451   2.340  11.058 -1.3668  1.0525 -2.3322
 7935SOL    HW235442   4.484   2.441  11.159  0.6307 -1.5672 -0.1903
 7936SOL     OW35443   1.275   1.143   2.855 -0.0128 -0.3651 -0.5272
 7936SOL    HW135444   1.207   1.112   2.795  0.6803  2.3316 -2.7261
 7936SOL    HW235445   1.348   1.093   2.818 -1.2366 -3.7037  1.6377
 7937SOL     OW35446   1.310   4.710   5.953 -0.1200  0.2425 -0.3393
 7937SOL    HW135447   1.247   0.022   5.899 -0.5985  1.3580  1.2132
 7937SOL    HW235448   1.308   4.626   5.908 -0.6313  0.2827 -0.3882
 7938SOL     OW35449   0.601   1.089   4.960 -0.1772  0.1921  0.3454
 7938SOL    HW135450   0.626   0.998   4.975  1.1604  0.0295 -2.7041
 7938SOL    HW235451   0.679   1.137   4.932 -0.3980 -0.6257 -1.7472
 7939SOL     OW35452   3.800   0.608   9.396  0.2047  0.2377  0.1688
 7939SOL    HW135453   3.794   0.605   9.300  1.8892  1.5471  0.0283
 7939SOL    HW235454   3.705   0.601   9.401  0.5351 -1.9355  3.3411
 7940SOL     OW35455   2.041   4.002  12.867  0.5012 -0.7769 -0.0553
 7940SOL    HW135456   2.122   3.987  12.916  0.8761 -0.6976 -0.6468
 7940SOL    HW235457   2.061   4.054  12.789  2.1513 -0.3473  0.6462
 7941SOL     OW35458   2.300   4.234   8.198 -0.4548  0.5732 -0.1109
 7941SOL    HW135459   2.229   4.296   8.214  1.7506  2.0797  3.9098
 7941SOL    HW235460   2.254   4.153   8.220  0.5941  0.3913  1.4444
 7942SOL     OW35461   1.441   2.147   9.252 -0.2442 -0.3546 -0.0571
 7942SOL    HW135462   1.474   2.117   9.337  1.6373  2.1659  0.0988
 7942SOL    HW235463   1.519   2.137   9.197  1.3448  0.3582  2.0539
 7943SOL     OW35464   1.578   1.334   4.578 -0.0865  0.0598  0.0476
 7943SOL    HW135465   1.516   1.365   4.511 -1.6884  1.4955  2.1797
 7943SOL    HW235466   1.654   1.323   4.521 -0.1051  0.4456 -0.0568
 7944SOL     OW35467   1.052   4.589   9.509 -0.3724 -0.1679  0.1315
 7944SOL    HW135468   1.117   4.655   9.485 -0.3989 -1.0184 -2.3004
 7944SOL    HW235469   1.039   4.527   9.437 -1.6543  0.2457  0.0010
 7945SOL     OW35470   3.751   2.950   8.920 -0.2504  0.3820 -0.5211
 7945SOL    HW135471   3.813   2.901   8.972 -1.5925 -1.3820 -0.5955
 7945SOL    HW235472   3.706   2.877   8.878  1.1768 -0.8275  0.0745
 7946SOL     OW35473   0.492   0.655   5.192 -0.6477 -0.6451  0.3560
 7946SOL    HW135474   0.562   0.671   5.256 -0.4886  1.3319 -0.3165
 7946SOL    HW235475   0.416   0.647   5.249 -0.9950  1.3316  0.1900
 7947SOL     OW35476   2.673   3.943   6.185  0.2852 -0.1566  0.0638
 7947SOL    HW135477   2.629   4.021   6.217 -1.0630 -1.5582  1.5721
 7947SOL    HW235478   2.765   3.964   6.205  0.3760  0.6079 -1.1357
 7948SOL     OW35479   3.137   3.880   9.111  0.6874 -0.2406 -0.3451
 7948SOL    HW135480   3.058   3.828   9.126  0.0327  1.1988  1.2356
 7948SOL    HW235481   3.139   3.889   9.016 -1.1188 -0.4368 -0.3979
 7949SOL     OW35482   3.091   3.031   2.030  0.1575  0.1196  0.6574
 7949SOL    HW135483   3.107   2.937   2.040  0.9885  0.2276  0.2882
 7949SOL    HW235484   3.074   3.032   1.936 -3.5888 -0.8500  1.2899
 7950SOL     OW35485   0.832   2.857   2.471  0.2828  0.0963  0.0086
 7950SOL    HW135486   0.771   2.842   2.399 -0.8452 -0.0633  0.9807
 7950SOL    HW235487   0.808   2.948   2.489  1.4224  0.5105 -0.6084
 7951SOL     OW35488   1.589   1.594  12.606  0.1560 -0.2302  0.0249
 7951SOL    HW135489   1.636   1.676  12.586  0.5360 -1.3443 -3.5902
 7951SOL    HW235490   1.579   1.604  12.701 -1.0632  0.2287 -0.1451
 7952SOL     OW35491   0.391   3.390   8.963 -0.6512 -0.1055  0.2637
 7952SOL    HW135492   0.396   3.349   8.877 -0.1343 -0.0122  0.2446
 7952SOL    HW235493   0.328   3.459   8.946 -0.2351  0.3361  0.5103
 7953SOL     OW35494   0.275   2.195   5.529  0.1332 -0.0359  0.1338
 7953SOL    HW135495   0.225   2.257   5.581 -2.6881 -0.8881 -1.5455
 7953SOL    HW235496   0.224   2.114   5.540 -0.7930  0.5693  0.2622
 7954SOL     OW35497   4.377   1.129   2.542  0.0853  0.1162 -0.1670
 7954SOL    HW135498   4.434   1.154   2.469  0.5568 -1.9208 -0.5040
 7954SOL    HW235499   4.348   1.215   2.572 -1.2865 -0.5233  0.3330
 7955SOL     OW35500   0.641   4.478   9.067  0.3750  0.3959  0.2620
 7955SOL    HW135501   0.667   4.421   9.139 -3.7399  0.1480  1.5222
 7955SOL    HW235502   0.556   4.514   9.091 -0.1308 -0.1777 -0.6834
 7956SOL     OW35503   1.895   1.290   6.756 -0.0688 -0.2675 -0.1231
 7956SOL    HW135504   1.923   1.225   6.820 -1.7477  1.0371  1.9272
 7956SOL    HW235505   1.800   1.282   6.754  0.0267 -1.9890  2.0348
 7957SOL     OW35506   2.048   2.018   3.971 -0.6243  0.3250  0.2088
 7957SOL    HW135507   2.067   2.111   3.962 -2.2422  0.7345  1.0521
 7957SOL    HW235508   2.133   1.988   4.004 -0.3416  0.9803  0.0798
 7958SOL     OW35509   3.294   2.800   5.190 -0.2462 -0.0545 -0.4857
 7958SOL    HW135510   3.232   2.792   5.117 -0.3176  2.2487 -0.7005
 7958SOL    HW235511   3.257   2.736   5.250  1.3585 -2.7806 -2.4047
 7959SOL     OW35512   2.161   1.738   6.684 -0.3555  0.4213 -0.4128
 7959SOL    HW135513   2.071   1.769   6.676 -0.5268 -0.3683 -1.5829
 7959SOL    HW235514   2.144   1.644   6.692  1.0760 -0.0643 -3.2141
 7960SOL     OW35515   1.345   2.209   1.700  0.3727  0.2873  0.5890
 7960SOL    HW135516   1.413   2.267   1.734  0.0097  1.5961 -0.8727
 7960SOL    HW235517   1.313   2.181   1.785 -0.1039 -0.1022  0.2808
 7961SOL     OW35518   2.196   0.040   7.130 -0.2780  0.2961 -0.2927
 7961SOL    HW135519   2.289   0.045   7.108 -0.0312 -0.1168  0.6616
 7961SOL    HW235520   2.163   0.104   7.067  1.0725  1.3812  0.0905
 7962SOL     OW35521   2.955   4.037   5.295 -0.3306  0.0463 -0.0509
 7962SOL    HW135522   2.965   3.942   5.303  2.3860  0.5679  2.5456
 7962SOL    HW235523   3.041   4.052   5.256  0.2094 -1.8555  0.3956
 7963SOL     OW35524   0.007   1.591   6.611 -0.2229 -0.7817  0.0332
 7963SOL    HW135525   4.661   1.598   6.562  0.8705  1.9546 -1.3966
 7963SOL    HW235526   0.061   1.533   6.557 -0.0644 -0.1891 -0.4453
 7964SOL     OW35527   0.366   0.476  17.665 -0.2558 -0.3282 -0.6373
 7964SOL    HW135528   0.309   0.399  17.658  1.7605 -1.8926 -0.1483
 7964SOL    HW235529   0.430   0.454  17.597  1.0107 -3.4787  1.5715
 7965SOL     OW35530   0.058   0.278   5.979 -0.6753  0.0727  0.1516
 7965SOL    HW135531   0.052   0.371   6.000  0.5628  0.2321 -0.1591
 7965SOL    HW235532   4.704   0.257   5.956 -0.5573 -1.4699  1.0957
 7966SOL     OW35533   4.425   3.223  11.635  0.5566 -0.5146  0.2900
 7966SOL    HW135534   4.408   3.191  11.724 -3.5881 -0.7109 -0.6135
 7966SOL    HW235535   4.354   3.287  11.631 -1.2059 -2.4937  0.2522
 7967SOL     OW35536   0.961   2.657   4.792  1.0294 -0.2161 -0.3216
 7967SOL    HW135537   1.000   2.691   4.712  2.5343  2.4739  1.5722
 7967SOL    HW235538   0.968   2.565   4.767  0.4408 -0.4942  0.5301
 7968SOL     OW35539   4.276   1.156   5.050 -0.0685  0.8261  0.0570
 7968SOL    HW135540   4.363   1.160   5.009 -0.9207  1.0873 -1.7274
 7968SOL    HW235541   4.217   1.183   4.980 -1.1927  0.5996  0.9219
 7969SOL     OW35542   4.547   1.210   5.008  0.1226 -0.2689  0.6090
 7969SOL    HW135543   4.598   1.159   5.072 -0.1062 -2.3735 -0.8813
 7969SOL    HW235544   4.494   1.265   5.065  2.0526  0.4857  1.6821
 7970SOL     OW35545   1.725   0.441   2.291  0.2280 -0.0592 -0.1573
 7970SOL    HW135546   1.675   0.486   2.223  1.1005 -2.7200 -2.5600
 7970SOL    HW235547   1.771   0.521   2.316  2.1660 -0.8924 -1.0251
 7971SOL     OW35548   3.755   3.145   6.084 -0.2182 -0.0183 -0.1269
 7971SOL    HW135549   3.793   3.098   6.010  0.3297 -2.0766  1.4656
 7971SOL    HW235550   3.675   3.095   6.100 -0.1344 -0.0178  0.2915
 7972SOL     OW35551   3.784   3.120   7.685  0.4692 -0.0207  0.0558
 7972SOL    HW135552   3.877   3.141   7.674  0.4893 -0.4883 -0.6310
 7972SOL    HW235553   3.738   3.204   7.685  0.1628 -0.1877 -0.4456
 7973SOL     OW35554   3.267   2.399   5.185  0.4349  0.0808  0.1832
 7973SOL    HW135555   3.178   2.409   5.152  0.1263  3.6772  2.1567
 7973SOL    HW235556   3.318   2.426   5.108 -0.4271 -0.2218 -0.4826
 7974SOL     OW35557   4.198   0.633   7.377  0.0760  0.0584  0.6196
 7974SOL    HW135558   4.169   0.603   7.291  0.3461 -0.0681  0.5718
 7974SOL    HW235559   4.163   0.721   7.386 -1.4348 -0.5999  1.1375
 7975SOL     OW35560   3.754   0.090   7.371 -0.0480 -0.0926 -0.0152
 7975SOL    HW135561   3.704   0.053   7.299 -1.1237  2.2047 -0.4597
 7975SOL    HW235562   3.735   0.018   7.432  0.9524 -0.5614 -0.2622
 7976SOL     OW35563   2.705   4.644   6.350 -0.1427  0.1331 -0.3781
 7976SOL    HW135564   2.690   4.695   6.270  1.4676  0.2130 -0.6377
 7976SOL    HW235565   2.719   4.722   6.405 -0.0892  1.0681 -1.7083
 7977SOL     OW35566   2.962   1.158   3.414 -0.1838  0.1431  0.0913
 7977SOL    HW135567   2.880   1.206   3.406 -1.1285 -1.3824  0.8114
 7977SOL    HW235568   2.980   1.170   3.321 -2.9822  3.8283  0.0418
 7978SOL     OW35569   3.246   2.121  12.693 -0.0016 -0.0260  0.0886
 7978SOL    HW135570   3.340   2.139  12.697 -0.5378  2.6265  0.9090
 7978SOL    HW235571   3.234   2.027  12.703  1.0794  0.0319  1.7752
 7979SOL     OW35572   0.300   1.280   3.212 -0.3386 -0.1361  0.6090
 7979SOL    HW135573   0.372   1.334   3.178 -2.1624  1.7758 -0.2060
 7979SOL    HW235574   0.255   1.347   3.263  0.6089  1.8573 -1.1256
 7980SOL     OW35575   4.367   3.100  15.048 -0.2540  1.1637 -0.4148
 7980SOL    HW135576   4.289   3.070  15.095 -0.2591  1.1755 -0.4155
 7980SOL    HW235577   4.352   3.049  14.969  1.5525 -0.4453  0.2972
 7981SOL     OW35578   1.501   1.440   1.957  0.3102  0.2991 -0.4989
 7981SOL    HW135579   1.436   1.376   1.930 -0.3239  0.4654  0.6425
 7981SOL    HW235580   1.544   1.397   2.031  2.2690  1.0859 -1.1691
 7982SOL     OW35581   2.162   4.048   5.066 -0.7146  0.3387  0.3363
 7982SOL    HW135582   2.163   4.032   5.161  0.8584 -1.2453  0.0429
 7982SOL    HW235583   2.210   4.131   5.063 -0.2016 -0.0019 -0.6650
 7983SOL     OW35584   4.026   2.962   4.295 -0.3847 -0.2860 -0.1682
 7983SOL    HW135585   4.060   2.960   4.206 -0.7215 -2.2888 -0.2399
 7983SOL    HW235586   4.077   3.028   4.343 -2.1439 -0.4241  1.8945
 7984SOL     OW35587   2.623   1.524  11.904  0.2281 -0.1225  0.4451
 7984SOL    HW135588   2.694   1.465  11.878  0.1870  0.1833 -0.3731
 7984SOL    HW235589   2.553   1.475  11.861  1.4148 -2.9846  1.7128
 7985SOL     OW35590   3.400   1.511   7.588 -0.2032  0.2158 -0.0672
 7985SOL    HW135591   3.348   1.502   7.508  3.0169  1.9261 -2.3436
 7985SOL    HW235592   3.335   1.536   7.654 -1.8249  2.0544 -2.4002
 7986SOL     OW35593   3.742   4.247   5.532  0.4214 -0.0519  0.0545
 7986SOL    HW135594   3.813   4.297   5.494  1.1230 -0.6739  0.5439
 7986SOL    HW235595   3.739   4.170   5.475 -1.2463  1.4640 -1.8692
 7987SOL     OW35596   3.249   0.509  15.523 -0.2190 -0.3682  0.0018
 7987SOL    HW135597   3.317   0.573  15.543  0.3445 -0.0835 -2.8224
 7987SOL    HW235598   3.277   0.437  15.580 -0.4105  0.8979  1.6871
 7988SOL     OW35599   4.320   2.377   2.417  0.3283 -0.0402  0.0716
 7988SOL    HW135600   4.401   2.393   2.367 -0.2149 -1.0473 -1.1239
 7988SOL    HW235601   4.292   2.300   2.367  1.0358 -0.7081  0.7011
 7989SOL     OW35602   2.034   1.631   5.544  0.2461  0.3196  0.3551
 7989SOL    HW135603   1.989   1.557   5.503 -0.2351  0.1073  1.2675
 7989SOL    HW235604   1.981   1.656   5.620 -0.6231  3.5365 -1.3459
 7990SOL     OW35605   3.109   1.597   3.341  0.5643  0.5968  0.3580
 7990SOL    HW135606   3.191   1.633   3.307  0.8785 -1.0966 -0.7304
 7990SOL    HW235607   3.084   1.537   3.270  1.1233  0.9291 -0.1164
 7991SOL     OW35608   2.225   0.990  14.113 -0.2357  0.4901 -0.4205
 7991SOL    HW135609   2.181   1.061  14.066 -1.5735 -0.0212  0.0363
 7991SOL    HW235610   2.171   0.913  14.097 -0.8851  0.6906  0.7669
 7992SOL     OW35611   1.588   0.553   4.193 -0.0465 -0.5278  0.1736
 7992SOL    HW135612   1.510   0.532   4.244  0.3143 -0.0740  0.9091
 7992SOL    HW235613   1.651   0.560   4.264 -1.3384  2.5790  1.0242
 7993SOL     OW35614   4.695   3.942   2.368 -0.2357  0.5557 -0.1148
 7993SOL    HW135615   4.695   4.033   2.398  2.5787  0.6918 -0.6023
 7993SOL    HW235616   0.048   3.926   2.399 -0.1995 -1.5526 -1.3115
 7994SOL     OW35617   0.915   2.900   5.916  0.3055  0.4337 -0.2421
 7994SOL    HW135618   0.856   2.963   5.874 -1.0607 -0.4717  0.3102
 7994SOL    HW235619   0.853   2.869   5.982 -1.2855 -2.1829 -2.9301
 7995SOL     OW35620   4.626   2.991   8.227 -0.7077  0.3356 -0.3461
 7995SOL    HW135621   4.714   3.011   8.195  0.2679 -2.0635  0.8657
 7995SOL    HW235622   4.613   3.071   8.277  3.7821  1.8679 -1.6180
 7996SOL     OW35623   0.816   3.271   1.596  0.3996 -0.1995 -0.5551
 7996SOL    HW135624   0.727   3.285   1.629  1.9489  1.6987  2.7657
 7996SOL    HW235625   0.869   3.336   1.642  0.8625 -0.2098 -1.0864
 7997SOL     OW35626   1.392   1.207   3.721  0.3057  0.1590  0.2390
 7997SOL    HW135627   1.369   1.129   3.770  1.5657 -0.7377 -0.5815
 7997SOL    HW235628   1.311   1.222   3.672  1.3869  0.6849 -1.4249
 7998SOL     OW35629   4.301   1.333   9.250 -0.7373 -0.0947 -0.8946
 7998SOL    HW135630   4.276   1.409   9.196  0.7814 -0.3214 -1.9136
 7998SOL    HW235631   4.215   1.291   9.245 -1.7780  1.8066  0.9641
 7999SOL     OW35632   2.160   3.655   5.256 -0.2937  0.2820 -0.4060
 7999SOL    HW135633   2.195   3.744   5.266  0.9540 -0.4198  1.5103
 7999SOL    HW235634   2.237   3.613   5.218 -0.4690 -0.6247  0.2513
 8000SOL     OW35635   3.106   2.804   3.423 -0.0761 -0.4023 -0.0771
 8000SOL    HW135636   3.110   2.748   3.346  0.5094 -1.8198  0.9601
 8000SOL    HW235637   3.024   2.776   3.464  0.4233  0.1773  1.3371
 8001SOL     OW35638   4.122   4.647   3.312 -0.4680 -0.0288  0.5656
 8001SOL    HW135639   4.102   4.686   3.227 -0.7319  0.9769  1.0758
 8001SOL    HW235640   4.032   4.635   3.340 -0.3173 -1.6322  0.3215
 8002SOL     OW35641   4.093   0.565  12.911  0.5307  0.2986  0.1113
 8002SOL    HW135642   4.103   0.506  12.985 -1.0603 -0.6856 -0.4451
 8002SOL    HW235643   4.127   0.644  12.953  1.5146 -0.5477  0.8857
 8003SOL     OW35644   1.392   0.357   5.690  0.0479 -0.2367  0.0012
 8003SOL    HW135645   1.477   0.342   5.731  0.9353  0.4805 -1.5395
 8003SOL    HW235646   1.378   0.285   5.628  1.0606  1.6402 -2.3870
 8004SOL     OW35647   0.568   0.494   7.992  0.1001 -0.3634 -0.2003
 8004SOL    HW135648   0.603   0.583   7.997  0.8050 -0.3544 -4.8904
 8004SOL    HW235649   0.561   0.479   7.898 -0.5515 -0.7715 -0.0808
 8005SOL     OW35650   2.464   4.090   3.153  0.0644 -0.1876  0.4920
 8005SOL    HW135651   2.410   4.161   3.118  0.9959  0.1262 -0.3087
 8005SOL    HW235652   2.557   4.114   3.154 -0.0128  0.1092  0.3944
 8006SOL     OW35653   3.999   3.644  11.854  0.2065  0.0091 -0.5478
 8006SOL    HW135654   4.064   3.696  11.902 -0.2562 -0.1185  0.2229
 8006SOL    HW235655   4.041   3.651  11.768  0.3306  0.3903 -0.4544
 8007SOL     OW35656   1.916   0.789   4.058  0.2575  0.3861  0.2935
 8007SOL    HW135657   1.987   0.753   4.004 -1.1518 -1.0828 -0.5814
 8007SOL    HW235658   1.961   0.778   4.141  0.9805  1.7701  0.0805
 8008SOL     OW35659   0.413   3.364   7.626 -0.5261 -0.2281  0.3895
 8008SOL    HW135660   0.503   3.393   7.610 -0.5706 -0.5325 -0.4226
 8008SOL    HW235661   0.417   3.274   7.594  1.5444 -0.0613  0.2074
 8009SOL     OW35662   2.755   2.751   8.711  0.2452  0.5989  0.2522
 8009SOL    HW135663   2.756   2.840   8.746 -0.3744  0.4889  0.5576
 8009SOL    HW235664   2.711   2.765   8.627  0.7801  0.7902  0.0082
 8010SOL     OW35665   2.504   4.142  17.526  0.0529  0.5032 -0.3009
 8010SOL    HW135666   2.410   4.137  17.543  0.2209 -2.7269 -0.3840
 8010SOL    HW235667   2.537   4.052  17.518  0.4916  0.6529 -0.1873
 8011SOL     OW35668   1.852   0.230   4.973  0.2792 -0.9295  0.2466
 8011SOL    HW135669   1.874   0.259   4.885 -0.5436  0.2769  0.4400
 8011SOL    HW235670   1.761   0.207   4.956  0.8625 -2.6949 -0.5475
 8012SOL     OW35671   0.690   2.778  15.251  0.0191  0.1514  0.0974
 8012SOL    HW135672   0.678   2.870  15.229 -0.3677 -0.3158 -1.6910
 8012SOL    HW235673   0.667   2.790  15.343 -0.0873 -1.4453  0.2845
 8013SOL     OW35674   1.599   3.206   9.660 -0.3096 -0.1646 -0.4377
 8013SOL    HW135675   1.612   3.124   9.612 -0.6568 -0.8844  0.6963
 8013SOL    HW235676   1.512   3.224   9.626  0.0272 -0.3507 -1.4007
 8014SOL     OW35677   3.856   1.607   1.933  0.0397  0.1287 -0.8968
 8014SOL    HW135678   3.820   1.519   1.926 -0.3341  0.1090  1.4298
 8014SOL    HW235679   3.945   1.603   1.896 -0.5451  0.5614 -2.3386
 8015SOL     OW35680   4.406   3.362   2.487  0.5596  0.4868  0.4355
 8015SOL    HW135681   4.458   3.301   2.436 -2.1923 -0.0981 -1.6363
 8015SOL    HW235682   4.384   3.312   2.566 -1.5170  1.3880  0.4420
 8016SOL     OW35683   2.723   0.424   2.832  0.7688  0.1115 -0.4508
 8016SOL    HW135684   2.712   0.450   2.741  0.4243  0.2210 -0.3772
 8016SOL    HW235685   2.774   0.495   2.872  1.4479  0.0899 -1.2651
 8017SOL     OW35686   1.660   1.458  12.131  0.0076 -0.0892  0.5729
 8017SOL    HW135687   1.730   1.472  12.194 -0.2332 -0.1064  0.8424
 8017SOL    HW235688   1.620   1.543  12.113 -1.0131 -0.5354  0.6957
 8018SOL     OW35689   3.790   2.667   5.539 -0.5155  0.5433  0.0397
 8018SOL    HW135690   3.825   2.620   5.464 -2.3061  0.4467 -0.7342
 8018SOL    HW235691   3.862   2.720   5.573 -0.2769 -0.2719  0.7946
 8019SOL     OW35692   0.593   0.409   4.955  0.1122  0.6191 -0.3473
 8019SOL    HW135693   0.677   0.451   4.974  0.4651  1.1033 -2.9671
 8019SOL    HW235694   0.548   0.484   4.915 -0.8537  0.6756  0.8567
 8020SOL     OW35695   0.855   2.274   1.571  0.0201  0.0236  0.4952
 8020SOL    HW135696   0.760   2.276   1.567 -0.0115  0.9841  1.5705
 8020SOL    HW235697   0.881   2.183   1.563  0.8138  0.4624 -1.8968
 8021SOL     OW35698   3.268   2.471   6.372 -0.3160  0.1777 -0.0289
 8021SOL    HW135699   3.266   2.409   6.299 -0.9870  2.5274 -2.0169
 8021SOL    HW235700   3.341   2.433   6.420  1.4764  2.9243 -0.5650
 8022SOL     OW35701   0.299   1.261   0.511 -0.1643  0.3487 -0.0009
 8022SOL    HW135702   0.218   1.236   0.467 -1.8568  3.5815  1.1990
 8022SOL    HW235703   0.336   1.173   0.513 -0.4825  0.1785 -2.3822
 8023SOL     OW35704   0.529   2.732   2.600 -0.2116  0.3478  0.5997
 8023SOL    HW135705   0.551   2.710   2.691 -0.4210  2.4483  1.1703
 8023SOL    HW235706   0.595   2.687   2.548 -0.4011  0.7503  0.0182
 8024SOL     OW35707   1.448   4.668   8.622  0.3238  0.2137 -0.1345
 8024SOL    HW135708   1.460   4.617   8.702  1.7166 -1.3103 -1.3188
 8024SOL    HW235709   1.528   4.720   8.617  0.8603 -0.3842  2.0804
 8025SOL     OW35710   0.131   1.680   2.841 -0.7083  0.1621 -0.4924
 8025SOL    HW135711   0.059   1.715   2.789 -0.5307  2.5589  0.8948
 8025SOL    HW235712   0.088   1.621   2.903  0.4438  1.3572  1.4468
 8026SOL     OW35713   2.843   2.779   1.973  0.4049 -0.3335  0.0520
 8026SOL    HW135714   2.813   2.719   1.904  0.1942 -3.1004  2.5488
 8026SOL    HW235715   2.939   2.771   1.966  0.4252 -0.0088 -0.0087
 8027SOL     OW35716   0.217   2.567   4.083  0.8195  0.0900  0.0070
 8027SOL    HW135717   0.195   2.659   4.073 -1.0456 -0.3617 -0.1098
 8027SOL    HW235718   0.310   2.574   4.104  1.1857  1.6491 -2.1245
 8028SOL     OW35719   1.276   4.480  11.404  0.6058 -0.3561  0.7310
 8028SOL    HW135720   1.324   4.546  11.454 -1.1463  0.5332  1.2481
 8028SOL    HW235721   1.220   4.541  11.356  3.6597  1.1351 -0.9254
 8029SOL     OW35722   3.338   0.632   6.321 -0.1034 -0.2195 -0.0336
 8029SOL    HW135723   3.425   0.593   6.308 -0.5841 -0.6592 -1.9548
 8029SOL    HW235724   3.311   0.617   6.411 -2.2241 -3.4459 -1.1848
 8030SOL     OW35725   3.818   0.959  15.549  0.3397 -0.5957  0.0962
 8030SOL    HW135726   3.871   0.900  15.495  1.0251 -1.0843  1.2939
 8030SOL    HW235727   3.877   1.030  15.575  1.1704 -2.0978  2.3933
 8031SOL     OW35728   3.874   0.322   3.886  0.3715 -0.0495  0.2326
 8031SOL    HW135729   3.812   0.288   3.950 -1.5358  0.8099 -1.1779
 8031SOL    HW235730   3.903   0.248   3.832  0.5557  1.7281 -2.1482
 8032SOL     OW35731   4.279   1.281  13.444  0.1918 -1.0864  0.0518
 8032SOL    HW135732   4.303   1.361  13.490 -0.5572 -0.2423 -1.0465
 8032SOL    HW235733   4.285   1.305  13.352  1.9352  0.1441  0.4926
 8033SOL     OW35734   2.744   0.790   8.817 -0.2700 -0.6505  0.2352
 8033SOL    HW135735   2.661   0.827   8.846  0.5997  1.5446 -0.0655
 8033SOL    HW235736   2.792   0.868   8.787  1.0788 -1.1696  1.0535
 8034SOL     OW35737   3.296   0.924   7.401  0.1623  0.0156  0.2463
 8034SOL    HW135738   3.357   0.862   7.441 -0.0021 -0.0367  0.4173
 8034SOL    HW235739   3.348   1.004   7.414 -0.0076 -0.0001  1.0391
 8035SOL     OW35740   4.009   3.740  15.061 -0.1418  0.0172  0.2005
 8035SOL    HW135741   3.967   3.747  14.975 -2.6364  0.0392  1.4375
 8035SOL    HW235742   3.937   3.736  15.124  0.3858  0.2610  0.8133
 8036SOL     OW35743   0.983   2.657   8.602  0.6103  0.5742  0.5292
 8036SOL    HW135744   0.910   2.610   8.640 -1.5174  1.3057 -2.6492
 8036SOL    HW235745   0.986   2.735   8.658  0.0515  1.3644 -0.5329
 8037SOL     OW35746   0.911   0.233   2.785 -0.0678  1.0024 -0.3802
 8037SOL    HW135747   1.002   0.214   2.761  0.6414  0.9491  2.2675
 8037SOL    HW235748   0.908   0.328   2.777 -0.4807  0.9887 -0.3836
 8038SOL     OW35749   0.134   3.923   1.198  0.5579  0.5338 -0.2068
 8038SOL    HW135750   0.089   3.839   1.206  0.7207  0.4580 -0.0921
 8038SOL    HW235751   0.066   3.978   1.236 -0.3131 -0.4661 -0.3147
 8039SOL     OW35752   1.527   0.134  10.696  0.4998 -0.2754  0.3580
 8039SOL    HW135753   1.543   0.058  10.751  1.3153 -0.3105  0.0701
 8039SOL    HW235754   1.516   0.199  10.765 -1.3944 -0.8061  0.5541
 8040SOL     OW35755   2.800   4.730   8.286  0.5336  0.2198 -0.3230
 8040SOL    HW135756   2.729   4.697   8.342 -0.1410  1.6994 -0.3083
 8040SOL    HW235757   2.800   0.085   8.318  2.0176  0.4337 -0.9178
 8041SOL     OW35758   3.442   1.418   6.291  0.9516  0.0480  0.3240
 8041SOL    HW135759   3.461   1.508   6.265  2.7222 -0.3596  0.2141
 8041SOL    HW235760   3.355   1.429   6.329  0.5888  1.0280 -0.7736
 8042SOL     OW35761   3.561   1.980   6.379 -0.7431  0.2150  0.2798
 8042SOL    HW135762   3.486   1.921   6.385  0.1884 -0.8955  1.3275
 8042SOL    HW235763   3.590   1.978   6.470  0.2046 -0.4107 -0.0358
 8043SOL     OW35764   1.583   1.722  11.055 -0.0780  0.3918 -0.2169
 8043SOL    HW135765   1.583   1.638  11.010 -0.0553  0.2855 -0.0188
 8043SOL    HW235766   1.571   1.781  10.981  1.5172 -1.5470 -2.0039
 8044SOL     OW35767   3.550   2.681   3.538  0.3163  0.4581 -0.5691
 8044SOL    HW135768   3.580   2.622   3.607 -2.3132  0.6142  0.7061
 8044SOL    HW235769   3.611   2.645   3.474  0.4267  1.6041 -1.1000
 8045SOL     OW35770   0.494   4.476  17.494  0.2867 -0.2681  0.4288
 8045SOL    HW135771   0.535   4.552  17.453 -1.0771  1.4346  2.2254
 8045SOL    HW235772   0.449   4.442  17.417  2.5560  0.9823 -1.4499
 8046SOL     OW35773   3.324   2.097   3.765  0.2195 -0.0003 -0.1578
 8046SOL    HW135774   3.305   2.005   3.777  1.1157 -0.0702  0.7509
 8046SOL    HW235775   3.412   2.099   3.803  0.2475  1.3957 -0.2970
 8047SOL     OW35776   4.156   3.041   3.037 -0.3513 -0.0997  0.3068
 8047SOL    HW135777   4.142   3.110   3.102  0.4319  0.3044  0.0396
 8047SOL    HW235778   4.171   3.088   2.955  3.4562 -1.0823  0.4740
 8048SOL     OW35779   2.099   2.339   8.716  0.1702 -0.0104 -0.5560
 8048SOL    HW135780   2.028   2.299   8.666  0.2218  0.8042 -1.2834
 8048SOL    HW235781   2.067   2.323   8.804  1.3699 -1.4261 -0.3664
 8049SOL     OW35782   0.705   2.971   7.103 -0.0409 -0.0939 -0.4689
 8049SOL    HW135783   0.780   2.987   7.161 -0.1380  0.4994 -0.5015
 8049SOL    HW235784   0.733   2.903   7.042 -1.1507 -0.6213 -0.3798
 8050SOL     OW35785   4.551   0.819   4.170  0.6874 -0.1722  0.4169
 8050SOL    HW135786   4.541   0.887   4.104 -0.2009 -1.7098 -1.0226
 8050SOL    HW235787   4.484   0.755   4.145 -2.8026  3.4541  0.5347
 8051SOL     OW35788   1.311   2.782   7.227 -0.0254 -0.0944  0.3535
 8051SOL    HW135789   1.229   2.778   7.179 -0.7467 -0.0393  1.5727
 8051SOL    HW235790   1.381   2.776   7.162 -0.8476  0.2327 -0.5567
 8052SOL     OW35791   3.833   1.431  14.109  0.3326 -0.1366  0.1773
 8052SOL    HW135792   3.748   1.430  14.066  0.1447 -2.5286  0.6376
 8052SOL    HW235793   3.884   1.370  14.056  2.6515  1.1095  0.9500
 8053SOL     OW35794   3.670   3.953   2.754  0.5752  0.5068  0.2073
 8053SOL    HW135795   3.585   3.928   2.792  0.2618  0.0352 -0.8062
 8053SOL    HW235796   3.669   3.892   2.681  1.1808  0.8144 -0.0579
 8054SOL     OW35797   3.423   4.280   4.354 -0.3178  0.4985  0.4987
 8054SOL    HW135798   3.419   4.209   4.418  1.9937 -0.4002 -0.3781
 8054SOL    HW235799   3.451   4.229   4.278  0.8631  1.2470  0.4413
 8055SOL     OW35800   2.645   3.694  16.135 -0.4472  0.6242  0.3276
 8055SOL    HW135801   2.589   3.737  16.071 -0.2280 -1.1155 -1.0443
 8055SOL    HW235802   2.681   3.774  16.173  0.9181 -0.5718  1.5189
 8056SOL     OW35803   4.540   0.546  11.443  0.0035  0.3306 -0.3082
 8056SOL    HW135804   4.622   0.535  11.396  0.3072  1.3075 -0.0047
 8056SOL    HW235805   4.485   0.577  11.371  0.4287 -0.4789 -0.9738
 8057SOL     OW35806   1.955   1.572   4.186  0.7971 -0.0968  0.9326
 8057SOL    HW135807   1.996   1.595   4.103 -0.4565  0.2396  0.4133
 8057SOL    HW235808   2.021   1.515   4.227 -0.3239 -1.7865  0.3683
 8058SOL     OW35809   4.727   0.692  14.931  0.2496 -0.2815 -0.2457
 8058SOL    HW135810   0.047   0.651  14.997  0.0699  1.0668  0.7506
 8058SOL    HW235811   4.686   0.616  14.891  1.9063 -0.5793 -1.3813
 8059SOL     OW35812   2.910   2.283  16.360 -0.5272  0.1533  0.2799
 8059SOL    HW135813   2.986   2.317  16.314 -0.0728 -2.4551 -0.9195
 8059SOL    HW235814   2.940   2.320  16.443 -2.6532  1.0091  0.6550
 8060SOL     OW35815   4.381   0.598   7.873  0.3997 -0.0824 -0.1158
 8060SOL    HW135816   4.312   0.583   7.937  1.0641  0.5045  0.7511
 8060SOL    HW235817   4.406   0.508   7.855 -0.1724  0.1999 -2.3030
 8061SOL     OW35818   3.071   3.087   8.634 -0.1428  0.1023  0.2222
 8061SOL    HW135819   3.073   3.108   8.541  0.3358  0.0072  0.2087
 8061SOL    HW235820   3.093   2.994   8.625  3.3541  0.7348  2.2753
 8062SOL     OW35821   2.488   3.314   8.595 -0.1893 -0.4126  0.2267
 8062SOL    HW135822   2.433   3.312   8.673 -0.2768  1.1829  0.2168
 8062SOL    HW235823   2.427   3.297   8.523 -0.6518 -0.5327  0.6551
 8063SOL     OW35824   3.673   2.378   5.548 -0.3631 -0.0886 -0.5485
 8063SOL    HW135825   3.671   2.402   5.455  0.3443 -1.3883 -0.9003
 8063SOL    HW235826   3.763   2.347   5.552 -0.0623  0.8397 -0.2189
 8064SOL     OW35827   4.049   0.615   0.567 -0.1018  1.3005 -0.0279
 8064SOL    HW135828   4.143   0.606   0.550  0.0804  2.6468  0.2701
 8064SOL    HW235829   4.025   0.701   0.534 -0.4767  0.6738 -1.3569
 8065SOL     OW35830   4.487   3.256   8.040  0.2972 -1.0084 -0.1214
 8065SOL    HW135831   4.532   3.303   7.970 -0.7870  0.1839 -0.0331
 8065SOL    HW235832   4.535   3.294   8.114 -0.9515 -0.8328  0.6194
 8066SOL     OW35833   3.957   4.419   5.542  0.7168 -0.2246  0.6016
 8066SOL    HW135834   4.024   4.488   5.539  1.6183 -1.1738 -1.5972
 8066SOL    HW235835   3.956   4.394   5.634  0.3244 -0.1603  0.6127
 8067SOL     OW35836   0.161   1.861   1.028  0.3115 -0.0416 -0.0393
 8067SOL    HW135837   0.237   1.822   0.984  0.8136  0.1064  0.6961
 8067SOL    HW235838   0.116   1.869   0.944  1.1630 -0.4787 -0.5352
 8068SOL     OW35839   0.998   2.485   8.414 -0.5138  0.3019 -0.4381
 8068SOL    HW135840   0.992   2.553   8.482 -0.9556 -1.4233  1.2208
 8068SOL    HW235841   0.952   2.530   8.343 -0.5303 -0.1280 -0.6940
 8069SOL     OW35842   3.840   1.082   4.349  0.3758 -0.0368 -0.0004
 8069SOL    HW135843   3.850   1.152   4.413  0.3710  2.1689 -2.4338
 8069SOL    HW235844   3.911   1.100   4.287  1.9967 -0.4034  1.7254
 8070SOL     OW35845   0.573   2.986   4.089  0.4663 -0.0880  0.4961
 8070SOL    HW135846   0.655   3.005   4.134  0.6921  1.8582 -0.7545
 8070SOL    HW235847   0.549   3.071   4.053  0.9090 -0.1603  0.0144
 8071SOL     OW35848   4.507   2.436   0.079 -1.0521 -0.3085  0.3060
 8071SOL    HW135849   4.466   2.411  17.739  0.7132  0.5568 -0.8316
 8071SOL    HW235850   4.599   2.421   0.061 -1.6163  1.2696 -3.8443
 8072SOL     OW35851   0.218   4.509  17.567 -0.1047 -0.8519  0.3031
 8072SOL    HW135852   0.290   4.484  17.510  0.3136  1.0300  0.0180
 8072SOL    HW235853   0.248   4.461  17.644  2.1209 -1.4340 -0.9307
 8073SOL     OW35854   1.935   4.015   8.159 -0.1506 -0.1678 -0.3634
 8073SOL    HW135855   1.884   3.938   8.134 -1.3398  0.3841  0.4040
 8073SOL    HW235856   1.856   4.057   8.191 -0.5207  0.4274 -2.0619
 8074SOL     OW35857   3.791   2.599   9.478 -0.7051  0.6095  0.5845
 8074SOL    HW135858   3.812   2.565   9.564 -0.6298 -0.2186  0.2331
 8074SOL    HW235859   3.765   2.520   9.432  0.3370  0.2897  0.5356
 8075SOL     OW35860   2.161   4.196   0.168 -0.4140  0.3438  0.0513
 8075SOL    HW135861   2.157   4.219   0.261 -1.1320  0.3248  0.0241
 8075SOL    HW235862   2.233   4.254   0.142  0.8226  0.2503  3.2806
 8076SOL     OW35863   4.005   0.341   4.164  0.3089  0.1332  0.4683
 8076SOL    HW135864   4.002   0.374   4.074  0.2847 -0.7048  0.1576
 8076SOL    HW235865   4.098   0.361   4.176  0.0669  0.5018  1.7188
 8077SOL     OW35866   3.586   2.750  13.328  0.0659  0.2766 -0.1221
 8077SOL    HW135867   3.548   2.838  13.317 -0.7994 -0.3000 -1.7313
 8077SOL    HW235868   3.575   2.720  13.238  1.2459 -5.3738  1.6100
 8078SOL     OW35869   2.963   4.293  15.688 -0.7479  0.0652 -0.4354
 8078SOL    HW135870   2.936   4.237  15.761  0.1367  1.8231  1.2507
 8078SOL    HW235871   2.982   4.233  15.617  1.2413  0.0322  0.1182
 8079SOL     OW35872   0.174   0.122  13.143  0.0015  0.5871 -0.1265
 8079SOL    HW135873   0.130   0.072  13.073  0.5959  2.5447 -1.9070
 8079SOL    HW235874   0.134   0.209  13.133 -1.0905  0.2554  1.4055
 8080SOL     OW35875   3.854   4.524  17.611 -0.2904  0.3793  0.1078
 8080SOL    HW135876   3.778   4.486  17.656  0.1235  0.8827  1.2236
 8080SOL    HW235877   3.852   4.478  17.527  1.7746  2.9930 -1.3872
 8081SOL     OW35878   0.059   2.944   2.300 -0.6814  0.0250  0.0294
 8081SOL    HW135879   0.122   2.875   2.323 -1.0367  0.1199  1.2661
 8081SOL    HW235880   0.055   2.985   2.386  0.7610  0.5249 -0.1390
 8082SOL     OW35881   0.165   1.620   7.204 -0.3947  0.3920 -0.2359
 8082SOL    HW135882   0.154   1.642   7.296 -1.1823  1.8728 -0.6855
 8082SOL    HW235883   0.079   1.602   7.165 -1.2920  0.8304  1.5716
 8083SOL     OW35884   0.188   3.362  15.027 -0.2183 -0.4382 -0.4874
 8083SOL    HW135885   0.134   3.286  15.047  2.4218 -2.4172 -0.7649
 8083SOL    HW235886   0.123   3.430  15.012 -0.0729 -0.4345 -1.1162
 8084SOL     OW35887   3.385   3.234  16.097 -0.1070 -0.2940  0.4032
 8084SOL    HW135888   3.347   3.149  16.073 -0.1206 -0.1855  0.0425
 8084SOL    HW235889   3.403   3.210  16.188 -0.0237  0.5992  0.6194
 8085SOL     OW35890   0.337   2.116  16.639 -0.0464  0.6104  0.1892
 8085SOL    HW135891   0.284   2.136  16.716  0.5544  1.4754  0.3749
 8085SOL    HW235892   0.416   2.077  16.676 -0.6072 -0.3533  0.3564
 8086SOL     OW35893   4.219   3.643   1.169 -0.5566 -0.6089  0.3689
 8086SOL    HW135894   4.166   3.621   1.245  1.9022 -3.3541  1.2542
 8086SOL    HW235895   4.188   3.730   1.142 -2.1816 -0.7042  2.0123
 8087SOL     OW35896   1.635   4.130   5.086 -0.1124 -0.0538 -0.5444
 8087SOL    HW135897   1.576   4.054   5.093 -0.5849  0.3799  0.1986
 8087SOL    HW235898   1.700   4.085   5.033  1.3168  2.1346 -0.6163
 8088SOL     OW35899   3.421   3.683  11.161  0.2028  0.0952 -0.1902
 8088SOL    HW135900   3.509   3.644  11.164  0.3686  0.4859  0.0172
 8088SOL    HW235901   3.368   3.615  11.201  1.2337  0.3854  1.6546
 8089SOL     OW35902   3.128   4.049   4.318  0.8063  0.2019 -0.3792
 8089SOL    HW135903   3.193   3.981   4.301  0.1952 -0.9073  1.7939
 8089SOL    HW235904   3.126   4.103   4.238  0.7691  1.9889  0.8309
 8090SOL     OW35905   1.082   4.290  11.244  0.3607 -0.6556 -0.4330
 8090SOL    HW135906   1.011   4.342  11.205  0.5975 -1.3265 -1.7659
 8090SOL    HW235907   1.103   4.340  11.322  1.6448 -0.2815 -1.0266
 8091SOL     OW35908   3.454   4.645  13.243 -0.3139  0.4606  0.3190
 8091SOL    HW135909   3.407   4.726  13.265 -1.1302 -0.2340  1.1356
 8091SOL    HW235910   3.384   4.581  13.245 -0.6394  0.7437 -2.1694
 8092SOL     OW35911   0.109   2.566   8.942 -0.5551  0.3195  0.2731
 8092SOL    HW135912   0.087   2.552   8.850  1.6772  1.1788 -0.4014
 8092SOL    HW235913   0.151   2.652   8.940 -1.9400  0.9304 -3.3589
 8093SOL     OW35914   1.410   0.622  16.204  0.3500  0.2777  0.7880
 8093SOL    HW135915   1.446   0.692  16.258  2.3007 -0.7972  0.9037
 8093SOL    HW235916   1.350   0.585  16.268 -0.6406 -1.5733 -1.2117
 8094SOL     OW35917   0.585   0.434   6.538  0.2459 -0.4060 -0.1627
 8094SOL    HW135918   0.616   0.375   6.470 -0.0148 -0.1735 -0.4874
 8094SOL    HW235919   0.650   0.504   6.541  0.0364 -0.1998 -0.3262
 8095SOL     OW35920   0.290   3.886   2.778  0.7476  0.4860 -0.1559
 8095SOL    HW135921   0.324   3.847   2.858  2.7192 -0.4080 -1.4352
 8095SOL    HW235922   0.277   3.811   2.720  1.2313  0.1767  0.1356
 8096SOL     OW35923   2.469   2.143   8.606 -0.4290  0.4345  0.2297
 8096SOL    HW135924   2.559   2.123   8.633 -0.5874 -0.1959  0.2794
 8096SOL    HW235925   2.467   2.112   8.515 -2.4892  0.7401  0.1790
 8097SOL     OW35926   1.650   0.397   9.391 -0.4878 -0.8832  0.3499
 8097SOL    HW135927   1.574   0.398   9.448 -0.8450 -0.2262 -0.1422
 8097SOL    HW235928   1.712   0.396   9.464  0.6906 -1.1944 -0.6471
 8098SOL     OW35929   0.763   0.572   9.322  0.5321  0.2929 -0.6943
 8098SOL    HW135930   0.779   0.595   9.414 -0.2465  2.5780 -1.1290
 8098SOL    HW235931   0.668   0.588   9.320  0.3453 -0.5913  0.8935
 8099SOL     OW35932   4.532   4.192  14.060 -0.0788 -0.6688  0.2218
 8099SOL    HW135933   4.585   4.257  14.106 -0.1840 -1.0176  0.8468
 8099SOL    HW235934   4.586   4.189  13.981  0.0696 -1.3778  0.3454
 8100SOL     OW35935   1.738   0.679   8.052 -0.3639  0.5121  0.2917
 8100SOL    HW135936   1.776   0.678   8.140 -0.6391 -1.2628  0.3819
 8100SOL    HW235937   1.730   0.585   8.036 -0.7710  0.9572 -2.1173
 8101SOL     OW35938   1.993   0.189   5.946 -0.2640  0.1482  0.1333
 8101SOL    HW135939   2.089   0.188   5.948 -0.2606  0.6461  0.1912
 8101SOL    HW235940   1.973   0.137   5.868 -2.0454  1.5978 -0.3786
 8102SOL     OW35941   0.321   3.183   6.581 -0.5015 -0.2526 -0.2335
 8102SOL    HW135942   0.286   3.114   6.638 -1.7629  1.3435  0.9138
 8102SOL    HW235943   0.292   3.271   6.603 -2.4893 -1.0118  0.1692
 8103SOL     OW35944   1.165   4.385   8.826 -0.3072  0.2648  0.2702
 8103SOL    HW135945   1.162   4.432   8.742  2.8822 -0.8013 -0.4555
 8103SOL    HW235946   1.197   4.297   8.808 -0.1167  0.6109 -1.1008
 8104SOL     OW35947   0.485   1.713   4.306 -0.3456 -0.2875 -0.3484
 8104SOL    HW135948   0.462   1.621   4.293  2.6457 -1.0442 -0.3973
 8104SOL    HW235949   0.478   1.748   4.217 -0.2290 -1.1462 -0.6944
 8105SOL     OW35950   0.072   1.989   7.429  0.0713 -0.0354 -0.3983
 8105SOL    HW135951   0.084   2.052   7.500 -1.7392 -0.2960  0.1429
 8105SOL    HW235952   0.145   2.024   7.377  0.5648  1.7865  1.5342
 8106SOL     OW35953   0.494   3.113  16.692 -0.2369  0.1431  0.5361
 8106SOL    HW135954   0.563   3.165  16.733  1.0417 -1.6109  0.5811
 8106SOL    HW235955   0.481   3.059  16.770  1.3738  0.2539  0.8762
 8107SOL     OW35956   3.737   0.647   9.786  0.1192  0.7238 -0.3330
 8107SOL    HW135957   3.706   0.591   9.857  2.3262  0.5316  0.4727
 8107SOL    HW235958   3.688   0.613   9.711  1.5867 -1.0021 -0.5107
 8108SOL     OW35959   0.883   2.163   4.806  0.0883  0.0367  0.1712
 8108SOL    HW135960   0.912   2.129   4.890 -0.8853 -0.3410  0.3562
 8108SOL    HW235961   0.797   2.195   4.832 -0.6596 -1.9981  0.2478
 8109SOL     OW35962   1.582   3.601   7.199  0.1544 -0.1217 -0.2311
 8109SOL    HW135963   1.551   3.513   7.179 -0.4559 -0.7770  3.7156
 8109SOL    HW235964   1.503   3.649   7.177  0.3012  0.6022  0.8531
 8110SOL     OW35965   4.112   2.462   6.979 -0.0156  0.3974 -0.1328
 8110SOL    HW135966   4.067   2.436   7.060 -0.8737 -0.4075 -0.8737
 8110SOL    HW235967   4.202   2.473   7.009 -1.1142  1.2226  2.9350
 8111SOL     OW35968   1.282   3.938   6.210  0.4117  0.0564 -0.3873
 8111SOL    HW135969   1.359   3.964   6.260 -0.1151 -1.6951  1.3330
 8111SOL    HW235970   1.323   3.887   6.140 -0.4293  1.1681 -1.6952
 8112SOL     OW35971   1.793   2.955   7.463 -0.7105 -0.2514  0.5085
 8112SOL    HW135972   1.812   2.862   7.448 -0.6246  0.0655 -1.2341
 8112SOL    HW235973   1.719   2.950   7.525 -0.2839  0.9671  1.1055
 8113SOL     OW35974   2.361   4.394   5.858 -0.1468  0.1930 -0.3906
 8113SOL    HW135975   2.418   4.466   5.885 -0.8559 -0.5182  2.9006
 8113SOL    HW235976   2.427   4.327   5.875 -0.2932 -0.1731 -1.2450
 8114SOL     OW35977   0.726   1.919   2.696 -0.1096 -0.4952 -0.0296
 8114SOL    HW135978   0.632   1.936   2.694 -0.0365 -0.0043  1.4659
 8114SOL    HW235979   0.731   1.844   2.755 -0.6608  0.9050  1.7715
 8115SOL     OW35980   1.956   2.717  13.527 -0.1006 -0.1475  0.0762
 8115SOL    HW135981   1.954   2.765  13.610 -2.9140  1.3308 -0.8663
 8115SOL    HW235982   1.979   2.789  13.469 -1.9367 -0.0804 -0.5782
 8116SOL     OW35983   4.094   0.930   3.309  0.6475  0.6486  0.1515
 8116SOL    HW135984   4.059   0.997   3.250  0.4055 -1.3485 -1.9896
 8116SOL    HW235985   4.115   0.859   3.249 -0.0294 -1.1648  2.0877
 8117SOL     OW35986   3.895   3.880   3.246 -0.2325  0.1365  0.1544
 8117SOL    HW135987   3.805   3.889   3.277 -0.9775 -1.4779 -1.5549
 8117SOL    HW235988   3.871   3.838   3.164  0.7739 -0.2791  0.0737
 8118SOL     OW35989   0.723   3.681   9.247 -0.4466  0.1583 -0.4273
 8118SOL    HW135990   0.634   3.657   9.274 -1.1534  1.0775 -1.9160
 8118SOL    HW235991   0.708   3.661   9.154 -0.2581 -0.6658 -0.2810
 8119SOL     OW35992   3.447   3.961  17.117 -0.0011 -0.0806 -0.1069
 8119SOL    HW135993   3.528   3.928  17.155  0.0900 -0.4608 -0.6390
 8119SOL    HW235994   3.391   3.889  17.147 -0.4592  0.6564  0.7939
 8120SOL     OW35995   0.590   2.658   3.929  0.2529  0.7363 -0.4956
 8120SOL    HW135996   0.508   2.705   3.917 -1.1613 -1.1190  1.6146
 8120SOL    HW235997   0.653   2.719   3.891  2.8337 -1.5802  0.0168
 8121SOL     OW35998   2.356   1.480   3.412 -0.3266  0.4708 -0.6311
 8121SOL    HW135999   2.297   1.411   3.443  1.0866 -0.9148 -1.0580
 8121SOL    HW236000   2.402   1.430   3.345 -1.4947 -1.4944  0.0108
 8122SOL     OW36001   0.355   1.397   4.016  0.4381 -0.3225  0.0119
 8122SOL    HW136002   0.289   1.350   3.965  0.5456 -0.6063  0.1328
 8122SOL    HW236003   0.428   1.394   3.955  0.9056  1.4690  0.4774
 8123SOL     OW36004   4.719   3.190   9.059 -0.0433 -0.0881  0.2533
 8123SOL    HW136005   0.069   3.217   9.091 -0.6868  2.2488  0.0361
 8123SOL    HW236006   4.688   3.276   9.028 -0.7562  0.7147  3.2350
 8124SOL     OW36007   2.006   0.514  11.405 -0.4836  0.4694 -0.6356
 8124SOL    HW136008   1.916   0.503  11.435 -1.4331  7.7275 -0.9185
 8124SOL    HW236009   1.994   0.502  11.310 -1.5042 -1.9514 -0.2145
 8125SOL     OW36010   0.564   0.238   5.634  0.0362  0.1063 -0.2747
 8125SOL    HW136011   0.652   0.258   5.666 -0.3671 -0.7452  1.3603
 8125SOL    HW236012   0.595   0.187   5.559 -0.5213  0.1672 -0.5404
 8126SOL     OW36013   3.849   0.992   8.683  0.0253  0.2491 -0.1391
 8126SOL    HW136014   3.813   0.907   8.708 -1.4225  0.0146 -3.0089
 8126SOL    HW236015   3.942   0.973   8.684 -0.0339 -0.0463 -0.1646
 8127SOL     OW36016   3.707   0.497  13.282  0.1774  0.1040  0.5299
 8127SOL    HW136017   3.670   0.578  13.316 -3.2833 -0.5684 -1.6303
 8127SOL    HW236018   3.629   0.442  13.278  0.2956  0.0125 -0.7262
 8128SOL     OW36019   1.591   2.364   1.801  0.4255  0.0864 -0.6104
 8128SOL    HW136020   1.609   2.431   1.735  1.5832  0.4335  0.0538
 8128SOL    HW236021   1.577   2.416   1.881 -0.9468  0.8817 -1.3523
 8129SOL     OW36022   3.602   1.866  16.952 -0.0577  0.0975 -0.3951
 8129SOL    HW136023   3.620   1.779  16.986 -0.9545 -0.5996 -1.7210
 8129SOL    HW236024   3.507   1.872  16.956 -0.0661 -1.1119  0.9993
 8130SOL     OW36025   2.406   1.618   3.143 -0.8145 -0.4661 -0.5087
 8130SOL    HW136026   2.328   1.626   3.197  0.0211  2.9059  0.2377
 8130SOL    HW236027   2.371   1.677   3.075  1.1367  2.1010  0.6831
 8131SOL     OW36028   4.611   2.251   6.566  0.6490  0.0369 -0.0384
 8131SOL    HW136029   4.625   2.247   6.472  0.2506 -3.2350  0.0209
 8131SOL    HW236030   4.537   2.191   6.571  0.1310  0.6071 -0.9162
 8132SOL     OW36031   2.026   2.737   2.666  0.0598  0.1312 -0.0192
 8132SOL    HW136032   1.960   2.674   2.634  1.8654 -0.4742 -2.6137
 8132SOL    HW236033   2.025   2.805   2.598  2.7440  0.3309  0.1686
 8133SOL     OW36034   0.265   0.213   3.990  0.3537 -0.2542 -0.2789
 8133SOL    HW136035   0.179   0.254   3.987  0.2058 -0.5007  0.3921
 8133SOL    HW236036   0.309   0.285   3.945  1.1993 -1.5602 -1.5295
 8134SOL     OW36037   1.535   1.828   2.486  0.5064 -0.1544  0.2406
 8134SOL    HW136038   1.600   1.861   2.423  1.7365 -1.8387  0.6142
 8134SOL    HW236039   1.533   1.885   2.562  1.0861  0.4894 -0.2256
 8135SOL     OW36040   4.652   2.379  11.258  0.2133  0.2087  0.1554
 8135SOL    HW136041   0.003   2.389  11.218  0.5247 -0.7112  0.5844
 8135SOL    HW236042   4.673   2.369  11.351  1.5207 -1.3309 -0.3015
 8136SOL     OW36043   3.137   3.388  16.068 -0.4395  0.1256 -0.1808
 8136SOL    HW136044   3.205   3.322  16.063 -2.1441 -1.5708 -0.8587
 8136SOL    HW236045   3.061   3.336  16.043  0.9913 -1.8014 -0.4649
 8137SOL     OW36046   1.937   0.750  11.571 -0.4645 -0.2240 -0.1517
 8137SOL    HW136047   1.892   0.825  11.531 -1.0284 -0.6203 -0.2601
 8137SOL    HW236048   1.934   0.773  11.664 -1.7430  0.8278 -0.4607
 8138SOL     OW36049   3.407   2.027   9.077 -0.2233 -0.5423  0.3994
 8138SOL    HW136050   3.468   2.068   9.016 -0.9812  1.5448  1.0564
 8138SOL    HW236051   3.460   1.952   9.104 -1.2131 -2.6036 -3.3530
 8139SOL     OW36052   4.300   0.263  13.304  0.2613 -0.2379  0.0989
 8139SOL    HW136053   4.299   0.327  13.374  0.1186 -0.4087  0.2534
 8139SOL    HW236054   4.236   0.194  13.324  0.6758 -0.0609  2.0181
 8140SOL     OW36055   1.083   4.274  13.831 -0.2643  0.1843  0.3493
 8140SOL    HW136056   1.011   4.316  13.784  1.2600  0.2612 -1.9533
 8140SOL    HW236057   1.153   4.318  13.783  0.2537  0.5676  1.4724
 8141SOL     OW36058   2.504   2.689   7.832 -0.1044 -0.1420  0.8951
 8141SOL    HW136059   2.422   2.658   7.794  1.6286 -0.8385 -2.3112
 8141SOL    HW236060   2.558   2.724   7.761 -0.6933 -4.1570 -1.5461
 8142SOL     OW36061   0.647   2.529   2.791 -0.1063 -0.1847  0.0390
 8142SOL    HW136062   0.738   2.558   2.799  0.4850 -2.0739  0.0752
 8142SOL    HW236063   0.603   2.582   2.858  2.3979 -0.2286  1.7017
 8143SOL     OW36064   1.736   1.969  10.747  0.4894  0.0125  0.0802
 8143SOL    HW136065   1.660   1.947  10.802 -1.0745  1.5100 -1.5137
 8143SOL    HW236066   1.803   1.985  10.813  1.9183 -2.1491 -0.8264
 8144SOL     OW36067   2.545   2.020  16.958  0.2445  0.2444 -0.3678
 8144SOL    HW136068   2.542   1.949  17.021 -2.6619  0.3231 -0.4164
 8144SOL    HW236069   2.511   2.095  17.006 -1.6144 -2.3012  2.2417
 8145SOL     OW36070   1.572   4.439  15.096  0.4144 -0.3322  0.1240
 8145SOL    HW136071   1.573   4.439  15.192  1.9755  1.9658  0.1060
 8145SOL    HW236072   1.664   4.454  15.076  0.1928 -0.5800 -1.0902
 8146SOL     OW36073   2.012   4.187   6.621 -0.1982  0.1366 -0.3561
 8146SOL    HW136074   1.970   4.200   6.537 -1.3015  0.6088  0.2629
 8146SOL    HW236075   2.087   4.133   6.598 -0.4866  0.5080 -2.1069
 8147SOL     OW36076   1.780   4.460   2.287 -0.2725  0.6782 -0.4233
 8147SOL    HW136077   1.851   4.476   2.225 -3.2831  0.4968 -3.9293
 8147SOL    HW236078   1.712   4.510   2.242 -0.9738 -0.1648 -0.3028
 8148SOL     OW36079   3.486   2.695  10.325  0.0551 -0.0893 -0.2516
 8148SOL    HW136080   3.406   2.643  10.317 -0.7166  1.4560 -2.6577
 8148SOL    HW236081   3.512   2.690  10.233  0.4567  1.0201 -0.2090
 8149SOL     OW36082   1.989   3.593   5.482  0.2548  0.1199  0.3438
 8149SOL    HW136083   2.038   3.624   5.406  0.3115  1.5634  0.9855
 8149SOL    HW236084   1.985   3.675   5.531  1.1897 -2.5403  4.9077
 8150SOL     OW36085   1.182   1.833   9.059 -0.2241  0.2726 -0.3805
 8150SOL    HW136086   1.238   1.786   8.997  1.0330 -0.6598  1.4737
 8150SOL    HW236087   1.206   1.777   9.133  1.3384  1.5616  0.0791
 8151SOL     OW36088   2.468   1.761   4.699 -0.3037 -0.7505 -0.3498
 8151SOL    HW136089   2.380   1.800   4.704 -0.4046 -0.4721 -4.4134
 8151SOL    HW236090   2.491   1.757   4.792 -0.3953  1.1741 -0.2318
 8152SOL     OW36091   2.388   2.496   5.140 -0.1682 -0.3382 -0.8499
 8152SOL    HW136092   2.385   2.554   5.215 -1.8304 -0.8101 -0.5389
 8152SOL    HW236093   2.309   2.523   5.092 -0.3021 -1.5799 -1.3423
 8153SOL     OW36094   2.442   2.418  13.816  0.2791 -0.4825  0.4368
 8153SOL    HW136095   2.407   2.452  13.733  0.5710  0.8525  0.8715
 8153SOL    HW236096   2.522   2.470  13.820  0.2133 -0.3569  0.1495
 8154SOL     OW36097   3.024   4.538   4.031  1.0438 -0.3908 -0.1721
 8154SOL    HW136098   2.934   4.558   4.006  0.1743 -1.0092  2.4487
 8154SOL    HW236099   3.058   4.505   3.948  2.3021  0.0097  0.1796
 8155SOL     OW36100   1.647   4.511   8.002 -0.6587  0.1651 -0.3281
 8155SOL    HW136101   1.568   4.461   7.983  0.0145 -0.2911 -1.8755
 8155SOL    HW236102   1.643   4.506   8.098 -1.6432  1.6470 -0.2945
 8156SOL     OW36103   1.093   2.602   6.126 -0.2490 -0.5280  0.1300
 8156SOL    HW136104   1.129   2.530   6.075  0.7463 -0.5767  0.8953
 8156SOL    HW236105   1.096   2.560   6.212 -3.0674  1.3234  1.1191
 8157SOL     OW36106   4.701   4.730   3.236 -0.2620 -0.0654 -0.0411
 8157SOL    HW136107   4.704   0.018   3.144  0.1559  0.2415  0.0500
 8157SOL    HW236108   4.667   4.641   3.243 -2.9410  0.9283 -0.6192
 8158SOL     OW36109   1.263   4.280   6.492  0.1847 -0.1634  0.2250
 8158SOL    HW136110   1.287   4.335   6.418 -1.2345 -0.5170 -0.4817
 8158SOL    HW236111   1.350   4.259   6.527 -0.5610 -2.8591  0.4729
 8159SOL     OW36112   3.329   3.037  14.815 -0.6199 -0.3116 -0.2502
 8159SOL    HW136113   3.355   3.079  14.896 -1.1708  0.2714 -0.3775
 8159SOL    HW236114   3.260   3.095  14.785 -1.1203 -1.3465 -1.1081
 8160SOL     OW36115   3.020   4.630   6.877  0.0800 -0.6096 -0.3748
 8160SOL    HW136116   3.067   4.707   6.846  0.0299 -0.6025 -0.4340
 8160SOL    HW236117   3.031   4.645   6.971  0.2116 -2.5006 -0.0869
 8161SOL     OW36118   2.685   2.373   3.419  0.2293 -0.3080 -0.1767
 8161SOL    HW136119   2.687   2.361   3.514 -0.1773  0.9773 -0.0068
 8161SOL    HW236120   2.599   2.415   3.414 -0.5550 -1.8168  0.7922
 8162SOL     OW36121   1.287   1.571   6.610  0.4520  0.2396 -0.0904
 8162SOL    HW136122   1.362   1.514   6.627  1.0619  1.2998  0.8427
 8162SOL    HW236123   1.225   1.506   6.578  0.0548  0.6114 -0.0793
 8163SOL     OW36124   3.896   4.702   5.900  0.2406 -0.1506 -0.0329
 8163SOL    HW136125   3.936   0.052   5.893 -2.1167  0.8955 -0.7615
 8163SOL    HW236126   3.806   4.723   5.876  0.7539  1.2377 -0.7410
 8164SOL     OW36127   4.654   2.775   4.205 -0.1963 -0.2476 -0.4134
 8164SOL    HW136128   0.005   2.812   4.221 -1.0076  1.7059 -0.5729
 8164SOL    HW236129   4.670   2.685   4.235  0.6991  0.1400  0.2654
 8165SOL     OW36130   0.661   4.030   4.695  0.2230  0.0877 -0.3976
 8165SOL    HW136131   0.721   4.084   4.644 -0.1172  1.3511  0.5450
 8165SOL    HW236132   0.720   3.959   4.718 -0.8744 -0.8812 -0.5996
 8166SOL     OW36133   2.032   1.578   3.112  0.1312  0.2970  0.4941
 8166SOL    HW136134   2.056   1.486   3.108 -1.4089 -0.0268 -1.1408
 8166SOL    HW236135   1.967   1.582   3.183 -1.0114  0.6781 -0.5625
 8167SOL     OW36136   3.201   2.368   7.168  0.2486 -0.1944  0.2139
 8167SOL    HW136137   3.290   2.405   7.167  0.0110  0.3046 -1.2718
 8167SOL    HW236138   3.182   2.378   7.075  0.6529  2.1845  0.3970
 8168SOL     OW36139   4.166   0.243   3.072  0.5732  0.0633 -0.4287
 8168SOL    HW136140   4.137   0.159   3.107  0.3404 -0.3171 -1.5386
 8168SOL    HW236141   4.148   0.246   2.978 -1.1588  1.9366 -0.0528
 8169SOL     OW36142   3.503   0.597   5.377  0.4221  0.3132  0.1026
 8169SOL    HW136143   3.492   0.677   5.429 -1.1467  0.0849  0.1268
 8169SOL    HW236144   3.537   0.637   5.297 -1.2284  0.1998 -0.6701
 8170SOL     OW36145   1.938   3.189  15.073 -0.6520 -0.7231 -0.0150
 8170SOL    HW136146   2.031   3.205  15.091  0.3146 -2.5571 -3.4702
 8170SOL    HW236147   1.907   3.274  15.106  3.2521  1.6812 -2.5136
 8171SOL     OW36148   4.222   1.338  14.466  0.1841  0.0759 -0.2926
 8171SOL    HW136149   4.308   1.375  14.445  0.2028 -0.6230 -1.4331
 8171SOL    HW236150   4.171   1.409  14.428 -0.9279 -1.3752 -1.4951
 8172SOL     OW36151   1.622   3.227   6.556  0.4137 -0.0912  0.1555
 8172SOL    HW136152   1.652   3.177   6.481  1.6537  1.0737 -0.1364
 8172SOL    HW236153   1.528   3.234   6.538  0.4651 -2.1857 -0.9016
 8173SOL     OW36154   1.219   2.004   5.327  0.2186  0.2581  0.3361
 8173SOL    HW136155   1.211   1.912   5.303 -0.0864  0.8195 -1.7848
 8173SOL    HW236156   1.175   2.009   5.411  0.7224 -1.3543  0.6920
 8174SOL     OW36157   1.003   4.483  11.050  0.4628  0.0944  0.5402
 8174SOL    HW136158   1.021   4.565  11.004 -2.1684 -0.6265 -1.7726
 8174SOL    HW236159   0.975   4.435  10.972 -0.2896  1.6404 -0.1457
 8175SOL     OW36160   0.511   2.128   5.058 -0.5916 -0.0139  0.4457
 8175SOL    HW136161   0.579   2.177   5.011 -0.0806 -1.2066 -0.0500
 8175SOL    HW236162   0.441   2.194   5.054  0.2980  0.8262 -1.6546
 8176SOL     OW36163   2.015   0.768   1.876 -0.2635 -0.2140 -0.5158
 8176SOL    HW136164   1.955   0.777   1.949 -0.0756  0.7265 -0.4730
 8176SOL    HW236165   2.074   0.839   1.902  0.2710 -0.2673 -1.5897
 8177SOL     OW36166   3.782   1.199   6.023 -0.0645  0.0567 -0.0814
 8177SOL    HW136167   3.723   1.123   6.022 -1.4353  1.1268 -0.4226
 8177SOL    HW236168   3.819   1.194   6.111  0.1595 -2.2353 -0.3136
 8178SOL     OW36169   4.514   2.952  11.592 -0.1204 -0.0374  0.6557
 8178SOL    HW136170   4.469   3.036  11.602 -1.4926 -0.4874 -1.6418
 8178SOL    HW236171   4.600   2.963  11.632  0.4916  1.5027 -1.0980
 8179SOL     OW36172   4.406   0.408   2.213 -0.5323 -0.6455 -0.2987
 8179SOL    HW136173   4.366   0.355   2.144 -1.9739  0.1962 -0.1048
 8179SOL    HW236174   4.497   0.411   2.182 -0.3227 -0.3943  0.3420
 8180SOL     OW36175   0.951   0.965   3.985  0.3310 -0.3200  0.0109
 8180SOL    HW136176   0.873   1.007   3.948  0.4678 -0.8509 -0.8972
 8180SOL    HW236177   0.934   0.977   4.078  1.4302  1.6816 -0.0421
 8181SOL     OW36178   0.360   2.023  15.224  0.4640 -0.3078  0.1771
 8181SOL    HW136179   0.370   2.099  15.166 -0.7638 -0.3439 -0.0897
 8181SOL    HW236180   0.361   1.952  15.160  2.5520  1.3446 -1.6213
 8182SOL     OW36181   3.068   4.397   2.285  0.2936 -0.2799  0.5173
 8182SOL    HW136182   3.066   4.367   2.376 -0.7173 -0.0909  0.5549
 8182SOL    HW236183   3.153   4.441   2.286 -0.9800  2.2202 -2.2424
 8183SOL     OW36184   3.492   3.663   6.384 -0.0173  0.2249 -0.2839
 8183SOL    HW136185   3.517   3.755   6.391  1.2828 -0.2039  0.7287
 8183SOL    HW236186   3.559   3.631   6.323 -1.5659 -2.7426 -0.4146
 8184SOL     OW36187   4.054   4.696   9.536 -0.6015 -0.1584 -0.2065
 8184SOL    HW136188   3.960   4.678   9.527 -0.4279 -0.2661 -1.7784
 8184SOL    HW236189   4.075   4.681   9.628  1.7678 -0.5031 -0.7983
 8185SOL     OW36190   2.943   3.562   5.516  0.3667 -0.1816  0.5089
 8185SOL    HW136191   2.864   3.539   5.467  0.5551  1.9884 -0.8157
 8185SOL    HW236192   2.897   3.612   5.584 -1.4515 -1.1270 -0.0201
 8186SOL     OW36193   4.324   0.943   7.929 -0.0248  0.3731  0.4389
 8186SOL    HW136194   4.408   0.929   7.886 -0.4091  0.8439 -0.4573
 8186SOL    HW236195   4.256   0.898   7.878  1.3126  1.2265 -2.0885
 8187SOL     OW36196   2.560   3.257   1.413  0.3295  0.1767 -0.6311
 8187SOL    HW136197   2.487   3.317   1.422 -0.4873 -1.0754  1.1950
 8187SOL    HW236198   2.609   3.272   1.494 -1.9989 -2.1020  1.2163
 8188SOL     OW36199   3.307   3.778  16.418 -0.4550 -0.2345 -0.1566
 8188SOL    HW136200   3.356   3.803  16.339  0.0189 -0.7792 -0.0331
 8188SOL    HW236201   3.246   3.710  16.391  0.6006 -1.8332  1.5143
 8189SOL     OW36202   1.531   4.231   6.671 -0.2181  0.0844  0.6340
 8189SOL    HW136203   1.610   4.283   6.659 -0.4786 -0.1226 -1.9607
 8189SOL    HW236204   1.553   4.144   6.637  0.5913  0.4418  0.2356
 8190SOL     OW36205   2.319   2.092   4.703 -0.2873 -0.5634 -0.2086
 8190SOL    HW136206   2.292   2.017   4.756  0.1198 -0.6751 -0.1540
 8190SOL    HW236207   2.270   2.080   4.622 -1.0888 -1.4500  0.4038
 8191SOL     OW36208   1.174   0.344   5.362 -0.1976 -0.4202 -0.1715
 8191SOL    HW136209   1.199   0.358   5.453  1.2402  0.6757 -0.7356
 8191SOL    HW236210   1.254   0.371   5.318 -0.7533  1.3578 -0.1127
 8192SOL     OW36211   0.857   3.867  13.768  0.1415  0.1799  0.0979
 8192SOL    HW136212   0.894   3.793  13.719 -1.6265  0.4546 -1.6593
 8192SOL    HW236213   0.848   3.911  13.683  0.0701  0.8222  0.4455
 8193SOL     OW36214   0.921   0.804  15.769 -0.6170 -0.1371 -0.2624
 8193SOL    HW136215   0.889   0.840  15.852 -2.6635  1.8729 -1.9215
 8193SOL    HW236216   0.956   0.878  15.720 -1.8229  0.6208  0.0180
 8194SOL     OW36217   4.470   1.411   8.233 -0.2178 -0.1826  0.0522
 8194SOL    HW136218   4.452   1.333   8.180 -1.2000  0.1086 -0.0452
 8194SOL    HW236219   4.381   1.434   8.259 -0.4116 -0.5156 -0.3065
 8195SOL     OW36220   1.534   3.212  10.871 -0.8390 -0.3758 -0.6372
 8195SOL    HW136221   1.551   3.218  10.777 -0.1719  1.0611 -0.4097
 8195SOL    HW236222   1.532   3.116  10.877  0.4826 -0.3723 -0.0665
 8196SOL     OW36223   4.270   2.826  11.836  0.0078 -0.4294  0.1159
 8196SOL    HW136224   4.308   2.770  11.903 -0.4467  0.4438  1.1135
 8196SOL    HW236225   4.249   2.778  11.756 -0.0331 -1.2221  0.6146
 8197SOL     OW36226   4.407   2.988   9.821  0.2353 -0.4112 -0.0202
 8197SOL    HW136227   4.378   2.942   9.900 -0.6210 -1.5663 -0.9912
 8197SOL    HW236228   4.474   3.045   9.860  1.4868 -2.8534  1.4315
 8198SOL     OW36229   3.606   3.136   9.567  0.4585 -0.2814 -0.5220
 8198SOL    HW136230   3.665   3.185   9.510  0.3803 -2.7409 -2.7308
 8198SOL    HW236231   3.521   3.146   9.524  0.2489 -0.6151 -0.1854
 8199SOL     OW36232   0.376   0.086   9.037  0.0137 -0.4387 -0.0281
 8199SOL    HW136233   0.423   0.147   9.095 -1.0394  0.4886 -0.1502
 8199SOL    HW236234   0.286   0.110   9.058  0.5828  0.5576  1.2690
 8200SOL     OW36235   0.367   1.700   3.883  0.1107  0.3251  0.4757
 8200SOL    HW136236   0.323   1.751   3.814 -0.5659 -0.9671 -0.0509
 8200SOL    HW236237   0.356   1.609   3.853  1.1402  0.3590 -0.0206
 8201SOL     OW36238   2.949   3.909   1.694  0.2598 -0.0875  0.1947
 8201SOL    HW136239   2.957   3.975   1.625 -0.7628 -0.7982 -0.6177
 8201SOL    HW236240   3.007   3.845   1.650  0.0327 -0.5552  0.5767
 8202SOL     OW36241   1.247   3.460   2.552 -0.2726 -0.4676  0.4778
 8202SOL    HW136242   1.326   3.512   2.569 -0.1898 -1.0825  1.9386
 8202SOL    HW236243   1.197   3.476   2.632 -2.7033  2.5208 -1.6337
 8203SOL     OW36244   3.967   2.823   9.024 -0.3470 -0.0020  0.9077
 8203SOL    HW136245   4.058   2.847   9.038 -0.1606  0.5610 -1.2667
 8203SOL    HW236246   3.975   2.728   9.031 -1.9287 -0.0593  2.0489
 8204SOL     OW36247   0.265   1.022   6.159 -0.0076  0.2208 -0.3964
 8204SOL    HW136248   0.185   1.065   6.186 -0.6007  0.0991 -1.9315
 8204SOL    HW236249   0.316   1.036   6.239  0.0370  0.8952 -0.5412
 8205SOL     OW36250   1.703   2.111  14.516  0.1605  0.1174  0.2323
 8205SOL    HW136251   1.785   2.149  14.486 -0.8848  2.1578  0.0049
 8205SOL    HW236252   1.705   2.116  14.612  1.1203 -1.7098  0.3308
 8206SOL     OW36253   4.527   1.963   6.067 -0.2956 -1.0260 -0.2562
 8206SOL    HW136254   4.502   2.044   6.111  0.7893  0.2660 -2.0136
 8206SOL    HW236255   4.620   1.958   6.087  0.2890 -0.2072 -2.7544
 8207SOL     OW36256   2.777   3.909   8.980 -0.7649  0.0617  0.1388
 8207SOL    HW136257   2.782   4.000   8.948  0.2802 -0.8753 -2.3368
 8207SOL    HW236258   2.800   3.918   9.073  0.7749 -0.6549 -0.1832
 8208SOL     OW36259   2.674   2.681   7.228 -0.0528 -0.1246 -0.2154
 8208SOL    HW136260   2.618   2.727   7.291 -2.1476 -2.1501 -0.6032
 8208SOL    HW236261   2.712   2.622   7.293 -1.0073  1.6279  1.9600
 8209SOL     OW36262   3.956   2.376   8.131  0.3582 -0.3412  0.1011
 8209SOL    HW136263   3.985   2.424   8.209 -1.7587  1.0771  0.0218
 8209SOL    HW236264   3.880   2.343   8.179 -0.8209  0.8467 -0.9551
 8210SOL     OW36265   1.292   3.886   2.368 -0.5087 -0.0426  0.5499
 8210SOL    HW136266   1.279   3.839   2.286  0.7325 -0.3633  0.5367
 8210SOL    HW236267   1.345   3.958   2.335 -0.9061  0.1165  0.2595
 8211SOL     OW36268   4.415   0.605   4.075  0.0161 -0.3659  0.9045
 8211SOL    HW136269   4.464   0.568   4.002 -3.2785  1.4782 -2.2332
 8211SOL    HW236270   4.355   0.533   4.096 -1.7521  0.5823 -0.9560
 8212SOL     OW36271   4.035   4.704   3.069  0.6861  0.0205 -0.1223
 8212SOL    HW136272   4.092   4.644   3.022 -0.4594  0.4536 -2.0642
 8212SOL    HW236273   3.970   4.714   3.000  1.6417  2.7465 -0.6226
 8213SOL     OW36274   4.147   0.763  13.759  0.2780 -0.1351  0.1968
 8213SOL    HW136275   4.242   0.755  13.751  0.6555  2.4819  1.9160
 8213SOL    HW236276   4.119   0.737  13.671  1.4398  3.3973 -1.2170
 8214SOL     OW36277   0.307   3.688  13.263 -0.4600 -0.2967  0.0141
 8214SOL    HW136278   0.281   3.712  13.352  1.7881  0.4699  0.4666
 8214SOL    HW236279   0.396   3.655  13.281 -0.8777 -0.5297  1.6420
 8215SOL     OW36280   2.983   3.375   8.187  0.6189 -0.0219  0.5513
 8215SOL    HW136281   2.993   3.284   8.161 -0.0584 -0.8042  3.0789
 8215SOL    HW236282   2.973   3.368   8.282  0.2249  1.5602  0.6335
 8216SOL     OW36283   1.907   1.919   3.553 -0.3011 -0.1382 -0.6201
 8216SOL    HW136284   1.838   1.972   3.511  0.6868  1.4973 -0.2023
 8216SOL    HW236285   1.944   1.860   3.488  1.3590  0.1165  0.0946
 8217SOL     OW36286   3.972   1.021   5.480 -0.5091 -0.0348  0.5010
 8217SOL    HW136287   3.927   1.037   5.397  0.4776  2.8634  0.5352
 8217SOL    HW236288   3.959   0.926   5.484  0.5688 -0.1135  2.4869
 8218SOL     OW36289   2.594   0.637   6.074  0.4431 -0.2796  0.3464
 8218SOL    HW136290   2.648   0.683   6.138  0.5789  0.4518 -0.2872
 8218SOL    HW236291   2.545   0.708   6.033 -0.1429 -0.5643  0.5583
 8219SOL     OW36292   0.676   4.338   7.646 -0.5512  0.4257  0.2999
 8219SOL    HW136293   0.761   4.377   7.663 -0.4219  1.0873 -1.8976
 8219SOL    HW236294   0.698   4.248   7.670 -0.7925  0.6340  1.2941
 8220SOL     OW36295   3.377   2.980  10.068  0.1793  0.2089  0.7428
 8220SOL    HW136296   3.444   2.995  10.000 -2.5286  1.0885 -1.7291
 8220SOL    HW236297   3.346   2.894  10.040  2.0353  0.2263 -1.3989
 8221SOL     OW36298   4.630   1.222   7.924  0.7745  0.0736 -0.1679
 8221SOL    HW136299   4.574   1.146   7.918  1.1601 -0.2644  0.5550
 8221SOL    HW236300   4.710   1.207   7.872 -0.0016  1.0722 -1.6744
 8222SOL     OW36301   1.934   3.017   2.909 -0.2535  0.1306  0.0711
 8222SOL    HW136302   1.871   3.069   2.959 -0.3810  0.4916 -0.4717
 8222SOL    HW236303   1.881   2.953   2.862  0.6970 -2.2515  2.2067
 8223SOL     OW36304   0.041   0.753   5.781 -0.1733 -0.0175  0.0613
 8223SOL    HW136305   0.085   0.703   5.712  0.7011  0.3873  0.3388
 8223SOL    HW236306   0.106   0.821   5.797 -0.3343 -0.4032  2.2726
 8224SOL     OW36307   3.380   1.819   4.778 -0.3896 -0.5992  0.1050
 8224SOL    HW136308   3.455   1.807   4.836  0.0294 -0.8345 -0.4848
 8224SOL    HW236309   3.306   1.848   4.831 -0.2435 -0.7405  0.3834
 8225SOL     OW36310   2.963   0.724   2.297  0.5092 -0.0372 -0.2282
 8225SOL    HW136311   2.991   0.732   2.388  0.7558 -1.2825 -0.1988
 8225SOL    HW236312   3.006   0.800   2.259  1.9127 -0.8390 -0.2316
 8226SOL     OW36313   1.495   3.377   1.154 -0.3997 -0.1729 -0.2517
 8226SOL    HW136314   1.537   3.293   1.137 -1.1529 -0.0653 -2.6669
 8226SOL    HW236315   1.565   3.438   1.132 -0.9955  0.3531 -0.6987
 8227SOL     OW36316   2.871   0.264   3.436 -0.0338  0.0202  0.2531
 8227SOL    HW136317   2.866   0.358   3.425  1.2931  0.1278  0.6377
 8227SOL    HW236318   2.952   0.238   3.393 -0.3968  0.5789 -0.7508
 8228SOL     OW36319   3.961   2.375  11.328  0.4516  0.2489 -0.6122
 8228SOL    HW136320   4.015   2.324  11.268  0.5832 -2.1008  1.5083
 8228SOL    HW236321   3.922   2.301  11.375  0.0235 -0.1117 -1.5222
 8229SOL     OW36322   1.029   3.059   8.286  0.3843 -0.0770  0.4176
 8229SOL    HW136323   1.018   3.040   8.379 -2.1893 -0.4631  0.0237
 8229SOL    HW236324   1.013   2.973   8.247 -3.5268  0.5590  0.6919
 8230SOL     OW36325   1.725   4.296   7.265  0.5759 -0.1746  0.3015
 8230SOL    HW136326   1.742   4.210   7.303  1.4670 -0.0452  0.1800
 8230SOL    HW236327   1.714   4.270   7.173 -0.8528 -0.8012  0.6432
 8231SOL     OW36328   2.536   0.530   5.790  0.0278 -0.7922  0.7281
 8231SOL    HW136329   2.476   0.509   5.862 -0.1624 -0.2058  0.7456
 8231SOL    HW236330   2.593   0.585   5.844 -2.3483  0.5845  1.8617
 8232SOL     OW36331   4.515   2.668   5.306  0.7166  0.3422 -0.1519
 8232SOL    HW136332   4.447   2.712   5.357  1.9011 -1.1284  2.6459
 8232SOL    HW236333   4.576   2.641   5.375 -0.4991 -0.0187  0.7761
 8233SOL     OW36334   0.220   0.715   1.992  0.2136 -0.3153  0.0608
 8233SOL    HW136335   0.243   0.805   1.969 -0.3825  0.5088  2.6143
 8233SOL    HW236336   0.125   0.717   1.976  0.1175  1.1374  0.8105
 8234SOL     OW36337   2.597   2.227   6.895 -0.4211  0.3285  0.1173
 8234SOL    HW136338   2.574   2.231   6.988  0.7896 -0.1733  0.4417
 8234SOL    HW236339   2.689   2.200   6.902 -0.7046 -0.2214  1.8917
 8235SOL     OW36340   3.508   1.992   9.524  0.0172  0.3461  0.6405
 8235SOL    HW136341   3.439   1.928   9.543  0.7715  0.0664  2.5396
 8235SOL    HW236342   3.585   1.935   9.528  0.5507  0.9453 -1.2972
 8236SOL     OW36343   0.001   3.426   4.747 -0.0891  0.0615  0.4540
 8236SOL    HW136344   4.713   3.414   4.655 -0.5786 -2.3251  0.8916
 8236SOL    HW236345   0.033   3.515   4.757 -0.5513  0.1243  1.3572
 8237SOL     OW36346   2.812   1.119   6.757  0.3671 -0.5915  0.4797
 8237SOL    HW136347   2.795   1.068   6.836 -1.4546 -2.2515 -0.9934
 8237SOL    HW236348   2.750   1.191   6.770 -0.1364 -0.8162 -0.7137
 8238SOL     OW36349   3.155   4.350   8.769  0.2886 -0.7038  0.1760
 8238SOL    HW136350   3.103   4.345   8.689 -0.4521 -1.0227  0.6808
 8238SOL    HW236351   3.140   4.268   8.815  1.9902 -0.6349  0.8420
 8239SOL     OW36352   4.709   4.205   3.333  0.1869 -0.3383 -0.1832
 8239SOL    HW136353   0.024   4.150   3.393 -1.6787 -1.1459  0.6640
 8239SOL    HW236354   0.035   4.222   3.262  1.3687 -2.1872  0.4005
 8240SOL     OW36355   1.776   1.190   3.821 -0.5563  0.3130 -0.6665
 8240SOL    HW136356   1.734   1.154   3.742 -1.5821 -0.7790  0.3868
 8240SOL    HW236357   1.699   1.234   3.857  0.7930  3.2106 -1.3631
 8241SOL     OW36358   3.259   0.010   4.247 -0.2122 -0.1579 -0.0576
 8241SOL    HW136359   3.168   0.014   4.277 -0.3211 -1.5194 -0.1912
 8241SOL    HW236360   3.267   4.658   4.211  2.9588 -0.5060  1.5759
 8242SOL     OW36361   4.299   0.399   3.677 -0.4079  0.3956 -0.1164
 8242SOL    HW136362   4.365   0.330   3.678 -3.7990 -2.8581 -0.5098
 8242SOL    HW236363   4.332   0.451   3.604 -2.5241 -0.8978 -2.0127
 8243SOL     OW36364   0.887   0.183  13.960  0.9264  0.0831  0.1451
 8243SOL    HW136365   0.800   0.176  13.998  1.1725  0.7053  0.8351
 8243SOL    HW236366   0.875   0.269  13.920 -0.5570 -0.0039  0.4263
 8244SOL     OW36367   2.342   4.016   1.953 -0.5161 -0.3133 -0.1564
 8244SOL    HW136368   2.271   4.042   1.894 -2.0764  0.4049  2.0310
 8244SOL    HW236369   2.324   3.924   1.974 -2.2854 -0.0973 -0.7096
 8245SOL     OW36370   1.103   1.340  14.942  0.1705 -0.1640  0.2324
 8245SOL    HW136371   1.110   1.398  14.866  0.6152 -1.3510 -0.6254
 8245SOL    HW236372   1.178   1.283  14.927  0.5645 -0.0771  1.8720
 8246SOL     OW36373   2.765   1.085   4.747 -0.3104  0.4238 -0.0794
 8246SOL    HW136374   2.674   1.063   4.768 -0.8957  1.6180 -1.2806
 8246SOL    HW236375   2.809   1.044   4.821 -0.3296 -0.5469 -0.6044
 8247SOL     OW36376   0.704   0.609   5.809 -0.2662 -0.1853  0.6540
 8247SOL    HW136377   0.616   0.571   5.801 -0.1643 -0.0200 -1.3097
 8247SOL    HW236378   0.713   0.623   5.903 -1.7907  1.6661  0.5265
 8248SOL     OW36379   2.614   0.480   6.694 -0.7931 -0.2078  0.0295
 8248SOL    HW136380   2.585   0.461   6.604  0.8492 -1.8926 -0.1379
 8248SOL    HW236381   2.676   0.548   6.668  2.6276 -2.8000  1.4629
 8249SOL     OW36382   3.944   0.767   1.159  0.3140  0.2227  0.3835
 8249SOL    HW136383   3.982   0.854   1.173  2.2924 -0.7034  0.7871
 8249SOL    HW236384   3.979   0.745   1.073 -0.9778  2.1814 -0.6418
 8250SOL     OW36385   3.821   1.261   4.531 -0.3164 -0.2408 -0.1262
 8250SOL    HW136386   3.823   1.268   4.626 -1.8360 -2.0328  0.0407
 8250SOL    HW236387   3.882   1.331   4.505 -2.1101  0.5212 -2.2830
 8251SOL     OW36388   1.606   1.115   4.165  0.3143 -0.5264  0.0649
 8251SOL    HW136389   1.540   1.173   4.126  2.7473 -0.0473 -3.3152
 8251SOL    HW236390   1.634   1.054   4.097  0.3279  1.5434 -1.7980
 8252SOL     OW36391   1.773   4.525   4.100  0.6866  0.9724 -0.7605
 8252SOL    HW136392   1.828   4.577   4.158 -3.5770  2.4501  2.0082
 8252SOL    HW236393   1.689   4.515   4.146  0.9282  2.8705  0.0816
 8253SOL     OW36394   3.572   3.117  14.357  0.5308  0.2209 -0.4424
 8253SOL    HW136395   3.489   3.162  14.374 -0.5402 -1.8166 -0.3548
 8253SOL    HW236396   3.582   3.134  14.263 -1.3289 -2.2136 -1.0732
 8254SOL     OW36397   1.933   0.280   2.361  0.3010 -0.1474 -0.2648
 8254SOL    HW136398   1.856   0.333   2.338  1.8746  1.4874 -1.8452
 8254SOL    HW236399   1.983   0.287   2.279  2.5286  1.0419  1.2007
 8255SOL     OW36400   3.316   1.736   4.518  0.7643  0.5322 -0.2002
 8255SOL    HW136401   3.342   1.750   4.609 -0.1348  2.8231 -0.2921
 8255SOL    HW236402   3.272   1.653   4.535  0.3017  0.8317  0.0766
 8256SOL     OW36403   3.275   3.083   5.928 -0.0732 -0.0554  0.4856
 8256SOL    HW136404   3.198   3.101   5.873  2.1107  1.2817 -2.1127
 8256SOL    HW236405   3.280   2.989   5.914  2.3442  0.1968 -0.2798
 8257SOL     OW36406   0.720   0.195   3.637 -0.2222 -0.1153  0.4499
 8257SOL    HW136407   0.740   0.236   3.553 -4.3350 -0.6621 -0.7838
 8257SOL    HW236408   0.712   0.281   3.678 -1.0854 -0.3877  0.8520
 8258SOL     OW36409   3.993   4.601   7.124  0.5278 -0.1068  0.1300
 8258SOL    HW136410   4.075   4.649   7.124  0.8136 -0.6148 -2.2752
 8258SOL    HW236411   4.020   4.509   7.127 -0.1124 -0.2752  0.8699
 8259SOL     OW36412   1.913   4.615  11.807  0.4565 -0.4087 -0.0314
 8259SOL    HW136413   1.986   4.559  11.835  2.4731  1.5377 -1.3684
 8259SOL    HW236414   1.854   4.555  11.762 -0.9946  0.9460  0.0786
 8260SOL     OW36415   0.986   1.529   7.516 -0.2792 -0.3333 -0.2621
 8260SOL    HW136416   1.029   1.568   7.441 -1.9129  0.5006 -0.7760
 8260SOL    HW236417   0.942   1.454   7.476 -0.7641 -1.4251  2.3141
 8261SOL     OW36418   1.507   4.028   7.359  0.0403  0.2068  0.5338
 8261SOL    HW136419   1.601   4.012   7.363  0.2888  1.4032 -0.5816
 8261SOL    HW236420   1.500   4.070   7.273  0.5866  0.7970  0.7708
 8262SOL     OW36421   1.737   2.268   5.596 -0.3224 -0.4635 -0.9278
 8262SOL    HW136422   1.662   2.247   5.652 -0.0830 -1.1747 -0.8708
 8262SOL    HW236423   1.706   2.227   5.515 -0.4092 -2.6405  0.1934
 8263SOL     OW36424   4.024   4.414   9.484  0.0866  0.1591  0.6089
 8263SOL    HW136425   4.082   4.486   9.459  0.5284 -0.0942  0.9132
 8263SOL    HW236426   3.976   4.462   9.552 -1.5439 -0.1466 -0.3400
 8264SOL     OW36427   4.550   2.241  10.968  0.6040 -0.3363 -0.4821
 8264SOL    HW136428   4.636   2.213  10.998  0.3134 -1.9256 -1.1423
 8264SOL    HW236429   4.523   2.153  10.942 -1.0284  0.6979 -2.3683
 8265SOL     OW36430   3.927   0.568   8.671  0.1359  0.5329  0.0346
 8265SOL    HW136431   3.897   0.524   8.750 -1.5026  0.5176 -0.5998
 8265SOL    HW236432   4.009   0.603   8.706 -0.0990  1.2480 -0.1171
 8266SOL     OW36433   1.817   4.406   2.590 -0.0156  0.1394  0.5298
 8266SOL    HW136434   1.909   4.427   2.610  0.6987 -0.6401 -1.9228
 8266SOL    HW236435   1.797   4.472   2.524 -2.2354  0.3421  1.4283
 8267SOL     OW36436   3.945   4.466   4.913 -0.0255 -0.4646  0.2289
 8267SOL    HW136437   3.860   4.443   4.877  0.9348 -0.8023 -1.8684
 8267SOL    HW236438   3.946   4.394   4.976  0.2798 -0.5051  0.1798
 8268SOL     OW36439   1.150   4.388   4.150  0.5131  0.3122 -0.5164
 8268SOL    HW136440   1.122   4.442   4.076 -1.2310 -1.3825 -1.0573
 8268SOL    HW236441   1.229   4.348   4.114 -1.1460 -0.6821 -3.0606
 8269SOL     OW36442   0.252   2.245  10.716  0.2269 -0.4214  0.6023
 8269SOL    HW136443   0.200   2.319  10.746 -0.6820 -1.4940  1.6465
 8269SOL    HW236444   0.339   2.283  10.727  0.0630  0.3817 -0.8715
 8270SOL     OW36445   2.306   0.582   6.305 -0.7683 -0.3644  0.1492
 8270SOL    HW136446   2.275   0.650   6.246 -2.3357 -0.8076  0.4567
 8270SOL    HW236447   2.359   0.633   6.367  0.3682 -1.3144 -0.0332
 8271SOL     OW36448   0.505   3.300  11.308 -0.3779  0.8466 -0.1583
 8271SOL    HW136449   0.556   3.378  11.289 -2.0540  1.4608 -2.1938
 8271SOL    HW236450   0.444   3.294  11.234 -0.2694 -2.4333  0.0137
 8272SOL     OW36451   1.197   4.608  12.983  0.1093 -0.0897 -0.0177
 8272SOL    HW136452   1.257   4.678  12.959  0.2897 -0.5384 -0.8734
 8272SOL    HW236453   1.259   4.535  12.979 -0.2888 -0.4895  1.1635
 8273SOL     OW36454   0.282   0.654   0.691  0.2916 -0.0897 -0.5437
 8273SOL    HW136455   0.324   0.569   0.702  1.3550  0.5264  0.1173
 8273SOL    HW236456   0.368   0.693   0.703 -1.2831  3.3892 -0.4897
 8274SOL     OW36457   3.174   2.142  17.687  0.0429  0.5506  0.1871
 8274SOL    HW136458   3.097   2.133  17.629  1.5671 -2.7650 -1.3316
 8274SOL    HW236459   3.215   2.221  17.652 -0.8965  0.6432 -0.7361
 8275SOL     OW36460   3.862   4.387   9.796 -0.3643 -0.1478 -0.0367
 8275SOL    HW136461   3.814   4.306   9.780  1.5286 -1.2919  0.1298
 8275SOL    HW236462   3.927   4.362   9.861 -1.3243 -2.8852 -0.1542
 8276SOL     OW36463   1.995   0.044   0.989  0.4292  0.3621 -0.0727
 8276SOL    HW136464   2.054   0.119   0.988  1.3638 -0.3958 -1.4771
 8276SOL    HW236465   2.047   4.700   0.988 -1.1298 -0.6396 -0.8143
 8277SOL     OW36466   0.237   1.487   5.774  0.0454 -0.6378  0.3457
 8277SOL    HW136467   0.317   1.503   5.825 -0.2340 -1.0796  0.9090
 8277SOL    HW236468   0.216   1.397   5.799  0.3237 -0.7969  0.0047
 8278SOL     OW36469   3.110   2.912   6.081  0.1333  0.0085  0.6908
 8278SOL    HW136470   3.156   2.988   6.117  0.3260 -0.4569  1.4300
 8278SOL    HW236471   3.075   2.873   6.161 -0.5132  1.2358  1.0157
 8279SOL     OW36472   2.544   1.429  15.733  0.0933  0.2223  0.1052
 8279SOL    HW136473   2.621   1.461  15.686 -0.3942 -1.7728 -2.0615
 8279SOL    HW236474   2.582   1.341  15.738  0.5231  0.4409  0.5861
 8280SOL     OW36475   3.104   0.845   8.715  0.1508  0.2293 -0.1418
 8280SOL    HW136476   3.037   0.780   8.695 -0.7368  1.4949 -1.2032
 8280SOL    HW236477   3.182   0.791   8.725 -0.0823 -0.1257 -0.2305
 8281SOL     OW36478   4.524   2.291  10.353  0.0978 -0.1499  0.3040
 8281SOL    HW136479   4.504   2.328  10.438 -0.0997 -0.1486  0.2567
 8281SOL    HW236480   4.436   2.290  10.316 -0.2656  3.2330  1.1207
 8282SOL     OW36481   0.496   4.449   6.488 -0.5376  0.3126  0.1267
 8282SOL    HW136482   0.453   4.378   6.440 -0.7602  0.1519  0.5691
 8282SOL    HW236483   0.501   4.513   6.417  0.0080  1.0605  0.8406
 8283SOL     OW36484   3.233   0.744  17.354 -0.2613  0.2355 -0.1462
 8283SOL    HW136485   3.280   0.661  17.363 -1.0610 -0.0492  1.3518
 8283SOL    HW236486   3.295   0.802  17.399  1.3995 -1.0186 -0.8101
 8284SOL     OW36487   0.250   2.385   5.910  0.2395  0.0135 -0.0063
 8284SOL    HW136488   0.299   2.457   5.949 -0.2949  0.2798  0.1839
 8284SOL    HW236489   0.176   2.442   5.887  1.3028  0.5287 -2.1083
 8285SOL     OW36490   2.830   3.832   7.040  0.5643  0.0717 -0.1932
 8285SOL    HW136491   2.759   3.776   7.009 -0.1867  1.3246 -0.7695
 8285SOL    HW236492   2.899   3.768   7.026  0.2102 -0.6319  1.2598
 8286SOL     OW36493   1.837   0.695   2.528  0.2210 -0.0098 -0.3966
 8286SOL    HW136494   1.778   0.767   2.505 -0.6895 -0.1088  1.6382
 8286SOL    HW236495   1.799   0.662   2.609  0.9063 -1.4053 -0.6483
 8287SOL     OW36496   4.712   3.071  14.403 -0.5717  0.1367  0.2653
 8287SOL    HW136497   4.694   3.137  14.469 -2.4544 -0.1917  0.0616
 8287SOL    HW236498   0.010   3.124  14.330 -0.9136 -0.4005 -0.2857
 8288SOL     OW36499   0.252   1.428   4.625 -0.0029 -0.0680 -0.2336
 8288SOL    HW136500   0.298   1.399   4.547  2.0990  0.4116  0.8404
 8288SOL    HW236501   0.284   1.367   4.692  1.0176  1.6399  0.8399
 8289SOL     OW36502   3.225   3.582   3.025  0.3023  0.1359  0.6644
 8289SOL    HW136503   3.320   3.584   3.012  0.3163  0.1005  0.7599
 8289SOL    HW236504   3.213   3.492   3.054 -0.6488 -0.3707 -1.3107
 8290SOL     OW36505   3.956   3.142   9.371 -0.6838 -0.7173  0.0892
 8290SOL    HW136506   3.896   3.180   9.434 -0.9658  0.0556 -0.6385
 8290SOL    HW236507   3.888   3.100   9.319 -0.6367 -1.4087  0.5925
 8291SOL     OW36508   0.273   1.775   1.285  0.2775  0.3833  0.0794
 8291SOL    HW136509   0.226   1.818   1.214 -0.1155 -3.0481 -1.7008
 8291SOL    HW236510   0.270   1.841   1.354  1.0858 -0.9591  1.3838
 8292SOL     OW36511   0.607   3.051   2.731 -0.3529 -0.1714 -0.0912
 8292SOL    HW136512   0.594   3.097   2.814  1.3523  0.5120 -0.2121
 8292SOL    HW236513   0.592   2.961   2.762 -2.7641  0.1795 -0.1793
 8293SOL     OW36514   1.044   2.903   4.352 -0.2527 -0.1867  0.1725
 8293SOL    HW136515   1.077   2.993   4.350  0.3682 -0.4028  0.5330
 8293SOL    HW236516   1.082   2.858   4.427 -0.3113 -2.4635 -1.1548
 8294SOL     OW36517   1.240   3.670   7.273 -0.2696 -0.2332 -0.0536
 8294SOL    HW136518   1.214   3.683   7.182 -1.0553  0.0938  0.2196
 8294SOL    HW236519   1.227   3.759   7.306  0.2931 -0.3631  0.5183
 8295SOL     OW36520   2.084   0.814  12.861  0.3369 -0.3461 -0.1260
 8295SOL    HW136521   2.088   0.768  12.945 -0.4640  0.1878  0.2071
 8295SOL    HW236522   2.108   0.745  12.799 -0.2800  0.1484 -0.9175
 8296SOL     OW36523   0.796   2.010  14.760  0.4943  0.4247  0.0020
 8296SOL    HW136524   0.850   1.931  14.769  2.5805  1.5829 -2.5470
 8296SOL    HW236525   0.820   2.064  14.835  2.2062 -0.3601  0.0257
 8297SOL     OW36526   1.848   3.744   8.966 -0.4231  0.4333 -0.7053
 8297SOL    HW136527   1.900   3.680   8.918  0.2489  0.6623 -0.2962
 8297SOL    HW236528   1.786   3.688   9.012 -1.2473  0.6868 -1.5000
 8298SOL     OW36529   3.567   4.477   8.529  0.0141 -0.1516 -0.1502
 8298SOL    HW136530   3.647   4.509   8.572  0.0421  2.1185 -1.8930
 8298SOL    HW236531   3.545   4.551   8.472 -1.5357 -0.6119 -0.1565
 8299SOL     OW36532   0.586   0.625   3.311 -0.1245  0.2466 -0.4373
 8299SOL    HW136533   0.624   0.566   3.245 -0.9253 -0.6470 -0.0962
 8299SOL    HW236534   0.496   0.627   3.278 -0.3443  1.7991  0.2611
 8300SOL     OW36535   0.829   4.161   7.102 -0.0911 -0.1162 -0.1994
 8300SOL    HW136536   0.908   4.118   7.069  0.2512  1.9385 -2.0444
 8300SOL    HW236537   0.846   4.142   7.194 -0.5505  2.9288  0.4988
 8301SOL     OW36538   0.827   2.738   9.201 -0.4420  0.5676 -0.0579
 8301SOL    HW136539   0.742   2.733   9.156  0.2212 -1.9673 -1.0440
 8301SOL    HW236540   0.808   2.719   9.293  1.6570  0.9043  0.4315
 8302SOL     OW36541   1.605   0.624  15.851 -0.5745  0.0322 -0.2081
 8302SOL    HW136542   1.652   0.670  15.920 -0.9294  0.6214 -0.3636
 8302SOL    HW236543   1.577   0.697  15.796 -0.1391  0.0672 -0.3808
 8303SOL     OW36544   3.009   4.223   7.153  0.0150 -0.4212  0.0627
 8303SOL    HW136545   2.949   4.253   7.085 -1.0920  0.0128  1.2233
 8303SOL    HW236546   3.088   4.213   7.101 -0.9814  0.6453 -1.6608
 8304SOL     OW36547   1.373   0.461   3.737 -0.3530  0.3221  0.0663
 8304SOL    HW136548   1.441   0.439   3.801 -0.5283 -0.1642  0.0858
 8304SOL    HW236549   1.412   0.491   3.656 -2.5086  0.5623 -0.8762
 8305SOL     OW36550   4.033   3.737   0.582 -0.3323 -0.1193  0.3014
 8305SOL    HW136551   4.101   3.802   0.566 -1.5145  1.6247  2.2929
 8305SOL    HW236552   4.095   3.669   0.606 -1.7493 -1.6056 -0.2246
 8306SOL     OW36553   3.000   0.011  17.196 -0.0710 -0.3034 -0.1938
 8306SOL    HW136554   3.010   0.051  17.282  1.9233 -2.5410  0.6073
 8306SOL    HW236555   3.070   4.682  17.186  0.6475  0.3524  0.6474
 8307SOL     OW36556   2.131   3.726  10.323 -0.1491 -1.2651  0.0968
 8307SOL    HW136557   2.205   3.783  10.299 -0.0580 -0.6237  1.8282
 8307SOL    HW236558   2.150   3.650  10.268 -1.6527 -2.2199  0.9043
 8308SOL     OW36559   3.379   1.637   4.025 -0.3686  0.0567  0.0597
 8308SOL    HW136560   3.360   1.678   3.940 -1.6453  2.0938  1.3376
 8308SOL    HW236561   3.380   1.713   4.083  1.4383  0.2272 -0.1909
 8309SOL     OW36562   2.315   2.007   5.257  0.3056  0.0907 -0.1376
 8309SOL    HW136563   2.304   2.092   5.216  0.7932  0.9786  1.6005
 8309SOL    HW236564   2.281   1.949   5.188 -1.6107  2.1433 -0.8858
 8310SOL     OW36565   0.184   3.052   6.336 -0.1630 -0.3383  0.4665
 8310SOL    HW136566   0.226   3.128   6.376  0.6431 -0.3878 -0.3082
 8310SOL    HW236567   0.136   3.087   6.261  0.7734 -1.7816 -0.8095
 8311SOL     OW36568   0.492   0.048   3.613 -0.1270  0.0031 -0.0061
 8311SOL    HW136569   0.565   0.097   3.651  1.6361 -3.9513  1.6792
 8311SOL    HW236570   0.525   0.044   3.523  0.8706  2.8903  0.2332
 8312SOL     OW36571   1.020   2.587   7.800  0.0141 -0.3805 -0.4084
 8312SOL    HW136572   0.980   2.505   7.832 -0.5363  0.5908  1.4022
 8312SOL    HW236573   0.944   2.641   7.823  0.3944  0.3050 -0.7742
 8313SOL     OW36574   3.134   3.743   3.884  0.2450  0.0571 -0.0268
 8313SOL    HW136575   3.129   3.677   3.953 -2.4176 -0.3706 -0.6582
 8313SOL    HW236576   3.215   3.715   3.841  0.4097  1.3794 -0.5842
 8314SOL     OW36577   0.963   1.508  10.031  0.2684 -0.1750 -0.6607
 8314SOL    HW136578   0.962   1.474   9.942  1.1735 -1.2485 -0.2635
 8314SOL    HW236579   0.870   1.530  10.037 -0.1932 -1.6809 -2.1686
 8315SOL     OW36580   3.867   1.935  17.406  0.2637  0.3633 -0.6057
 8315SOL    HW136581   3.785   1.898  17.373  0.9449 -0.3902 -1.4398
 8315SOL    HW236582   3.868   2.020  17.363  0.6382  0.2843 -0.7526
 8316SOL     OW36583   1.863   3.020   5.822 -0.1160  0.0117  0.5234
 8316SOL    HW136584   1.861   3.048   5.914  1.4473  0.6105  0.3723
 8316SOL    HW236585   1.921   3.088   5.788 -0.7486  1.3703  2.1892
 8317SOL     OW36586   4.183   4.127   9.309  0.0692 -0.0294 -0.2765
 8317SOL    HW136587   4.137   4.121   9.393 -2.9389  1.5890 -1.8415
 8317SOL    HW236588   4.117   4.149   9.244 -0.4270  0.2993  0.3400
 8318SOL     OW36589   3.461   2.409   2.418 -0.0153  0.4950 -0.0528
 8318SOL    HW136590   3.519   2.334   2.407  0.6160  0.9556  0.0975
 8318SOL    HW236591   3.405   2.372   2.486 -0.6219 -1.1086 -1.4165
 8319SOL     OW36592   0.824   1.056   8.543 -0.4388 -0.1249  0.4938
 8319SOL    HW136593   0.817   0.967   8.578 -0.4201 -0.2839  0.1018
 8319SOL    HW236594   0.742   1.046   8.494 -0.8481  1.5395  0.8607
 8320SOL     OW36595   1.825   2.061   4.837 -0.2425  0.9681  0.2256
 8320SOL    HW136596   1.810   1.978   4.882  0.5508  1.2820  1.0698
 8320SOL    HW236597   1.886   2.100   4.900  0.8930 -0.4428  0.0050
 8321SOL     OW36598   4.324   4.479  17.568 -0.1437 -0.6016 -0.4109
 8321SOL    HW136599   4.384   4.416  17.530  0.0111  0.2892 -1.6814
 8321SOL    HW236600   4.259   4.483  17.498 -0.4090  3.0490  0.0175
 8322SOL     OW36601   0.959   1.966   6.528  0.0769  0.3936 -0.0284
 8322SOL    HW136602   1.016   1.890   6.528  1.6533  1.6002  1.3338
 8322SOL    HW236603   0.879   1.919   6.504 -0.0819  0.8680 -0.4364
 8323SOL     OW36604   0.915   0.886   9.426 -0.2796 -0.5720  0.4764
 8323SOL    HW136605   0.909   0.843   9.340  0.7010 -1.3306  0.7831
 8323SOL    HW236606   0.931   0.808   9.479  0.8731 -0.9185 -0.3787
 8324SOL     OW36607   2.954   0.992   4.287 -0.3277 -0.1476  0.3614
 8324SOL    HW136608   3.043   0.968   4.262  0.1932  0.9724  1.1304
 8324SOL    HW236609   2.973   1.082   4.312  0.5081 -0.4400  0.7883
 8325SOL     OW36610   1.028   4.581  16.785 -0.1916  0.4947 -0.5724
 8325SOL    HW136611   1.111   4.627  16.773 -1.3856  2.2216 -2.2368
 8325SOL    HW236612   0.970   4.654  16.762 -0.2785  0.7292  0.3628
 8326SOL     OW36613   2.585   1.635   8.967 -0.3762  0.2807  0.7052
 8326SOL    HW136614   2.626   1.693   9.032  0.8589  0.3295 -0.1281
 8326SOL    HW236615   2.632   1.658   8.887  0.7061 -1.0114  0.9601
 8327SOL     OW36616   2.087   0.589   4.803 -0.3810  0.1040  0.3066
 8327SOL    HW136617   2.052   0.667   4.846  0.3544  0.7251 -0.2236
 8327SOL    HW236618   2.130   0.629   4.727  0.7765  0.0035  0.9167
 8328SOL     OW36619   1.930   1.555  12.755  0.3495 -0.0754 -0.2324
 8328SOL    HW136620   1.948   1.572  12.663 -1.3204  0.1148 -0.5153
 8328SOL    HW236621   2.015   1.534  12.793 -0.7700 -2.2361  1.0598
 8329SOL     OW36622   1.090   4.467   4.538 -0.0985 -0.0146 -0.7317
 8329SOL    HW136623   1.111   4.496   4.449 -0.9819 -0.8011 -1.2011
 8329SOL    HW236624   1.122   4.546   4.582 -0.6630  0.6793 -1.5665
 8330SOL     OW36625   0.693   4.372  10.374  0.2409  0.2459 -1.1589
 8330SOL    HW136626   0.645   4.343  10.453 -0.6882 -0.5603 -2.0131
 8330SOL    HW236627   0.651   4.317  10.308  0.5874 -1.7569  0.2555
 8331SOL     OW36628   2.383   3.650   3.656 -0.2702 -0.3704 -0.6206
 8331SOL    HW136629   2.421   3.658   3.568  2.2350  0.4445  0.5513
 8331SOL    HW236630   2.465   3.652   3.705 -0.8055  0.0997  0.2449
 8332SOL     OW36631   2.301   0.897   1.758  0.0064 -1.3323 -0.4004
 8332SOL    HW136632   2.238   0.951   1.710  1.4240  1.0490  0.4210
 8332SOL    HW236633   2.293   0.806   1.730  1.2435 -1.5500 -0.0499
 8333SOL     OW36634   4.450   1.212   6.533  0.3415  0.2735  0.1876
 8333SOL    HW136635   4.393   1.232   6.607 -0.2349 -0.7294  0.0024
 8333SOL    HW236636   4.537   1.224   6.571 -0.1499  1.2174  1.0372
 8334SOL     OW36637   1.410   0.662   6.057 -0.6987  0.0613  0.2774
 8334SOL    HW136638   1.398   0.573   6.026 -3.6944 -0.0219  1.7600
 8334SOL    HW236639   1.384   0.717   5.983  1.2572  0.6175 -0.0121
 8335SOL     OW36640   0.295   2.365  16.592  0.1037  0.4897  0.9874
 8335SOL    HW136641   0.383   2.398  16.611 -0.1082  1.4760  0.2576
 8335SOL    HW236642   0.323   2.274  16.586 -0.2695  0.1863  3.5439
 8336SOL     OW36643   0.892   2.481  15.921  0.1827  0.5710 -0.1093
 8336SOL    HW136644   0.888   2.573  15.949  3.1972  0.8950 -0.7896
 8336SOL    HW236645   0.807   2.468  15.879  0.7260  0.0654 -1.0348
 8337SOL     OW36646   1.783   1.032   4.657 -0.1357  0.1864 -0.1500
 8337SOL    HW136647   1.821   1.110   4.617 -0.8255  1.6824  2.1158
 8337SOL    HW236648   1.772   0.983   4.575  2.5706  1.5011 -1.2961
 8338SOL     OW36649   2.211   3.486   2.835  0.1592 -0.5241  0.1430
 8338SOL    HW136650   2.211   3.501   2.740 -1.1917 -0.2944  0.1743
 8338SOL    HW236651   2.303   3.463   2.843 -0.0258 -1.8293 -1.4016
 8339SOL     OW36652   3.081   2.721   4.509  0.2792 -0.0478  0.4514
 8339SOL    HW136653   3.007   2.696   4.563  0.5231  1.9700  1.7270
 8339SOL    HW236654   3.125   2.636   4.508  2.3367  1.0069  0.7971
 8340SOL     OW36655   1.706   2.601  11.232  0.4380  0.3560  0.3876
 8340SOL    HW136656   1.751   2.669  11.182 -1.4285  2.4556  1.5774
 8340SOL    HW236657   1.759   2.525  11.207  0.1610 -0.0079  0.9143
 8341SOL     OW36658   3.597   2.251   5.103  0.4566  0.1226  0.3453
 8341SOL    HW136659   3.600   2.317   5.172 -0.9366  2.3847 -1.7664
 8341SOL    HW236660   3.669   2.196   5.135  1.1106  1.6039  1.4327
 8342SOL     OW36661   0.192   4.710   3.575  0.4010  0.3309 -0.8737
 8342SOL    HW136662   0.144   0.035   3.630  2.1763  0.1048  0.9202
 8342SOL    HW236663   0.263   0.034   3.553 -0.0825  0.6968 -1.4224
 8343SOL     OW36664   4.217   2.429  11.843 -0.3713  0.2009  0.2227
 8343SOL    HW136665   4.189   2.360  11.782 -0.9286 -0.9255  1.7624
 8343SOL    HW236666   4.153   2.419  11.913  0.1547 -1.9156  0.3999
 8344SOL     OW36667   3.752   2.033   7.358 -0.6478 -0.4259 -0.2607
 8344SOL    HW136668   3.791   1.953   7.392  0.5003  0.6571  0.9951
 8344SOL    HW236669   3.830   2.088   7.354 -2.2023  1.8770  0.9098
 8345SOL     OW36670   0.722   1.072   4.131 -0.0645  0.4710 -0.6139
 8345SOL    HW136671   0.687   1.064   4.043 -1.5891 -0.3850  0.0678
 8345SOL    HW236672   0.633   1.066   4.165 -0.4399 -1.3802 -1.9223
 8346SOL     OW36673   2.490   1.178  16.556 -0.0389  0.3442  0.1645
 8346SOL    HW136674   2.396   1.195  16.549  0.2531  2.1468  0.4180
 8346SOL    HW236675   2.491   1.098  16.608  0.5327  0.4620  0.3400
 8347SOL     OW36676   2.957   0.764  13.362 -0.2101  0.3113 -0.3388
 8347SOL    HW136677   2.982   0.835  13.422  0.7204 -1.6782  1.6163
 8347SOL    HW236678   2.867   0.785  13.340 -0.6159 -0.8076  0.2715
 8348SOL     OW36679   0.750   4.658   0.667  0.6391 -0.2587  0.0141
 8348SOL    HW136680   0.792   4.572   0.665  0.1221 -0.5254  0.5852
 8348SOL    HW236681   0.656   4.642   0.656  0.6491  0.5153 -1.1903
 8349SOL     OW36682   2.458   0.348  15.877 -0.4120  0.7208 -0.2827
 8349SOL    HW136683   2.423   0.405  15.809 -2.0940  1.0171  0.8423
 8349SOL    HW236684   2.407   0.365  15.956  1.0054  1.2870  0.5100
 8350SOL     OW36685   2.426   0.199  12.367  0.2213  0.1940  0.0388
 8350SOL    HW136686   2.401   0.107  12.373  2.0869 -0.1538  2.4119
 8350SOL    HW236687   2.489   0.209  12.439  0.9646  1.2779 -0.7535
 8351SOL     OW36688   2.765   1.493   8.668  0.2735  0.5088 -0.0586
 8351SOL    HW136689   2.679   1.460   8.697  0.2804  0.0787 -0.5231
 8351SOL    HW236690   2.772   1.431   8.595 -0.0723 -0.1317  0.4512
 8352SOL     OW36691   1.414   0.928  12.155 -0.4342  1.0166 -0.3270
 8352SOL    HW136692   1.464   1.009  12.163  1.3873 -0.0248 -0.9619
 8352SOL    HW236693   1.367   0.917  12.237 -2.0863 -0.8629 -1.5133
 8353SOL     OW36694   0.806   1.872   3.639 -0.0850  0.2386  0.3751
 8353SOL    HW136695   0.892   1.869   3.682  0.2443  0.1675 -0.2767
 8353SOL    HW236696   0.754   1.816   3.696 -0.3832  0.5999  0.4614
 8354SOL     OW36697   0.932   4.498   1.457 -0.1074  0.1136 -0.7112
 8354SOL    HW136698   0.959   4.585   1.485 -0.9630 -0.3348  1.5249
 8354SOL    HW236699   0.919   4.463   1.545  1.1789  0.6580 -0.3055
 8355SOL     OW36700   4.250   4.680   9.107  0.2434  0.2003 -0.2654
 8355SOL    HW136701   4.163   4.672   9.145  1.6566 -0.4726  2.7934
 8355SOL    HW236702   4.307   4.633   9.167  1.4455  1.1781 -0.6349
 8356SOL     OW36703   0.685   2.797  12.949 -0.0938  0.4728  0.4736
 8356SOL    HW136704   0.753   2.855  12.916  1.6559 -1.2875  0.9704
 8356SOL    HW236705   0.704   2.802  13.042 -3.6941  0.1566  1.2379
 8357SOL     OW36706   2.170   3.496   6.645 -0.0102 -0.0726  0.0410
 8357SOL    HW136707   2.148   3.409   6.611  0.4401 -0.7440  1.5035
 8357SOL    HW236708   2.252   3.529   6.607 -0.6523  0.0179 -1.2640
 8358SOL     OW36709   1.171   4.304   6.898 -0.1091  0.2075 -0.4222
 8358SOL    HW136710   1.238   4.356   6.854  0.5401 -0.3994 -0.1662
 8358SOL    HW236711   1.113   4.290   6.823  1.5711 -0.5014 -1.6092
 8359SOL     OW36712   0.046   2.526  15.211 -0.1273 -0.9242 -0.5445
 8359SOL    HW136713   0.097   2.542  15.132 -0.4591 -1.0943 -0.7956
 8359SOL    HW236714   4.721   2.599  15.205  1.7876  0.8493  1.4615
 8360SOL     OW36715   0.464   2.032   5.318  0.2202 -0.1222 -0.2600
 8360SOL    HW136716   0.471   1.939   5.299 -1.5590 -0.8927  2.9083
 8360SOL    HW236717   0.445   2.060   5.228  2.5550  3.4175  0.3372
 8361SOL     OW36718   0.012   0.157   7.116 -0.2834 -0.4945 -0.2963
 8361SOL    HW136719   0.030   0.197   7.031 -0.1393  1.3361  0.6008
 8361SOL    HW236720   0.062   0.076   7.116  1.2189  0.4186 -2.9460
 8362SOL     OW36721   0.997   0.510  12.089  0.1938 -0.0186 -0.0306
 8362SOL    HW136722   0.995   0.582  12.026  1.9691  1.0145  1.0922
 8362SOL    HW236723   1.049   0.546  12.161 -2.0074  1.0014  1.0437
 8363SOL     OW36724   4.406   0.784   9.660  0.4487 -0.2332  0.4424
 8363SOL    HW136725   4.349   0.843   9.709 -1.0515 -0.7789 -0.6732
 8363SOL    HW236726   4.402   0.711   9.722 -0.0399 -0.9650 -0.4507
 8364SOL     OW36727   2.048   3.063  11.986 -0.7599 -0.3832  0.2199
 8364SOL    HW136728   2.089   3.023  12.063 -0.4469 -0.0278  0.2327
 8364SOL    HW236729   1.962   3.025  12.005 -1.3859  0.7708 -0.2996
 8365SOL     OW36730   3.723   1.930   7.729  0.2778 -0.1935 -0.1031
 8365SOL    HW136731   3.795   1.885   7.774 -0.8737 -1.3084  0.6457
 8365SOL    HW236732   3.754   2.020   7.736 -2.9084  1.1069 -2.6026
 8366SOL     OW36733   3.528   2.387   6.470  0.3404 -0.2121 -0.0936
 8366SOL    HW136734   3.540   2.307   6.418 -0.6834 -0.5445  0.1961
 8366SOL    HW236735   3.595   2.451   6.444 -0.0430  0.5385  0.8078
 8367SOL     OW36736   1.512   3.451   1.594  0.2199 -0.7217 -0.1414
 8367SOL    HW136737   1.563   3.376   1.624  2.2078  1.3775  1.7950
 8367SOL    HW236738   1.560   3.464   1.512  0.5507  0.8662  0.3075
 8368SOL     OW36739   3.521   1.780   9.078  0.1970  0.3807 -0.3935
 8368SOL    HW136740   3.584   1.788   9.006 -0.9601  0.5686 -1.3831
 8368SOL    HW236741   3.525   1.685   9.089  1.2034  0.1024 -3.1199
 8369SOL     OW36742   3.343   2.881   9.176 -0.6893 -0.1834  0.3328
 8369SOL    HW136743   3.346   2.977   9.174 -0.2821 -0.2133 -0.7615
 8369SOL    HW236744   3.410   2.857   9.240  0.8936  0.8740 -0.9247
 8370SOL     OW36745   3.494   0.452   3.013  0.1338 -0.3127 -0.2121
 8370SOL    HW136746   3.406   0.467   2.980 -0.4797 -0.4277  1.3914
 8370SOL    HW236747   3.475   0.431   3.104 -0.4694 -0.1928 -0.3119
 8371SOL     OW36748   4.484   4.399   6.707  0.0513 -0.1407 -0.3203
 8371SOL    HW136749   4.481   4.438   6.620  0.3720  1.9236  0.5906
 8371SOL    HW236750   4.575   4.368   6.703 -0.0742 -1.0757  3.5171
 8372SOL     OW36751   2.922   4.474  17.253 -0.2263  0.6523 -0.3153
 8372SOL    HW136752   2.879   4.548  17.209 -0.5200  1.0393  0.6054
 8372SOL    HW236753   2.886   4.411  17.190  1.8005  0.3555 -1.1842
 8373SOL     OW36754   3.193   0.980  12.593 -0.2013 -0.7563  0.4358
 8373SOL    HW136755   3.156   1.059  12.553 -0.7350 -0.5622  1.3065
 8373SOL    HW236756   3.169   0.988  12.686  3.3964 -2.2524  1.4789
 8374SOL     OW36757   1.083   3.507  12.883 -0.1496 -0.9106  0.2798
 8374SOL    HW136758   1.035   3.589  12.893  0.0897 -0.4416 -2.4519
 8374SOL    HW236759   1.010   3.456  12.848  0.3419 -0.9980 -0.6248
 8375SOL     OW36760   1.641   2.060   3.398 -0.3393  0.4362  0.4120
 8375SOL    HW136761   1.715   2.103   3.355 -0.4648  0.8406  0.6033
 8375SOL    HW236762   1.605   2.129   3.454 -0.4557  1.9950 -1.5676
 8376SOL     OW36763   3.595   3.492   7.202 -0.1347 -0.0252 -0.6863
 8376SOL    HW136764   3.581   3.582   7.172 -0.3037 -0.0285 -0.6167
 8376SOL    HW236765   3.520   3.451   7.159  1.5020 -1.6832 -1.9675
 8377SOL     OW36766   0.268   1.698   4.574  0.0820  0.4667 -0.2008
 8377SOL    HW136767   0.268   1.605   4.594 -0.9549  0.2423 -1.2223
 8377SOL    HW236768   0.192   1.704   4.516 -1.3177  0.9056  1.6567
 8378SOL     OW36769   0.482   0.516   8.352 -0.2222  0.0320  0.3404
 8378SOL    HW136770   0.479   0.585   8.286 -0.6808  1.2430  1.6176
 8378SOL    HW236771   0.468   0.573   8.428  1.0674 -0.6426  1.0925
 8379SOL     OW36772   3.348   3.004  17.480  0.1392 -0.2323  0.1811
 8379SOL    HW136773   3.361   3.010  17.385  1.2423  0.6536  0.3910
 8379SOL    HW236774   3.429   3.039  17.517  0.1624  1.2186 -1.2567
 8380SOL     OW36775   0.416   4.127   2.698 -0.4925 -0.0057  0.3179
 8380SOL    HW136776   0.498   4.123   2.748 -0.3510 -3.4737 -0.2245
 8380SOL    HW236777   0.385   4.040   2.724  1.7951 -0.8952  0.0491
 8381SOL     OW36778   3.021   3.901   2.408 -0.0861  0.2111  0.3687
 8381SOL    HW136779   2.989   3.986   2.439 -3.5091 -0.5413 -1.0613
 8381SOL    HW236780   3.078   3.875   2.480  0.8133  1.2216  0.0240
 8382SOL     OW36781   3.866   1.137  12.775  0.7071 -1.1696 -0.7204
 8382SOL    HW136782   3.892   1.086  12.851  1.6508  0.5819  0.1237
 8382SOL    HW236783   3.869   1.068  12.709  1.0108 -1.7005 -0.1361
 8383SOL     OW36784   4.043   3.608  13.923  0.1258 -0.6699 -0.0188
 8383SOL    HW136785   4.061   3.702  13.934 -0.5158 -0.3734 -1.4275
 8383SOL    HW236786   3.994   3.603  13.841 -0.9380 -3.9802  0.8231
 8384SOL     OW36787   4.323   1.825   6.632 -0.1745 -0.0210  0.4696
 8384SOL    HW136788   4.278   1.786   6.556 -0.4969 -0.1924  0.7488
 8384SOL    HW236789   4.297   1.758   6.695 -0.9186  0.3831  0.5971
 8385SOL     OW36790   0.773   2.693   7.567 -0.0825  0.0630  0.2995
 8385SOL    HW136791   0.721   2.713   7.490  1.0120  1.1147 -0.1605
 8385SOL    HW236792   0.706   2.655   7.624  0.0836 -0.9036 -0.1550
 8386SOL     OW36793   1.139   1.246   3.653  0.3534  0.0318  0.0163
 8386SOL    HW136794   1.046   1.239   3.676  0.4341  2.2197  1.0118
 8386SOL    HW236795   1.155   1.338   3.676 -2.2077  0.5510 -0.2525
 8387SOL     OW36796   2.650   4.083   9.196 -0.3309 -0.1096  0.8743
 8387SOL    HW136797   2.625   3.994   9.170  2.3457 -0.0774 -1.7262
 8387SOL    HW236798   2.613   4.135   9.124 -0.2607  0.7736  1.4835
 8388SOL     OW36799   3.210   0.084   9.229  0.6317  0.3381  0.5380
 8388SOL    HW136800   3.218   0.160   9.171  0.0606  1.3316  1.7496
 8388SOL    HW236801   3.226   0.014   9.166 -1.5174  1.2582 -1.0190
 8389SOL     OW36802   4.369   4.190   1.193 -0.4575 -0.3986 -0.4125
 8389SOL    HW136803   4.292   4.194   1.136 -0.3196 -0.4115 -0.6014
 8389SOL    HW236804   4.402   4.100   1.196  0.7278 -0.0256 -2.4169
 8390SOL     OW36805   2.258   3.086   5.151  0.6325  0.5802  1.0183
 8390SOL    HW136806   2.212   3.026   5.210 -1.2882  0.2426 -0.8402
 8390SOL    HW236807   2.341   3.038   5.156  1.4072  1.8625  0.2905
 8391SOL     OW36808   4.234   2.607   4.759  0.1739  0.2471  0.2072
 8391SOL    HW136809   4.142   2.626   4.779 -0.0274 -2.3792  1.8159
 8391SOL    HW236810   4.277   2.679   4.804  1.6898 -0.2861 -0.3803
 8392SOL     OW36811   1.536   4.547  10.410 -0.3879  0.1925  0.6268
 8392SOL    HW136812   1.458   4.590  10.443  0.4892  2.3374 -0.0574
 8392SOL    HW236813   1.542   4.471  10.467 -2.2348 -0.0546  0.4690
 8393SOL     OW36814   4.483   2.590  10.022  0.0287  0.0939  0.1882
 8393SOL    HW136815   4.420   2.661  10.008 -0.5062 -0.5251 -0.6410
 8393SOL    HW236816   4.523   2.588   9.935  0.1811 -0.5606  0.2717
 8394SOL     OW36817   3.860   2.006   3.852  0.1960  0.1572  0.0497
 8394SOL    HW136818   3.892   2.092   3.825  1.4356  0.1508  1.4986
 8394SOL    HW236819   3.843   2.031   3.943  0.0902 -2.1640  0.6568
 8395SOL     OW36820   4.070   2.087   3.055 -0.2001  0.7410 -0.2746
 8395SOL    HW136821   4.148   2.050   3.014 -1.5336 -0.8693 -1.3267
 8395SOL    HW236822   4.081   2.052   3.143 -0.6238  0.5639 -0.2922
 8396SOL     OW36823   2.192   4.477  11.671  0.5802 -0.4498  0.0045
 8396SOL    HW136824   2.163   4.431  11.750 -1.0230  1.9252  0.7853
 8396SOL    HW236825   2.285   4.479  11.692  1.2001  0.7391 -2.8227
 8397SOL     OW36826   3.043   4.109   8.743 -0.7877 -0.4915 -0.6410
 8397SOL    HW136827   3.010   4.163   8.671 -0.0704  2.8689  1.5328
 8397SOL    HW236828   3.036   4.022   8.704  0.9073 -1.2656  0.7832
 8398SOL     OW36829   1.255   3.917   7.357 -0.3055  0.0669  0.1976
 8398SOL    HW136830   1.342   3.923   7.398  0.3794 -0.8554 -1.1467
 8398SOL    HW236831   1.230   4.003   7.323 -0.9083 -0.3984 -0.5074
 8399SOL     OW36832   1.482   2.015   0.498 -0.1285 -0.3276  0.0572
 8399SOL    HW136833   1.435   1.937   0.470 -2.1443  0.3824  1.4757
 8399SOL    HW236834   1.435   2.049   0.574 -2.8257 -0.2025 -1.6604
 8400SOL     OW36835   1.878   2.146   9.580 -0.3105 -0.2471 -0.0135
 8400SOL    HW136836   1.971   2.123   9.573 -0.1597  0.3573 -0.0442
 8400SOL    HW236837   1.841   2.094   9.650  0.7546 -0.4158  0.4306
 8401SOL     OW36838   3.287   0.119  13.331  0.0219  0.1280  0.3589
 8401SOL    HW136839   3.279   0.214  13.327  0.2250  0.1517  0.5314
 8401SOL    HW236840   3.319   0.097  13.418  1.0444 -0.2413 -0.1133
 8402SOL     OW36841   1.622   0.300   6.421 -0.0340  0.1029 -0.0713
 8402SOL    HW136842   1.564   0.360   6.469  3.3388  1.3180  2.4868
 8402SOL    HW236843   1.656   0.368   6.363  0.2044 -0.5144 -0.6496
 8403SOL     OW36844   4.129   1.308  11.559  0.0990 -0.6646 -0.5818
 8403SOL    HW136845   4.156   1.229  11.605 -1.4325 -1.2327 -0.6454
 8403SOL    HW236846   4.200   1.370  11.575  0.9390 -1.1906 -2.2497
 8404SOL     OW36847   2.696   2.323   4.186 -0.0190  0.1895  0.4155
 8404SOL    HW136848   2.743   2.258   4.134 -0.1506  1.0633 -0.7908
 8404SOL    HW236849   2.660   2.272   4.258 -1.5104  0.9295  0.1790
 8405SOL     OW36850   2.944   4.405   2.892 -0.1890  0.2767 -0.2811
 8405SOL    HW136851   2.956   4.494   2.860  0.0352  0.0052 -0.9592
 8405SOL    HW236852   3.019   4.361   2.852  0.6004  0.1904  1.2911
 8406SOL     OW36853   3.292   1.064  12.993 -0.1211 -0.5178  0.6990
 8406SOL    HW136854   3.321   0.999  12.929 -0.5269 -2.5788  2.6233
 8406SOL    HW236855   3.266   1.008  13.066  0.5936 -0.2650  1.1492
 8407SOL     OW36856   3.153   2.617   3.866 -0.0186  0.2985 -0.2369
 8407SOL    HW136857   3.154   2.599   3.772 -0.2432  1.5262 -0.4742
 8407SOL    HW236858   3.212   2.549   3.899 -1.5103 -0.8737  0.0702
 8408SOL     OW36859   4.557   2.830   9.671  0.4131  0.1903 -0.3166
 8408SOL    HW136860   4.570   2.887   9.595 -1.2059  0.7069 -0.2133
 8408SOL    HW236861   4.505   2.890   9.724  1.0990  1.0891 -0.6622
 8409SOL     OW36862   2.087   2.689   6.232  0.2577 -0.4702  0.2672
 8409SOL    HW136863   2.108   2.653   6.318  1.0330  2.4477  1.2836
 8409SOL    HW236864   2.170   2.704   6.187 -0.1840 -2.6528 -1.2995
 8410SOL     OW36865   3.975   0.268   2.162  0.2933  0.0047  0.8307
 8410SOL    HW136866   4.054   0.283   2.110  0.0990 -0.9014  0.2739
 8410SOL    HW236867   3.913   0.320   2.111  0.8366  0.4997  0.6666
 8411SOL     OW36868   1.099   3.181   7.595 -0.2776  0.2956  0.0446
 8411SOL    HW136869   1.023   3.167   7.538  1.3079 -0.5734 -1.8751
 8411SOL    HW236870   1.159   3.211   7.527 -1.6914 -0.2994 -1.4760
 8412SOL     OW36871   3.688   3.143   1.547 -0.1564 -0.2892 -0.1871
 8412SOL    HW136872   3.726   3.178   1.466 -0.3634 -1.0492 -0.6117
 8412SOL    HW236873   3.735   3.183   1.620  1.2785 -0.0309 -1.2711
 8413SOL     OW36874   1.161   2.902  11.802  0.1852  0.4817 -0.2173
 8413SOL    HW136875   1.236   2.900  11.861 -0.9842  1.4288  1.2759
 8413SOL    HW236876   1.210   2.887  11.720  0.1917  1.5492 -0.4180
 8414SOL     OW36877   1.888   1.000  13.186  0.1969 -0.1158  0.0996
 8414SOL    HW136878   1.912   0.927  13.130 -2.9474 -0.4725 -0.7578
 8414SOL    HW236879   1.830   1.049  13.127  1.0532  1.6787  0.7403
 8415SOL     OW36880   0.548   2.712   6.756 -0.4722  0.6479 -0.4323
 8415SOL    HW136881   0.459   2.694   6.784  0.0392 -1.1297  0.0320
 8415SOL    HW236882   0.585   2.755   6.834 -3.6281  1.0503  0.8325
 8416SOL     OW36883   2.546   4.296   5.498 -0.0173 -0.0106 -0.1926
 8416SOL    HW136884   2.469   4.244   5.519  1.7671 -2.5626  0.0155
 8416SOL    HW236885   2.562   4.261   5.410  2.2746  0.4176  0.0414
 8417SOL     OW36886   4.217   0.815   2.695 -0.0205 -0.1260 -0.0957
 8417SOL    HW136887   4.190   0.724   2.688 -1.7552  0.4089 -0.3180
 8417SOL    HW236888   4.131   0.846   2.723 -0.6504  0.0471 -2.2038
 8418SOL     OW36889   0.403   3.401   3.047 -0.0323 -0.8601  0.0598
 8418SOL    HW136890   0.468   3.439   3.106 -1.3945 -0.1683  1.0956
 8418SOL    HW236891   0.342   3.355   3.104 -0.2065 -0.5730  0.1085
 8419SOL     OW36892   0.662   4.353   2.531  0.1265 -0.0028 -0.6161
 8419SOL    HW136893   0.616   4.435   2.546 -1.7967 -1.3135  0.6072
 8419SOL    HW236894   0.731   4.363   2.596 -1.1427  1.6639  0.4544
 8420SOL     OW36895   4.572   0.919   6.997 -0.1728  0.0959 -0.1625
 8420SOL    HW136896   4.607   0.874   7.073  0.3283 -1.1418 -1.1183
 8420SOL    HW236897   4.578   0.853   6.928 -1.2129 -2.1273  1.8933
 8421SOL     OW36898   2.530   2.124   4.969 -0.4870  0.6583  0.4692
 8421SOL    HW136899   2.547   2.033   4.946  0.6747  1.0405 -0.2278
 8421SOL    HW236900   2.602   2.137   5.030 -0.1928 -1.0551  0.4715
 8422SOL     OW36901   4.199   3.373  13.816 -0.1903  0.1547  0.4103
 8422SOL    HW136902   4.185   3.442  13.880 -2.2849 -1.9744  2.2944
 8422SOL    HW236903   4.157   3.409  13.738  0.2042  0.8030  0.5043
 8423SOL     OW36904   0.524   1.397   2.378 -0.3743  0.7472  0.5256
 8423SOL    HW136905   0.448   1.378   2.433  0.1027 -1.6544  0.3463
 8423SOL    HW236906   0.576   1.448   2.441 -0.4822 -1.1957  2.1571
 8424SOL     OW36907   0.555   0.510   4.208 -0.0439  0.0714 -0.1480
 8424SOL    HW136908   0.518   0.532   4.123  0.3202 -1.3492 -0.6741
 8424SOL    HW236909   0.554   0.416   4.190  1.5226  0.0659 -0.1431
 8425SOL     OW36910   2.755   3.817  15.672  0.2166  0.1077 -0.1035
 8425SOL    HW136911   2.705   3.799  15.592  0.1600 -2.7883  0.5863
 8425SOL    HW236912   2.819   3.747  15.658  2.2991  1.8180  0.9286
 8426SOL     OW36913   4.543   2.183   0.262  0.1095  0.1761 -0.1301
 8426SOL    HW136914   4.476   2.250   0.247  0.8311  1.4541  2.4946
 8426SOL    HW236915   4.628   2.227   0.271  0.3483 -0.0484 -1.2059
 8427SOL     OW36916   4.255   1.558   9.133 -0.7271  0.1132  0.7593
 8427SOL    HW136917   4.274   1.555   9.040 -1.3942 -0.2999  0.6374
 8427SOL    HW236918   4.323   1.608   9.178 -1.1731 -0.1519  1.7326
 8428SOL     OW36919   0.729   2.566   2.467 -0.0257  0.0007  0.7157
 8428SOL    HW136920   0.801   2.579   2.405 -0.6543  2.2624  0.4780
 8428SOL    HW236921   0.780   2.515   2.529  0.3705  0.5018  0.7943
 8429SOL     OW36922   2.221   3.788   9.045  0.1939  0.5563 -0.2884
 8429SOL    HW136923   2.293   3.785   9.108  0.0853  2.7837 -0.0479
 8429SOL    HW236924   2.170   3.854   9.092  0.4306  0.4536  0.1103
 8430SOL     OW36925   0.503   2.601   8.732 -0.1331  0.1563  0.4458
 8430SOL    HW136926   0.445   2.668   8.697 -1.8183 -0.8836  1.2715
 8430SOL    HW236927   0.536   2.556   8.654 -2.8519  0.1881 -0.7115
 8431SOL     OW36928   3.403   3.646   1.617 -0.2254  0.2060  0.0119
 8431SOL    HW136929   3.432   3.556   1.636  0.4441  0.3022 -0.5815
 8431SOL    HW236930   3.424   3.652   1.524 -2.5722 -0.5135 -0.5714
 8432SOL     OW36931   4.110   4.492  17.394 -0.4335  0.0602  0.8804
 8432SOL    HW136932   4.087   4.551  17.322  2.0920 -0.1123 -0.0528
 8432SOL    HW236933   4.038   4.429  17.382 -0.0148  0.0688 -1.6754
 8433SOL     OW36934   4.552   4.089   1.926  0.0137  0.1862  0.7875
 8433SOL    HW136935   4.460   4.067   1.940  0.1489 -1.7192 -1.2597
 8433SOL    HW236936   4.579   4.095   2.017 -0.2952  2.1257  0.7440
 8434SOL     OW36937   2.385   2.875  13.066  0.4149  0.1885  0.3497
 8434SOL    HW136938   2.434   2.804  13.108  1.3828 -0.7012 -2.2416
 8434SOL    HW236939   2.345   2.920  13.140  3.0120  1.8492  0.7219
 8435SOL     OW36940   4.060   0.943   7.496  0.5023  0.3651 -0.2210
 8435SOL    HW136941   4.107   1.018   7.532 -1.1176  1.2805 -0.0393
 8435SOL    HW236942   4.007   0.916   7.570  1.9488  0.8391  0.9895
 8436SOL     OW36943   3.975   4.654   2.556  0.0526  0.3274 -0.4220
 8436SOL    HW136944   3.931   4.705   2.487 -0.8324 -0.1216 -0.1971
 8436SOL    HW236945   3.926   4.666   2.637 -0.2796 -0.9162 -0.4399
 8437SOL     OW36946   1.317   2.704  10.359  0.3493  0.1173 -0.2610
 8437SOL    HW136947   1.301   2.651  10.437  0.4910  0.5391  0.0572
 8437SOL    HW236948   1.248   2.668  10.304  0.3301  2.7190 -1.9864
 8438SOL     OW36949   0.178   4.448   3.502 -0.7096  0.4643  0.2092
 8438SOL    HW136950   0.182   4.541   3.526 -0.5958  0.4167  0.3788
 8438SOL    HW236951   0.225   4.457   3.419  0.9632  0.1985  1.1272
 8439SOL     OW36952   0.629   4.402   4.714  0.2589  0.3808 -0.4792
 8439SOL    HW136953   0.542   4.397   4.675  0.0378  0.5695 -0.0115
 8439SOL    HW236954   0.610   4.369   4.802 -0.8546  0.9133 -0.5145
 8440SOL     OW36955   3.390   0.239  10.378 -0.3103 -0.2142  0.0458
 8440SOL    HW136956   3.331   0.164  10.371 -0.0046 -0.4159 -0.3989
 8440SOL    HW236957   3.323   0.307  10.374  2.0971  2.1698 -0.4539
 8441SOL     OW36958   3.827   4.645   3.862 -0.3153 -0.1037  0.1980
 8441SOL    HW136959   3.876   4.631   3.781  1.6640  0.5648  1.2836
 8441SOL    HW236960   3.753   4.685   3.816  0.6678  2.1449  0.5998
 8442SOL     OW36961   2.074   4.345   1.158  0.3680 -0.0013  0.1833
 8442SOL    HW136962   1.980   4.334   1.145 -0.0316 -0.4712  3.4584
 8442SOL    HW236963   2.072   4.387   1.244 -1.3117 -0.9728  0.5993
 8443SOL     OW36964   3.432   0.713   9.721  0.2889  0.0157  0.1019
 8443SOL    HW136965   3.446   0.807   9.729 -0.9096  0.4787 -2.9681
 8443SOL    HW236966   3.363   0.693   9.783 -0.0159  0.9154  0.0402
 8444SOL     OW36967   3.338   2.842  15.582  0.2502  0.0121 -0.4601
 8444SOL    HW136968   3.335   2.930  15.542 -0.4121 -0.1549 -0.7716
 8444SOL    HW236969   3.255   2.857  15.626 -0.2312  0.2820 -1.4508
 8445SOL     OW36970   1.796   2.247   9.826  0.1893  0.2380 -0.6916
 8445SOL    HW136971   1.891   2.241   9.838  0.0062 -1.1864  0.1415
 8445SOL    HW236972   1.781   2.325   9.774  0.1434  1.2097  0.7943
 8446SOL     OW36973   0.195   2.533   2.158 -0.4277 -0.2474  0.3817
 8446SOL    HW136974   0.204   2.618   2.202  1.3406  0.2486 -0.9642
 8446SOL    HW236975   0.104   2.541   2.130  0.4119  1.1494 -1.8728
 8447SOL     OW36976   4.584   2.702   3.010  0.2329 -0.1133  0.0129
 8447SOL    HW136977   4.569   2.763   2.938  0.7479  1.2927  1.0885
 8447SOL    HW236978   4.493   2.692   3.039  1.0499 -1.2875  2.1968
 8448SOL     OW36979   3.894   2.599   4.781  0.2525  0.2384 -0.0805
 8448SOL    HW136980   3.912   2.597   4.687  0.7745 -0.9879  0.0437
 8448SOL    HW236981   3.950   2.676   4.787 -0.3332  0.8546 -2.5494
 8449SOL     OW36982   2.673   0.728   0.569  0.3396  0.1955 -0.0925
 8449SOL    HW136983   2.625   0.675   0.633 -1.8216  3.1381  0.7127
 8449SOL    HW236984   2.670   0.817   0.605  0.9895  0.1899 -0.0260
 8450SOL     OW36985   3.980   3.086  17.103  0.0627  0.4692  0.0538
 8450SOL    HW136986   4.059   3.033  17.093 -0.6840 -0.3365 -1.5666
 8450SOL    HW236987   3.987   3.161  17.044 -0.0700  0.2529 -0.2373
 8451SOL     OW36988   0.238   0.222  11.136  0.4432 -0.2216  0.2333
 8451SOL    HW136989   0.209   0.219  11.227  0.5094  0.5908  0.2756
 8451SOL    HW236990   0.262   0.314  11.123  0.3920 -0.3597 -0.8642
 8452SOL     OW36991   1.547   0.875   8.496 -0.1417  0.0712  0.8165
 8452SOL    HW136992   1.523   0.901   8.407 -0.0355  0.7578  0.9872
 8452SOL    HW236993   1.625   0.926   8.518 -0.4690  1.8862 -2.1961
 8453SOL     OW36994   3.949   1.972   5.413 -0.3443 -0.7120  0.2916
 8453SOL    HW136995   3.976   1.981   5.505  1.1322 -0.3113 -0.1757
 8453SOL    HW236996   3.889   1.898   5.418 -0.6792 -0.4006  0.9333
 8454SOL     OW36997   0.916   0.175   9.279 -0.0349 -0.0339 -0.3024
 8454SOL    HW136998   0.907   0.252   9.222 -0.9066 -0.0230 -0.1494
 8454SOL    HW236999   0.960   0.114   9.219 -0.6996 -1.2216  0.4117
 8455SOL     OW37000   1.871   0.535   4.554  0.0132 -0.1206  0.4792
 8455SOL    HW137001   1.882   0.626   4.581  0.0330 -0.4948  1.7557
 8455SOL    HW237002   1.824   0.528   4.471  0.3759  2.2231  0.0940
 8456SOL     OW37003   0.314   0.506   6.251 -0.2445  0.0481 -0.2468
 8456SOL    HW137004   0.388   0.487   6.194  0.1300 -0.1560  0.3080
 8456SOL    HW237005   0.289   0.589   6.209  1.8593 -0.3318 -2.2481
 8457SOL     OW37006   0.696   0.402   2.341 -0.2925 -0.0310 -0.9080
 8457SOL    HW137007   0.680   0.476   2.282 -1.2288  0.1729 -0.3842
 8457SOL    HW237008   0.709   0.449   2.423 -0.2359  0.6491 -1.3067
 8458SOL     OW37009   4.195   4.560  11.990  0.2404  0.5309 -0.4884
 8458SOL    HW137010   4.099   4.554  11.990  0.3648 -1.3503 -3.5788
 8458SOL    HW237011   4.217   4.641  12.036  0.4019 -0.4262  1.1498
 8459SOL     OW37012   1.871   1.883   8.779 -0.2212 -0.2407  0.1776
 8459SOL    HW137013   1.945   1.872   8.838 -0.2614 -0.5489  0.1702
 8459SOL    HW237014   1.902   1.939   8.707  1.1770 -0.2513  0.7738
 8460SOL     OW37015   4.007   2.249   9.226  0.3278  0.1475 -0.1901
 8460SOL    HW137016   4.028   2.307   9.299 -1.5368 -0.4950  0.8769
 8460SOL    HW237017   4.066   2.175   9.243  0.7843  1.2093  2.9362
 8461SOL     OW37018   3.576   0.959  13.581  0.0269 -0.2097 -0.2017
 8461SOL    HW137019   3.620   1.039  13.552 -0.5107  0.7407  1.5801
 8461SOL    HW237020   3.502   0.995  13.630  0.4808  1.6257 -0.8609
 8462SOL     OW37021   3.208   3.198   0.118  0.5783 -0.0462 -0.0006
 8462SOL    HW137022   3.145   3.185   0.189 -1.2538  0.9019 -1.4560
 8462SOL    HW237023   3.157   3.184   0.038  0.3932  0.3339  0.0482
 8463SOL     OW37024   1.373   0.829  11.652 -0.4095  0.2240 -0.0836
 8463SOL    HW137025   1.432   0.793  11.587 -0.4925  1.6016 -0.9241
 8463SOL    HW237026   1.411   0.785  11.729 -2.0936 -1.5520 -0.2609
 8464SOL     OW37027   2.223   2.582   4.691 -0.0291  0.2903 -0.4164
 8464SOL    HW137028   2.223   2.487   4.677  1.7999  0.6546 -2.9875
 8464SOL    HW237029   2.252   2.612   4.605  1.1531 -0.4493 -0.2673
 8465SOL     OW37030   1.287   0.999   7.744 -0.1272 -0.5354  0.0510
 8465SOL    HW137031   1.362   0.978   7.687  0.4607  1.3679  0.1244
 8465SOL    HW237032   1.331   1.014   7.828 -0.0806 -3.4811  0.5506
 8466SOL     OW37033   3.835   0.414   8.920  0.3866 -0.2410  0.2576
 8466SOL    HW137034   3.758   0.370   8.883  1.2622 -2.1685  0.7230
 8466SOL    HW237035   3.891   0.338   8.934 -0.7754 -1.1094  0.2222
 8467SOL     OW37036   2.391   1.444   1.350  0.0100 -0.9003  0.4646
 8467SOL    HW137037   2.323   1.484   1.403  0.0885 -3.1127  2.2146
 8467SOL    HW237038   2.348   1.359   1.345 -1.0355 -0.4116  1.0597
 8468SOL     OW37039   0.674   3.760   2.913 -0.2306  0.1176  0.0092
 8468SOL    HW137040   0.684   3.772   2.818 -2.4866 -0.5615 -0.3264
 8468SOL    HW237041   0.761   3.791   2.938  1.0399 -3.4881 -0.0031
 8469SOL     OW37042   3.473   3.905   5.548  0.2660 -0.6370 -0.0458
 8469SOL    HW137043   3.534   3.885   5.477 -1.3156 -0.5652 -1.4092
 8469SOL    HW237044   3.428   3.821   5.558  0.1113 -0.5878 -0.3275
 8470SOL     OW37045   1.074   0.230  12.437 -0.2169  0.4888 -0.1264
 8470SOL    HW137046   1.002   0.267  12.387 -0.2936 -0.6571 -0.8739
 8470SOL    HW237047   1.076   0.139  12.408  1.7659  1.0358 -1.6615
 8471SOL     OW37048   1.219   3.590   8.313 -0.0607 -0.0835  0.5397
 8471SOL    HW137049   1.177   3.632   8.237  1.3015 -0.5697 -0.4826
 8471SOL    HW237050   1.141   3.595   8.368 -1.5207  1.2603 -1.6284
 8472SOL     OW37051   3.664   1.744   3.539  0.9767  1.2086  0.0346
 8472SOL    HW137052   3.699   1.795   3.612  0.2504 -0.3783  1.5125
 8472SOL    HW237053   3.629   1.662   3.576  2.4526  0.2152 -0.7692
 8473SOL     OW37054   2.875   3.367  10.582  0.2591 -0.0081  0.0951
 8473SOL    HW137055   2.859   3.460  10.595  3.3586  0.4904  0.3765
 8473SOL    HW237056   2.882   3.365  10.486  1.1459  3.1031  0.0839
 8474SOL     OW37057   3.638   4.525   1.485  0.2254  0.0212 -0.6710
 8474SOL    HW137058   3.554   4.571   1.495 -0.2781 -1.4664  1.8368
 8474SOL    HW237059   3.662   4.561   1.399 -2.9517  1.1071 -1.0925
 8475SOL     OW37060   1.113   1.559  15.115 -0.2166  0.3858 -0.3099
 8475SOL    HW137061   1.087   1.485  15.060 -0.0597  0.7229 -0.8362
 8475SOL    HW237062   1.204   1.579  15.094  0.3042 -0.1272  1.5428
 8476SOL     OW37063   0.087   4.350   7.636  0.6429  0.0510 -0.1450
 8476SOL    HW137064   0.139   4.420   7.675  0.9807 -0.2084 -0.1317
 8476SOL    HW237065   0.091   4.376   7.544 -3.3488 -1.2752 -0.7174
 8477SOL     OW37066   2.979   3.478   1.526 -0.2562  0.0219  0.1269
 8477SOL    HW137067   2.906   3.420   1.544  0.6237 -0.8680  0.8249
 8477SOL    HW237068   3.016   3.432   1.451 -0.2736  0.1821  0.0190
 8478SOL     OW37069   4.162   0.152  11.948  0.1061 -0.1991 -0.4074
 8478SOL    HW137070   4.210   0.141  12.030  1.1453  1.3235 -0.8221
 8478SOL    HW237071   4.071   0.171  11.970  1.0007 -0.1068  3.3115
 8479SOL     OW37072   4.342   3.355  10.972 -0.6376 -0.7005  0.2262
 8479SOL    HW137073   4.423   3.379  11.017 -1.1391  2.4367 -0.5687
 8479SOL    HW237074   4.328   3.414  10.899  0.5290 -0.1491  0.4507
 8480SOL     OW37075   2.772   4.251   3.932 -0.7436 -0.4286 -0.4620
 8480SOL    HW137076   2.824   4.300   3.869  1.3197  0.7221  2.1031
 8480SOL    HW237077   2.776   4.162   3.896 -3.7159 -1.5897  2.0309
 8481SOL     OW37078   2.295   3.254   7.508 -0.0703 -0.0719  0.0278
 8481SOL    HW137079   2.208   3.214   7.522 -0.5175  0.1771 -2.0345
 8481SOL    HW237080   2.296   3.340   7.550 -1.3685 -0.3008  0.5497
 8482SOL     OW37081   3.360   4.673   9.443  0.4261  0.0934  0.2406
 8482SOL    HW137082   3.309   4.636   9.371  0.3881  0.1816  0.2217
 8482SOL    HW237083   3.311   0.013   9.476  2.1102  0.3343  2.1431
 8483SOL     OW37084   0.379   2.453   8.965 -0.4538  0.0956 -0.3841
 8483SOL    HW137085   0.413   2.505   8.893  2.1310 -0.0112  0.7511
 8483SOL    HW237086   0.287   2.471   8.944 -0.1212 -1.3663 -3.1222
 8484SOL     OW37087   3.248   0.056  13.020 -0.1017  0.0082  0.4818
 8484SOL    HW137088   3.184   0.045  13.090 -0.6547 -0.2053 -0.0592
 8484SOL    HW237089   3.274   4.702  12.998 -0.5186  0.1904 -0.7617
 8485SOL     OW37090   0.745   1.762   6.843 -0.0803  0.4262  0.5682
 8485SOL    HW137091   0.708   1.677   6.866 -1.9231  0.7857 -1.1276
 8485SOL    HW237092   0.835   1.751   6.874 -0.3839  0.9853  1.6288
 8486SOL     OW37093   3.690   3.373   7.610  0.3580 -0.4817  0.0513
 8486SOL    HW137094   3.614   3.394   7.557  1.4202  1.8437 -0.5584
 8486SOL    HW237095   3.673   3.446   7.670  0.0235 -1.0836  0.6851
 8487SOL     OW37096   0.248   1.666   2.195  0.4492 -0.0253 -0.4299
 8487SOL    HW137097   0.240   1.649   2.289  1.1565  0.3549 -0.3026
 8487SOL    HW237098   0.331   1.714   2.190  0.3824  0.0715 -0.6271
 8488SOL     OW37099   3.139   0.620   8.258  0.5587  0.3113 -0.0853
 8488SOL    HW137100   3.160   0.627   8.351 -0.3215 -1.2989  0.2439
 8488SOL    HW237101   3.078   0.694   8.256  0.1755  0.0209  1.8371
 8489SOL     OW37102   2.569   1.107   2.566 -0.3446  0.5179  0.2901
 8489SOL    HW137103   2.550   1.013   2.570 -0.0851  0.5460  2.1965
 8489SOL    HW237104   2.522   1.120   2.484  0.5598 -1.3334 -0.5139
 8490SOL     OW37105   0.641   2.100   3.543 -0.4565 -0.1119  0.5533
 8490SOL    HW137106   0.727   2.070   3.572  0.8644 -0.3226 -3.6313
 8490SOL    HW237107   0.572   2.059   3.595 -1.1303 -0.5128 -0.6690
 8491SOL     OW37108   2.476   4.302   7.213 -0.0170  0.2457 -0.6102
 8491SOL    HW137109   2.394   4.303   7.262 -0.2219 -1.4891 -0.9131
 8491SOL    HW237110   2.427   4.275   7.134  0.7159  2.0113 -1.6554
 8492SOL     OW37111   0.359   0.168   4.420  0.3329 -0.3663  0.3292
 8492SOL    HW137112   0.330   0.256   4.445  1.9849  0.5391 -0.9361
 8492SOL    HW237113   0.419   0.188   4.348 -1.2975  2.8792 -0.1116
 8493SOL     OW37114   1.468   4.658   7.870 -0.3229  0.6038  0.0039
 8493SOL    HW137115   1.537   4.614   7.921 -0.2207  3.8510  2.6681
 8493SOL    HW237116   1.509   4.647   7.784 -0.7490  3.2100 -0.5163
 8494SOL     OW37117   2.248   3.604   6.904 -0.3683 -0.0523  0.0657
 8494SOL    HW137118   2.264   3.523   6.954 -0.6959  0.2846  0.7101
 8494SOL    HW237119   2.208   3.566   6.825 -1.2764  1.7335 -0.3121
 8495SOL     OW37120   2.846   4.684  16.502 -0.6078  0.3074  0.1101
 8495SOL    HW137121   2.857   0.015  16.569 -1.1062 -0.8882  1.3773
 8495SOL    HW237122   2.816   4.609  16.552 -0.1364 -0.1727 -0.3243
 8496SOL     OW37123   0.267   0.626   6.486  0.4063 -0.4979 -0.3037
 8496SOL    HW137124   0.287   0.567   6.413 -1.2412 -0.7772 -0.5190
 8496SOL    HW237125   0.263   0.556   6.551 -0.6204 -0.2467 -0.1021
 8497SOL     OW37126   3.033   3.542   4.078 -0.3924  1.0058 -0.8182
 8497SOL    HW137127   2.969   3.479   4.047  0.1984 -0.7963  1.6037
 8497SOL    HW237128   3.038   3.515   4.170 -0.8425 -0.1740 -1.1419
 8498SOL     OW37129   4.255   4.551   8.852  0.0269  0.5272 -0.4554
 8498SOL    HW137130   4.343   4.583   8.829  1.1558 -0.3572  2.6639
 8498SOL    HW237131   4.245   4.574   8.944 -4.1156 -1.1550 -0.4920
 8499SOL     OW37132   1.587   3.789   4.119 -0.3142 -0.1406 -0.0453
 8499SOL    HW137133   1.620   3.745   4.041 -0.0441 -1.3891  0.7736
 8499SOL    HW237134   1.540   3.863   4.080  0.3666 -0.6094 -1.7817
 8500SOL     OW37135   1.487   0.974  10.876 -0.4682 -0.3948 -0.1783
 8500SOL    HW137136   1.444   0.889  10.877  2.0587 -1.6779 -0.3132
 8500SOL    HW237137   1.479   1.005  10.786  1.1677  0.3563 -0.0693
 8501SOL     OW37138   3.418   0.157  12.492  0.0665 -0.3151  0.4660
 8501SOL    HW137139   3.348   0.165  12.427 -1.2656 -3.9377  1.4239
 8501SOL    HW237140   3.378   0.110  12.565 -1.0506 -0.5762 -0.3141
 8502SOL     OW37141   4.472   1.975   9.325 -0.4212 -0.1524  0.4159
 8502SOL    HW137142   4.421   2.039   9.374 -0.9045 -0.8016  0.7633
 8502SOL    HW237143   4.531   2.031   9.275 -0.0627  0.1213  1.1435
 8503SOL     OW37144   3.624   2.205   8.428  0.1961 -0.3267 -0.0181
 8503SOL    HW137145   3.562   2.221   8.499  1.2938 -1.4160  1.1826
 8503SOL    HW237146   3.702   2.175   8.475  1.1339  2.9681  0.5998
 8504SOL     OW37147   4.004   1.369   6.914  0.1405 -0.0399 -0.9616
 8504SOL    HW137148   4.039   1.356   6.826  1.9785  0.3346 -0.2913
 8504SOL    HW237149   4.050   1.451   6.933 -0.5619 -0.3549  2.0514
 8505SOL     OW37150   1.379   2.663   3.171 -0.1930 -0.0923  0.4053
 8505SOL    HW137151   1.324   2.734   3.137  1.4261  0.5546 -0.8832
 8505SOL    HW237152   1.387   2.682   3.264  1.8805  0.6251  0.0836
 8506SOL     OW37153   1.128   3.689   5.298 -0.2252  0.0358  0.1142
 8506SOL    HW137154   1.164   3.697   5.210 -0.9070  1.0747 -0.0629
 8506SOL    HW237155   1.138   3.594   5.305  0.9620  0.0461 -1.4506
 8507SOL     OW37156   2.504   3.152  12.672 -0.0740 -0.7479  0.5044
 8507SOL    HW137157   2.483   3.136  12.765  0.8984 -1.1745  0.6477
 8507SOL    HW237158   2.593   3.186  12.684 -0.9344  1.3944  0.6937
 8508SOL     OW37159   1.180   4.145  17.309 -0.2176  0.4072 -0.1659
 8508SOL    HW137160   1.226   4.186  17.236  0.8556 -0.7806 -0.1734
 8508SOL    HW237161   1.210   4.202  17.379 -0.7191 -1.0003  1.1941
 8509SOL     OW37162   1.457   2.433   6.619 -0.6765 -0.2041  0.1745
 8509SOL    HW137163   1.397   2.499   6.654 -1.1543  0.5353 -2.0722
 8509SOL    HW237164   1.447   2.439   6.524  0.5107 -1.2760 -0.0211
 8510SOL     OW37165   1.979   0.581   2.928 -0.5352  0.0502  0.3530
 8510SOL    HW137166   1.951   0.493   2.901  0.5897  0.5733 -2.4682
 8510SOL    HW237167   2.035   0.611   2.857  0.1819  1.3989  1.4797
 8511SOL     OW37168   1.126   1.752   0.685  0.3300  0.1479  0.1283
 8511SOL    HW137169   1.151   1.845   0.692  1.5321 -0.2489  1.1780
 8511SOL    HW237170   1.211   1.713   0.704  0.0085 -0.2575  0.7069
 8512SOL     OW37171   4.514   3.003   8.545 -0.2648  0.0113 -0.1856
 8512SOL    HW137172   4.593   3.044   8.511  0.5446 -0.9717  0.4734
 8512SOL    HW237173   4.476   3.046   8.622 -0.5865 -2.5429  1.1030
 8513SOL     OW37174   3.577   1.031   8.400 -0.2707  0.4153 -0.3348
 8513SOL    HW137175   3.615   1.114   8.370 -0.9312  1.5429  1.9908
 8513SOL    HW237176   3.500   1.025   8.343  0.2023 -0.7880 -0.8372
 8514SOL     OW37177   1.954   0.879   3.682 -0.1060  0.1709  0.1330
 8514SOL    HW137178   1.977   0.899   3.591  0.9915  2.0325  0.8135
 8514SOL    HW237179   1.992   0.792   3.690  1.5235  0.7286 -1.5626
 8515SOL     OW37180   4.096   4.607   1.983  0.5509 -0.4012  0.1225
 8515SOL    HW137181   4.119   4.514   1.993  2.1878  0.0860  0.8328
 8515SOL    HW237182   4.151   4.650   2.048  0.8334 -1.6708  0.7171
 8516SOL     OW37183   4.688   1.324   2.847 -0.2127  0.6086 -0.7678
 8516SOL    HW137184   4.714   1.268   2.921  0.0125  1.1553 -0.4245
 8516SOL    HW237185   4.616   1.378   2.878 -0.7518  0.5449 -1.9331
 8517SOL     OW37186   2.844   3.182   6.003 -0.0925  0.0673 -1.2003
 8517SOL    HW137187   2.753   3.165   6.025  0.6071 -2.2429 -0.0052
 8517SOL    HW237188   2.854   3.146   5.915 -0.3020  1.2114 -1.6848
 8518SOL     OW37189   0.217   2.712   9.667  0.5900 -0.3152  0.1277
 8518SOL    HW137190   0.210   2.795   9.714  3.4514  0.8856 -1.5648
 8518SOL    HW237191   0.300   2.676   9.700 -0.2693 -2.0781  0.3322
 8519SOL     OW37192   2.494   3.028   4.789 -0.1397 -0.2151 -0.2675
 8519SOL    HW137193   2.437   2.957   4.760 -0.7250  0.1817 -0.0885
 8519SOL    HW237194   2.439   3.102   4.761  1.5936  0.7202 -1.1878
 8520SOL     OW37195   1.818   0.114   7.376  0.6297  0.0627 -0.6378
 8520SOL    HW137196   1.774   0.030   7.390  2.6575 -1.1630 -1.4864
 8520SOL    HW237197   1.739   0.158   7.347 -0.6871 -1.2584  0.9033
 8521SOL     OW37198   4.352   2.454   8.315 -0.4758 -0.4048  0.7908
 8521SOL    HW137199   4.376   2.493   8.400  1.0987 -1.1541  0.6958
 8521SOL    HW237200   4.305   2.375   8.341 -0.9513 -0.3013  0.2521
 8522SOL     OW37201   3.815   2.058   2.978 -0.1005 -0.0854 -0.0762
 8522SOL    HW137202   3.898   2.090   3.014 -0.7417  0.4376  0.9441
 8522SOL    HW237203   3.834   2.051   2.885 -0.3735  1.7824 -0.2650
 8523SOL     OW37204   1.050   2.792   2.613 -0.0293 -0.1162 -0.1459
 8523SOL    HW137205   1.039   2.706   2.652  4.0372 -0.5570  0.0707
 8523SOL    HW237206   0.963   2.816   2.582 -0.2576  1.2255  1.5011
 8524SOL     OW37207   2.846   2.041   5.035  0.5248 -0.6944 -0.1325
 8524SOL    HW137208   2.804   2.086   5.108  1.8629  2.1696 -1.0993
 8524SOL    HW237209   2.891   2.120   5.006 -1.1482 -0.2872 -1.6088
 8525SOL     OW37210   2.005   2.590   3.794  0.1246 -0.1567  0.3808
 8525SOL    HW137211   1.976   2.654   3.729 -1.1032  0.5337  1.6095
 8525SOL    HW237212   2.094   2.619   3.813 -0.8232  0.8332  3.4293
 8526SOL     OW37213   4.651   1.312  16.563  0.4542  0.4117 -0.2032
 8526SOL    HW137214   0.003   1.328  16.530  0.6968 -0.6431 -0.0537
 8526SOL    HW237215   4.602   1.318  16.480 -0.2005 -1.5358  0.0501
 8527SOL     OW37216   1.964   2.747   5.238 -0.0015 -1.0574 -0.0170
 8527SOL    HW137217   1.879   2.762   5.195  0.2916  1.8902  0.4582
 8527SOL    HW237218   1.929   2.685   5.302 -2.5114  2.1903  1.7283
 8528SOL     OW37219   4.241   1.390   2.827 -0.2119 -0.2388  0.2685
 8528SOL    HW137220   4.206   1.301   2.825  1.6972 -1.0042  0.2090
 8528SOL    HW237221   4.252   1.399   2.732  2.5968  0.8416  0.6984
 8529SOL     OW37222   3.588   4.661   3.276 -0.1849 -0.6563  0.0542
 8529SOL    HW137223   3.607   0.013   3.245 -1.0800 -0.4031  0.2399
 8529SOL    HW237224   3.528   4.640   3.204 -2.8984 -1.9443  2.7104
 8530SOL     OW37225   3.894   3.453   8.064 -0.0439 -0.5126 -0.5166
 8530SOL    HW137226   3.938   3.493   7.989 -0.3384 -1.9951 -1.5038
 8530SOL    HW237227   3.909   3.361   8.041  0.8517 -0.9720  1.9658
 8531SOL     OW37228   3.017   4.706   4.340 -0.5684 -0.5667 -0.4279
 8531SOL    HW137229   2.997   4.624   4.295  2.7582  0.5431 -3.9352
 8531SOL    HW237230   3.007   4.685   4.433  0.5655  3.7127  0.6460
 8532SOL     OW37231   3.203   1.421   2.345  0.1656 -0.1881 -0.1974
 8532SOL    HW137232   3.216   1.421   2.440  2.6236  1.8540 -0.5371
 8532SOL    HW237233   3.156   1.504   2.337 -0.2344 -0.5350 -1.4668
 8533SOL     OW37234   2.941   1.272   8.794 -0.4552  0.2232  0.0054
 8533SOL    HW137235   2.885   1.283   8.718 -1.7689  1.0070  1.0972
 8533SOL    HW237236   3.029   1.275   8.755 -1.0820 -1.2936 -1.5350
 8534SOL     OW37237   3.700   2.358   7.876 -0.0476  0.0604  0.1085
 8534SOL    HW137238   3.648   2.367   7.797 -2.8072  1.1864  2.0359
 8534SOL    HW237239   3.635   2.346   7.946  0.4874  0.0932  0.6088
 8535SOL     OW37240   1.587   1.481   5.968 -0.5085 -0.4682 -0.0669
 8535SOL    HW137241   1.635   1.532   6.033 -0.5928 -1.1918  0.5573
 8535SOL    HW237242   1.657   1.430   5.927  1.1517  3.4487 -2.1541
 8536SOL     OW37243   0.786   4.199   9.518 -0.2645 -0.5360  0.1942
 8536SOL    HW137244   0.848   4.186   9.447  0.2332  1.8314  0.1858
 8536SOL    HW237245   0.755   4.109   9.529 -3.0824  0.2885 -1.1320
 8537SOL     OW37246   4.607   1.494   0.450 -0.2960  0.1776  0.0799
 8537SOL    HW137247   4.535   1.514   0.389 -0.0405 -2.1243 -0.9944
 8537SOL    HW237248   4.680   1.477   0.390 -2.5240 -3.4261 -1.5623
 8538SOL     OW37249   4.098   1.825  17.472 -0.3824  0.0356 -0.1950
 8538SOL    HW137250   4.019   1.878  17.470  0.2310  0.9411 -0.3197
 8538SOL    HW237251   4.067   1.739  17.502  1.3858 -0.7380 -0.5564
 8539SOL     OW37252   0.357   3.381   5.678  0.0256 -0.0923  0.2235
 8539SOL    HW137253   0.354   3.436   5.600  0.8511  1.8771  1.5705
 8539SOL    HW237254   0.399   3.438   5.743 -1.1634  0.8049  0.2095
 8540SOL     OW37255   2.001   4.608   7.516 -0.2811 -0.4052 -0.1460
 8540SOL    HW137256   1.952   4.527   7.531 -1.2715  0.1181 -0.5073
 8540SOL    HW237257   1.938   4.672   7.550 -0.0631 -0.2350 -0.0669
 8541SOL     OW37258   1.001   0.022   1.554  0.2095  0.4333 -0.2762
 8541SOL    HW137259   0.960   0.037   1.639  1.0577 -1.7515  0.5286
 8541SOL    HW237260   1.091   0.033   1.584  0.3002  0.6516 -0.6326
 8542SOL     OW37261   3.952   0.449  13.643 -0.1554  0.5361  0.4276
 8542SOL    HW137262   3.962   0.354  13.644 -0.8211  0.4550 -1.7304
 8542SOL    HW237263   3.984   0.469  13.555 -0.4739  0.5752  0.3221
 8543SOL     OW37264   0.591   1.469   5.371  0.0160 -0.0757 -0.2296
 8543SOL    HW137265   0.662   1.455   5.308 -1.7299  1.3703 -2.5133
 8543SOL    HW237266   0.622   1.421   5.448  0.8499 -0.0764 -0.5628
 8544SOL     OW37267   4.438   0.614   1.679  0.7265  0.0631 -0.5293
 8544SOL    HW137268   4.443   0.678   1.750 -4.2326 -0.4335  0.2367
 8544SOL    HW237269   4.423   0.537   1.735 -0.1924  0.3305 -0.4163
 8545SOL     OW37270   2.388   1.967  11.704 -0.1797  0.4914  0.3002
 8545SOL    HW137271   2.407   2.045  11.652  0.0774  0.1313 -0.1384
 8545SOL    HW237272   2.317   1.928  11.653 -0.7950  1.6791  0.2413
 8546SOL     OW37273   2.380   2.365   8.952  0.5085  0.4533  0.0197
 8546SOL    HW137274   2.334   2.297   8.903 -0.2495  0.0678  1.2838
 8546SOL    HW237275   2.316   2.436   8.943  0.1722  0.1559  0.0524
 8547SOL     OW37276   3.318   2.664   4.364  0.5837  0.0216 -0.0612
 8547SOL    HW137277   3.297   2.689   4.274  0.1764  0.6543  0.2100
 8547SOL    HW237278   3.313   2.747   4.410 -5.3436  0.3158 -1.1588
 8548SOL     OW37279   1.176   4.581   4.947 -0.3435 -0.7150 -0.1327
 8548SOL    HW137280   1.237   4.655   4.957 -0.4592 -1.0892  3.4475
 8548SOL    HW237281   1.238   4.508   4.946  0.0080 -0.4294  0.4280
 8549SOL     OW37282   3.959   0.562   2.836 -0.2827  0.3046  0.5977
 8549SOL    HW137283   3.866   0.570   2.856 -0.4466 -2.7100  1.0237
 8549SOL    HW237284   3.990   0.549   2.926  1.2114  2.5736  0.4208
 8550SOL     OW37285   3.555   3.649   6.679 -0.0165  0.5204 -0.4457
 8550SOL    HW137286   3.477   3.698   6.706  0.0049 -0.1639  0.8544
 8550SOL    HW237287   3.560   3.680   6.589  1.9729 -0.2437 -0.5963
 8551SOL     OW37288   1.981   3.955   9.993 -0.1491 -0.2638 -0.1096
 8551SOL    HW137289   1.958   3.991   9.908 -0.3426 -1.5438 -0.5991
 8551SOL    HW237290   2.027   4.033  10.026 -0.1417 -0.1895 -0.2946
 8552SOL     OW37291   1.834   0.841  12.963 -0.5910  0.2484 -0.2167
 8552SOL    HW137292   1.926   0.845  12.937 -0.3151 -0.9242  0.5758
 8552SOL    HW237293   1.812   0.749  12.949  0.5229 -0.0090 -0.2737
 8553SOL     OW37294   3.382   0.027   1.672  0.4916  0.5794 -0.7185
 8553SOL    HW137295   3.369   0.075   1.590  0.2249  1.2023 -0.3119
 8553SOL    HW237296   3.300   0.050   1.715  0.0335 -1.5184 -0.4823
 8554SOL     OW37297   3.154   2.140   6.444 -0.1313 -0.0343  0.3081
 8554SOL    HW137298   3.209   2.078   6.396  0.6435  0.1704  0.9360
 8554SOL    HW237299   3.223   2.175   6.501 -0.1150  1.0009 -0.3426
 8555SOL     OW37300   2.907   1.015   5.028  0.6852  0.7480 -0.3089
 8555SOL    HW137301   2.950   0.941   5.070  0.6884  1.9418  1.7911
 8555SOL    HW237302   2.910   1.075   5.102  1.0673 -0.7595  0.8961
 8556SOL     OW37303   3.539   4.637   8.010 -0.1145  0.9329  0.2012
 8556SOL    HW137304   3.539   4.683   7.925  0.7525 -0.8217 -0.7504
 8556SOL    HW237305   3.445   4.628   8.024  0.1331  0.6918  1.6522
 8557SOL     OW37306   0.637   2.068  10.368 -0.5634  0.3766  0.2739
 8557SOL    HW137307   0.693   2.012  10.314  1.0845  2.4038 -0.1376
 8557SOL    HW237308   0.566   2.098  10.312 -1.0168 -0.1834  0.5500
 8558SOL     OW37309   1.648   0.309  15.306  0.5394  0.2156  0.4027
 8558SOL    HW137310   1.737   0.295  15.337  0.1018 -2.2112  0.5502
 8558SOL    HW237311   1.658   0.358  15.224  1.8201 -1.4814 -0.4443
 8559SOL     OW37312   1.713   1.768   2.770 -0.0079  0.1863  0.0157
 8559SOL    HW137313   1.779   1.705   2.799  0.2581 -0.0286 -1.0721
 8559SOL    HW237314   1.725   1.833   2.839 -0.7212  1.0300 -0.6593
 8560SOL     OW37315   4.347   1.240   1.950 -0.6601  0.1686  0.0509
 8560SOL    HW137316   4.433   1.269   1.981 -0.7485  1.4197 -0.8691
 8560SOL    HW237317   4.333   1.296   1.874 -1.4631 -2.4799 -1.7157
 8561SOL     OW37318   3.037   3.780  11.079 -0.0907  0.5766  0.2636
 8561SOL    HW137319   3.013   3.741  10.995  1.5702  4.5488 -2.0892
 8561SOL    HW237320   2.958   3.789  11.131  0.3026  1.9377  0.6445
 8562SOL     OW37321   4.301   2.171   9.408 -0.1216 -0.3588  0.1580
 8562SOL    HW137322   4.268   2.261   9.413  0.2287 -0.1807 -0.8689
 8562SOL    HW237323   4.257   2.134   9.485  1.7572 -0.6906  1.0670
 8563SOL     OW37324   2.795   0.372   7.944 -0.0520 -0.4878  0.4166
 8563SOL    HW137325   2.750   0.426   7.878  1.6422 -2.2304 -2.1656
 8563SOL    HW237326   2.725   0.310   7.965 -1.9133  1.1004 -1.0359
 8564SOL     OW37327   2.447   0.016   4.810  0.1997  0.0011 -0.6348
 8564SOL    HW137328   2.461   0.090   4.868  0.7868 -0.4839 -0.1573
 8564SOL    HW237329   2.361   4.719   4.835 -0.3938  0.4798 -2.0563
 8565SOL     OW37330   3.603   4.616   9.365  0.2913  0.2105 -0.5863
 8565SOL    HW137331   3.589   4.531   9.405  1.1700  0.3012 -0.0733
 8565SOL    HW237332   3.533   4.673   9.394 -1.0774 -1.3019 -0.9414
 8566SOL     OW37333   4.369   2.597  10.487  0.5813  0.0241 -0.2192
 8566SOL    HW137334   4.313   2.600  10.564 -0.1805 -1.7540 -0.6967
 8566SOL    HW237335   4.420   2.520  10.514 -0.4345 -1.0031 -1.2840
 8567SOL     OW37336   4.576   3.631  15.143 -0.0719 -0.2235 -0.4119
 8567SOL    HW137337   4.531   3.715  15.132  1.4489  0.6825  0.1744
 8567SOL    HW237338   4.666   3.660  15.127 -0.3141  0.9479  0.3123
 8568SOL     OW37339   0.941   2.957   1.933 -0.2409  0.0956  0.5042
 8568SOL    HW137340   1.023   2.986   1.973 -0.9971  0.6352  1.6781
 8568SOL    HW237341   0.911   2.887   1.990  1.6310 -0.1197  1.2280
 8569SOL     OW37342   1.034   2.941   7.869 -0.2674 -0.7463 -0.2249
 8569SOL    HW137343   0.968   2.882   7.907 -1.8305  1.4057  0.4196
 8569SOL    HW237344   1.035   2.918   7.776 -2.2161 -1.1388 -0.1505
 8570SOL     OW37345   1.649   0.303  17.040  0.0395  0.1570  0.2568
 8570SOL    HW137346   1.726   0.254  17.069 -1.7956 -2.5464  0.5489
 8570SOL    HW237347   1.626   0.366  17.109 -0.7453 -1.0497  1.1039
 8571SOL     OW37348   2.281   3.916   1.044 -0.4773 -0.7612  0.1943
 8571SOL    HW137349   2.277   3.960   0.959 -0.3632  0.1645  0.6658
 8571SOL    HW237350   2.206   3.954   1.089  0.2896 -0.1024  0.9183
 8572SOL     OW37351   2.464   3.201   5.814  0.4505 -0.1736 -0.3803
 8572SOL    HW137352   2.436   3.195   5.722  0.1449 -0.2912 -0.2800
 8572SOL    HW237353   2.467   3.296   5.823  0.2814 -0.3627  1.4993
 8573SOL     OW37354   4.676   4.327   4.840 -0.3637  0.1600  0.2303
 8573SOL    HW137355   4.683   4.290   4.928 -2.0031  0.0066  0.2949
 8573SOL    HW237356   4.687   4.421   4.850 -1.2202  0.1609  1.1351
 8574SOL     OW37357   0.386   1.619  15.937 -0.2668 -0.0966 -0.2900
 8574SOL    HW137358   0.363   1.704  15.974  2.5452  1.3088 -1.7783
 8574SOL    HW237359   0.385   1.642  15.844 -0.4958  1.6939  0.1530
 8575SOL     OW37360   4.617   2.516   6.355  0.4071 -0.0751  0.7960
 8575SOL    HW137361   4.669   2.584   6.398  1.7311  0.0487 -0.9999
 8575SOL    HW237362   4.531   2.531   6.392  1.3359  1.2626  2.3754
 8576SOL     OW37363   1.525   3.954   2.951  0.1798 -0.2111  0.4087
 8576SOL    HW137364   1.483   4.015   2.890  2.6690 -0.6174 -1.7446
 8576SOL    HW237365   1.441   3.932   2.991 -1.3323  1.4498 -1.7954
 8577SOL     OW37366   1.453   0.676   8.995  0.0715  0.9140 -0.4637
 8577SOL    HW137367   1.468   0.744   8.929 -0.4050  2.4869  1.0548
 8577SOL    HW237368   1.521   0.700   9.058 -1.1925  1.9382  0.5210
 8578SOL     OW37369   0.227   3.762   4.069 -0.4120  0.2006 -0.0662
 8578SOL    HW137370   0.209   3.758   3.975  0.9040 -1.0138 -0.2576
 8578SOL    HW237371   0.193   3.678   4.098 -0.4818  0.2694  0.0533
 8579SOL     OW37372   2.082   0.629   5.541  0.1353  0.0008  0.5228
 8579SOL    HW137373   2.170   0.665   5.524 -0.3319  0.6712 -0.5063
 8579SOL    HW237374   2.077   0.552   5.484 -2.8957 -1.0034  2.1560
 8580SOL     OW37375   0.780   4.139   3.096  0.1072 -0.1521 -0.4498
 8580SOL    HW137376   0.710   4.188   3.140 -1.6501 -1.5833 -1.6381
 8580SOL    HW237377   0.861   4.177   3.130  1.0818 -0.9901 -1.8674
 8581SOL     OW37378   1.239   0.066   1.673  0.1159 -0.2597 -0.7764
 8581SOL    HW137379   1.246   0.158   1.647 -1.3194  1.6734  5.9109
 8581SOL    HW237380   1.223   0.060   1.767  3.4498 -0.5393 -0.2154
 8582SOL     OW37381   3.669   3.816   4.887  0.0727  0.2580  0.0434
 8582SOL    HW137382   3.677   3.891   4.827  0.1791 -1.5559 -2.2343
 8582SOL    HW237383   3.652   3.753   4.817  1.1854 -1.0177  0.9368
 8583SOL     OW37384   2.921   4.455   4.880 -0.1606 -0.0893  0.7417
 8583SOL    HW137385   2.917   4.547   4.906 -1.2500  0.0614  0.0660
 8583SOL    HW237386   2.976   4.421   4.950  0.5463  1.1873  0.8157
 8584SOL     OW37387   2.942   2.179   7.686 -0.0386 -0.0484 -0.1411
 8584SOL    HW137388   2.975   2.089   7.683  0.9739  0.4193 -3.0624
 8584SOL    HW237389   3.026   2.223   7.672 -0.7210  0.9510 -1.0318
 8585SOL     OW37390   4.601   3.700  10.721  0.0106 -0.1864  0.0094
 8585SOL    HW137391   4.602   3.605  10.706 -0.8377 -0.2456  0.3516
 8585SOL    HW237392   4.681   3.731  10.764  0.7366  0.6955 -1.9599
 8586SOL     OW37393   1.956   4.066   8.544 -0.2667 -0.3201 -0.1962
 8586SOL    HW137394   1.932   3.991   8.598  2.2610 -0.8938  0.1369
 8586SOL    HW237395   1.871   4.109   8.544 -0.8919 -1.5666  0.2130
 8587SOL     OW37396   2.610   4.016   7.224  0.3411  0.2521 -0.1388
 8587SOL    HW137397   2.672   3.968   7.279 -0.2084 -2.4742 -1.9067
 8587SOL    HW237398   2.623   4.105   7.258  0.4262 -0.0402  0.5881
 8588SOL     OW37399   1.377   4.082   4.575  0.0678  0.0916 -0.0104
 8588SOL    HW137400   1.331   3.998   4.571  0.7748 -0.1455 -2.8004
 8588SOL    HW237401   1.459   4.057   4.616  0.1459 -0.6948 -0.6456
 8589SOL     OW37402   2.022   0.631   3.172 -0.5398  0.2588  0.2700
 8589SOL    HW137403   1.998   0.724   3.170 -0.1139  0.3295 -1.7009
 8589SOL    HW237404   2.016   0.611   3.079 -2.1236 -2.7218  1.0275
 8590SOL     OW37405   1.325   4.232   5.714 -0.0487 -0.0026 -0.7817
 8590SOL    HW137406   1.251   4.194   5.666 -1.8209  1.1722  0.9725
 8590SOL    HW237407   1.388   4.163   5.695  0.9345  1.3991 -2.6461
 8591SOL     OW37408   0.847   3.482  11.002  0.0056 -0.2990 -0.3524
 8591SOL    HW137409   0.870   3.561  10.954 -0.5760 -0.2087 -0.4875
 8591SOL    HW237410   0.920   3.421  10.990  0.8040  0.0456  2.7935
 8592SOL     OW37411   3.825   0.647   7.869  0.2563 -0.0829 -0.1164
 8592SOL    HW137412   3.769   0.578   7.833  1.7607 -0.1931 -2.2787
 8592SOL    HW237413   3.913   0.612   7.855 -0.1306 -1.6622  1.2751
 8593SOL     OW37414   4.130   2.544   5.503 -0.1595 -0.3100 -0.7334
 8593SOL    HW137415   4.074   2.540   5.425 -1.3595 -2.0491  0.2112
 8593SOL    HW237416   4.102   2.628   5.540  2.2610  1.1026 -2.1727
 8594SOL     OW37417   0.033   3.109  16.801 -0.0687  0.6246  0.3982
 8594SOL    HW137418   0.066   3.093  16.889  0.2048 -0.3376  0.1202
 8594SOL    HW237419   0.111   3.134  16.751  0.0705  0.4363  0.5226
 8595SOL     OW37420   3.842   1.983  14.898 -0.4388  0.3572 -0.4652
 8595SOL    HW137421   3.784   1.957  14.970 -0.3536  0.5879 -0.3144
 8595SOL    HW237422   3.929   1.961  14.929 -1.1919 -1.8471  0.0537
 8596SOL     OW37423   0.818   2.270  16.965  0.4718 -0.4073 -0.1003
 8596SOL    HW137424   0.749   2.274  17.031  0.3325  0.3114 -0.3025
 8596SOL    HW237425   0.829   2.175  16.952 -0.7161 -0.5480 -0.0496
 8597SOL     OW37426   2.690   3.462  17.502 -0.1411 -0.6667 -0.2048
 8597SOL    HW137427   2.646   3.444  17.419 -1.5013  1.4544  0.0373
 8597SOL    HW237428   2.674   3.556  17.512 -0.7648 -0.8449  0.4677
 8598SOL     OW37429   3.821   1.534   6.179  0.0192  0.3655 -0.2779
 8598SOL    HW137430   3.822   1.473   6.106 -0.2900  0.0274 -0.0030
 8598SOL    HW237431   3.906   1.523   6.221 -0.4572 -0.1121  0.5669
 8599SOL     OW37432   0.087   2.376   7.306 -0.4063 -0.1650 -0.5445
 8599SOL    HW137433   0.162   2.396   7.250 -0.8259  1.4576 -0.5390
 8599SOL    HW237434   0.022   2.379   7.235 -2.8504 -0.7506  1.6480
 8600SOL     OW37435   1.020   1.502   5.358 -0.2764  0.1472 -0.2522
 8600SOL    HW137436   1.002   1.511   5.451  0.8908 -0.9358  0.0830
 8600SOL    HW237437   0.939   1.539   5.325 -1.4367 -1.5340  0.7258
 8601SOL     OW37438   4.616   3.382   7.837  0.1241 -0.0177 -0.6849
 8601SOL    HW137439   4.555   3.402   7.766 -0.6475 -0.1562 -0.0521
 8601SOL    HW237440   4.670   3.461   7.845  0.8911 -0.4244 -1.7679
 8602SOL     OW37441   3.740   2.744   8.711 -0.0377 -0.2965 -0.2307
 8602SOL    HW137442   3.835   2.736   8.702 -0.2829 -3.1136 -0.4038
 8602SOL    HW237443   3.725   2.812   8.646  0.6917  1.2320  1.1859
 8603SOL     OW37444   3.299   3.686   5.525 -0.1550 -0.6424 -0.3262
 8603SOL    HW137445   3.259   3.608   5.562  2.0077 -1.4637  0.2642
 8603SOL    HW237446   3.315   3.663   5.434  1.8321  0.8072 -0.3223
 8604SOL     OW37447   2.408   2.192  15.847 -0.6702  0.5047  0.6100
 8604SOL    HW137448   2.367   2.107  15.827 -2.1260  1.2983  0.2113
 8604SOL    HW237449   2.434   2.225  15.761 -2.0494  2.7175  1.0443
 8605SOL     OW37450   0.087   0.455  10.018  0.5944 -0.3869  0.4920
 8605SOL    HW137451   0.122   0.371   9.989 -1.1212 -0.9514  0.0932
 8605SOL    HW237452   0.000   0.418  10.029  1.0397 -1.2193  1.1856
 8606SOL     OW37453   2.032   0.345   6.467 -0.3151 -0.2251  0.2517
 8606SOL    HW137454   2.019   0.439   6.450  1.0498  0.3064  2.0283
 8606SOL    HW237455   2.113   0.342   6.518  0.1073  1.5049 -0.3087
 8607SOL     OW37456   0.919   1.830   3.117 -0.1369 -0.4687 -0.1817
 8607SOL    HW137457   0.853   1.888   3.079 -1.4264  0.7182  3.8474
 8607SOL    HW237458   0.894   1.844   3.208 -0.3760 -0.6708 -0.2142
 8608SOL     OW37459   4.463   1.146   2.282  0.1795  0.5339  0.1800
 8608SOL    HW137460   4.553   1.123   2.307 -0.8376 -2.4756  1.0901
 8608SOL    HW237461   4.460   1.232   2.241 -2.0268  0.2017 -0.3644
 8609SOL     OW37462   1.008   1.743   6.913  0.0126  0.0226  0.1749
 8609SOL    HW137463   1.055   1.781   6.987 -0.0565 -2.6727  1.6163
 8609SOL    HW237464   1.072   1.770   6.847  2.0139 -0.6333  1.8626
 8610SOL     OW37465   3.496   4.229   8.592 -0.1619  0.0173 -0.1543
 8610SOL    HW137466   3.502   4.310   8.542 -1.2585  0.0931 -0.1527
 8610SOL    HW237467   3.514   4.254   8.683  1.5995 -0.9387 -0.2261
 8611SOL     OW37468   2.347   3.517   4.138  0.5965  0.2537 -0.2743
 8611SOL    HW137469   2.319   3.426   4.139  2.5398 -0.3423  0.0585
 8611SOL    HW237470   2.409   3.507   4.210 -0.4722  0.7616  0.7177
 8612SOL     OW37471   1.816   0.429   8.361  0.0661 -0.0829 -0.3845
 8612SOL    HW137472   1.789   0.515   8.394  0.4108  0.1772 -0.7773
 8612SOL    HW237473   1.816   0.445   8.266  0.3644  0.3523 -0.3094
 8613SOL     OW37474   2.965   3.885   5.576 -0.1638 -0.0103 -0.0763
 8613SOL    HW137475   2.935   3.821   5.640 -1.3464  0.8135  0.1953
 8613SOL    HW237476   2.898   3.873   5.508 -1.2732  0.2295  0.9644
 8614SOL     OW37477   0.588   4.604   5.652 -0.0738  0.2890  0.2298
 8614SOL    HW137478   0.527   4.677   5.645 -1.8217 -1.4244 -2.5520
 8614SOL    HW237479   0.534   4.546   5.599  1.6950 -0.7873 -0.3817
 8615SOL     OW37480   2.515   2.679   9.642 -0.2159 -0.1584 -0.0826
 8615SOL    HW137481   2.596   2.628   9.639  0.9939  1.6934  1.4092
 8615SOL    HW237482   2.478   2.659   9.556  0.7055 -1.0475 -0.2636
 8616SOL     OW37483   1.919   4.255   9.059  0.4115 -0.4716 -0.4353
 8616SOL    HW137484   1.972   4.276   8.983 -1.0963 -0.3654 -1.4558
 8616SOL    HW237485   1.932   4.160   9.060 -2.1733 -0.8179  1.3707
 8617SOL     OW37486   2.325   0.319   6.313  0.3736  0.0799  0.2940
 8617SOL    HW137487   2.248   0.306   6.257  0.4751  0.3439  0.0946
 8617SOL    HW237488   2.321   0.415   6.318 -0.4751  0.0161  0.8336
 8618SOL     OW37489   2.154   1.314   3.522  0.6347 -0.6219 -0.8737
 8618SOL    HW137490   2.100   1.311   3.444  0.2317 -1.9571 -0.5451
 8618SOL    HW237491   2.111   1.247   3.575 -0.8255  0.5777 -0.5505
 8619SOL     OW37492   0.341   1.085   7.031 -0.0807 -0.3375 -0.3737
 8619SOL    HW137493   0.385   1.000   7.023  0.1503 -0.5509  3.1292
 8619SOL    HW237494   0.350   1.111   7.122 -2.1992  0.9167 -0.5266
 8620SOL     OW37495   3.162   3.564   8.169 -0.2935  0.1263 -0.2358
 8620SOL    HW137496   3.218   3.553   8.246  0.4652  1.4296 -0.6139
 8620SOL    HW237497   3.108   3.485   8.177  0.1153 -0.2270 -0.9283
 8621SOL     OW37498   3.286   3.301   6.567 -0.2261 -0.8957  0.3918
 8621SOL    HW137499   3.265   3.227   6.510  0.0679 -0.6725 -0.0081
 8621SOL    HW237500   3.328   3.355   6.500 -3.2156  2.3794  1.1525
 8622SOL     OW37501   3.515   2.365   8.745 -0.0132 -0.2934  0.0613
 8622SOL    HW137502   3.464   2.305   8.692 -0.3428  0.1127 -0.0827
 8622SOL    HW237503   3.512   2.316   8.827 -0.2330 -0.0790  0.1831
 8623SOL     OW37504   2.403   3.851   9.726  0.1949  0.5103 -0.4833
 8623SOL    HW137505   2.361   3.817   9.805  0.9370 -1.5686 -0.9789
 8623SOL    HW237506   2.334   3.910   9.697 -0.8957 -1.1336 -1.2868
 8624SOL     OW37507   4.520   2.994   5.748 -0.6763 -0.2458 -0.1840
 8624SOL    HW137508   4.585   2.929   5.774 -2.1858 -1.2818  1.0074
 8624SOL    HW237509   4.460   2.996   5.823  1.0084 -1.7337  1.2020
 8625SOL     OW37510   1.112   2.296   5.443  0.0482  0.0120  0.1749
 8625SOL    HW137511   1.019   2.287   5.424  0.2217 -0.4942 -0.4571
 8625SOL    HW237512   1.154   2.313   5.358 -3.0300 -0.8161 -1.4966
 8626SOL     OW37513   3.033   4.567  12.531  0.1153  0.6747 -1.1831
 8626SOL    HW137514   2.969   4.568  12.460 -1.6367 -0.5843  0.3917
 8626SOL    HW237515   3.016   4.486  12.579 -1.5931  0.9168 -1.3689
 8627SOL     OW37516   0.017   1.429   7.446 -0.2439  0.0272 -0.1975
 8627SOL    HW137517   0.099   1.460   7.486  0.4179  0.4317 -1.8623
 8627SOL    HW237518   0.043   1.373   7.373  0.0026 -1.6859  1.2165
 8628SOL     OW37519   4.163   0.040   3.687 -0.2224 -0.1776 -0.1442
 8628SOL    HW137520   4.249   0.069   3.656 -0.9590  0.2885 -1.7364
 8628SOL    HW237521   4.192   4.720   3.760  0.4803 -0.8001 -0.9001
 8629SOL     OW37522   2.591   3.463   2.312  0.1171 -0.0311 -0.2365
 8629SOL    HW137523   2.686   3.472   2.313  0.0344  0.7213  0.5521
 8629SOL    HW237524   2.583   3.397   2.244  2.8478  0.0864 -0.6652
 8630SOL     OW37525   1.384   2.777   3.487  0.2239  0.2023  0.1977
 8630SOL    HW137526   1.444   2.839   3.528  1.8459 -2.2505  1.5168
 8630SOL    HW237527   1.308   2.834   3.472 -1.5008 -2.2764 -0.5318
 8631SOL     OW37528   0.438   0.757   8.968  0.7412 -0.2616  0.2395
 8631SOL    HW137529   0.397   0.800   8.893 -0.9446 -0.0032  1.2970
 8631SOL    HW237530   0.407   0.798   9.048 -0.6592  0.4456 -0.6470
 8632SOL     OW37531   2.516   3.264  17.297  0.2113  0.0811  0.0986
 8632SOL    HW137532   2.480   3.279  17.210  2.2932 -0.0974 -0.7993
 8632SOL    HW237533   2.444   3.306  17.344  0.6150  0.0902  0.7246
 8633SOL     OW37534   1.287   2.003   8.828 -0.3293  0.4057 -0.2440
 8633SOL    HW137535   1.221   2.013   8.896 -2.2431 -3.0790 -1.6035
 8633SOL    HW237536   1.367   1.992   8.879  0.3737  0.8723 -1.2412
 8634SOL     OW37537   1.393   3.756   0.685 -0.6434  0.5254  0.4355
 8634SOL    HW137538   1.348   3.695   0.626  1.3226 -1.7975  1.3496
 8634SOL    HW237539   1.380   3.711   0.769  0.7512  1.1774  0.9880
 8635SOL     OW37540   3.265   3.881   2.309 -0.1490  0.7199 -0.5032
 8635SOL    HW137541   3.283   3.816   2.240  2.0067 -1.3490  2.0243
 8635SOL    HW237542   3.170   3.871   2.315  0.1588  0.3948  3.5075
 8636SOL     OW37543   0.249   2.639  12.828 -0.0739  0.2233 -0.4661
 8636SOL    HW137544   0.334   2.651  12.871  0.4053 -1.0490 -1.0587
 8636SOL    HW237545   0.274   2.678  12.744 -0.0185  0.6118 -0.2717
 8637SOL     OW37546   0.820   1.167   3.075  0.1535  0.0126 -0.2570
 8637SOL    HW137547   0.824   1.146   2.982 -1.2105 -1.1703 -0.0424
 8637SOL    HW237548   0.741   1.220   3.074 -0.7872 -1.4049 -0.4302
 8638SOL     OW37549   0.501   0.600  10.064  0.6506  0.1579  0.4945
 8638SOL    HW137550   0.459   0.585  10.149  0.7700 -1.9486  0.1836
 8638SOL    HW237551   0.508   0.694  10.052 -0.9764  0.0199 -1.3835
 8639SOL     OW37552   4.067   2.916  11.225 -0.9367  0.6101 -0.4531
 8639SOL    HW137553   4.107   2.930  11.139 -0.8726  1.9243 -0.1970
 8639SOL    HW237554   4.140   2.918  11.286 -1.7371  0.5541  0.5035
 8640SOL     OW37555   1.668   3.179   2.503 -0.4441 -0.1847  0.7260
 8640SOL    HW137556   1.584   3.192   2.460  0.9474 -0.8510 -2.1709
 8640SOL    HW237557   1.662   3.241   2.575 -1.3235  0.6117 -0.0421
 8641SOL     OW37558   1.030   1.442   6.148 -0.0870  0.4547 -0.2821
 8641SOL    HW137559   0.947   1.403   6.174 -0.4696  2.0783  0.8558
 8641SOL    HW237560   1.002   1.532   6.130 -0.2326  0.6399  0.9009
 8642SOL     OW37561   0.176   3.335   4.467  0.3162 -0.3655 -0.1868
 8642SOL    HW137562   0.233   3.340   4.390  3.1909  3.0658  2.1369
 8642SOL    HW237563   0.094   3.328   4.418  0.0986 -3.1266  0.5641
 8643SOL     OW37564   4.694   4.100   1.669 -0.1191 -0.2523 -0.1797
 8643SOL    HW137565   0.005   4.044   1.730  0.0192  1.1026  0.9362
 8643SOL    HW237566   4.625   4.115   1.733  0.0500 -2.6611  0.5583
 8644SOL     OW37567   0.777   2.379  14.975  0.3157  0.0355 -0.3204
 8644SOL    HW137568   0.815   2.388  15.062  0.3979  2.6309 -0.6405
 8644SOL    HW237569   0.849   2.396  14.914  0.4563  1.1986  0.1866
 8645SOL     OW37570   3.472   2.603  10.614 -0.4652 -0.0429  0.2750
 8645SOL    HW137571   3.487   2.609  10.520 -0.5589  1.3352  0.3571
 8645SOL    HW237572   3.527   2.675  10.643  0.5680 -0.9618  0.6021
 8646SOL     OW37573   3.731   3.951   5.109  0.1393 -0.1798 -0.2168
 8646SOL    HW137574   3.815   3.969   5.067 -0.8729  2.0395 -1.3060
 8646SOL    HW237575   3.689   3.911   5.033  1.2508  0.7525 -1.3175
 8647SOL     OW37576   0.705   1.655   3.805 -0.0415  0.3543 -0.0972
 8647SOL    HW137577   0.721   1.679   3.896  0.3114  1.3056 -0.4101
 8647SOL    HW237578   0.654   1.576   3.821  2.1131 -1.1453 -0.6973
 8648SOL     OW37579   1.950   0.249   4.432  0.2661  0.0335  0.1266
 8648SOL    HW137580   2.027   0.219   4.479  0.3194 -0.8296 -0.5024
 8648SOL    HW237581   1.942   0.337   4.468 -1.4947  0.3856 -1.1125
 8649SOL     OW37582   3.665   4.101   6.224  0.5861 -0.3776 -0.5759
 8649SOL    HW137583   3.663   4.112   6.129  0.2009 -0.4527 -0.5749
 8649SOL    HW237584   3.693   4.184   6.263 -0.8749 -1.1331  2.0991
 8650SOL     OW37585   2.206   2.086   7.901 -0.0170  0.1409  0.5608
 8650SOL    HW137586   2.112   2.097   7.883  0.6355 -0.0127 -3.0445
 8650SOL    HW237587   2.198   2.078   7.996 -1.1320 -1.1407  0.3716
 8651SOL     OW37588   0.753   1.969  11.933 -0.1448 -0.2704  0.1629
 8651SOL    HW137589   0.757   1.909  12.008 -2.3954  2.2441  2.2598
 8651SOL    HW237590   0.692   2.034  11.968  1.4356  0.5718  1.3672
 8652SOL     OW37591   0.116   2.907   9.198 -0.2562 -0.4362 -0.0324
 8652SOL    HW137592   0.180   2.861   9.251 -0.8404 -0.0680  1.0009
 8652SOL    HW237593   0.165   2.922   9.117  0.1179 -0.8292  0.1282
 8653SOL     OW37594   0.242   0.882   4.749  0.3941  0.6434 -0.1758
 8653SOL    HW137595   0.250   0.836   4.833  1.0077 -0.9424 -1.0997
 8653SOL    HW237596   0.249   0.804   4.694 -1.4703 -1.1331  2.1156
 8654SOL     OW37597   4.027   1.998  12.074 -0.9891  0.0998 -0.1759
 8654SOL    HW137598   4.091   2.051  12.027 -0.2112 -1.4837 -0.8930
 8654SOL    HW237599   4.081   1.924  12.100 -1.3011 -0.3897 -0.9209
 8655SOL     OW37600   3.621   1.763  10.254 -0.0465 -0.2181  0.0631
 8655SOL    HW137601   3.549   1.721  10.302 -0.0969  0.2292  0.3774
 8655SOL    HW237602   3.646   1.824  10.323 -1.3355 -0.1019  0.4241
 8656SOL     OW37603   4.115   3.892   1.002  0.0821  0.4044  0.2171
 8656SOL    HW137604   4.126   3.973   1.051 -0.0172 -0.9415  2.5141
 8656SOL    HW237605   4.183   3.903   0.936  1.0495 -0.1653  1.1167
 8657SOL     OW37606   4.556   0.102  14.144 -0.7187  0.2021 -0.1980
 8657SOL    HW137607   4.505   0.023  14.126 -3.0143  1.9873 -1.3975
 8657SOL    HW237608   4.590   0.083  14.231  0.9546 -2.6449 -1.4400
 8658SOL     OW37609   2.631   4.074  11.840  0.0418  0.3232 -0.2771
 8658SOL    HW137610   2.613   4.165  11.864  1.1889  0.5821 -0.4159
 8658SOL    HW237611   2.566   4.053  11.773  0.6638 -1.4130 -0.3401
 8659SOL     OW37612   0.569   1.731  15.484  0.1356  0.0437 -0.2412
 8659SOL    HW137613   0.624   1.783  15.543 -0.3933  0.7265 -0.3450
 8659SOL    HW237614   0.506   1.797  15.454 -1.2271 -1.3148 -0.3432
 8660SOL     OW37615   0.932   0.769   5.313  0.2048  0.0965  0.0861
 8660SOL    HW137616   1.013   0.738   5.353 -1.1493 -0.8453  2.0671
 8660SOL    HW237617   0.942   0.863   5.298 -2.2866  0.3004 -0.2874
 8661SOL     OW37618   2.600   2.413  15.720 -0.2451 -1.0218 -0.4475
 8661SOL    HW137619   2.568   2.399  15.809  0.7913  2.8412  0.5074
 8661SOL    HW237620   2.688   2.443  15.739 -0.5690 -0.3551 -0.0018
 8662SOL     OW37621   2.485   0.025   8.827 -0.8291 -0.0721 -0.1899
 8662SOL    HW137622   2.509   0.085   8.756 -1.2207  0.3309  0.0160
 8662SOL    HW237623   2.503   4.675   8.788 -1.6832  1.3546 -3.7610
 8663SOL     OW37624   0.217   2.017   5.949  0.1368 -0.0413 -0.2337
 8663SOL    HW137625   0.252   1.990   5.864 -0.7303 -1.6704 -0.0689
 8663SOL    HW237626   0.303   2.033   5.987  0.5199 -1.5122 -0.4624
 8664SOL     OW37627   2.402   0.761   3.425  0.2513  0.1884 -0.4668
 8664SOL    HW137628   2.476   0.700   3.425 -0.5373 -0.8071  3.4416
 8664SOL    HW237629   2.353   0.741   3.346 -1.9485  0.0430  0.9359
 8665SOL     OW37630   4.113   2.045   1.146 -0.1997 -0.1040 -0.1355
 8665SOL    HW137631   4.058   2.063   1.070 -2.1913 -0.1564  1.3098
 8665SOL    HW237632   4.180   1.990   1.104 -0.9099  0.4675 -2.0016
 8666SOL     OW37633   3.538   2.981   6.211 -0.2601 -0.6766  0.3116
 8666SOL    HW137634   3.551   2.897   6.169 -1.3251 -0.3464 -0.6720
 8666SOL    HW237635   3.450   2.969   6.247  0.1055 -1.7249  0.8383
 8667SOL     OW37636   0.134   0.620   7.984 -0.2935  0.2995 -0.1831
 8667SOL    HW137637   0.060   0.564   7.961  0.7972 -1.2415 -0.0014
 8667SOL    HW237638   0.145   0.621   8.079 -1.2214  1.0571 -0.0898
 8668SOL     OW37639   1.271   1.365   4.789  0.1926 -0.5575 -0.5424
 8668SOL    HW137640   1.289   1.342   4.698  0.0937  0.8176 -0.9220
 8668SOL    HW237641   1.361   1.385   4.815 -0.3570  0.1498  0.8112
 8669SOL     OW37642   4.634   3.776   9.114 -0.3079  0.0786  0.3797
 8669SOL    HW137643   4.545   3.745   9.095  1.1743 -3.3431 -0.9148
 8669SOL    HW237644   4.648   3.832   9.038 -2.5447  0.1839  0.0298
 8670SOL     OW37645   1.230   0.106  16.187 -0.9201 -0.3734 -0.1015
 8670SOL    HW137646   1.243   0.154  16.105  1.7089 -1.8739 -0.5785
 8670SOL    HW237647   1.311   0.054  16.186 -1.6730 -1.5580  0.3259
 8671SOL     OW37648   3.987   2.968  16.396  0.2224 -0.0049  0.2810
 8671SOL    HW137649   3.999   2.926  16.481  1.0284  0.3950  0.3608
 8671SOL    HW237650   3.904   3.013  16.412  0.2603  0.4280 -0.7604
 8672SOL     OW37651   4.493   3.116  16.855  0.8243 -0.0740 -0.5257
 8672SOL    HW137652   4.587   3.132  16.847  0.4022  3.3613  1.6799
 8672SOL    HW237653   4.478   3.067  16.774 -0.5392 -0.7107  0.1180
 8673SOL     OW37654   2.270   4.227  16.993  0.3559  0.3182 -0.5313
 8673SOL    HW137655   2.247   4.302  17.047  2.9836  0.0028  1.0051
 8673SOL    HW237656   2.185   4.197  16.958  0.1719  0.9317 -0.6022
 8674SOL     OW37657   0.479   1.728   8.150  0.2267 -0.4828 -0.2702
 8674SOL    HW137658   0.477   1.772   8.065 -3.3481 -1.1174 -0.5292
 8674SOL    HW237659   0.483   1.804   8.207  2.2289 -0.4478 -0.4684
 8675SOL     OW37660   4.589   3.110   3.488  0.1686 -0.2889 -0.0751
 8675SOL    HW137661   4.514   3.163   3.513  0.1989  0.5894 -1.8359
 8675SOL    HW237662   4.595   3.037   3.549  0.9008 -0.9923 -0.9710
 8676SOL     OW37663   3.008   3.045   4.800 -0.4673 -0.4445 -0.0070
 8676SOL    HW137664   3.059   3.111   4.752 -0.4835 -0.3815  0.0631
 8676SOL    HW237665   2.951   3.012   4.731 -0.9687 -1.2712  0.8144
 8677SOL     OW37666   2.956   4.327  16.134  0.1516 -0.1240  0.0839
 8677SOL    HW137667   2.873   4.369  16.159  0.4219  0.2187  0.3991
 8677SOL    HW237668   3.017   4.385  16.179  0.1831 -1.3363  1.6131
 8678SOL     OW37669   1.462   0.628   2.614  0.1489 -0.5142 -0.5052
 8678SOL    HW137670   1.432   0.574   2.541  0.7974 -1.5980  0.0142
 8678SOL    HW237671   1.424   0.714   2.603  0.3234 -0.1133  1.9297
 8679SOL     OW37672   1.604   0.426  10.549 -0.8328 -0.2216 -0.0589
 8679SOL    HW137673   1.513   0.448  10.532 -0.9291 -0.8115 -0.3089
 8679SOL    HW237674   1.632   0.434  10.458 -1.2685 -1.8624 -0.3375
 8680SOL     OW37675   0.751   4.251   6.004  0.0757 -0.1823 -0.4824
 8680SOL    HW137676   0.685   4.204   5.952  1.3655 -2.1250 -0.3960
 8680SOL    HW237677   0.777   4.321   5.944 -2.7663 -0.3059 -1.8539
 8681SOL     OW37678   0.409   1.653  12.621 -0.3428 -0.4638 -0.1489
 8681SOL    HW137679   0.490   1.619  12.583 -0.0083 -0.5940  0.6716
 8681SOL    HW237680   0.422   1.636  12.714 -0.6668 -0.7803 -0.1624
 8682SOL     OW37681   0.370   1.781  10.904  0.9534 -0.1517 -0.4804
 8682SOL    HW137682   0.393   1.874  10.904 -0.9206  0.3134 -1.3479
 8682SOL    HW237683   0.332   1.774  10.816 -0.7768  0.4521  0.2192
 8683SOL     OW37684   4.141   4.021   7.883 -0.1819 -0.4938 -0.4681
 8683SOL    HW137685   4.221   4.055   7.924  0.0518 -0.7000 -0.7492
 8683SOL    HW237686   4.155   4.063   7.798 -1.5022  1.9182  0.5129
 8684SOL     OW37687   2.484   3.863   4.075  0.5737 -0.0776 -0.2642
 8684SOL    HW137688   2.419   3.845   4.008  1.4428 -1.3299 -0.7555
 8684SOL    HW237689   2.558   3.815   4.038 -0.1869 -0.9022 -0.6963
 8685SOL     OW37690   3.850   0.275   3.348 -0.3679  0.2048 -0.4115
 8685SOL    HW137691   3.826   0.281   3.255  0.2098  2.2766 -0.4203
 8685SOL    HW237692   3.944   0.257   3.343 -0.5151 -0.3188 -1.3156
 8686SOL     OW37693   2.389   2.835   2.286  0.0320 -0.4901  0.0546
 8686SOL    HW137694   2.370   2.900   2.218 -2.0008 -0.9437  0.1797
 8686SOL    HW237695   2.319   2.857   2.347 -1.2665 -2.8852 -0.5386
 8687SOL     OW37696   3.454   1.492   7.954  0.1150  0.4260  0.2652
 8687SOL    HW137697   3.389   1.424   7.974  2.6943 -1.9201  0.7229
 8687SOL    HW237698   3.413   1.541   7.883 -1.1999 -2.8658 -1.2684
 8688SOL     OW37699   2.299   3.251   4.069 -0.5818  0.1296  0.2983
 8688SOL    HW137700   2.206   3.250   4.094 -0.3873  1.0200  1.0617
 8688SOL    HW237701   2.296   3.236   3.975 -1.7843 -1.5949  0.6151
 8689SOL     OW37702   0.526   4.560   4.039  0.0505  0.4026 -0.2868
 8689SOL    HW137703   0.617   4.542   4.014 -0.5080 -1.4802 -0.9986
 8689SOL    HW237704   0.491   4.579   3.952 -2.9034 -1.2220  0.5593
 8690SOL     OW37705   2.319   0.190   3.586  0.4264 -0.0746 -0.4573
 8690SOL    HW137706   2.287   0.144   3.663 -0.3138  2.5644  0.8042
 8690SOL    HW237707   2.234   0.196   3.542 -0.1509 -3.1740  0.2714
 8691SOL     OW37708   0.496   0.639   9.284 -0.3988 -0.0594  0.0703
 8691SOL    HW137709   0.424   0.599   9.332  0.5159  0.7913  2.1411
 8691SOL    HW237710   0.454   0.640   9.198  0.8591 -1.0238 -0.5630
 8692SOL     OW37711   2.211   0.385   0.190  1.2270  0.5170  0.5879
 8692SOL    HW137712   2.176   0.348   0.110 -1.5030 -0.5240  2.2709
 8692SOL    HW237713   2.246   0.469   0.158  2.0356 -0.4032 -0.9246
 8693SOL     OW37714   4.446   3.572   2.757  0.0098  0.0681  0.0010
 8693SOL    HW137715   4.353   3.547   2.765 -0.7743  2.3224 -1.9450
 8693SOL    HW237716   4.474   3.571   2.848  0.5464  0.3975 -0.1662
 8694SOL     OW37717   0.875   3.249   6.117 -0.1450  0.4853 -0.1664
 8694SOL    HW137718   0.836   3.326   6.160  0.0939 -0.6844  2.1657
 8694SOL    HW237719   0.968   3.250   6.143 -0.3588 -3.2296  0.7073
 8695SOL     OW37720   0.047   2.301   5.650  0.2949 -0.0934  0.0312
 8695SOL    HW137721   4.717   2.234   5.663  0.5275 -0.4081 -0.3819
 8695SOL    HW237722   0.053   2.349   5.732  1.8510 -1.0471  0.4820
 8696SOL     OW37723   2.547   4.209  10.828 -0.4831 -0.5745  0.0275
 8696SOL    HW137724   2.595   4.289  10.846  1.7229 -2.0470  0.6782
 8696SOL    HW237725   2.508   4.184  10.912  1.9384 -1.0184  1.0053
 8697SOL     OW37726   2.546   1.143   6.363 -0.2587 -0.0575  0.0669
 8697SOL    HW137727   2.551   1.235   6.387 -0.0927  0.0945 -0.5571
 8697SOL    HW237728   2.565   1.100   6.447  0.5482 -1.9805 -1.1119
 8698SOL     OW37729   2.953   3.693  16.793 -0.2243  0.7516  0.1740
 8698SOL    HW137730   2.965   3.615  16.739 -1.0945  0.2591  0.6987
 8698SOL    HW237731   3.025   3.747  16.759 -0.6855 -0.5788 -2.9071
 8699SOL     OW37732   4.624   0.092   4.806 -0.2052  0.3441 -0.3410
 8699SOL    HW137733   4.701   0.093   4.863 -0.1915  0.1402 -0.3576
 8699SOL    HW237734   4.544   0.104   4.857  0.3636 -1.5659  0.9666
 8700SOL     OW37735   4.094   1.163   4.267 -0.1954 -0.0783  0.4590
 8700SOL    HW137736   4.188   1.178   4.258  0.0149 -1.2814  0.6175
 8700SOL    HW237737   4.092   1.090   4.205  0.0020  0.6191 -0.3741
 8701SOL     OW37738   1.536   2.071   8.916 -0.3136 -0.2341 -0.2670
 8701SOL    HW137739   1.576   2.049   9.000  0.9403 -1.8440 -1.2848
 8701SOL    HW237740   1.562   1.996   8.864 -0.0552 -0.0813 -0.3533
 8702SOL     OW37741   1.871   1.970  16.059 -1.0004  0.0178 -0.5144
 8702SOL    HW137742   1.863   2.040  16.125 -0.9709 -0.9985  0.5729
 8702SOL    HW237743   1.782   1.967  16.024 -0.7307 -1.8172 -1.0006
 8703SOL     OW37744   2.684   3.946  11.061  0.5125 -0.0019  0.1460
 8703SOL    HW137745   2.617   4.012  11.076  0.9566 -0.0810  2.4847
 8703SOL    HW237746   2.766   3.996  11.054  2.2652 -3.0158 -0.8941
 8704SOL     OW37747   1.877   3.417   1.925  0.3133 -0.1886 -0.0431
 8704SOL    HW137748   1.862   3.499   1.877  1.8920  0.1544  0.0403
 8704SOL    HW237749   1.793   3.371   1.932  0.0439  0.6582  2.3887
 8705SOL     OW37750   4.092   1.582  13.005 -0.0087 -0.1018  0.2958
 8705SOL    HW137751   4.088   1.653  13.069  0.3680 -0.5003  0.7712
 8705SOL    HW237752   4.145   1.624  12.938  0.9516  0.8419  1.6469
 8706SOL     OW37753   0.326   4.245   7.473 -0.1613  0.0071  0.1849
 8706SOL    HW137754   0.361   4.317   7.525 -0.3179  0.0839  0.1845
 8706SOL    HW237755   0.272   4.299   7.415 -3.2862 -0.4736  2.6254
 8707SOL     OW37756   1.157   3.814  13.451 -0.8374  0.1787  0.1025
 8707SOL    HW137757   1.221   3.823  13.381 -0.7270  1.1879  0.3287
 8707SOL    HW237758   1.161   3.907  13.475  1.8492 -0.6507  2.9146
 8708SOL     OW37759   3.801   3.733   6.782  0.6882 -0.6156  0.1532
 8708SOL    HW137760   3.886   3.694   6.796  1.2060 -0.1156 -1.5643
 8708SOL    HW237761   3.797   3.728   6.686  0.3269  2.2689 -0.0003
 8709SOL     OW37762   2.910   3.200   3.381 -0.2420  0.0686  0.3464
 8709SOL    HW137763   2.839   3.203   3.445 -1.3832  0.2989 -0.9352
 8709SOL    HW237764   2.864   3.166   3.305  0.3613 -0.8927  0.4032
 8710SOL     OW37765   3.081   3.347   3.230 -0.0672 -0.4727 -0.1987
 8710SOL    HW137766   3.175   3.331   3.235  0.1590  1.1418  0.7167
 8710SOL    HW237767   3.042   3.271   3.275  1.5711 -1.9759 -1.3169
 8711SOL     OW37768   1.492   3.421   9.388 -0.0488  0.0990  0.1139
 8711SOL    HW137769   1.445   3.380   9.460  3.5556 -1.0818  1.7833
 8711SOL    HW237770   1.524   3.501   9.430 -1.4946  0.0115  1.3864
 8712SOL     OW37771   2.842   0.986  15.709  0.2556 -0.0620 -0.0825
 8712SOL    HW137772   2.805   0.985  15.620 -0.3682 -1.6763  0.1864
 8712SOL    HW237773   2.916   0.926  15.699  0.1316  0.1392 -2.3828
 8713SOL     OW37774   3.349   2.650  12.553  0.4190 -0.5449  0.2401
 8713SOL    HW137775   3.384   2.731  12.516  0.8180 -0.1349  1.5292
 8713SOL    HW237776   3.285   2.625  12.486 -1.6103  1.0997  1.5313
 8714SOL     OW37777   3.338   4.290   5.534  0.1405  0.0477 -0.1530
 8714SOL    HW137778   3.278   4.356   5.500  0.1514  0.4191  0.5674
 8714SOL    HW237779   3.278   4.218   5.555  0.6257 -0.7725 -1.5591
 8715SOL     OW37780   0.457   4.652   7.150  0.2968  0.4549 -0.0183
 8715SOL    HW137781   0.491   4.678   7.065 -2.4167  1.7266 -0.7071
 8715SOL    HW237782   0.503   4.571   7.174 -0.3394 -0.1941 -0.9865
 8716SOL     OW37783   3.742   3.102   9.140  0.1094  0.3849 -0.3494
 8716SOL    HW137784   3.745   3.067   9.051 -0.1064 -0.8234  0.1239
 8716SOL    HW237785   3.790   3.183   9.127 -1.5169  1.2201 -1.2492
 8717SOL     OW37786   3.419   3.894   8.898  0.2955 -0.1521  0.2686
 8717SOL    HW137787   3.373   3.925   8.820  1.3340  1.9341  0.4885
 8717SOL    HW237788   3.469   3.974   8.914  1.6886 -1.8497  4.3830
 8718SOL     OW37789   4.706   1.436   9.258 -0.0905 -0.5391  0.0119
 8718SOL    HW137790   4.723   1.526   9.284 -1.2680 -0.5352  0.8049
 8718SOL    HW237791   4.726   1.446   9.165 -1.2879  1.2938 -0.0618
 8719SOL     OW37792   3.950   0.797   9.833 -0.1629  0.1397 -0.0293
 8719SOL    HW137793   3.863   0.761   9.814  0.2319 -1.2064  0.7049
 8719SOL    HW237794   3.957   0.850   9.753 -0.4917 -0.4159 -0.4222
 8720SOL     OW37795   1.479   1.483   9.627  0.1627 -0.2373 -0.4372
 8720SOL    HW137796   1.522   1.432   9.695  0.5061 -0.7790 -1.0663
 8720SOL    HW237797   1.548   1.544   9.600  0.1210  0.6311  1.4237
 8721SOL     OW37798   4.167   0.478   1.133  0.2426  0.5583 -0.6870
 8721SOL    HW137799   4.095   0.508   1.188  0.1327  1.5431 -1.3594
 8721SOL    HW237800   4.124   0.493   1.048  0.7540  1.8685 -0.7186
 8722SOL     OW37801   1.557   3.979  17.325  0.3726  0.7723 -0.1243
 8722SOL    HW137802   1.580   4.043  17.393  0.0780 -0.1620  0.8572
 8722SOL    HW237803   1.625   4.000  17.261 -1.1810  3.4331 -0.8950
 8723SOL     OW37804   1.236   2.249   5.681 -0.1590 -0.7044 -0.2137
 8723SOL    HW137805   1.327   2.268   5.658  0.0947 -1.1053  0.4492
 8723SOL    HW237806   1.192   2.292   5.608  1.6288  0.5026 -0.5704
 8724SOL     OW37807   1.515   0.527   4.903 -0.1799 -0.2915 -0.1979
 8724SOL    HW137808   1.537   0.550   4.813  0.3434 -0.1310 -0.0331
 8724SOL    HW237809   1.600   0.554   4.940  0.6656 -1.5436 -1.2221
 8725SOL     OW37810   1.489   0.149  10.000  0.3727 -0.0672 -0.6192
 8725SOL    HW137811   1.468   0.191  10.084 -0.5554  1.2020 -1.4756
 8725SOL    HW237812   1.517   0.061  10.025  1.1942  0.8059  1.5543
 8726SOL     OW37813   3.613   2.818   4.142 -0.0591 -0.0439  0.5223
 8726SOL    HW137814   3.623   2.723   4.134 -1.7383 -0.1534 -0.2585
 8726SOL    HW237815   3.549   2.830   4.072  1.1137 -1.9348 -0.8977
 8727SOL     OW37816   3.869   3.784   2.029 -0.2298  0.0245 -0.0258
 8727SOL    HW137817   3.792   3.729   2.044 -0.2567  0.0532 -0.0595
 8727SOL    HW237818   3.845   3.831   1.949  1.1611 -1.4116 -1.2785
 8728SOL     OW37819   1.421   0.386   5.226 -0.1041  0.2860  0.2123
 8728SOL    HW137820   1.439   0.478   5.247  2.1657  0.2339 -1.4364
 8728SOL    HW237821   1.366   0.387   5.147 -0.6394 -0.2826  0.5796
 8729SOL     OW37822   1.573   4.291   2.381 -0.5930 -0.8525 -0.7288
 8729SOL    HW137823   1.549   4.297   2.474  0.4275 -0.3906 -0.4985
 8729SOL    HW237824   1.648   4.351   2.376 -0.4684 -0.9658 -0.1943
 8730SOL     OW37825   2.464   0.693   3.732  0.3593 -0.3102 -0.0782
 8730SOL    HW137826   2.428   0.605   3.734  1.2839 -0.7373 -2.3873
 8730SOL    HW237827   2.436   0.718   3.645  2.1533  0.8691 -0.3286
 8731SOL     OW37828   0.998   2.014   1.199 -0.0852  0.0446  0.3276
 8731SOL    HW137829   0.970   1.943   1.258  2.7951 -1.2835  0.1001
 8731SOL    HW237830   1.068   2.048   1.256 -0.5876 -1.4656  1.8552
 8732SOL     OW37831   0.534   3.697   6.297  0.3136  0.0494  0.1144
 8732SOL    HW137832   0.456   3.709   6.351 -1.1597 -1.4907 -1.6674
 8732SOL    HW237833   0.560   3.789   6.308  0.5206  0.1732 -1.3680
 8733SOL     OW37834   2.045   3.531   8.026  0.7009  0.1642 -0.6440
 8733SOL    HW137835   2.074   3.593   7.959  0.9287  1.4475  0.6261
 8733SOL    HW237836   2.103   3.548   8.100 -0.6298 -0.9817  0.6619
 8734SOL     OW37837   2.055   4.056   1.116  0.5984  0.0853 -0.5415
 8734SOL    HW137838   2.067   4.142   1.158 -1.7778  0.2500 -0.2462
 8734SOL    HW237839   2.049   4.066   1.021  3.0319 -0.2706 -0.7401
 8735SOL     OW37840   2.457   1.780   7.894 -0.2406 -0.4294  0.0941
 8735SOL    HW137841   2.499   1.750   7.813  1.1391 -0.0422  0.6711
 8735SOL    HW237842   2.431   1.870   7.876  1.3082 -0.2919 -1.5723
 8736SOL     OW37843   4.369   2.563   6.469  0.0377 -0.5747 -0.6298
 8736SOL    HW137844   4.301   2.630   6.462  0.2808 -0.0278  2.4517
 8736SOL    HW237845   4.310   2.498   6.507 -0.6617  2.1958  2.9850
 8737SOL     OW37846   1.760   0.378  12.551  0.3331 -0.6945  1.0097
 8737SOL    HW137847   1.810   0.339  12.479  0.5557  2.0267 -0.3033
 8737SOL    HW237848   1.778   0.307  12.613  3.0614  0.0411  1.0434
 8738SOL     OW37849   0.546   1.810  17.463 -0.6347  0.0315 -0.1775
 8738SOL    HW137850   0.580   1.732  17.418  1.5752  0.0849  1.4231
 8738SOL    HW237851   0.451   1.803  17.456 -0.5616 -1.4520  0.1664
 8739SOL     OW37852   4.149   2.392   6.145  0.5405 -0.1553 -0.1070
 8739SOL    HW137853   4.056   2.385   6.122  0.4463 -0.4577  0.3664
 8739SOL    HW237854   4.181   2.416   6.059  0.2089 -0.2309 -0.2542
 8740SOL     OW37855   2.854   0.581  12.135 -0.2806 -0.3209 -0.0327
 8740SOL    HW137856   2.833   0.503  12.085 -0.9302 -0.0332 -0.2074
 8740SOL    HW237857   2.931   0.547  12.182  0.0580 -0.2185 -0.5142
 8741SOL     OW37858   4.499   1.265   5.519 -0.2283  0.2987  0.3713
 8741SOL    HW137859   4.557   1.278   5.594  0.2747 -2.0489  0.3869
 8741SOL    HW237860   4.437   1.207   5.562  1.3471 -1.3947  0.3553
 8742SOL     OW37861   0.544   0.438   8.744 -0.3568 -0.4751  0.2365
 8742SOL    HW137862   0.511   0.353   8.714 -1.2690 -0.4965  1.3308
 8742SOL    HW237863   0.489   0.500   8.697 -1.2319 -0.8412  0.7753
 8743SOL     OW37864   4.383   4.248   8.923 -0.7676  0.2729 -0.0238
 8743SOL    HW137865   4.424   4.319   8.973  1.1794 -0.9044  0.0308
 8743SOL    HW237866   4.404   4.175   8.982  3.1530  1.3700 -0.0371
 8744SOL     OW37867   0.642   2.013   6.901  0.2984  0.3617 -0.3302
 8744SOL    HW137868   0.633   1.986   6.993 -0.2124 -1.2774 -0.8539
 8744SOL    HW237869   0.685   1.931   6.877 -0.8195 -0.2693 -0.2005
 8745SOL     OW37870   2.026   0.587   3.449  0.0074  0.4525 -0.4070
 8745SOL    HW137871   2.111   0.543   3.445 -0.0195  0.1931  2.0169
 8745SOL    HW237872   2.009   0.587   3.355 -0.6519 -2.3383 -0.2979
 8746SOL     OW37873   3.217   2.595   8.800 -0.3733  0.2790  0.1816
 8746SOL    HW137874   3.123   2.584   8.787 -0.0581 -0.4688 -1.3836
 8746SOL    HW237875   3.222   2.562   8.890 -2.3036 -1.3057 -0.3120
 8747SOL     OW37876   2.683   0.763   4.967 -0.1355 -0.7774 -0.6013
 8747SOL    HW137877   2.593   0.793   4.954  0.0320  0.1093  0.2269
 8747SOL    HW237878   2.721   0.849   4.986 -0.7263 -0.0404 -2.7721
 8748SOL     OW37879   0.587   0.956   5.286 -0.5860 -0.3930  0.3920
 8748SOL    HW137880   0.640   0.922   5.214  0.5170 -0.2336  1.1215
 8748SOL    HW237881   0.499   0.955   5.250 -0.9028  3.9451  0.9765
 8749SOL     OW37882   4.193   1.713  12.791 -0.1578 -0.1321 -0.2944
 8749SOL    HW137883   4.152   1.751  12.713 -0.4962  2.6971  1.2494
 8749SOL    HW237884   4.221   1.794  12.834  0.8164 -0.9668  0.6409
 8750SOL     OW37885   1.401   2.715   6.145  0.2561  0.3671  0.5438
 8750SOL    HW137886   1.336   2.772   6.104 -0.1362 -0.8343 -0.4873
 8750SOL    HW237887   1.419   2.677   6.060  0.0501  2.4255 -0.4297
 8751SOL     OW37888   1.383   3.737   7.683  0.4652  0.2003 -0.3256
 8751SOL    HW137889   1.374   3.828   7.709  1.5778 -0.0492  0.9278
 8751SOL    HW237890   1.401   3.691   7.765 -0.9337  0.2705  0.0226
 8752SOL     OW37891   1.630   3.503   5.261  0.0451  0.4589  0.1131
 8752SOL    HW137892   1.603   3.544   5.179 -0.9464  0.6382  0.5206
 8752SOL    HW237893   1.669   3.422   5.230 -0.5959  0.3070 -0.2909
 8753SOL     OW37894   1.874   3.489   2.594  0.2437 -0.3004 -0.4937
 8753SOL    HW137895   1.929   3.567   2.600  1.2965 -1.0115 -0.8643
 8753SOL    HW237896   1.932   3.420   2.627 -0.5785 -1.8659 -2.3188
 8754SOL     OW37897   3.420   2.893  12.524  0.1942  0.5117  0.1483
 8754SOL    HW137898   3.505   2.900  12.479  0.2870 -1.9628 -0.0659
 8754SOL    HW237899   3.427   2.979  12.565 -1.4186  0.4043  0.6362
 8755SOL     OW37900   2.166   3.928   4.817 -0.3159 -0.1402  0.2139
 8755SOL    HW137901   2.190   3.843   4.852 -0.6089  0.4951  1.9599
 8755SOL    HW237902   2.146   3.968   4.901 -2.0190 -0.2850 -0.1116
 8756SOL     OW37903   1.310   0.900  13.676  0.1360 -0.2545 -0.3399
 8756SOL    HW137904   1.380   0.887  13.611 -1.0110 -0.0038 -1.6251
 8756SOL    HW237905   1.235   0.875  13.622  0.1623  0.3054 -0.6317
 8757SOL     OW37906   0.327   0.401   8.070  0.1851 -0.2597  0.2093
 8757SOL    HW137907   0.293   0.486   8.098 -2.4762 -1.2963  0.1426
 8757SOL    HW237908   0.408   0.429   8.027  1.0361 -0.5377  1.6215
 8758SOL     OW37909   4.292   3.194  11.372  0.1488  0.1773 -0.5182
 8758SOL    HW137910   4.360   3.187  11.439 -0.6110 -0.4870  0.1829
 8758SOL    HW237911   4.242   3.114  11.389  0.2479  0.4068  0.8541
 8759SOL     OW37912   1.469   3.530   3.161 -0.2061 -0.5278 -0.0628
 8759SOL    HW137913   1.528   3.603   3.182  2.3052 -2.7278  0.5680
 8759SOL    HW237914   1.396   3.536   3.222  1.0746  1.0801  1.3230
 8760SOL     OW37915   2.748   1.097  17.301 -0.1816 -0.7033 -0.0562
 8760SOL    HW137916   2.839   1.079  17.322  0.6999  2.6302 -1.0577
 8760SOL    HW237917   2.702   1.081  17.384  0.0700 -0.8846  0.0490
 8761SOL     OW37918   4.468   4.276   5.591  0.6211 -0.0695 -0.2364
 8761SOL    HW137919   4.438   4.276   5.682 -3.5688 -2.4618 -1.6312
 8761SOL    HW237920   4.481   4.371   5.587 -0.4704  0.1328  1.0914
 8762SOL     OW37921   3.111   0.865   5.811  0.0514  0.4371 -0.4106
 8762SOL    HW137922   3.065   0.795   5.857  1.8737 -0.3279  0.2585
 8762SOL    HW237923   3.139   0.827   5.728  0.3605 -1.2099  0.4355
 8763SOL     OW37924   3.317   4.455   5.122  0.3352 -0.4336  0.0119
 8763SOL    HW137925   3.350   4.428   5.037 -1.1456  0.4418 -0.8256
 8763SOL    HW237926   3.390   4.428   5.179  1.0597  1.2185 -0.1406
 8764SOL     OW37927   1.674   1.655   1.974 -0.2348 -0.6869  0.0876
 8764SOL    HW137928   1.760   1.619   1.998  0.0728 -1.4601 -2.1811
 8764SOL    HW237929   1.618   1.580   1.954 -3.5282  0.9866  2.9978
 8765SOL     OW37930   2.055   0.020   5.737 -0.8145 -0.1306  0.0103
 8765SOL    HW137931   2.124   4.697   5.767 -1.2919 -0.6123  0.1540
 8765SOL    HW237932   2.072   0.034   5.644  2.1853 -2.0236  0.2712
 8766SOL     OW37933   0.682   2.661   5.562  0.0353 -0.3786  0.1451
 8766SOL    HW137934   0.775   2.639   5.569  0.3389  0.8031 -0.1510
 8766SOL    HW237935   0.654   2.617   5.482  3.6721 -0.2826 -1.1788
 8767SOL     OW37936   3.070   3.328   4.791 -0.2858 -0.6602 -0.3618
 8767SOL    HW137937   3.006   3.364   4.730 -0.9621  0.0806  0.7792
 8767SOL    HW237938   3.088   3.402   4.849 -4.0265  1.2520 -1.6370
 8768SOL     OW37939   4.587   3.850   4.608 -0.4834 -0.3019 -0.0542
 8768SOL    HW137940   4.593   3.841   4.513  1.0236  1.6587 -0.1470
 8768SOL    HW237941   4.680   3.838   4.624 -0.7890 -0.8878  1.2467
 8769SOL     OW37942   0.623   4.335   3.257 -0.8568 -0.7575  0.3766
 8769SOL    HW137943   0.604   4.403   3.192 -0.7685 -0.7638  0.3438
 8769SOL    HW237944   0.653   4.390   3.329 -0.3948 -0.7166  0.1589
 8770SOL     OW37945   2.588   2.651   5.818 -0.0386 -0.1671  0.2543
 8770SOL    HW137946   2.611   2.729   5.869  3.0458 -1.7682  1.3582
 8770SOL    HW237947   2.632   2.585   5.871 -0.8188 -0.1628  0.8992
 8771SOL     OW37948   3.636   0.135   3.130  0.4737 -0.5837 -0.0601
 8771SOL    HW137949   3.563   0.131   3.068  1.1476 -0.8367 -0.8441
 8771SOL    HW237950   3.671   0.223   3.119 -1.0076  0.2387  1.7908
 8772SOL     OW37951   1.529   2.101   6.429 -0.1410 -0.3282  0.6056
 8772SOL    HW137952   1.435   2.090   6.442 -0.3380  0.1900 -0.3698
 8772SOL    HW237953   1.552   2.137   6.515 -0.6737  3.1301 -0.7237
 8773SOL     OW37954   2.784   3.733   3.769  0.0051  0.2199  0.0081
 8773SOL    HW137955   2.864   3.681   3.761 -0.3383 -0.2912 -0.0896
 8773SOL    HW237956   2.745   3.704   3.851  0.4902  0.2805  0.2627
 8774SOL     OW37957   3.901   3.863   8.842 -0.0838  0.0198  0.3143
 8774SOL    HW137958   3.971   3.833   8.785  0.8360  2.1410  0.3101
 8774SOL    HW237959   3.895   3.954   8.813  0.4092 -0.2145 -0.5123
 8775SOL     OW37960   4.229   3.724   2.281 -0.5934 -0.3610 -0.1895
 8775SOL    HW137961   4.324   3.725   2.269 -0.7003  2.4401 -0.8916
 8775SOL    HW237962   4.196   3.813   2.274  0.8747  0.3261  1.6172
 8776SOL     OW37963   1.495   3.732  11.972  0.8225 -0.1343  0.1186
 8776SOL    HW137964   1.537   3.806  12.017  2.4196 -0.3652 -0.9744
 8776SOL    HW237965   1.419   3.772  11.931 -0.9622 -2.0626  1.5727
 8777SOL     OW37966   4.163   4.432  11.540 -0.1421  0.0363  0.3171
 8777SOL    HW137967   4.163   4.527  11.529  0.3201 -0.1792 -1.5625
 8777SOL    HW237968   4.070   4.410  11.549  0.2832 -1.2472  1.4364
 8778SOL     OW37969   0.083   2.794   6.337 -0.4575  0.3733 -0.9182
 8778SOL    HW137970   0.121   2.706   6.349 -0.4397  0.6867  1.2168
 8778SOL    HW237971   0.163   2.846   6.340  1.8074 -3.1980  0.3714
 8779SOL     OW37972   3.857   0.744   4.332  0.2930  0.5495 -0.2547
 8779SOL    HW137973   3.814   0.677   4.279  0.7327  0.8299 -0.9668
 8779SOL    HW237974   3.880   0.808   4.265  1.9297 -1.1813 -1.3177
 8780SOL     OW37975   2.192   2.949   2.936  0.1621  0.0139  0.7769
 8780SOL    HW137976   2.102   2.977   2.922  0.5099 -0.8996 -3.3412
 8780SOL    HW237977   2.180   2.872   2.992 -0.3271 -0.2545  0.2979
 8781SOL     OW37978   0.411   2.790   4.198  0.1732 -0.2289  0.7403
 8781SOL    HW137979   0.470   2.853   4.157  0.7125 -1.0428  0.2854
 8781SOL    HW237980   0.474   2.743   4.251  0.4462 -0.4415  0.2243
 8782SOL     OW37981   3.490   4.399   6.093 -0.3924 -0.5510  0.1989
 8782SOL    HW137982   3.539   4.382   6.174 -0.9236  2.6977  1.2093
 8782SOL    HW237983   3.436   4.470   6.128  0.7168 -1.5742  4.0857
 8783SOL     OW37984   3.727   2.295   9.842  0.0891  0.4826  0.7008
 8783SOL    HW137985   3.661   2.271   9.777  0.0044 -0.3167  1.0838
 8783SOL    HW237986   3.687   2.272   9.926  1.1212 -1.5972  0.6051
 8784SOL     OW37987   4.714   0.025   1.802  0.5364  0.0936  0.1812
 8784SOL    HW137988   0.005   4.671   1.790  0.8171  0.2845 -0.5812
 8784SOL    HW237989   0.066   0.063   1.807  0.8556 -0.5126 -0.9711
 8785SOL     OW37990   4.203   2.877   8.771  0.1137  0.0329  0.0614
 8785SOL    HW137991   4.221   2.943   8.703 -1.1590  0.2025 -0.1137
 8785SOL    HW237992   4.145   2.814   8.730 -3.3409  3.8458 -0.8481
 8786SOL     OW37993   4.528   3.897  12.873  0.1885 -0.2276 -0.5111
 8786SOL    HW137994   4.432   3.901  12.868  0.3461  1.1725 -2.6275
 8786SOL    HW237995   4.536   3.978  12.923 -0.3249 -0.6684  0.2794
 8787SOL     OW37996   1.198   4.175   7.244  0.9662 -0.6285  0.0252
 8787SOL    HW137997   1.134   4.134   7.185 -0.1760  0.1807  0.7006
 8787SOL    HW237998   1.133   4.201   7.310  1.5862 -2.1143  1.2360
 8788SOL     OW37999   4.331   3.630   5.340 -0.3569 -0.1114  0.6279
 8788SOL    HW138000   4.287   3.698   5.288  1.9666  0.1501 -0.9837
 8788SOL    HW238001   4.407   3.604   5.289  0.4682  0.1951  1.6991
 8789SOL     OW38002   1.803   4.135   1.764  0.5959 -0.5723  0.0525
 8789SOL    HW138003   1.753   4.200   1.813 -0.8581  0.4976 -2.8217
 8789SOL    HW238004   1.819   4.063   1.825  0.5411 -1.6123 -1.1656
 8790SOL     OW38005   3.746   3.574  15.613 -0.3874  0.2911 -0.1331
 8790SOL    HW138006   3.710   3.647  15.663  0.2062 -0.7331  1.7884
 8790SOL    HW238007   3.672   3.514  15.607 -1.2980  1.4191 -0.1453
 8791SOL     OW38008   1.322   3.624  11.141  0.2349 -0.0993 -0.6573
 8791SOL    HW138009   1.259   3.680  11.095  0.2221  0.1676 -0.3164
 8791SOL    HW238010   1.376   3.687  11.188 -1.5427  1.6012 -0.8904
 8792SOL     OW38011   3.682   1.995   0.816 -0.2178 -0.5540 -0.0752
 8792SOL    HW138012   3.652   1.984   0.725 -2.2174 -0.5326  0.5876
 8792SOL    HW238013   3.630   2.071   0.840 -0.7926 -1.4979  1.6558
 8793SOL     OW38014   2.396   2.381   3.987 -0.3717 -0.2970 -0.4724
 8793SOL    HW138015   2.457   2.351   3.920  0.8046  0.3799  0.3078
 8793SOL    HW238016   2.352   2.301   4.018  0.8392 -0.9672 -0.4980
 8794SOL     OW38017   2.815   2.960  11.745  0.1021  0.4797 -0.6821
 8794SOL    HW138018   2.788   2.995  11.830 -1.6005  0.4832 -1.2149
 8794SOL    HW238019   2.808   2.866  11.760  1.0202  0.5719  0.3183
 8795SOL     OW38020   1.093   3.690   7.707  0.2958  0.0964  0.8799
 8795SOL    HW138021   1.116   3.702   7.799  3.5965  0.8134 -0.0205
 8795SOL    HW238022   1.177   3.704   7.663  0.3154 -0.5383  0.7232
 8796SOL     OW38023   2.005   1.875  11.313  0.1059  0.7979 -0.0716
 8796SOL    HW138024   2.049   1.916  11.238 -0.8588  1.9620  0.0089
 8796SOL    HW238025   1.949   1.814  11.264  2.1790 -1.7342  0.7198
 8797SOL     OW38026   1.891   4.319  10.753  0.0988  0.5470  0.0802
 8797SOL    HW138027   1.958   4.264  10.711  0.0127 -0.5307  1.3678
 8797SOL    HW238028   1.811   4.274  10.725  1.3698 -2.0786  0.6475
 8798SOL     OW38029   0.775   2.269   6.377 -0.5449 -0.3869  0.5813
 8798SOL    HW138030   0.765   2.206   6.448 -2.8300  0.4781  1.0110
 8798SOL    HW238031   0.689   2.310   6.374 -0.2732  0.2892  1.8556
 8799SOL     OW38032   0.834   1.364  17.583  0.1567  0.1143 -0.0849
 8799SOL    HW138033   0.748   1.352  17.542 -1.3679  3.3341  2.2183
 8799SOL    HW238034   0.894   1.310  17.531 -1.8838 -0.3975 -1.8869
 8800SOL     OW38035   1.518   0.811  13.528  0.2964  0.0618  0.0805
 8800SOL    HW138036   1.517   0.888  13.472  3.4999  0.7842  1.0165
 8800SOL    HW238037   1.610   0.803  13.556  0.5912 -0.3012 -0.9791
 8801SOL     OW38038   1.344   0.037   2.901 -0.4166 -0.0607  0.3178
 8801SOL    HW138039   1.386   0.026   2.986 -0.2773  1.5593  0.4609
 8801SOL    HW238040   1.308   4.686   2.881 -1.8066 -0.3758  4.0956
 8802SOL     OW38041   2.827   2.523   7.418 -0.5861 -0.1605 -0.4150
 8802SOL    HW138042   2.902   2.467   7.398 -1.9510 -2.2225  0.3041
 8802SOL    HW238043   2.786   2.477   7.490 -0.2066 -1.7395 -1.2168
 8803SOL     OW38044   0.845   3.049   5.076 -0.1758  0.0429 -0.7440
 8803SOL    HW138045   0.796   2.976   5.113  1.0935 -0.9556 -1.0028
 8803SOL    HW238046   0.773   3.112   5.083  1.6794  1.9072  1.8832
 8804SOL     OW38047   2.815   2.574  15.785 -0.5577  0.5010  0.5591
 8804SOL    HW138048   2.841   2.621  15.706  0.9055  3.1273  2.6034
 8804SOL    HW238049   2.794   2.638  15.853  0.4038  1.4593 -0.0398
 8805SOL     OW38050   0.196   1.710   4.096  0.8357 -0.1910  0.3698
 8805SOL    HW138051   0.257   1.695   4.023 -1.1529  4.4556 -2.2818
 8805SOL    HW238052   0.227   1.797   4.122  0.4054  0.4305 -1.1499
 8806SOL     OW38053   2.596   2.723   5.541 -0.5133  0.2833 -0.2158
 8806SOL    HW138054   2.578   2.646   5.487  2.1412  0.2363 -1.0433
 8806SOL    HW238055   2.607   2.683   5.627 -0.8673 -3.4235 -1.8870
 8807SOL     OW38056   1.686   2.128   7.624  0.2993  0.0050 -0.0608
 8807SOL    HW138057   1.752   2.143   7.557  0.1210 -2.3504 -0.7845
 8807SOL    HW238058   1.614   2.185   7.597  1.0402  1.2385  0.5970
 8808SOL     OW38059   0.872   0.322  12.263 -0.3806 -0.1273  0.5813
 8808SOL    HW138060   0.895   0.360  12.178 -1.2320  0.5142  0.6329
 8808SOL    HW238061   0.833   0.398  12.306  1.3698  1.9391 -1.4876
 8809SOL     OW38062   2.653   2.338   8.254 -0.3754 -0.1788  0.0448
 8809SOL    HW138063   2.583   2.312   8.195  1.3458  2.3587 -3.1310
 8809SOL    HW238064   2.609   2.375   8.331 -2.3443 -1.0933 -0.6520
 8810SOL     OW38065   3.703   0.169   5.409 -0.3463  0.3166 -0.2860
 8810SOL    HW138066   3.681   0.197   5.498  1.3198 -0.0959  0.2531
 8810SOL    HW238067   3.790   0.203   5.391  0.8629 -1.1745  2.8264
 8811SOL     OW38068   1.929   3.937   2.924 -1.0115  0.1742  0.1607
 8811SOL    HW138069   1.860   3.909   2.984  0.2039 -1.6541  0.7241
 8811SOL    HW238070   1.980   3.856   2.930 -1.3250 -0.1583 -1.6368
 8812SOL     OW38071   4.149   0.547   3.072 -0.3919 -0.9198  0.0050
 8812SOL    HW138072   4.218   0.610   3.052  0.0576 -1.3924  0.0660
 8812SOL    HW238073   4.211   0.475   3.081  0.2135 -0.2083  1.6311
 8813SOL     OW38074   3.117   4.352  13.564 -0.0485 -0.3828  0.3832
 8813SOL    HW138075   3.030   4.330  13.530 -0.5695  0.7010  0.9949
 8813SOL    HW238076   3.170   4.276  13.538 -1.9396 -0.7052 -2.5865
 8814SOL     OW38077   2.589   2.926   2.650 -0.4559 -0.5902  0.3854
 8814SOL    HW138078   2.505   2.887   2.673 -1.2581 -0.8064 -2.8261
 8814SOL    HW238079   2.628   2.862   2.590  0.5134 -1.3081  1.7914
 8815SOL     OW38080   1.993   1.382   2.259  0.1602 -0.6861 -0.0721
 8815SOL    HW138081   1.919   1.420   2.212  0.3316  1.0825  1.0931
 8815SOL    HW238082   2.067   1.426   2.217  0.9162 -0.9457  0.9481
 8816SOL     OW38083   2.943   0.054   0.562 -0.4050 -0.0969  0.3617
 8816SOL    HW138084   3.004   0.068   0.635 -0.5794  1.6659  0.1613
 8816SOL    HW238085   2.886   0.131   0.559  1.5664  1.3029 -1.7891
 8817SOL     OW38086   3.745   0.256   5.930  0.2465  0.4471  0.7825
 8817SOL    HW138087   3.760   0.274   6.022 -0.7691  2.6592  0.5124
 8817SOL    HW238088   3.734   0.345   5.897 -0.8024 -0.2429 -0.7153
 8818SOL     OW38089   0.282   4.192   3.465  0.7758 -0.0015  0.3284
 8818SOL    HW138090   0.246   4.274   3.498  1.3376  0.7211 -0.8894
 8818SOL    HW238091   0.211   4.135   3.495  0.6629  0.8280  1.6039
 8819SOL     OW38092   4.090   2.094  13.213  0.4534  0.1528 -0.2377
 8819SOL    HW138093   4.019   2.134  13.162 -1.7932  1.3833  3.8267
 8819SOL    HW238094   4.143   2.172  13.227  0.2498  0.4492 -1.1022
 8820SOL     OW38095   1.498   2.249   2.091 -0.3543 -0.4351  0.2246
 8820SOL    HW138096   1.559   2.175   2.094  0.2135  0.0001 -0.7499
 8820SOL    HW238097   1.564   2.316   2.076  0.8982 -1.5610  0.6901
 8821SOL     OW38098   1.886   1.913   9.770  1.0117 -0.0902  0.6941
 8821SOL    HW138099   1.915   1.991   9.817 -0.5064  2.0918 -1.9493
 8821SOL    HW238100   1.939   1.854   9.823  2.2612  0.6278  0.2518
 8822SOL     OW38101   0.748   0.543  14.079 -0.3404  0.1726 -0.1165
 8822SOL    HW138102   0.702   0.602  14.018 -0.5349 -0.5789 -0.6908
 8822SOL    HW238103   0.840   0.560  14.056 -0.6381  0.1699 -1.3236
 8823SOL     OW38104   1.105   4.610  11.264 -0.0316  0.2060 -0.1829
 8823SOL    HW138105   1.063   4.564  11.192 -0.4772 -1.1684  0.9387
 8823SOL    HW238106   1.025   4.654  11.294 -1.9146 -2.3165 -1.4925
 8824SOL     OW38107   3.336   3.809   9.256 -0.2980 -0.0666 -0.0103
 8824SOL    HW138108   3.414   3.804   9.200  0.3052 -1.1055  0.9371
 8824SOL    HW238109   3.280   3.851   9.191  1.0755  0.9679 -0.5318
 8825SOL     OW38110   0.564   3.897   8.103 -0.0010 -0.0602 -0.6939
 8825SOL    HW138111   0.491   3.956   8.119  0.8320  1.0079 -0.8312
 8825SOL    HW238112   0.525   3.818   8.141 -1.1417  0.5656 -0.5623
 8826SOL     OW38113   3.122   0.669  10.295  0.2975 -0.3587  0.1186
 8826SOL    HW138114   3.097   0.717  10.216  0.7192  1.7388  1.2685
 8826SOL    HW238115   3.217   0.674  10.302  0.6269 -2.7977 -2.8647
 8827SOL     OW38116   0.886   4.410  13.718  0.1205 -0.1027  0.6444
 8827SOL    HW138117   0.804   4.372  13.748  0.7793 -1.7497  0.3733
 8827SOL    HW238118   0.862   4.499  13.695 -1.5054 -0.3276  1.4646
 8828SOL     OW38119   3.079   0.363   8.204 -0.0950 -0.3224  0.0328
 8828SOL    HW138120   3.087   0.451   8.240 -1.1794  0.6073 -2.0410
 8828SOL    HW238121   3.107   0.383   8.115  1.1528 -1.1497  0.2399
 8829SOL     OW38122   3.349   3.959   1.973 -0.6084  0.2894  0.0489
 8829SOL    HW138123   3.394   3.896   1.917 -0.9732  0.5111 -0.5040
 8829SOL    HW238124   3.294   3.901   2.026  1.7005 -3.1008 -1.2889
 8830SOL     OW38125   2.100   1.862   6.941  0.1464  0.1794 -0.2524
 8830SOL    HW138126   2.015   1.852   6.899  0.6599  0.5679 -1.4113
 8830SOL    HW238127   2.146   1.877   6.858 -3.2911 -0.8459 -2.3551
 8831SOL     OW38128   3.205   4.640   8.996 -0.0083  0.1838 -0.1168
 8831SOL    HW138129   3.187   4.619   8.905  0.9707 -1.6984  0.1257
 8831SOL    HW238130   3.289   4.599   9.018 -0.9140 -1.9822 -0.6542
 8832SOL     OW38131   2.301   1.701  14.006  0.4669 -0.1567  0.3125
 8832SOL    HW138132   2.251   1.658  13.937  0.7846  1.1554 -0.7495
 8832SOL    HW238133   2.334   1.630  14.061  1.1947 -0.6477 -0.7547
 8833SOL     OW38134   0.323   4.299   4.167 -0.2074 -0.2264  0.1536
 8833SOL    HW138135   0.349   4.255   4.086  2.1642 -1.5376  1.6296
 8833SOL    HW238136   0.385   4.260   4.229  1.6299  2.3893 -0.0602
 8834SOL     OW38137   1.379   4.719   9.655 -0.3290  0.4106  0.0182
 8834SOL    HW138138   1.311   4.733   9.589 -0.7151  0.8878  0.5164
 8834SOL    HW238139   1.333   4.712   9.738  1.5685  0.3525  1.0600
 8835SOL     OW38140   0.148   1.246   7.220 -0.0305  0.4334  0.2297
 8835SOL    HW138141   0.198   1.223   7.298 -0.0539 -0.7093 -0.1061
 8835SOL    HW238142   0.217   1.296   7.176 -0.1782  0.6626  0.2548
 8836SOL     OW38143   0.645   0.080   9.948 -0.0913 -0.1065 -0.5455
 8836SOL    HW138144   0.677   4.734   9.987  1.7621  1.7225  1.8133
 8836SOL    HW238145   0.679   0.146  10.009 -1.0897 -0.5690  0.5231
 8837SOL     OW38146   4.657   2.344  16.853  0.1355  0.2538 -0.3969
 8837SOL    HW138147   4.595   2.412  16.879  0.0406  1.0788 -2.7298
 8837SOL    HW238148   4.700   2.386  16.778 -0.8722  1.6152 -0.2213
 8838SOL     OW38149   2.566   1.634   2.011  0.3225  0.0444 -0.4251
 8838SOL    HW138150   2.556   1.689   2.089  0.0053 -0.8215  0.1399
 8838SOL    HW238151   2.586   1.550   2.052  1.4649  0.6491  0.2443
 8839SOL     OW38152   4.590   2.580   7.046  0.6853 -0.1635  0.1811
 8839SOL    HW138153   4.638   2.614   6.970  0.0976  0.2680  0.0030
 8839SOL    HW238154   4.534   2.518   6.998  0.2595  1.4220 -1.3632
 8840SOL     OW38155   4.411   2.512   3.687 -0.5719 -0.0381 -0.1800
 8840SOL    HW138156   4.386   2.598   3.719 -1.2830  0.9383 -3.3644
 8840SOL    HW238157   4.439   2.533   3.598 -0.5280 -0.0279 -0.1638
 8841SOL     OW38158   2.586   3.764   2.460 -0.6668  0.1600 -0.1753
 8841SOL    HW138159   2.610   3.692   2.403 -1.0880  1.0224 -1.4423
 8841SOL    HW238160   2.670   3.780   2.502 -0.6235  0.6472 -0.4407
 8842SOL     OW38161   1.801   3.210   3.025  0.4795  0.3867  0.1748
 8842SOL    HW138162   1.716   3.246   3.050 -0.6268 -1.5283 -0.8119
 8842SOL    HW238163   1.839   3.210   3.113  0.0867  0.9638  0.3378
 8843SOL     OW38164   3.813   3.834   3.003  0.0282  0.2093  0.1451
 8843SOL    HW138165   3.878   3.830   2.934 -0.2656  0.2107 -0.1329
 8843SOL    HW238166   3.753   3.897   2.962  1.8022  1.6751 -0.1642
 8844SOL     OW38167   1.792   2.967   7.071 -0.2682  0.3713  0.2403
 8844SOL    HW138168   1.780   3.042   7.013 -1.3051 -0.5627 -0.7752
 8844SOL    HW238169   1.886   2.949   7.062 -0.3869  0.5756 -1.4819
 8845SOL     OW38170   0.032   0.855   8.376  0.0651 -0.9273  0.4167
 8845SOL    HW138171   0.060   0.916   8.444  1.9450 -1.1105 -0.1891
 8845SOL    HW238172   0.060   0.896   8.294 -1.2870 -0.2165  0.3033
 8846SOL     OW38173   2.429   3.756   2.875 -0.8381  0.5044  0.2722
 8846SOL    HW138174   2.470   3.696   2.936  0.1551 -0.3918 -1.2788
 8846SOL    HW238175   2.509   3.792   2.837  0.4053  0.0987  2.5224
 8847SOL     OW38176   3.298   1.198   4.501  0.7735  0.6118 -0.9113
 8847SOL    HW138177   3.257   1.111   4.503  0.4580  0.8010  0.7269
 8847SOL    HW238178   3.375   1.180   4.555  0.2800 -0.2561 -0.4855
 8848SOL     OW38179   3.294   2.810   5.856  0.4323  0.9125  0.1922
 8848SOL    HW138180   3.374   2.769   5.825  0.1490  0.0658  0.5611
 8848SOL    HW238181   3.276   2.757   5.934 -2.9374  1.8038  0.0187
 8849SOL     OW38182   0.520   0.881   2.297 -0.4050 -0.3151  0.2525
 8849SOL    HW138183   0.576   0.823   2.246  0.2385  1.1496 -0.6973
 8849SOL    HW238184   0.489   0.825   2.369 -1.1980 -0.3850 -0.1395
 8850SOL     OW38185   0.674   3.918   7.048  0.0561  0.1742  0.1129
 8850SOL    HW138186   0.710   4.007   7.042  1.2515 -0.3630 -0.6573
 8850SOL    HW238187   0.687   3.914   7.143  1.8913  2.4129 -0.0311
 8851SOL     OW38188   2.277   4.442   1.961 -0.7839 -0.5542 -0.1528
 8851SOL    HW138189   2.282   4.383   2.036 -1.0338 -0.1926  0.1460
 8851SOL    HW238190   2.245   4.379   1.897  2.0179 -1.2414 -0.8898
 8852SOL     OW38191   2.036   0.212   3.505 -0.4848 -0.5566  0.3858
 8852SOL    HW138192   2.047   0.130   3.458  1.2305  0.2765 -0.6955
 8852SOL    HW238193   1.998   0.272   3.440 -0.4412 -0.4550  0.4533
 8853SOL     OW38194   0.734   3.880   9.520  0.0491 -0.2046  0.2356
 8853SOL    HW138195   0.778   3.816   9.464  1.8254  0.2591  1.1258
 8853SOL    HW238196   0.740   3.836   9.605 -0.0914 -1.9424 -0.6369
 8854SOL     OW38197   2.338   4.222  15.158 -0.5955 -0.7552  0.2798
 8854SOL    HW138198   2.369   4.231  15.068 -1.7592 -0.7418 -0.1194
 8854SOL    HW238199   2.409   4.264  15.206 -0.1336 -1.8711  0.5690
 8855SOL     OW38200   4.490   3.341  14.671  0.2251 -0.1611 -0.4318
 8855SOL    HW138201   4.438   3.266  14.700  2.9252 -0.7860  2.9289
 8855SOL    HW238202   4.544   3.361  14.748 -0.6142  0.5056 -0.0223
 8856SOL     OW38203   2.478   0.302   5.628 -0.8217 -0.4141  0.5011
 8856SOL    HW138204   2.555   0.299   5.570 -0.8795 -1.1938  0.4642
 8856SOL    HW238205   2.487   0.393   5.655  0.5106 -1.1921  2.6969
 8857SOL     OW38206   0.843   1.025   9.748  0.7624  0.2850  0.0693
 8857SOL    HW138207   0.888   1.046   9.666 -0.6831  2.0643 -0.2612
 8857SOL    HW238208   0.790   0.952   9.715  0.1559 -0.7814  3.3723
 8858SOL     OW38209   1.253   0.217  15.929 -0.8388 -0.0936 -0.2722
 8858SOL    HW138210   1.294   0.290  15.977 -0.7268  0.4945 -1.2454
 8858SOL    HW238211   1.163   0.247  15.927 -1.3928 -1.6885  1.0291
 8859SOL     OW38212   0.293   2.060   7.274  0.5272 -0.0192 -0.3762
 8859SOL    HW138213   0.316   2.149   7.247  2.2934 -0.1983  0.5331
 8859SOL    HW238214   0.367   2.037   7.329  0.3449 -0.5036 -0.3311
 8860SOL     OW38215   0.069   3.400   5.288  0.6550  0.2818 -0.0018
 8860SOL    HW138216   0.047   3.391   5.195 -2.4733  3.0394  0.4890
 8860SOL    HW238217   0.164   3.395   5.276  0.8704  0.6134  1.5019
 8861SOL     OW38218   3.291   0.319   8.551 -0.0771  0.1605  0.0692
 8861SOL    HW138219   3.275   0.253   8.619  2.7501  1.2995  1.7925
 8861SOL    HW238220   3.346   0.268   8.491  1.9975 -1.0790  3.0472
 8862SOL     OW38221   0.357   1.574   8.324  0.6035 -0.1899 -0.0348
 8862SOL    HW138222   0.394   1.639   8.265  1.6284 -0.1151  0.6797
 8862SOL    HW238223   0.269   1.585   8.288  0.5233  0.5586  0.4068
 8863SOL     OW38224   3.268   0.284  12.746  0.4119 -0.1311  0.0564
 8863SOL    HW138225   3.311   0.317  12.825 -0.1803  1.3622 -0.2477
 8863SOL    HW238226   3.306   0.345  12.683 -2.4429  1.0466 -0.4921
 8864SOL     OW38227   4.230   2.654  13.670  0.0809 -0.4474  0.1455
 8864SOL    HW138228   4.296   2.586  13.653  1.8814  1.7628 -1.7302
 8864SOL    HW238229   4.283   2.732  13.655 -0.3182 -0.2257 -0.0751
 8865SOL     OW38230   2.653   3.194   0.635 -0.4642 -0.3963  0.2973
 8865SOL    HW138231   2.654   3.253   0.560  1.5098 -0.6504  0.1302
 8865SOL    HW238232   2.673   3.114   0.586  3.4794  1.8829 -1.8055
 8866SOL     OW38233   3.922   1.191   5.662  0.4165 -0.0679  0.0118
 8866SOL    HW138234   3.999   1.247   5.666  0.3355  0.2778 -3.0018
 8866SOL    HW238235   3.949   1.132   5.591 -0.9041  0.3230 -0.8060
 8867SOL     OW38236   0.554   1.745   5.304  0.4593  0.3337  0.2381
 8867SOL    HW138237   0.478   1.710   5.352 -1.6596  3.4110 -0.8823
 8867SOL    HW238238   0.506   1.770   5.225 -0.1079  1.4534  0.9364
 8868SOL     OW38239   1.928   4.659   5.020 -0.5219 -0.1112 -0.2066
 8868SOL    HW138240   1.936   4.677   5.114 -0.8021  1.2632 -0.4451
 8868SOL    HW238241   1.988   4.584   5.020 -0.0115  0.2995 -0.3308
 8869SOL     OW38242   0.206   4.681   3.917  0.1851 -0.2522  0.4328
 8869SOL    HW138243   0.250   0.027   3.939  2.0280 -0.7957 -1.2041
 8869SOL    HW238244   0.178   4.645   4.001  1.3128 -0.2231  0.8307
 8870SOL     OW38245   2.784   3.146  13.172 -0.1096 -0.3161 -0.0975
 8870SOL    HW138246   2.739   3.227  13.151  0.4878  0.0452  0.0049
 8870SOL    HW238247   2.760   3.089  13.099 -0.9368 -0.3126  0.1778
 8871SOL     OW38248   4.263   1.941   8.400 -0.7183  0.5249 -0.3381
 8871SOL    HW138249   4.289   1.903   8.317 -2.6135 -0.6927 -0.3771
 8871SOL    HW238250   4.170   1.963   8.389 -0.8026  0.9440  1.1147
 8872SOL     OW38251   1.586   2.183   6.693  0.1687  0.8478 -0.4538
 8872SOL    HW138252   1.567   2.277   6.686 -0.0827  0.8029 -0.3625
 8872SOL    HW238253   1.678   2.191   6.720  0.2090  1.9627 -0.9045
 8873SOL     OW38254   2.998   3.270  16.699 -0.1279 -0.6377  0.0600
 8873SOL    HW138255   2.990   3.352  16.649  0.0237  0.0167  1.1216
 8873SOL    HW238256   3.078   3.282  16.750 -0.7688  2.2594  0.4126
 8874SOL     OW38257   0.817   0.868  11.568 -0.2087  0.0034 -0.5623
 8874SOL    HW138258   0.836   0.839  11.657 -1.7628  0.9033  0.0589
 8874SOL    HW238259   0.899   0.914  11.550  0.6178 -0.7775  1.1840
 8875SOL     OW38260   1.580   3.379   6.287  0.7565 -0.4777  0.6668
 8875SOL    HW138261   1.632   3.303   6.314 -0.3275 -1.0639  1.0730
 8875SOL    HW238262   1.642   3.448   6.308 -0.1466  0.6306 -0.3374
 8876SOL     OW38263   3.188   4.073   5.581 -0.0524  0.5771 -0.1026
 8876SOL    HW138264   3.108   4.020   5.576 -1.9269  3.5080 -1.3154
 8876SOL    HW238265   3.257   4.010   5.562 -0.4318 -0.3032  1.4302
 8877SOL     OW38266   0.623   0.638   2.206  0.4125 -0.0017 -0.7130
 8877SOL    HW138267   0.663   0.629   2.120  0.0583  1.0925 -0.9994
 8877SOL    HW238268   0.531   0.611   2.198  0.1960  0.5425 -0.0708
 8878SOL     OW38269   2.393   0.417   4.461  0.2491  0.0209 -0.3707
 8878SOL    HW138270   2.306   0.412   4.501  1.2676 -2.9409  1.4041
 8878SOL    HW238271   2.452   0.418   4.536 -0.7394  1.8250  0.3893
 8879SOL     OW38272   2.182   2.465  14.173 -0.4787 -0.9503 -0.3789
 8879SOL    HW138273   2.094   2.431  14.190 -0.0039 -0.7723  2.3515
 8879SOL    HW238274   2.213   2.476  14.263  3.7089  1.4233 -2.1210
 8880SOL     OW38275   3.604   1.035   7.246 -0.6041 -0.6796 -0.0393
 8880SOL    HW138276   3.692   1.039   7.283 -0.6594  0.4325 -0.0241
 8880SOL    HW238277   3.571   0.948   7.268  0.8175 -1.5201 -1.2094
 8881SOL     OW38278   0.119   2.462   1.731  0.3077 -0.2404  0.1980
 8881SOL    HW138279   0.041   2.417   1.760  0.0241  0.4789  0.5539
 8881SOL    HW238280   0.098   2.551   1.761 -2.1980 -0.2760 -1.5265
 8882SOL     OW38281   2.349   4.052   6.307  0.1227 -0.4782 -0.4970
 8882SOL    HW138282   2.362   4.043   6.213  0.4136  1.3069 -0.6331
 8882SOL    HW238283   2.435   4.081   6.339  0.8167 -1.6037 -1.3394
 8883SOL     OW38284   2.103   2.289   5.309 -0.4081 -0.5517 -0.4579
 8883SOL    HW138285   2.170   2.241   5.260 -1.6514 -0.0453 -2.6352
 8883SOL    HW238286   2.153   2.354   5.359 -1.0422 -0.0504 -0.4723
 8884SOL     OW38287   3.526   2.816   3.214 -1.4543  0.4690 -0.4969
 8884SOL    HW138288   3.437   2.840   3.186 -1.8726  0.4737  0.8319
 8884SOL    HW238289   3.528   2.891   3.274 -1.1912 -0.5111  0.7280
 8885SOL     OW38290   1.722   4.274  17.173 -0.1728 -0.3955  0.5885
 8885SOL    HW138291   1.713   4.350  17.115  0.2181 -0.3407  0.5958
 8885SOL    HW238292   1.812   4.288  17.204 -0.6786  2.0841  0.9286
 8886SOL     OW38293   0.209   1.664   7.706 -0.3673  0.1576 -0.0275
 8886SOL    HW138294   0.139   1.618   7.752 -1.2070  2.1010  0.6605
 8886SOL    HW238295   0.204   1.747   7.754  1.4322 -0.7498  1.7761
 8887SOL     OW38296   3.134   2.367  16.251 -0.1892 -0.4697 -0.1091
 8887SOL    HW138297   3.150   2.335  16.163  3.9794 -2.9423  1.5324
 8887SOL    HW238298   3.179   2.295  16.296 -1.8190 -1.8358 -0.6530
 8888SOL     OW38299   2.245   0.210   2.417 -0.3825  0.1610 -0.2846
 8888SOL    HW138300   2.154   0.185   2.403 -0.9989  2.0977  0.1836
 8888SOL    HW238301   2.244   0.298   2.379  0.5610 -0.0212 -0.7416
 8889SOL     OW38302   1.720   3.245  10.625  0.6984  0.2509  0.0308
 8889SOL    HW138303   1.760   3.293  10.553 -3.9208  0.1400 -2.6582
 8889SOL    HW238304   1.658   3.196  10.571 -0.1153  0.6433  0.6008
 8890SOL     OW38305   0.298   0.495   3.320 -0.7769 -0.1345 -0.3118
 8890SOL    HW138306   0.208   0.462   3.314 -0.7867 -0.0404 -0.6603
 8890SOL    HW238307   0.341   0.415   3.349  2.3231  1.0599 -1.6933
 8891SOL     OW38308   2.158   0.937   2.615  0.0318  0.2672  0.0779
 8891SOL    HW138309   2.174   1.027   2.643 -1.1161 -0.4362  2.9208
 8891SOL    HW238310   2.250   0.917   2.595 -0.2789  1.1471 -2.1991
 8892SOL     OW38311   3.505   2.478   5.740 -0.6334  0.1861 -0.4769
 8892SOL    HW138312   3.523   2.569   5.716  1.8174 -0.0344  0.4857
 8892SOL    HW238313   3.530   2.433   5.659 -1.1908  1.9688 -1.6431
 8893SOL     OW38314   3.523   2.192  12.692  0.8412 -0.4752  0.3718
 8893SOL    HW138315   3.523   2.269  12.636  2.1854  0.9232  2.2936
 8893SOL    HW238316   3.610   2.156  12.675  0.7178 -0.4729 -0.2654
 8894SOL     OW38317   2.682   2.058   6.706 -0.5939 -0.1577  0.5073
 8894SOL    HW138318   2.629   2.001   6.651 -2.4409  1.4773  0.5835
 8894SOL    HW238319   2.623   2.098   6.771  0.0996 -0.4759  1.3418
 8895SOL     OW38320   0.952   2.496   7.402  0.2708 -0.4573 -0.6054
 8895SOL    HW138321   0.883   2.478   7.338 -1.6618  1.1939  0.9943
 8895SOL    HW238322   0.938   2.590   7.419  1.6485 -1.1133  3.9553
 8896SOL     OW38323   1.774   1.713  16.287  0.0159  0.2697  0.2044
 8896SOL    HW138324   1.816   1.766  16.355  0.9741  0.2075 -0.3420
 8896SOL    HW238325   1.851   1.662  16.261 -0.0644 -0.1591  0.8059
 8897SOL     OW38326   2.688   3.022   1.652 -0.2254 -0.1657 -0.3087
 8897SOL    HW138327   2.635   3.080   1.707 -1.5442 -0.5842 -1.1311
 8897SOL    HW238328   2.636   2.945   1.631 -0.3607 -0.4944  1.2094
 8898SOL     OW38329   4.471   2.055   8.529  0.3925 -0.1105  0.0977
 8898SOL    HW138330   4.453   1.993   8.599  0.5129 -0.1428  0.1001
 8898SOL    HW238331   4.394   2.044   8.472  1.6603  0.6076 -1.7682
 8899SOL     OW38332   0.902   0.519   9.805 -0.6244  0.0687 -0.2322
 8899SOL    HW138333   0.831   0.550   9.862  1.3435  0.6909  1.8763
 8899SOL    HW238334   0.873   0.432   9.778 -1.4114  0.3592 -0.3290
 8900SOL     OW38335   1.665   3.930   7.595  0.4443  0.5083  0.0215
 8900SOL    HW138336   1.659   3.857   7.534  2.0406  0.4983 -0.1421
 8900SOL    HW238337   1.571   3.939   7.606  0.1149 -0.7515 -1.7963
 8901SOL     OW38338   1.336   1.401   7.436  0.2607  0.0990 -0.7047
 8901SOL    HW138339   1.284   1.321   7.428  1.2582 -0.4347 -1.8756
 8901SOL    HW238340   1.382   1.386   7.519  1.2218  1.8753 -0.9231
 8902SOL     OW38341   0.395   4.243   6.282  0.0129  0.3405  0.1659
 8902SOL    HW138342   0.404   4.207   6.370 -0.1605 -0.3095 -0.0863
 8902SOL    HW238343   0.308   4.281   6.272 -0.3607  0.0253  2.2811
 8903SOL     OW38344   4.119   3.390  16.653 -0.8971 -0.4597  0.1566
 8903SOL    HW138345   4.145   3.302  16.678 -1.5469 -0.2436  1.5696
 8903SOL    HW238346   4.074   3.417  16.733 -2.2640 -2.6642  0.1085
 8904SOL     OW38347   3.389   3.468   8.333  0.1941  0.2406  0.3272
 8904SOL    HW138348   3.448   3.458   8.259  1.3125  1.0829  1.1018
 8904SOL    HW238349   3.344   3.385   8.344 -0.2209  0.4901  0.5421
 8905SOL     OW38350   1.699   0.400  15.729 -0.4376 -0.3973 -0.4878
 8905SOL    HW138351   1.658   0.467  15.785  1.9227  1.7695 -1.3299
 8905SOL    HW238352   1.631   0.391  15.663  0.8680  0.2675 -1.9230
 8906SOL     OW38353   0.362   3.700  11.381  0.3148  0.2365 -0.0121
 8906SOL    HW138354   0.416   3.778  11.371  3.4801 -2.0160 -0.5654
 8906SOL    HW238355   0.286   3.728  11.331 -0.3790  1.5171  1.7310
 8907SOL     OW38356   2.836   2.799   6.846  0.1844 -0.2308  0.6253
 8907SOL    HW138357   2.791   2.860   6.904 -1.0963  0.6201 -1.2594
 8907SOL    HW238358   2.767   2.732   6.843 -2.1114  2.1610  0.2014
 8908SOL     OW38359   0.993   3.972  17.255  0.2271 -0.6846  0.5797
 8908SOL    HW138360   1.043   4.046  17.290  0.3836 -0.2120 -0.6595
 8908SOL    HW238361   0.954   3.942  17.338  0.2708 -0.7161  0.5884
 8909SOL     OW38362   2.264   1.888  14.178  0.8822  0.2134  0.0455
 8909SOL    HW138363   2.175   1.853  14.172  0.9485  0.6659 -3.6772
 8909SOL    HW238364   2.288   1.830  14.106  2.3301  1.3954 -0.4150
 8910SOL     OW38365   2.581   4.114   0.255 -0.3503 -0.1749 -1.0061
 8910SOL    HW138366   2.528   4.035   0.243 -0.3795 -0.1273 -1.1982
 8910SOL    HW238367   2.599   4.105   0.348 -0.1291 -0.8043 -1.1085
 8911SOL     OW38368   4.552   4.015  12.052 -0.1500 -0.1582 -0.6116
 8911SOL    HW138369   4.587   4.010  11.963  0.9159  2.2499 -0.3406
 8911SOL    HW238370   4.594   3.939  12.091 -2.6882 -1.7259 -0.9291
 8912SOL     OW38371   3.005   3.724  17.630 -0.4395 -0.4060  0.0312
 8912SOL    HW138372   2.973   3.650  17.681 -1.4827  0.7807  1.0675
 8912SOL    HW238373   3.056   3.773  17.695  1.7343 -1.4785 -0.8506
 8913SOL     OW38374   3.086   2.991  17.536  0.0700  0.1370 -0.2978
 8913SOL    HW138375   3.181   2.995  17.524  0.1704 -2.4754 -0.5049
 8913SOL    HW238376   3.087   2.912  17.591  0.5702 -0.2314 -0.8321
 8914SOL     OW38377   3.498   3.736   9.456 -0.5443 -0.3582  0.4784
 8914SOL    HW138378   3.564   3.786   9.408  1.6874 -1.4977  2.3901
 8914SOL    HW238379   3.416   3.750   9.409  0.1455 -1.3887 -1.0338
 8915SOL     OW38380   2.698   4.577   7.578 -0.2988  0.3014 -0.0085
 8915SOL    HW138381   2.623   4.524   7.607 -0.4993 -0.3050 -1.6019
 8915SOL    HW238382   2.769   4.538   7.628 -0.0720 -1.4465 -1.6651
 8916SOL     OW38383   0.874   0.638   1.561  0.2707  0.7462 -0.9717
 8916SOL    HW138384   0.924   0.634   1.479  1.8084  2.1000 -0.0955
 8916SOL    HW238385   0.826   0.555   1.555 -1.5566  1.5355  2.5716
 8917SOL     OW38386   3.211   3.141  13.913  0.0245  0.2944  0.7800
 8917SOL    HW138387   3.307   3.143  13.908 -0.0218  1.8025  0.6720
 8917SOL    HW238388   3.193   3.123  14.005 -1.2533  1.9549  0.8367
 8918SOL     OW38389   2.471   0.948   2.982 -0.4370  0.8172  0.2087
 8918SOL    HW138390   2.442   0.878   2.924 -0.1623 -0.1467  1.2354
 8918SOL    HW238391   2.510   0.901   3.055 -2.0691 -0.5418  0.1927
 8919SOL     OW38392   0.960   2.892   7.614 -0.3139 -0.0611 -0.0764
 8919SOL    HW138393   0.903   2.817   7.596 -0.8891  0.6141 -1.0369
 8919SOL    HW238394   1.013   2.893   7.534  0.0686  3.5500  0.2143
 8920SOL     OW38395   0.128   3.982   4.250  0.1118  0.3502 -0.3970
 8920SOL    HW138396   0.136   3.929   4.170  1.3036 -2.2425  1.4710
 8920SOL    HW238397   0.040   3.959   4.280 -1.1787  3.7451 -1.6726
 8921SOL     OW38398   0.989   0.371   4.143  0.1969  0.0992 -0.1094
 8921SOL    HW138399   0.957   0.331   4.224  1.1802 -2.3267 -0.8912
 8921SOL    HW238400   1.059   0.308   4.124 -1.2531 -0.7137 -2.8035
 8922SOL     OW38401   4.656   1.343   5.727 -1.1335  0.8122  0.1943
 8922SOL    HW138402   4.730   1.309   5.779 -1.3492 -1.8203 -1.2235
 8922SOL    HW238403   4.698   1.417   5.682  0.1798 -0.0794 -0.0487
 8923SOL     OW38404   2.979   4.472   9.328 -0.3278 -0.6533  0.1928
 8923SOL    HW138405   2.948   4.386   9.297  0.6930 -1.1658  0.5908
 8923SOL    HW238406   2.915   4.529   9.284  0.1562 -1.9386 -2.1762
 8924SOL     OW38407   0.763   4.334   9.252 -0.2911  0.0309 -0.2853
 8924SOL    HW138408   0.854   4.338   9.281 -0.1304  0.1270 -0.8111
 8924SOL    HW238409   0.726   4.249   9.278  0.9003 -0.1319  0.8586
 8925SOL     OW38410   1.669   2.569   8.408 -0.2850 -0.3575 -0.0637
 8925SOL    HW138411   1.630   2.493   8.451  1.0844 -1.4267 -0.7471
 8925SOL    HW238412   1.596   2.614   8.366  0.6093  0.9891 -0.2019
 8926SOL     OW38413   1.959   1.732   8.191  0.3338  0.4767 -0.2345
 8926SOL    HW138414   1.968   1.757   8.099 -1.5092  1.9946 -0.0087
 8926SOL    HW238415   1.908   1.652   8.183  2.2995 -0.9569  1.7545
 8927SOL     OW38416   1.411   0.892   1.675  0.1202  0.0230 -0.0808
 8927SOL    HW138417   1.371   0.975   1.651  1.8055 -0.1319 -3.4609
 8927SOL    HW238418   1.346   0.832   1.639  0.7658 -1.2666  0.8828
 8928SOL     OW38419   2.574   2.137   2.066  0.2683 -0.6419 -0.1905
 8928SOL    HW138420   2.491   2.091   2.058  0.3678 -0.8744  0.1368
 8928SOL    HW238421   2.623   2.067   2.110 -2.1469 -2.2544 -0.1079
 8929SOL     OW38422   3.793   0.091  16.853 -0.3266 -0.4291  0.3521
 8929SOL    HW138423   3.748   0.175  16.855 -0.1540 -0.3222 -0.2811
 8929SOL    HW238424   3.834   0.084  16.939  1.1563  1.3325 -0.2204
 8930SOL     OW38425   4.042   2.636   9.820  0.1504  0.5694  0.5286
 8930SOL    HW138426   4.095   2.671   9.749  0.9992 -0.0035  0.8813
 8930SOL    HW238427   4.036   2.547   9.784 -0.0978 -0.1430  2.3025
 8931SOL     OW38428   3.736   2.558   4.182 -0.1046  0.1105 -0.1464
 8931SOL    HW138429   3.785   2.626   4.228  0.6835  0.0243 -0.8582
 8931SOL    HW238430   3.789   2.481   4.200  0.9601  1.0136  0.5723
 8932SOL     OW38431   2.646   2.451  11.262  0.0063  0.4015  0.0601
 8932SOL    HW138432   2.683   2.412  11.341 -0.1971  2.2606  1.0814
 8932SOL    HW238433   2.663   2.543  11.281 -1.3222  0.8256 -0.7939
 8933SOL     OW38434   2.013   1.032   7.692  0.3174 -0.0633  0.2102
 8933SOL    HW138435   1.997   1.121   7.721 -1.1132 -0.7548  1.5799
 8933SOL    HW238436   2.003   1.030   7.597 -2.5036  1.5741  0.4747
 8934SOL     OW38437   2.561   1.354   8.946  0.0581  0.1989  0.2843
 8934SOL    HW138438   2.559   1.449   8.959 -3.9196 -0.0758  1.7530
 8934SOL    HW238439   2.635   1.329   9.001  0.3875  2.2034  0.7537
 8935SOL     OW38440   4.225   0.503   9.421 -0.6524  0.6519  0.6360
 8935SOL    HW138441   4.245   0.433   9.483 -1.8969 -0.7285 -0.5217
 8935SOL    HW238442   4.165   0.556   9.473 -0.3545  1.3452  0.2678
 8936SOL     OW38443   2.374   2.919  11.558  0.1533 -0.0255  0.3825
 8936SOL    HW138444   2.450   2.976  11.565 -1.3969  2.0966 -0.1562
 8936SOL    HW238445   2.419   2.840  11.587  2.4809  1.5984  1.1792
 8937SOL     OW38446   1.663   1.661   7.474 -0.0623 -0.5690  0.3721
 8937SOL    HW138447   1.665   1.755   7.491 -0.4130 -0.4801 -0.0606
 8937SOL    HW238448   1.586   1.672   7.417  2.0012  3.2389 -1.6676
 8938SOL     OW38449   2.126   4.005   3.696  0.2011  0.3679  0.0826
 8938SOL    HW138450   2.138   4.009   3.601 -0.9084 -1.3285 -0.1256
 8938SOL    HW238451   2.131   3.911   3.711 -2.8896  0.1410 -0.3170
 8939SOL     OW38452   0.253   3.450   3.979  0.1674  0.1933 -0.2597
 8939SOL    HW138453   0.273   3.444   3.885 -1.2502 -1.5160 -0.4434
 8939SOL    HW238454   0.167   3.412   3.993  0.2976  0.8030  2.2397
 8940SOL     OW38455   3.657   3.264   6.494 -0.0924 -0.0739  0.0405
 8940SOL    HW138456   3.674   3.299   6.581  1.2149  1.7787 -0.9450
 8940SOL    HW238457   3.569   3.295   6.472 -0.2210 -0.8012 -0.4853
 8941SOL     OW38458   0.021   2.556  17.576  0.0097  0.2991 -0.3664
 8941SOL    HW138459   0.023   2.478  17.631  3.1508  1.0085  0.5131
 8941SOL    HW238460   0.097   2.553  17.518 -0.4907 -0.0046 -1.0095
 8942SOL     OW38461   2.811   3.161   5.718  0.1019  0.4116  0.0838
 8942SOL    HW138462   2.756   3.216   5.663 -0.6040 -0.7043 -0.3026
 8942SOL    HW238463   2.754   3.087   5.733  0.5441  0.3366  1.3931
 8943SOL     OW38464   0.097   1.343   2.126  0.4504 -0.0796 -0.2845
 8943SOL    HW138465   0.103   1.424   2.076 -2.5960 -0.6585 -1.6365
 8943SOL    HW238466   0.064   1.379   2.209 -2.4873  0.0973 -1.5083
 8944SOL     OW38467   3.367   3.224  10.458  0.2572 -0.3728 -0.3597
 8944SOL    HW138468   3.377   3.153  10.395  1.4184 -0.0629 -0.5280
 8944SOL    HW238469   3.446   3.213  10.511 -0.5022 -2.1971  0.4088
 8945SOL     OW38470   3.146   2.179   8.987 -0.4814  0.2283  0.2456
 8945SOL    HW138471   3.140   2.272   9.009  0.2489  0.8535 -2.1890
 8945SOL    HW238472   3.219   2.154   9.043 -1.3994  1.5158  2.0533
 8946SOL     OW38473   3.752   3.164  11.939  0.4428  0.5700  0.2917
 8946SOL    HW138474   3.681   3.216  11.978  0.7763 -0.4768  2.3247
 8946SOL    HW238475   3.746   3.195  11.849 -0.6657 -0.8611 -0.1274
 8947SOL     OW38476   2.779   4.664   4.003  0.4912  0.5099  0.3677
 8947SOL    HW138477   2.733   4.623   4.076 -0.1189 -2.2500 -1.5533
 8947SOL    HW238478   2.710   4.694   3.943  1.0160  0.0667 -0.4548
 8948SOL     OW38479   2.239   3.050   2.137  0.1682  0.1733  0.2582
 8948SOL    HW138480   2.157   3.084   2.101 -0.9630 -0.8047  1.8844
 8948SOL    HW238481   2.280   3.022   2.055  1.4534 -0.1090  1.0039
 8949SOL     OW38482   2.882   2.495   2.603 -0.8800 -1.1233 -0.0808
 8949SOL    HW138483   2.896   2.417   2.656 -0.1692 -1.0624 -0.1795
 8949SOL    HW238484   2.830   2.536   2.672  1.3192  0.0893  0.8270
 8950SOL     OW38485   1.491   0.166   1.405 -0.0364 -0.2553 -0.1926
 8950SOL    HW138486   1.454   0.086   1.367  1.0830 -0.2123 -1.3666
 8950SOL    HW238487   1.514   0.212   1.325 -1.7175  1.7220  0.4586
 8951SOL     OW38488   0.559   2.843  10.088 -0.1382  0.7237  0.0372
 8951SOL    HW138489   0.513   2.760  10.077 -3.2075  2.4226  0.1844
 8951SOL    HW238490   0.573   2.865   9.996  2.1151  1.5727  0.5863
 8952SOL     OW38491   4.139   0.304   0.588 -0.1937 -0.1595 -0.0302
 8952SOL    HW138492   4.204   0.361   0.628  0.8476 -0.5423 -1.1528
 8952SOL    HW238493   4.181   0.218   0.582 -3.1983 -1.6635  0.5369
 8953SOL     OW38494   0.391   0.211   8.690  0.4693  0.6437 -0.6876
 8953SOL    HW138495   0.299   0.236   8.697  0.7262  1.6013 -0.7678
 8953SOL    HW238496   0.403   0.149   8.762 -3.3864  1.6764  0.8414
 8954SOL     OW38497   4.077   0.692  11.396 -0.0612  0.3499  0.2186
 8954SOL    HW138498   4.090   0.598  11.408  0.2136  0.5739  1.6733
 8954SOL    HW238499   4.002   0.697  11.455  1.3195  0.0877  2.0352
 8955SOL     OW38500   0.319   0.069   5.258 -0.0652  0.2827 -0.8940
 8955SOL    HW138501   0.342   4.714   5.276 -1.0639  0.0525 -0.7258
 8955SOL    HW238502   0.394   0.109   5.215 -0.9020  0.3654 -2.2981
 8956SOL     OW38503   0.550   0.808   5.570  0.4386  0.0868  0.1351
 8956SOL    HW138504   0.630   0.859   5.585  1.4093 -2.0581  2.1781
 8956SOL    HW238505   0.584   0.736   5.518  2.6660  0.4645  1.0763
 8957SOL     OW38506   2.174   1.671  15.152  0.4193 -0.1301  0.2274
 8957SOL    HW138507   2.267   1.697  15.153  0.8895 -1.8363  0.0807
 8957SOL    HW238508   2.134   1.740  15.205 -1.1979 -1.1225  0.2807
 8958SOL     OW38509   3.781   3.201   5.622  0.2055 -0.6207  0.7118
 8958SOL    HW138510   3.853   3.228   5.678 -0.8687  2.3807  0.6220
 8958SOL    HW238511   3.751   3.120   5.663 -2.5121 -0.1703 -0.4103
 8959SOL     OW38512   4.676   4.462   1.836  0.5493 -0.1372  0.5365
 8959SOL    HW138513   4.589   4.466   1.796  1.2747 -0.6412 -1.0962
 8959SOL    HW238514   4.670   4.477   1.930 -1.4004  1.3603  0.1672
 8960SOL     OW38515   2.756   4.101   6.999 -0.2120 -0.0568  0.0302
 8960SOL    HW138516   2.694   4.099   7.071  1.2549 -0.4813  1.2851
 8960SOL    HW238517   2.791   4.015   7.022 -0.1325 -0.2657 -0.8611
 8961SOL     OW38518   2.476   0.161   8.402  0.5022  0.2660  0.2545
 8961SOL    HW138519   2.456   0.124   8.316 -1.2109  3.4906 -0.7609
 8961SOL    HW238520   2.431   0.103   8.463 -2.7837  0.8092 -1.6790
 8962SOL     OW38521   4.246   1.939   2.872  0.3986 -0.0396 -0.2068
 8962SOL    HW138522   4.163   1.913   2.831 -0.6869 -1.1587  2.6845
 8962SOL    HW238523   4.284   1.981   2.795  0.9314 -1.6892 -0.8225
 8963SOL     OW38524   4.710   1.541   7.853 -0.3972  0.0218  0.5932
 8963SOL    HW138525   0.009   1.566   7.939  0.3845  1.1207 -0.0440
 8963SOL    HW238526   4.623   1.502   7.866  0.2181 -1.1145  1.3566
 8964SOL     OW38527   4.665   1.003   5.157 -0.1309  0.3880 -0.0497
 8964SOL    HW138528   0.016   0.986   5.121 -0.7357 -0.7443 -0.9894
 8964SOL    HW238529   4.692   1.042   5.240  2.0961 -0.6774 -0.2602
 8965SOL     OW38530   0.608   4.436   7.207 -0.0721 -0.9805 -0.1148
 8965SOL    HW138531   0.634   4.364   7.265  0.6772  0.4264  1.2665
 8965SOL    HW238532   0.658   4.507   7.246  0.3647 -1.6546  0.5464
 8966SOL     OW38533   0.003   2.333   8.408 -0.2580  0.0096  0.4213
 8966SOL    HW138534   4.670   2.327   8.474 -0.8862 -1.3197 -0.3464
 8966SOL    HW238535   4.695   2.348   8.324  0.1028 -0.4017  0.1567
 8967SOL     OW38536   3.613   2.513   9.207  0.0783 -0.4303 -0.2519
 8967SOL    HW138537   3.698   2.504   9.165 -0.9676 -0.4406 -2.3710
 8967SOL    HW238538   3.560   2.549   9.135 -0.7382 -0.6633  0.2327
 8968SOL     OW38539   3.961   0.675  12.210  0.3393 -0.6093  0.1448
 8968SOL    HW138540   4.021   0.674  12.135 -0.1469 -0.6631 -0.2459
 8968SOL    HW238541   3.979   0.585  12.236  1.1276 -0.9844 -1.7077
 8969SOL     OW38542   0.414   0.561   1.467 -0.0627 -0.2444 -0.3445
 8969SOL    HW138543   0.379   0.563   1.556  0.5624 -1.4167 -0.0758
 8969SOL    HW238544   0.341   0.513   1.427  1.2002 -2.9212  0.6468
 8970SOL     OW38545   1.299   0.397   7.159  0.0085  0.1747  0.0482
 8970SOL    HW138546   1.337   0.330   7.101  0.2946  0.8878 -0.5796
 8970SOL    HW238547   1.290   0.351   7.243 -0.5226 -0.9088 -0.5965
 8971SOL     OW38548   1.101   3.430   3.248  0.0601  1.3207  0.3419
 8971SOL    HW138549   1.084   3.507   3.193 -0.1632 -0.8317 -2.6391
 8971SOL    HW238550   1.185   3.462   3.279  0.3475 -0.8240  1.7257
 8972SOL     OW38551   1.317   3.345   8.004  0.2318  0.3178  0.2054
 8972SOL    HW138552   1.274   3.284   7.944 -0.2198  1.2407 -0.4286
 8972SOL    HW238553   1.274   3.424   7.970 -2.0912 -0.8495  0.4516
 8973SOL     OW38554   2.318   1.827  17.316  0.1843 -0.0199  0.0848
 8973SOL    HW138555   2.316   1.838  17.221 -0.0011  0.2627  0.1222
 8973SOL    HW238556   2.384   1.760  17.336  0.9682  0.1799 -1.8075
 8974SOL     OW38557   3.165   3.600   3.458  0.1640  0.2524  0.3667
 8974SOL    HW138558   3.199   3.517   3.424 -1.1608 -1.0076  2.1762
 8974SOL    HW238559   3.241   3.634   3.504  0.5014 -1.8451  1.3609
 8975SOL     OW38560   1.895   3.981   9.729 -0.4796 -0.4964 -0.2328
 8975SOL    HW138561   1.804   3.955   9.742 -0.2596 -0.4055  1.4996
 8975SOL    HW238562   1.884   4.076   9.715 -0.6817 -0.4059  0.5385
 8976SOL     OW38563   4.424   3.617   6.993  0.2394 -0.1075  0.5152
 8976SOL    HW138564   4.463   3.530   6.990  0.1054 -0.0971 -1.0901
 8976SOL    HW238565   4.470   3.661   6.922  0.2896 -2.0491 -0.6260
 8977SOL     OW38566   4.534   3.386  12.641  0.3187  0.3150 -0.2757
 8977SOL    HW138567   4.456   3.405  12.589  0.1379 -2.7424 -1.1352
 8977SOL    HW238568   4.507   3.439  12.716  1.5424  1.0539 -0.3683
 8978SOL     OW38569   1.053   1.135   1.580  0.7188 -0.3005  0.9636
 8978SOL    HW138570   0.993   1.073   1.620 -0.1162 -0.1806 -0.0888
 8978SOL    HW238571   0.996   1.212   1.579  2.9369  1.3185 -0.0313
 8979SOL     OW38572   3.187   2.216  10.269 -0.4138  0.3049  0.7022
 8979SOL    HW138573   3.252   2.221  10.199  0.3796  0.9398  1.4893
 8979SOL    HW238574   3.215   2.135  10.311 -0.0370  0.4289  0.6895
 8980SOL     OW38575   2.736   2.378   7.657 -0.2964  0.0568  0.2313
 8980SOL    HW138576   2.780   2.304   7.698  0.2551  0.3408  0.1460
 8980SOL    HW238577   2.660   2.374   7.716 -0.2133 -0.8777  0.2705
 8981SOL     OW38578   1.389   4.490   2.920 -0.4319 -0.5188  0.2250
 8981SOL    HW138579   1.328   4.419   2.940  1.2075 -1.4146  2.0173
 8981SOL    HW238580   1.413   4.474   2.828  0.5219  0.8510  0.2311
 8982SOL     OW38581   1.064   3.991   6.763  0.1778  0.3403 -0.4341
 8982SOL    HW138582   1.142   4.019   6.812  0.2363 -0.9536  0.2288
 8982SOL    HW238583   1.046   4.073   6.718 -0.0895  0.8081  0.5287
 8983SOL     OW38584   4.131   2.857   3.224 -0.4296 -0.0553  0.7021
 8983SOL    HW138585   4.138   2.908   3.304  0.5971 -0.2654  0.7456
 8983SOL    HW238586   4.125   2.928   3.159 -0.8767  0.6165  1.4771
 8984SOL     OW38587   0.490   1.967   3.718  0.1392 -0.1816 -0.1159
 8984SOL    HW138588   0.529   1.882   3.740  0.2760  0.0557  0.5601
 8984SOL    HW238589   0.397   1.942   3.714  0.4349 -1.5487  1.7042
 8985SOL     OW38590   3.027   2.358   7.373  0.2137 -0.2180 -0.4197
 8985SOL    HW138591   3.066   2.361   7.286  2.0388 -0.6881  0.3907
 8985SOL    HW238592   3.105   2.363   7.429  1.9256 -1.0500 -2.7529
 8986SOL     OW38593   3.022   0.118   1.562  0.3980 -0.1319  0.8205
 8986SOL    HW138594   2.959   0.170   1.513  1.9289  0.3836 -0.5903
 8986SOL    HW238595   3.018   0.035   1.514  2.1129  0.4016 -0.2466
 8987SOL     OW38596   1.605   0.406  16.761  0.7085  0.6055 -0.1859
 8987SOL    HW138597   1.629   0.498  16.755  0.9560  0.4002 -2.3780
 8987SOL    HW238598   1.627   0.380  16.851  0.2658  2.2907  0.4117
 8988SOL     OW38599   1.351   0.821  13.952  0.1924 -0.6288 -0.1380
 8988SOL    HW138600   1.321   0.863  13.872  1.4510 -0.3075 -0.4291
 8988SOL    HW238601   1.280   0.757  13.962 -0.6276  0.5753  1.6498
 8989SOL     OW38602   4.194   1.871   2.241  0.6509  0.0430  0.0416
 8989SOL    HW138603   4.224   1.802   2.300 -0.8164  1.0720  1.9815
 8989SOL    HW238604   4.123   1.820   2.203  0.3651 -0.3523  1.1435
 8990SOL     OW38605   2.840   2.671   9.069  0.2425 -0.3615 -0.9187
 8990SOL    HW138606   2.903   2.743   9.073 -0.8425  0.5632 -0.6486
 8990SOL    HW238607   2.777   2.686   9.139  0.6452 -0.7093 -0.4823
 8991SOL     OW38608   1.601   4.356   5.683  0.3056 -0.1317 -0.5084
 8991SOL    HW138609   1.582   4.265   5.659 -1.5609  0.1487 -0.0762
 8991SOL    HW238610   1.508   4.367   5.701  0.1713 -0.1299 -1.1963
 8992SOL     OW38611   0.353   1.953   9.431  0.1633  0.1566 -0.2539
 8992SOL    HW138612   0.416   1.970   9.502 -0.1865 -1.6530  0.4966
 8992SOL    HW238613   0.411   1.971   9.357 -0.5033 -0.4178 -0.9169
 8993SOL     OW38614   0.088   2.997   2.704  0.3394 -0.0939 -0.0133
 8993SOL    HW138615   0.148   2.922   2.713  1.6087  0.9832  0.5826
 8993SOL    HW238616   0.152   3.060   2.671 -0.3265 -0.5892 -2.2002
 8994SOL     OW38617   3.548   1.443   5.762  0.0059  0.0670 -0.4148
 8994SOL    HW138618   3.625   1.403   5.723  1.6832  1.0524  1.9033
 8994SOL    HW238619   3.484   1.389   5.715  1.4077  0.0460 -2.3050
 8995SOL     OW38620   3.359   2.817   8.702 -0.0542 -0.6117  0.4647
 8995SOL    HW138621   3.330   2.733   8.738  1.1626 -0.5575  1.5869
 8995SOL    HW238622   3.291   2.832   8.636 -0.6173  0.3961  1.2772
 8996SOL     OW38623   0.625   0.436   1.170  0.6924  0.7154  0.1530
 8996SOL    HW138624   0.670   0.494   1.108  0.6268  3.2449  2.4571
 8996SOL    HW238625   0.584   0.504   1.224 -0.1409  0.9430 -0.7501
 8997SOL     OW38626   0.152   1.977   5.121 -0.2765 -0.2470 -0.1287
 8997SOL    HW138627   0.119   1.954   5.208 -1.1124  1.9427  0.1233
 8997SOL    HW238628   0.094   2.045   5.086 -0.7329 -1.5134 -1.8205
 8998SOL     OW38629   1.605   2.846   8.162  0.1521  0.4809  0.3870
 8998SOL    HW138630   1.597   2.807   8.075  0.2355  1.8567 -0.2500
 8998SOL    HW238631   1.526   2.818   8.208 -0.1621 -0.1810 -0.5689
 8999SOL     OW38632   0.877   1.230   0.507  0.2513 -0.7611  0.3385
 8999SOL    HW138633   0.850   1.289   0.578 -1.0074  0.6116 -1.2792
 8999SOL    HW238634   0.799   1.228   0.451 -0.2171 -1.6599  1.0219
 9000SOL     OW38635   0.411   1.436   4.269 -0.4259 -0.4000  0.0778
 9000SOL    HW138636   0.414   1.425   4.174  3.1354  3.9686 -0.3263
 9000SOL    HW238637   0.326   1.393   4.282 -0.1988 -0.6842  0.6265
 9001SOL     OW38638   4.488   3.673   3.537  0.0859  0.7080 -0.1144
 9001SOL    HW138639   4.399   3.692   3.566 -0.5024 -1.3956 -0.5440
 9001SOL    HW238640   4.514   3.764   3.525 -1.7243  1.5321  2.1930
 9002SOL     OW38641   2.950   4.133   2.550  0.3111 -0.3311  0.0054
 9002SOL    HW138642   2.934   4.080   2.628 -0.1490 -0.8268 -0.4287
 9002SOL    HW238643   2.873   4.191   2.554  0.0980 -0.4615 -2.3751
 9003SOL     OW38644   1.820   0.147   6.534  0.2882 -0.4348 -0.4068
 9003SOL    HW138645   1.890   0.210   6.517  1.4311 -1.8365 -0.9179
 9003SOL    HW238646   1.744   0.192   6.496  0.8906  0.6491 -0.3465
 9004SOL     OW38647   3.436   4.585   3.028  0.3585  0.4069 -0.3970
 9004SOL    HW138648   3.455   4.492   3.019 -0.6514  0.1691 -0.0873
 9004SOL    HW238649   3.503   4.617   2.968 -0.3539 -0.5365 -1.6722
 9005SOL     OW38650   0.808   0.289   7.633 -0.2805  0.4724 -0.0808
 9005SOL    HW138651   0.794   0.295   7.539  1.2656  1.1694 -0.2533
 9005SOL    HW238652   0.740   0.229   7.666 -1.5697  2.3257  0.6081
 9006SOL     OW38653   0.265   0.093   3.189 -0.2767 -0.2796 -0.3018
 9006SOL    HW138654   0.211   0.124   3.117  1.0300 -1.7056 -1.9095
 9006SOL    HW238655   0.221   0.010   3.210  1.5311 -1.4630 -1.2001
 9007SOL     OW38656   2.755   3.292   4.635  0.1672 -0.6989 -0.1418
 9007SOL    HW138657   2.712   3.375   4.659 -1.1847 -0.9866 -1.5825
 9007SOL    HW238658   2.822   3.337   4.584 -1.1352 -0.4329 -1.6169
 9008SOL     OW38659   1.033   0.511   1.066  0.1213  0.0264  0.0320
 9008SOL    HW138660   1.024   0.428   1.113 -0.8143 -0.0772 -0.3362
 9008SOL    HW238661   0.970   0.506   0.995 -1.4386 -1.0606  1.5085
 9009SOL     OW38662   3.257   3.849  15.373  0.4102  0.2911  0.1569
 9009SOL    HW138663   3.170   3.809  15.375  1.2420 -1.6408 -2.7104
 9009SOL    HW238664   3.262   3.920  15.309 -3.3347 -1.2237 -1.8472
 9010SOL     OW38665   2.703   3.649   7.741 -0.3645  0.3252  0.6917
 9010SOL    HW138666   2.734   3.558   7.748 -0.3998  0.1749 -0.9385
 9010SOL    HW238667   2.776   3.699   7.777  1.5611 -1.2976 -0.9821
 9011SOL     OW38668   3.619   0.244  10.218  0.3579  0.3047 -0.5746
 9011SOL    HW138669   3.621   0.158  10.177  4.9476  0.1537 -0.0346
 9011SOL    HW238670   3.535   0.242  10.264  0.3402  1.3622 -0.5468
 9012SOL     OW38671   2.759   2.922   6.308  0.0326 -0.5535 -0.1032
 9012SOL    HW138672   2.719   2.980   6.242 -0.0971  0.8226  1.1675
 9012SOL    HW238673   2.702   2.944   6.382  0.1957 -0.2806 -0.0579
 9013SOL     OW38674   0.483   2.698   4.580  0.3801  0.6808 -0.5869
 9013SOL    HW138675   0.540   2.693   4.503  1.8889 -0.8434  0.6571
 9013SOL    HW238676   0.555   2.717   4.640 -0.1296  3.0036 -0.6736
 9014SOL     OW38677   4.410   1.121   8.117 -0.0336  0.0874 -0.1345
 9014SOL    HW138678   4.387   1.058   8.049  2.1395 -1.7895  0.8815
 9014SOL    HW238679   4.326   1.157   8.144  0.9302  0.9361  1.7347
 9015SOL     OW38680   2.553   1.658   2.536  0.7767 -0.0262  0.2179
 9015SOL    HW138681   2.648   1.648   2.530  0.9866  1.3203  1.5086
 9015SOL    HW238682   2.528   1.569   2.562  0.0438  0.4179  1.0273
 9016SOL     OW38683   2.012   4.440   3.974 -0.1036 -0.1150 -0.2146
 9016SOL    HW138684   1.935   4.446   4.031 -0.1758  0.5683 -0.3941
 9016SOL    HW238685   2.011   4.344   3.964 -0.0885 -0.1196 -0.1739
 9017SOL     OW38686   3.007   3.724  14.576 -0.3741  0.8830 -0.1285
 9017SOL    HW138687   2.954   3.724  14.656  0.0051  0.2236  0.1188
 9017SOL    HW238688   3.007   3.819  14.566  2.8033  0.7821 -1.1679
 9018SOL     OW38689   3.690   0.479   5.523  0.5620 -0.0108  0.3129
 9018SOL    HW138690   3.619   0.522   5.476  1.2423  3.0679  2.0957
 9018SOL    HW238691   3.747   0.467   5.448 -0.0394  1.1581 -0.3367
 9019SOL     OW38692   3.948   2.877   6.680 -0.0748  0.5470  0.5384
 9019SOL    HW138693   3.991   2.918   6.755  0.7760 -1.0032  0.9030
 9019SOL    HW238694   3.976   2.788   6.704  0.1011  0.4251 -0.1041
 9020SOL     OW38695   2.977   2.518   6.142 -0.3029  0.2487  0.0426
 9020SOL    HW138696   2.901   2.571   6.117  0.9601  2.1522  0.2660
 9020SOL    HW238697   2.968   2.515   6.237  1.4134 -0.4772  0.1860
 9021SOL     OW38698   2.064   2.063  15.886 -0.2540 -0.2357 -0.0784
 9021SOL    HW138699   2.017   2.147  15.894  0.8266  0.1435  2.3099
 9021SOL    HW238700   2.012   2.013  15.949 -1.1556  2.5161  1.4220
 9022SOL     OW38701   0.803   1.219   4.867 -0.3298 -0.4791 -0.0903
 9022SOL    HW138702   0.893   1.220   4.900 -0.1871  0.5765 -0.5199
 9022SOL    HW238703   0.814   1.203   4.773  2.8953 -0.1259  0.2221
 9023SOL     OW38704   4.091   3.568   0.218 -0.2485 -0.5941 -0.2586
 9023SOL    HW138705   4.083   3.497   0.282  1.0055 -0.5675 -0.0860
 9023SOL    HW238706   4.033   3.530   0.152 -0.6971  1.2461 -0.9113
 9024SOL     OW38707   2.484   1.087   8.302  0.3933  0.4859  0.3010
 9024SOL    HW138708   2.513   1.032   8.229 -0.1013 -0.1277  0.5756
 9024SOL    HW238709   2.491   1.024   8.373  0.0510  1.2761  1.0310
 9025SOL     OW38710   0.128   1.557   1.963  0.1415  0.0216 -0.6626
 9025SOL    HW138711   0.164   1.583   1.879 -0.0377  0.2449 -0.6698
 9025SOL    HW238712   0.183   1.604   2.026 -0.3603 -0.6488  0.2770
 9026SOL     OW38713   4.596   2.274   8.640  0.3915 -0.2820 -0.2751
 9026SOL    HW138714   4.550   2.195   8.611  0.1955  0.1575 -1.1869
 9026SOL    HW238715   4.583   2.272   8.734  2.5483  0.1028  0.0360
 9027SOL     OW38716   2.635   2.628  13.100  0.4286  0.3121  0.3199
 9027SOL    HW138717   2.549   2.621  13.142  0.8208 -0.1012  1.0571
 9027SOL    HW238718   2.670   2.540  13.115  1.3746  0.3030 -1.9368
 9028SOL     OW38719   4.725   3.140   7.731 -0.0616  0.2680  0.3162
 9028SOL    HW138720   4.664   3.191   7.784  1.9006 -0.8109  3.5925
 9028SOL    HW238721   0.004   3.193   7.653  0.5512 -0.4977 -0.0835
 9029SOL     OW38722   0.814   2.185   3.886 -0.0732 -0.0391  0.0224
 9029SOL    HW138723   0.740   2.192   3.947  0.0494 -1.6327  0.3509
 9029SOL    HW238724   0.791   2.260   3.831  0.6228  1.0796  1.2533
 9030SOL     OW38725   3.426   0.527   7.911 -0.2272 -0.3888 -0.0629
 9030SOL    HW138726   3.500   0.492   7.862  2.3146  3.3021  1.1389
 9030SOL    HW238727   3.412   0.605   7.857  1.4447 -2.0120 -2.8467
 9031SOL     OW38728   1.470   0.095   4.669 -0.2396  0.4745 -0.4659
 9031SOL    HW138729   1.414   0.170   4.648 -1.6454 -0.3728  0.2403
 9031SOL    HW238730   1.417   0.029   4.624 -0.0356  0.5413 -0.8045
 9032SOL     OW38731   1.941   0.745   7.749 -0.0520 -0.0708 -0.3695
 9032SOL    HW138732   1.959   0.839   7.754 -2.7159  0.3636  0.8973
 9032SOL    HW238733   2.006   0.718   7.813 -0.1817 -0.9978 -0.6377
 9033SOL     OW38734   1.535   1.437   7.634 -0.6329 -0.7541  0.2540
 9033SOL    HW138735   1.559   1.345   7.646  3.0579  0.0791 -0.7627
 9033SOL    HW238736   1.605   1.484   7.589 -0.9796  0.5479  1.0795
 9034SOL     OW38737   3.279   1.190  12.102 -0.9439 -0.2538  0.6201
 9034SOL    HW138738   3.234   1.273  12.085 -0.7004 -0.5385 -1.4611
 9034SOL    HW238739   3.368   1.219  12.120 -1.0776  2.2954 -2.8308
 9035SOL     OW38740   1.686   3.719   2.770  0.1921  0.2009  0.1356
 9035SOL    HW138741   1.760   3.665   2.797 -0.6637 -1.3771 -0.6717
 9035SOL    HW238742   1.668   3.766   2.852  0.1968  0.4680 -0.0168
 9036SOL     OW38743   2.874   0.936  16.413  0.7714 -0.1439  0.1794
 9036SOL    HW138744   2.784   0.906  16.430  1.9703 -3.4445  0.8362
 9036SOL    HW238745   2.911   0.954  16.500 -0.7941 -0.3006  0.8871
 9037SOL     OW38746   4.383   3.077   6.232 -0.0952 -0.4944 -0.1321
 9037SOL    HW138747   4.418   3.165   6.219  0.5152 -1.1316 -2.9798
 9037SOL    HW238748   4.447   3.021   6.276  1.0523  2.2472  1.6858
 9038SOL     OW38749   4.313   0.676   6.533  0.0453 -0.4998  0.0981
 9038SOL    HW138750   4.305   0.767   6.505 -0.1447 -0.6217 -0.2487
 9038SOL    HW238751   4.321   0.680   6.628 -0.8588 -0.6345  0.1828
 9039SOL     OW38752   4.495   4.477   2.282  0.1876 -0.9807 -0.3361
 9039SOL    HW138753   4.521   4.531   2.358  0.4121  1.2589 -1.9978
 9039SOL    HW238754   4.506   4.387   2.312  0.2299 -1.0210 -0.4761
 9040SOL     OW38755   2.943   0.512   6.706 -0.0625 -0.3214  0.5163
 9040SOL    HW138756   2.910   0.425   6.685 -1.5857  0.7979 -1.6110
 9040SOL    HW238757   2.892   0.575   6.655  1.4428 -0.7724 -1.5248
 9041SOL     OW38758   1.617   2.571   1.633 -0.4382  0.8548  0.8500
 9041SOL    HW138759   1.539   2.586   1.579  1.1722  0.4136 -1.6112
 9041SOL    HW238760   1.610   2.651   1.685 -0.9109  0.8290  0.8308
 9042SOL     OW38761   0.601   1.441   8.045  0.3294 -0.6396  0.0856
 9042SOL    HW138762   0.673   1.468   7.988  0.5901  1.5496  1.4393
 9042SOL    HW238763   0.628   1.480   8.128  1.8931  0.6063 -1.0265
 9043SOL     OW38764   3.928   4.584   6.603  0.0312  0.7174  0.1115
 9043SOL    HW138765   3.890   4.580   6.515  0.6255 -0.6055 -0.0943
 9043SOL    HW238766   3.865   4.537   6.657  1.6109  0.0640  1.3870
 9044SOL     OW38767   1.130   0.068  13.311 -0.3444  0.0661  0.1521
 9044SOL    HW138768   1.174   0.152  13.329  0.4815 -0.1609 -0.7891
 9044SOL    HW238769   1.162   0.012  13.382 -0.3502  0.7959  0.7312
 9045SOL     OW38770   4.471   1.547   6.414  0.7311  0.0462  0.9500
 9045SOL    HW138771   4.515   1.583   6.337  3.0773  0.3131  2.4166
 9045SOL    HW238772   4.386   1.589   6.404  0.3737 -1.1080 -0.7511
 9046SOL     OW38773   1.701   3.123  10.353  0.3949  0.5079  0.1162
 9046SOL    HW138774   1.704   3.112  10.258 -0.9381 -1.8092  0.3396
 9046SOL    HW238775   1.620   3.073  10.364  1.0476 -0.2707  1.4583
 9047SOL     OW38776   0.524   2.195   9.650 -0.1968  0.1523  0.1293
 9047SOL    HW138777   0.587   2.197   9.722 -0.6370 -3.8745  0.6357
 9047SOL    HW238778   0.451   2.251   9.677  1.3706  1.4403  1.6789
 9048SOL     OW38779   3.800   4.139   2.225  0.3469 -0.0974 -0.1103
 9048SOL    HW138780   3.752   4.142   2.142  1.8675  1.2775 -0.9530
 9048SOL    HW238781   3.767   4.216   2.271  2.0850 -0.4135  1.6855
 9049SOL     OW38782   1.351   3.211   6.528  0.1182 -0.0113  0.0529
 9049SOL    HW138783   1.258   3.235   6.521 -0.4673 -1.9384  1.3672
 9049SOL    HW238784   1.350   3.115   6.524  1.8732 -0.0478  0.6714
 9050SOL     OW38785   3.081   2.876   8.293  0.0703  0.2917  0.0371
 9050SOL    HW138786   3.006   2.836   8.248  0.3046  0.8881 -0.8762
 9050SOL    HW238787   3.157   2.863   8.237 -0.7153 -0.3009 -0.8930
 9051SOL     OW38788   0.597   0.727  17.444 -0.7806 -0.3225  0.6002
 9051SOL    HW138789   0.535   0.669  17.400 -0.9959  1.1778 -1.0607
 9051SOL    HW238790   0.592   0.704  17.537  0.8432 -2.5817  0.1381
 9052SOL     OW38791   1.718   3.162   1.823 -0.3416  0.2630  0.1009
 9052SOL    HW138792   1.649   3.211   1.867 -1.7046 -1.7109  0.1674
 9052SOL    HW238793   1.668   3.141   1.744  0.0150  1.1470 -0.3682
 9053SOL     OW38794   4.528   2.904  14.533 -0.4419  0.2160  0.0002
 9053SOL    HW138795   4.481   2.899  14.450 -0.6433 -0.9235  0.1787
 9053SOL    HW238796   4.612   2.929  14.494  0.2131 -0.1604  1.1540
 9054SOL     OW38797   0.283   3.112   4.924 -0.1915 -0.1909  0.3118
 9054SOL    HW138798   0.268   3.112   5.019 -1.0054  2.1481  0.2043
 9054SOL    HW238799   0.357   3.053   4.920  0.2346  0.1949  2.2436
 9055SOL     OW38800   3.499   3.142   1.855  0.2083 -0.1013 -0.1499
 9055SOL    HW138801   3.447   3.062   1.864 -1.6403  1.3306  1.9621
 9055SOL    HW238802   3.586   3.117   1.888  1.1543  1.6222 -1.3421
 9056SOL     OW38803   2.056   2.926   4.746  0.2065 -0.2862  0.2511
 9056SOL    HW138804   2.006   2.845   4.737  0.0296 -0.1073 -0.4216
 9056SOL    HW238805   1.986   2.981   4.710  1.3325 -0.7179 -2.6465
 9057SOL     OW38806   4.697   1.763  13.061  0.1823 -0.2319  0.2529
 9057SOL    HW138807   4.624   1.825  13.070  2.6911  2.8671 -0.8233
 9057SOL    HW238808   4.657   1.676  13.058  1.8775 -0.9935 -0.3796
 9058SOL     OW38809   0.034   0.944   2.759 -0.0431 -0.1298 -0.0672
 9058SOL    HW138810   0.078   0.921   2.841 -0.0929 -3.3588 -0.9170
 9058SOL    HW238811   0.023   0.860   2.713  2.8911 -0.8829  0.6013
 9059SOL     OW38812   1.766   0.847   2.875  0.7783  0.3141 -0.2214
 9059SOL    HW138813   1.741   0.762   2.838  0.5065  0.9074 -1.4158
 9059SOL    HW238814   1.851   0.819   2.909  0.3727  1.2449  1.5347
 9060SOL     OW38815   3.826   3.477   5.031  0.0468  0.5198 -0.5232
 9060SOL    HW138816   3.832   3.416   5.105 -0.9879  0.7112 -0.2834
 9060SOL    HW238817   3.736   3.456   5.008 -0.1087 -0.0095  0.5638
 9061SOL     OW38818   2.839   1.296  10.949 -0.8686  0.1682 -0.0298
 9061SOL    HW138819   2.798   1.371  10.992  1.7301  0.8885  1.1685
 9061SOL    HW238820   2.760   1.263  10.906  0.0863 -0.9176 -0.9526
 9062SOL     OW38821   3.267   2.788   1.453  0.1669 -0.3176 -0.2482
 9062SOL    HW138822   3.311   2.861   1.496  0.7152 -1.0481  0.4239
 9062SOL    HW238823   3.341   2.734   1.427  0.1736 -0.5409  0.2253
 9063SOL     OW38824   4.688   1.898  10.154 -0.2187  0.0862  0.0183
 9063SOL    HW138825   0.011   1.970  10.135 -0.5673  0.0310 -1.2395
 9063SOL    HW238826   0.013   1.829  10.181  0.0363  0.0422 -0.6733
 9064SOL     OW38827   0.712   4.227   4.126  0.4991  0.2039  0.4974
 9064SOL    HW138828   0.757   4.160   4.178  0.5975  0.5955  0.9197
 9064SOL    HW238829   0.653   4.262   4.193  1.1568 -0.7727  1.5874
 9065SOL     OW38830   4.238   2.954   4.098  0.6257  0.4274 -0.2637
 9065SOL    HW138831   4.285   2.997   4.027  1.1967  0.7693  0.3251
 9065SOL    HW238832   4.308   2.931   4.159  0.3657  1.7802  0.5566
 9066SOL     OW38833   1.377   0.549   7.832 -0.2562 -0.1896 -0.2416
 9066SOL    HW138834   1.350   0.527   7.743 -0.0060 -1.0570 -0.1010
 9066SOL    HW238835   1.296   0.594   7.857  0.1233  0.8851 -0.9241
 9067SOL     OW38836   2.207   3.740  13.757  0.1084 -0.2539 -0.0114
 9067SOL    HW138837   2.212   3.673  13.826 -0.8675  0.7401  1.0275
 9067SOL    HW238838   2.276   3.703  13.702  0.0288  0.9001 -0.8665
 9068SOL     OW38839   0.645   0.988   1.372 -0.3033  0.0626  0.5764
 9068SOL    HW138840   0.708   0.958   1.307  1.0800  4.5664 -0.2110
 9068SOL    HW238841   0.585   0.914   1.378 -0.0008 -0.3485 -1.4727
 9069SOL     OW38842   4.415   1.614   2.228 -0.1057 -0.1851 -0.6595
 9069SOL    HW138843   4.454   1.620   2.314  1.4544  1.3766 -1.4872
 9069SOL    HW238844   4.328   1.574   2.232  0.8352 -2.1558  0.1647
 9070SOL     OW38845   2.973   3.673   6.374  0.4695  0.1251 -0.1419
 9070SOL    HW138846   3.004   3.693   6.285  0.9547 -0.4064 -0.0919
 9070SOL    HW238847   3.059   3.644   6.405 -0.7525 -2.2738  0.9663
 9071SOL     OW38848   1.116   0.251   2.601 -0.1317  0.0610 -0.0005
 9071SOL    HW138849   1.198   0.254   2.651 -1.4655 -0.5988  2.2262
 9071SOL    HW238850   1.153   0.277   2.517 -2.1490  1.5441 -0.4226
 9072SOL     OW38851   2.632   2.245   2.873  0.5879 -0.2096 -0.2021
 9072SOL    HW138852   2.545   2.242   2.913  1.0543  0.5586  0.8654
 9072SOL    HW238853   2.648   2.153   2.855  1.9573 -0.3518  1.8146
 9073SOL     OW38854   1.474   1.452   4.348 -0.3672  0.0457  0.2363
 9073SOL    HW138855   1.431   1.412   4.272  1.6438 -1.4454 -0.1208
 9073SOL    HW238856   1.543   1.503   4.306 -2.0329  3.4062  1.5564
 9074SOL     OW38857   0.427   2.580   6.495  0.2845  0.4243 -0.5270
 9074SOL    HW138858   0.404   2.662   6.537  1.4939  1.2699 -1.5031
 9074SOL    HW238859   0.476   2.523   6.554  1.2200 -0.1547 -1.8420
 9075SOL     OW38860   3.177   2.113   8.743 -0.1406  0.0548  0.4643
 9075SOL    HW138861   3.096   2.063   8.746 -0.7289  0.9527 -0.4409
 9075SOL    HW238862   3.171   2.163   8.825 -0.3464 -0.3974  0.7270
 9076SOL     OW38863   4.435   3.587   4.903 -0.4454 -0.3580 -0.3030
 9076SOL    HW138864   4.530   3.575   4.909 -0.3991  0.4836  0.7853
 9076SOL    HW238865   4.400   3.499   4.890  0.8135 -0.6123 -2.0540
 9077SOL     OW38866   4.663   1.825   2.720  0.1174  0.2173 -0.2942
 9077SOL    HW138867   4.640   1.826   2.813 -1.3167  0.1720 -0.6601
 9077SOL    HW238868   4.576   1.825   2.681 -0.7641 -0.2550  1.7119
 9078SOL     OW38869   1.514   2.277   7.041 -0.3613 -0.5782 -0.1688
 9078SOL    HW138870   1.431   2.231   7.046 -1.0396  0.6577 -0.1266
 9078SOL    HW238871   1.547   2.270   7.131 -1.1667 -0.1505  0.1588
 9079SOL     OW38872   3.755   4.007   3.639 -0.0337 -0.6560  0.6364
 9079SOL    HW138873   3.738   4.067   3.712 -0.5948 -0.9549  0.7476
 9079SOL    HW238874   3.705   3.933   3.673 -0.0051 -1.3097 -0.7352
 9080SOL     OW38875   0.619   0.123   7.711 -0.0665  0.4854 -0.1073
 9080SOL    HW138876   0.636   0.121   7.805  0.5877  1.2296 -0.2081
 9080SOL    HW238877   0.523   0.128   7.703  0.2534  2.5497 -2.6429
 9081SOL     OW38878   0.274   3.815   5.437 -0.3338 -0.6555  0.0967
 9081SOL    HW138879   0.361   3.840   5.407 -1.1794  1.6269 -0.4385
 9081SOL    HW238880   0.250   3.887   5.495  1.5727  0.4446 -0.5088
 9082SOL     OW38881   2.182   1.103   4.908 -0.4708 -0.3823  0.1747
 9082SOL    HW138882   2.087   1.110   4.913 -0.2105  3.0473 -0.0105
 9082SOL    HW238883   2.211   1.138   4.992  0.1422 -0.5522  0.0423
 9083SOL     OW38884   0.170   3.888   6.899 -0.5166  0.3351  0.5197
 9083SOL    HW138885   0.197   3.974   6.866 -1.0691  0.7849  1.2115
 9083SOL    HW238886   0.250   3.848   6.932  0.7226  0.4239 -2.4126
 9084SOL     OW38887   1.148   3.982   7.965  0.1230  0.4635  0.2667
 9084SOL    HW138888   1.116   4.056   8.016 -0.3924  0.3519  0.1021
 9084SOL    HW238889   1.171   3.921   8.034 -0.5828  1.8413  1.7229
 9085SOL     OW38890   4.103   0.090   8.220  0.2139 -0.0732 -0.3083
 9085SOL    HW138891   4.165   0.161   8.209 -0.2410  0.0388 -2.1726
 9085SOL    HW238892   4.144   0.038   8.289 -1.1078  0.9934  1.3080
 9086SOL     OW38893   4.069   4.139   5.795 -0.4571  0.7864 -0.1936
 9086SOL    HW138894   4.052   4.232   5.811 -0.9178  0.5132  0.9155
 9086SOL    HW238895   4.048   4.122   5.703  0.1250 -0.9417  0.0041
 9087SOL     OW38896   4.599   0.564   6.526  0.4914  0.4594  0.2656
 9087SOL    HW138897   4.632   0.654   6.518  1.2408  0.1814  0.2351
 9087SOL    HW238898   4.504   0.571   6.530  0.1799 -2.6698 -2.3043
 9088SOL     OW38899   0.406   1.178   5.658  0.6013  0.4634  0.9947
 9088SOL    HW138900   0.443   1.122   5.727  0.7563  0.9718  1.3273
 9088SOL    HW238901   0.322   1.133   5.652 -0.0740  2.2379 -2.5482
 9089SOL     OW38902   4.310   3.924   0.820 -0.5021 -0.1342  0.3037
 9089SOL    HW138903   4.314   3.880   0.735  1.3348 -0.9854  0.8476
 9089SOL    HW238904   4.293   4.013   0.789 -3.0811 -0.6506  0.2082
 9090SOL     OW38905   0.503   2.521   4.131 -0.0482 -0.1663  0.6183
 9090SOL    HW138906   0.574   2.457   4.126 -0.3460 -0.3586 -1.1497
 9090SOL    HW238907   0.527   2.578   4.057  1.4818  0.5520  1.6893
 9091SOL     OW38908   2.332   3.918   8.458 -0.5664  0.5085  0.3209
 9091SOL    HW138909   2.286   3.912   8.542  0.8946 -1.7107  0.9612
 9091SOL    HW238910   2.283   3.989   8.416  0.6301  1.6329  0.7958
 9092SOL     OW38911   2.968   3.597   6.947 -0.1763 -0.1568 -0.4711
 9092SOL    HW138912   2.935   3.512   6.920 -0.6548 -0.0888 -0.1001
 9092SOL    HW238913   2.991   3.632   6.861  0.7496  1.1134  0.2776
 9093SOL     OW38914   2.741   0.535   7.345 -0.2376  0.4508 -0.0947
 9093SOL    HW138915   2.717   0.453   7.301 -0.6484 -0.3541  1.6259
 9093SOL    HW238916   2.835   0.529   7.326 -0.4847  0.2363 -1.2376
 9094SOL     OW38917   3.625   1.293   5.023 -0.3406 -0.1240 -0.5386
 9094SOL    HW138918   3.598   1.223   5.082 -1.1337  0.6003 -0.0275
 9094SOL    HW238919   3.637   1.358   5.092 -1.2075 -0.6127  0.0744
 9095SOL     OW38920   0.090   0.074  15.191 -0.3089  0.2591 -0.0711
 9095SOL    HW138921   0.005   0.102  15.159 -0.2110 -0.5467 -1.0339
 9095SOL    HW238922   0.066   0.027  15.270 -1.1688 -1.2096 -1.2125
 9096SOL     OW38923   0.303   4.067   5.944 -0.7733 -0.4940  0.2777
 9096SOL    HW138924   0.237   4.132   5.966 -0.3900  0.1697 -0.5424
 9096SOL    HW238925   0.320   4.027   6.029  0.8130 -1.8310 -0.6569
 9097SOL     OW38926   2.046   3.731  15.810  0.3433 -0.4058  0.1590
 9097SOL    HW138927   2.047   3.784  15.890 -1.0411  0.5938 -0.4853
 9097SOL    HW238928   2.007   3.791  15.747  2.3230  2.5990  1.7672
 9098SOL     OW38929   2.771   1.156   9.756 -0.4153  0.5061  0.6857
 9098SOL    HW138930   2.856   1.112   9.754 -0.2647  0.9855 -4.2213
 9098SOL    HW238931   2.785   1.238   9.710 -0.6369 -0.1089 -0.4826
 9099SOL     OW38932   3.871   3.850   6.248  0.0516  0.2864 -0.7571
 9099SOL    HW138933   3.826   3.813   6.172  2.2777 -1.8108 -1.0337
 9099SOL    HW238934   3.838   3.940   6.252  0.0503  0.3713 -2.6949
 9100SOL     OW38935   2.845   3.110   4.996 -0.2005  0.2027 -0.2162
 9100SOL    HW138936   2.892   3.083   4.917  3.6188 -0.1509  2.1405
 9100SOL    HW238937   2.886   3.194   5.019 -1.9621  1.2736 -1.0044
 9101SOL     OW38938   3.558   1.660   6.223 -0.8406  0.2841 -0.0079
 9101SOL    HW138939   3.636   1.606   6.210 -1.8981 -1.2042 -0.2435
 9101SOL    HW238940   3.560   1.695   6.134  0.9226  1.0739  0.3463
 9102SOL     OW38941   2.267   3.395  11.310 -0.7691 -0.2943 -0.3423
 9102SOL    HW138942   2.240   3.425  11.397  1.6375 -1.8966  0.9459
 9102SOL    HW238943   2.217   3.313  11.311  0.7798 -1.2198  0.4510
 9103SOL     OW38944   0.233   0.370   4.660  0.3484  0.6877  0.1368
 9103SOL    HW138945   0.142   0.398   4.665 -0.2251 -1.1291 -0.2392
 9103SOL    HW238946   0.247   0.318   4.739  0.3109 -1.7522 -1.4867
 9104SOL     OW38947   3.301   3.948   1.619 -0.0532  0.2524  0.3741
 9104SOL    HW138948   3.237   3.882   1.646  0.3803  0.2409  1.3537
 9104SOL    HW238949   3.377   3.897   1.593 -1.2532 -1.8989  1.1164
 9105SOL     OW38950   2.591   3.038  12.097 -0.4277  0.6646 -0.6048
 9105SOL    HW138951   2.680   3.034  12.062 -0.1751 -1.4416  0.2422
 9105SOL    HW238952   2.596   2.992  12.181  0.0237 -1.3711 -1.7557
 9106SOL     OW38953   1.170   3.429   4.544  0.1255 -0.1293  0.4155
 9106SOL    HW138954   1.219   3.474   4.475  0.1653  0.7367  1.0143
 9106SOL    HW238955   1.083   3.457   4.516 -0.0860  0.1723  1.3817
 9107SOL     OW38956   2.007   2.602  16.496 -0.0958 -0.2820 -0.3288
 9107SOL    HW138957   1.933   2.621  16.438  1.9099 -0.5227 -2.9782
 9107SOL    HW238958   2.027   2.519  16.452 -0.1513  0.4310 -1.7235
 9108SOL     OW38959   3.402   1.824   5.241  0.0484  0.1569 -0.3152
 9108SOL    HW138960   3.347   1.751   5.270 -0.4502  0.9692  0.7444
 9108SOL    HW238961   3.337   1.873   5.190  0.2022 -0.0019 -0.6620
 9109SOL     OW38962   2.175   4.202   8.656  0.1118 -0.5010 -0.2913
 9109SOL    HW138963   2.161   4.218   8.749 -2.7329  1.8112 -1.1310
 9109SOL    HW238964   2.093   4.156   8.639 -0.2857  0.0806  0.0605
 9110SOL     OW38965   2.906   3.964   9.418  0.1950 -0.3193  0.1609
 9110SOL    HW138966   2.987   3.929   9.456 -0.6370  0.3306  2.5624
 9110SOL    HW238967   2.879   3.897   9.356 -0.5195  0.8481 -0.7987
 9111SOL     OW38968   3.961   0.242   7.410  0.0805 -0.1563 -0.4983
 9111SOL    HW138969   3.894   0.175   7.421  2.1740 -1.8335  2.2693
 9111SOL    HW238970   4.018   0.216   7.338  1.3343  1.1826 -0.0028
 9112SOL     OW38971   3.142   2.030  14.838  0.1488 -0.0136 -0.7024
 9112SOL    HW138972   3.083   2.060  14.907  0.8345  0.3869 -0.2960
 9112SOL    HW238973   3.222   2.076  14.865 -0.6378  1.8406 -1.5140
 9113SOL     OW38974   3.276   1.459   8.291  0.2501  0.3851  0.5686
 9113SOL    HW138975   3.352   1.498   8.335  1.3292  0.2102 -1.1297
 9113SOL    HW238976   3.203   1.511   8.323  0.6952  1.3772 -0.0420
 9114SOL     OW38977   3.433   3.743  14.928  0.2114 -0.2346  0.0567
 9114SOL    HW138978   3.411   3.836  14.934  0.6258 -0.1146 -0.2932
 9114SOL    HW238979   3.419   3.721  15.020  3.1349 -2.2576 -0.0256
 9115SOL     OW38980   2.239   3.427   9.467  0.2093 -0.5214 -0.3879
 9115SOL    HW138981   2.311   3.381   9.423  2.8043  0.4951  2.7308
 9115SOL    HW238982   2.287   3.499   9.508 -0.2651  0.0607 -0.8706
 9116SOL     OW38983   1.339   0.103  15.680 -0.4827 -0.3791  0.4483
 9116SOL    HW138984   1.432   0.124  15.674 -1.1227  2.6259  0.7756
 9116SOL    HW238985   1.323   0.133  15.770 -3.0073 -0.6527  0.0909
 9117SOL     OW38986   3.038   1.517   3.730 -0.0929  0.0242 -0.0549
 9117SOL    HW138987   3.116   1.512   3.675  0.0184  1.0257  0.0142
 9117SOL    HW238988   3.043   1.437   3.783  0.6890  0.2304  0.1816
 9118SOL     OW38989   3.231   0.808   9.115  0.3646  0.8632 -0.0821
 9118SOL    HW138990   3.155   0.789   9.061 -0.0680  1.4387  0.3148
 9118SOL    HW238991   3.200   0.882   9.169 -1.5547  0.3046 -0.4201
 9119SOL     OW38992   2.250   2.507   3.215  0.3841 -0.0059  0.2559
 9119SOL    HW138993   2.321   2.446   3.197  0.5171  0.1936  0.1071
 9119SOL    HW238994   2.258   2.526   3.309 -1.8095  0.2662  0.4024
 9120SOL     OW38995   0.956   1.163   9.512 -0.6268  0.1622 -0.3189
 9120SOL    HW138996   0.970   1.240   9.457  0.5004  0.2347  0.0616
 9120SOL    HW238997   0.930   1.103   9.443  0.5780  3.1490 -3.3824
 9121SOL     OW38998   0.861   0.212   3.047 -0.2067 -0.1672  0.1476
 9121SOL    HW138999   0.890   0.257   2.968 -0.1171 -0.3134  0.0965
 9121SOL    HW239000   0.937   0.156   3.060  0.0094  0.2171  0.5175
 9122SOL     OW39001   2.153   2.014   0.230  0.2041  0.2037  0.1420
 9122SOL    HW139002   2.171   2.065   0.309  1.1926 -0.2755  0.2260
 9122SOL    HW239003   2.148   1.928   0.272 -3.3848 -0.8983 -2.5075
 9123SOL     OW39004   4.211   2.250   3.646 -0.2125 -0.1325 -0.4683
 9123SOL    HW139005   4.154   2.289   3.579 -0.8365 -1.9878 -1.0036
 9123SOL    HW239006   4.262   2.329   3.666  1.1079 -0.5044 -2.3264
 9124SOL     OW39007   4.299   2.307  13.293  0.3902 -0.4334 -0.0289
 9124SOL    HW139008   4.394   2.315  13.301  0.1841  0.2054  1.7179
 9124SOL    HW239009   4.282   2.400  13.286 -2.3974 -0.9664 -0.1147
 9125SOL     OW39010   1.877   2.703  15.626 -0.0560 -0.6357  0.3240
 9125SOL    HW139011   1.825   2.684  15.548  1.0319  0.8183 -0.7421
 9125SOL    HW239012   1.869   2.798  15.634 -0.3498 -0.3600 -3.2359
 9126SOL     OW39013   0.594   1.385   6.676 -0.3499 -0.3622  0.9128
 9126SOL    HW139014   0.603   1.447   6.749  0.6169 -0.1941  0.6497
 9126SOL    HW239015   0.561   1.315   6.733 -1.4293 -0.6271 -0.0434
 9127SOL     OW39016   2.543   1.969   3.448  0.5499 -0.0342  0.3305
 9127SOL    HW139017   2.605   1.970   3.521 -1.2885 -0.8181  1.9129
 9127SOL    HW239018   2.516   1.878   3.459 -1.7146  0.7230  1.0683
 9128SOL     OW39019   2.364   2.269   1.872 -0.0932  0.5170  0.0969
 9128SOL    HW139020   2.392   2.317   1.794 -2.3917  1.2341 -0.2865
 9128SOL    HW239021   2.386   2.332   1.941  0.6067 -0.2699  0.5790
 9129SOL     OW39022   4.242   4.485   2.647 -0.1354  0.0610 -0.6947
 9129SOL    HW139023   4.308   4.416   2.654  0.3945  0.6045 -0.3922
 9129SOL    HW239024   4.255   4.512   2.556  0.7315 -1.3665 -0.9877
 9130SOL     OW39025   2.217   4.724   6.320 -0.1282  0.2347 -0.4141
 9130SOL    HW139026   2.293   4.735   6.262 -0.0994  0.8930 -0.2466
 9130SOL    HW239027   2.169   0.070   6.313 -0.8206 -0.0926  0.4434
 9131SOL     OW39028   1.417   4.540   7.500 -0.0308 -0.4286 -0.0621
 9131SOL    HW139029   1.422   4.451   7.534 -0.2490 -0.5432 -0.3320
 9131SOL    HW239030   1.497   4.574   7.541  0.7834 -0.8686 -1.2971
 9132SOL     OW39031   1.175   0.086  16.989  0.0766 -0.3984 -0.2736
 9132SOL    HW139032   1.270   0.096  17.002  0.1041 -0.7995 -0.1373
 9132SOL    HW239033   1.152   0.057  17.078 -0.8209  0.9425 -0.0809
 9133SOL     OW39034   1.635   0.180   1.656  0.0777  0.1298 -0.1971
 9133SOL    HW139035   1.578   0.227   1.718 -0.6176  0.0246 -0.7552
 9133SOL    HW239036   1.576   0.183   1.581 -0.7439  0.4893  0.4628
 9134SOL     OW39037   2.466   2.049  15.179 -0.6450  0.0352  0.1553
 9134SOL    HW139038   2.551   2.090  15.161  0.5478 -2.9283 -0.9298
 9134SOL    HW239039   2.409   2.119  15.210 -0.0981  0.0403  1.1509
 9135SOL     OW39040   4.450   2.795   0.849 -0.1459  0.8710 -0.5664
 9135SOL    HW139041   4.509   2.839   0.789 -2.3763  2.9070 -1.2715
 9135SOL    HW239042   4.477   2.703   0.845  2.9048  1.6958  2.1012
 9136SOL     OW39043   0.355   2.321   7.164 -0.2060 -0.3201 -0.1789
 9136SOL    HW139044   0.323   2.279   7.084  0.9153  0.9609 -1.3097
 9136SOL    HW239045   0.444   2.344   7.139 -0.1670  0.1793  0.4393
 9137SOL     OW39046   0.937   2.102   9.712  0.3700 -0.6492 -0.1092
 9137SOL    HW139047   0.858   2.124   9.761  0.0973 -3.7313  0.8489
 9137SOL    HW239048   0.999   2.166   9.746 -0.0639  0.3325 -1.1497
 9138SOL     OW39049   1.068   2.514   6.927 -0.4663 -0.4283 -0.0322
 9138SOL    HW139050   1.100   2.494   7.015 -1.9268 -1.5288  0.2405
 9138SOL    HW239051   1.127   2.452   6.884  1.3913  1.6970 -0.5658
 9139SOL     OW39052   1.577   4.099   9.484 -0.2649  0.1348  0.4163
 9139SOL    HW139053   1.500   4.149   9.456  1.7200  2.1706 -1.3715
 9139SOL    HW239054   1.542   4.067   9.567  0.4413  0.4774  0.8419
 9140SOL     OW39055   2.443   1.219   3.283 -0.1867  0.2050  0.1326
 9140SOL    HW139056   2.517   1.162   3.303 -0.8569 -1.1788 -1.3374
 9140SOL    HW239057   2.387   1.148   3.253 -1.1704  2.2136 -2.8134
 9141SOL     OW39058   0.360   2.858   7.217  0.0610 -0.3857 -0.3060
 9141SOL    HW139059   0.413   2.838   7.294 -1.0600 -0.7200  0.3781
 9141SOL    HW239060   0.326   2.770   7.200  1.3225 -1.0157  0.4748
 9142SOL     OW39061   0.953   1.245   2.254 -0.3589  0.6062 -0.5320
 9142SOL    HW139062   1.002   1.165   2.271 -0.3381  0.8498  0.5531
 9142SOL    HW239063   0.869   1.221   2.291  0.7780 -1.6521  0.5500
 9143SOL     OW39064   1.672   1.803   5.782  0.0857 -0.6773  0.2367
 9143SOL    HW139065   1.603   1.776   5.721 -0.2477 -0.3917  0.4900
 9143SOL    HW239066   1.743   1.743   5.761 -0.3726 -1.8612  2.1162
 9144SOL     OW39067   2.074   1.270   3.108  0.2168  0.5724 -0.0666
 9144SOL    HW139068   2.148   1.242   3.054  0.0082  1.2458 -0.6995
 9144SOL    HW239069   1.997   1.226   3.072  1.8216 -1.3431 -1.1697
 9145SOL     OW39070   3.646   3.618   3.108  0.1721 -0.0511  0.1652
 9145SOL    HW139071   3.614   3.582   3.025  1.1573  0.3758 -0.3942
 9145SOL    HW239072   3.689   3.698   3.080 -2.1980  0.0716 -3.1660
 9146SOL     OW39073   1.197   1.822   6.748  0.9321  0.2672  0.2708
 9146SOL    HW139074   1.247   1.891   6.705 -2.1796  2.8877  0.8282
 9146SOL    HW239075   1.250   1.746   6.724 -0.4038  0.1035 -2.1486
 9147SOL     OW39076   1.744   1.119   2.257 -0.2930  0.4098 -0.2246
 9147SOL    HW139077   1.829   1.102   2.298 -1.3838 -1.7325  1.1390
 9147SOL    HW239078   1.725   1.205   2.296 -1.0469 -0.4198  1.2213
 9148SOL     OW39079   2.339   4.630   9.892  0.5384  0.0772 -0.2687
 9148SOL    HW139080   2.352   4.718   9.857  0.4222  0.6311  1.0814
 9148SOL    HW239081   2.295   4.585   9.820 -0.2270 -1.1678  0.9626
 9149SOL     OW39082   1.433   0.606   6.324 -0.4176  0.3768  0.0163
 9149SOL    HW139083   1.419   0.645   6.237  2.0731  1.5538  0.1255
 9149SOL    HW239084   1.525   0.582   6.315 -0.4489 -0.1422  1.1100
 9150SOL     OW39085   0.459   2.023   8.954 -0.0716  0.1390  0.1015
 9150SOL    HW139086   0.501   1.938   8.942  0.2441 -0.1997  3.6990
 9150SOL    HW239087   0.493   2.079   8.884 -1.8350  3.0863  1.5825
 9151SOL     OW39088   3.673   1.387  17.543  0.1421  0.2560 -0.2124
 9151SOL    HW139089   3.681   1.315  17.605  1.0833 -2.1749 -3.1729
 9151SOL    HW239090   3.747   1.371  17.484 -0.2703 -1.5515 -0.2266
 9152SOL     OW39091   2.769   1.349   3.360 -0.5019 -0.1566 -0.6496
 9152SOL    HW139092   2.689   1.329   3.312 -0.8625  2.0698 -0.9750
 9152SOL    HW239093   2.815   1.400   3.293 -2.0940 -1.1387 -2.4825
 9153SOL     OW39094   2.411   3.912  17.287 -0.2303  0.1398  0.3253
 9153SOL    HW139095   2.470   3.903  17.213 -2.2038 -1.3059 -1.0822
 9153SOL    HW239096   2.386   4.004  17.277 -0.6612 -0.2032 -1.7796
 9154SOL     OW39097   3.535   2.435   7.343  0.8699  0.2758 -0.0861
 9154SOL    HW139098   3.575   2.522   7.346  0.0348  0.6896 -0.9136
 9154SOL    HW239099   3.513   2.433   7.250  1.8447 -1.1206 -0.2813
 9155SOL     OW39100   2.220   1.890   8.608 -0.6879 -0.3673  0.4168
 9155SOL    HW139101   2.211   1.795   8.607 -0.1734 -0.4087 -0.4537
 9155SOL    HW239102   2.272   1.896   8.688  1.0732  0.9988 -0.8017
 9156SOL     OW39103   3.377   0.803  12.477 -0.0864 -0.2892  0.1124
 9156SOL    HW139104   3.311   0.866  12.506  0.9255  0.4791  0.7362
 9156SOL    HW239105   3.437   0.865  12.436 -0.4994  0.9734  1.4001
 9157SOL     OW39106   2.958   1.834  14.736  0.0059 -0.0949 -0.4307
 9157SOL    HW139107   2.912   1.869  14.659 -2.0087 -2.2537 -0.2246
 9157SOL    HW239108   3.020   1.904  14.754  0.6407 -0.9298  0.6164
 9158SOL     OW39109   3.188   0.271   7.130  0.2686 -0.4151 -0.1884
 9158SOL    HW139110   3.096   0.249   7.123 -0.4973  2.5533  0.8275
 9158SOL    HW239111   3.204   0.214   7.205  3.8276 -1.8065 -1.9710
 9159SOL     OW39112   1.267   0.300   8.258 -0.0048 -0.3039  0.2213
 9159SOL    HW139113   1.336   0.356   8.292  0.4524 -1.3829  1.0647
 9159SOL    HW239114   1.259   0.237   8.329 -1.7897 -0.4671 -0.1145
 9160SOL     OW39115   1.804   2.467   3.536  0.4072  0.1530 -0.2597
 9160SOL    HW139116   1.811   2.556   3.570  0.6810  1.0940 -2.7749
 9160SOL    HW239117   1.824   2.488   3.445  0.7704  0.9966  0.0134
 9161SOL     OW39118   3.918   3.310   1.661  0.0498  0.3877 -0.0566
 9161SOL    HW139119   3.945   3.385   1.714 -1.2533 -0.7873  2.2358
 9161SOL    HW239120   3.983   3.311   1.590 -1.3336  0.0912 -1.3150
 9162SOL     OW39121   0.548   3.847  14.563  0.0429  0.2848  0.2553
 9162SOL    HW139122   0.458   3.871  14.583  0.1291  1.3253 -0.6084
 9162SOL    HW239123   0.540   3.752  14.571 -0.5494  0.3478  0.4191
 9163SOL     OW39124   2.624   4.129  15.686 -0.0181 -0.3179 -0.0044
 9163SOL    HW139125   2.693   4.167  15.740  0.8339  0.7675 -1.8742
 9163SOL    HW239126   2.672   4.074  15.624  0.1787 -0.2352  0.0750
 9164SOL     OW39127   4.177   0.278   7.927 -0.2787  0.1893  0.1193
 9164SOL    HW139128   4.146   0.203   7.876  0.2678 -0.5542  0.8799
 9164SOL    HW239129   4.266   0.285   7.893 -0.0914  2.0477  0.9606
 9165SOL     OW39130   0.456   4.725  13.088 -0.0243  0.4577  0.1581
 9165SOL    HW139131   0.524   4.694  13.028 -0.8248 -0.0285 -0.4885
 9165SOL    HW239132   0.414   4.643  13.114 -1.9356  1.4642  0.2478
 9166SOL     OW39133   2.573   2.089   7.379  0.1589 -0.8409 -0.2926
 9166SOL    HW139134   2.526   2.149   7.321  2.6460  0.3722 -1.0522
 9166SOL    HW239135   2.661   2.114   7.352  1.2815 -1.6719  2.5562
 9167SOL     OW39136   1.305   3.123   8.256  0.0178 -0.0320 -0.4797
 9167SOL    HW139137   1.219   3.088   8.277  0.7672 -1.6498 -0.0831
 9167SOL    HW239138   1.290   3.129   8.161  1.5535  2.3660 -0.5943
 9168SOL     OW39139   4.508   0.954   3.944  0.3703 -0.0424 -0.0256
 9168SOL    HW139140   4.439   0.912   3.893  0.1065 -0.0936  0.3737
 9168SOL    HW239141   4.542   1.014   3.878  2.3620  2.5120  3.3541
 9169SOL     OW39142   1.096   4.657   4.316 -0.2280 -0.8871  0.0792
 9169SOL    HW139143   1.100   4.727   4.251  0.1898 -0.2585  0.7902
 9169SOL    HW239144   1.007   4.672   4.349 -0.0068 -0.9418  0.7026
 9170SOL     OW39145   2.712   3.345  15.728 -0.6112 -0.4154  0.0200
 9170SOL    HW139146   2.807   3.338  15.723 -0.5849 -1.6957  2.1094
 9170SOL    HW239147   2.713   3.411  15.797 -0.8395 -2.1477  1.6760
 9171SOL     OW39148   0.537   3.558   3.222 -0.3671  0.3015  0.3068
 9171SOL    HW139149   0.567   3.637   3.177 -2.4917  0.5515 -0.6814
 9171SOL    HW239150   0.468   3.605   3.269  1.8047  3.1802  0.6058
 9172SOL     OW39151   0.049   4.241   8.599 -0.3675 -0.1489  0.3496
 9172SOL    HW139152   4.690   4.236   8.604 -0.4740  0.8167 -0.9272
 9172SOL    HW239153   0.067   4.310   8.663  1.1704  0.6497 -0.9444
 9173SOL     OW39154   2.695   2.897  13.035  0.0045 -0.3889 -0.0376
 9173SOL    HW139155   2.693   2.872  12.943 -0.8901  0.3195 -0.2202
 9173SOL    HW239156   2.686   2.808  13.067  1.5043  0.5813  3.1122
 9174SOL     OW39157   1.584   1.517   3.193 -0.3454  0.1914  0.0251
 9174SOL    HW139158   1.602   1.487   3.104 -1.3563  1.1406 -0.4934
 9174SOL    HW239159   1.567   1.431   3.232  0.4834 -0.6181 -1.3982
 9175SOL     OW39160   1.661   3.679   3.880  0.1764  0.3597  0.0757
 9175SOL    HW139161   1.629   3.627   3.807  1.2340 -0.4452  0.1769
 9175SOL    HW239162   1.726   3.736   3.838 -0.7793  1.5459  0.1927
 9176SOL     OW39163   1.428   1.950   6.692  0.6688  0.3141 -0.5051
 9176SOL    HW139164   1.467   1.923   6.775  0.3006 -0.8900 -0.7185
 9176SOL    HW239165   1.468   2.036   6.683  3.5079 -0.9000  0.4267
 9177SOL     OW39166   3.676   0.873   4.484  0.0448  0.4155 -0.3075
 9177SOL    HW139167   3.727   0.807   4.437  2.1743 -0.6138  3.4941
 9177SOL    HW239168   3.733   0.950   4.473 -0.7363  0.8860 -1.0944
 9178SOL     OW39169   3.519   0.769   2.041 -0.4622  0.3886 -0.2164
 9178SOL    HW139170   3.609   0.792   2.016 -1.1390  0.8750 -2.2343
 9178SOL    HW239171   3.518   0.764   2.137  3.1786 -1.4720 -0.2600
 9179SOL     OW39172   0.314   2.599   5.692 -0.6043  0.3802  0.1424
 9179SOL    HW139173   0.317   2.688   5.728  0.6517  0.8671 -1.1781
 9179SOL    HW239174   0.226   2.607   5.655 -0.2770 -0.8180 -0.8715
 9180SOL     OW39175   0.302   0.404   9.632 -0.4132 -0.5938  0.1965
 9180SOL    HW139176   0.345   0.409   9.717  0.1642  1.1175 -0.2027
 9180SOL    HW239177   0.274   0.314   9.650  0.1560 -1.1488 -1.7684
 9181SOL     OW39178   2.390   3.182   6.630 -0.1361 -0.4100 -0.1710
 9181SOL    HW139179   2.333   3.131   6.688 -0.6185  3.4286  2.7317
 9181SOL    HW239180   2.327   3.244   6.591 -2.0925 -1.4591  1.3556
 9182SOL     OW39181   0.720   4.313   1.941 -0.3015 -0.6165 -0.0931
 9182SOL    HW139182   0.627   4.331   1.955 -0.0739 -2.0272  3.2325
 9182SOL    HW239183   0.705   4.227   1.902  1.8440 -1.0766  0.1324
 9183SOL     OW39184   0.826   3.164   2.256 -0.1449  0.5257 -0.3332
 9183SOL    HW139185   0.774   3.118   2.322 -0.3776  1.2645 -0.0005
 9183SOL    HW239186   0.768   3.240   2.260 -0.1618  0.4662  0.5254
 9184SOL     OW39187   1.967   4.392   1.691  0.0187  0.4524 -0.4987
 9184SOL    HW139188   1.875   4.394   1.718 -0.0953  1.3962 -0.9649
 9184SOL    HW239189   1.999   4.475   1.726 -1.4394  1.2355 -1.0247
 9185SOL     OW39190   0.028   2.531   5.876  0.1954 -0.8897  0.0014
 9185SOL    HW139191   0.018   2.613   5.828 -1.2733 -2.5197 -2.4997
 9185SOL    HW239192   4.705   2.547   5.950  2.1402 -0.1544  1.4037
 9186SOL     OW39193   3.589   1.704   5.519  0.1052 -0.6496 -0.4748
 9186SOL    HW139194   3.626   1.616   5.510 -0.1291 -0.8417  0.4327
 9186SOL    HW239195   3.502   1.676   5.546  0.7241 -1.3448  0.7905
 9187SOL     OW39196   2.723   3.523  15.920  0.3761  0.3354 -0.0976
 9187SOL    HW139197   2.814   3.550  15.933  0.1047  0.7271  1.0140
 9187SOL    HW239198   2.683   3.586  15.980  1.6489  0.1392  0.9464
 9188SOL     OW39199   2.587   3.029   5.064  0.6226  0.5215  0.4075
 9188SOL    HW139200   2.551   3.035   4.975 -0.8478  0.0733  0.9770
 9188SOL    HW239201   2.680   3.043   5.046  0.0430  0.3197 -2.8223
 9189SOL     OW39202   4.336   2.700   4.257  0.3452 -0.1774  0.4433
 9189SOL    HW139203   4.326   2.744   4.341 -0.8139 -0.0031  0.2095
 9189SOL    HW239204   4.419   2.736   4.225 -0.8381 -0.5490 -3.0242
 9190SOL     OW39205   1.036   2.062   7.480  0.4808  0.1420 -0.1917
 9190SOL    HW139206   0.969   1.995   7.495  0.6318 -0.2064 -1.0975
 9190SOL    HW239207   0.979   2.138   7.464  0.1114 -0.3556 -1.2212
 9191SOL     OW39208   2.577   1.303   6.774  0.9281 -0.2165 -0.1260
 9191SOL    HW139209   2.584   1.395   6.799  2.9269 -0.4049 -0.0446
 9191SOL    HW239210   2.490   1.281   6.807 -0.7706  2.1899 -2.9187
 9192SOL     OW39211   4.275   2.182   7.379  0.2648 -0.2719  0.3557
 9192SOL    HW139212   4.350   2.151   7.430 -0.1714  1.0613  1.8031
 9192SOL    HW239213   4.321   2.230   7.310  0.7469 -0.1569  0.7559
 9193SOL     OW39214   4.703   1.888   3.606 -0.1633  0.2367 -0.8185
 9193SOL    HW139215   4.668   1.977   3.597 -1.3708 -0.3074 -1.5215
 9193SOL    HW239216   4.626   1.835   3.590 -0.6014  0.8961 -0.9153
 9194SOL     OW39217   4.654   2.166   3.640 -0.0900 -0.6381 -0.5634
 9194SOL    HW139218   4.597   2.208   3.705 -0.1583  0.4892 -1.3481
 9194SOL    HW239219   4.623   2.215   3.564 -1.4393  0.9724  1.0197
 9195SOL     OW39220   0.858   1.978   6.250 -0.3293 -0.6029 -0.6076
 9195SOL    HW139221   0.952   1.989   6.267 -0.9060  2.0528  0.8683
 9195SOL    HW239222   0.839   2.043   6.183 -0.0374 -1.3301 -1.3904
 9196SOL     OW39223   3.930   2.374   4.201 -0.5641  0.2120 -0.2072
 9196SOL    HW139224   3.930   2.293   4.250  3.3912  0.5844  0.3587
 9196SOL    HW239225   4.016   2.414   4.213 -0.5464 -0.7618  2.6609
 9197SOL     OW39226   4.259   4.033   3.351 -0.1344  0.5620  0.7955
 9197SOL    HW139227   4.293   4.033   3.261 -3.8474  1.1506 -0.6284
 9197SOL    HW239228   4.225   4.120   3.374 -0.3968  0.7185 -0.1842
 9198SOL     OW39229   1.141   3.593   3.999  0.4525  0.2374 -0.1824
 9198SOL    HW139230   1.237   3.584   3.996  0.3953 -0.4521 -0.0435
 9198SOL    HW239231   1.134   3.673   3.947 -2.7042 -0.9483 -1.5384
 9199SOL     OW39232   4.318   1.400   2.558  0.8481 -0.2792 -0.2837
 9199SOL    HW139233   4.241   1.450   2.532 -0.4343 -1.5302  1.1064
 9199SOL    HW239234   4.380   1.443   2.499  1.0706 -2.3195 -1.5195
 9200SOL     OW39235   0.915   1.587   4.967  0.1815 -0.0696 -0.4846
 9200SOL    HW139236   0.971   1.591   4.890  1.5899 -1.4422  0.4555
 9200SOL    HW239237   0.847   1.528   4.933  1.0073 -1.3102 -0.0151
 9201SOL     OW39238   0.598   2.859  17.693 -0.6087  0.6886 -0.4079
 9201SOL    HW139239   0.565   2.783  17.646 -0.7627 -0.2085  1.1306
 9201SOL    HW239240   0.659   2.817   0.011  2.1570  5.1049 -0.1096
 9202SOL     OW39241   2.058   3.139   7.187 -0.2279  0.3319  0.3280
 9202SOL    HW139242   2.084   3.155   7.096 -2.9730 -1.8061 -0.8510
 9202SOL    HW239243   2.053   3.229   7.218  0.4922  1.2393 -2.2182
 9203SOL     OW39244   3.416   3.934   5.186  0.3918  0.1393  0.0085
 9203SOL    HW139245   3.352   3.867   5.211 -0.6152  0.4972 -1.5889
 9203SOL    HW239246   3.495   3.890   5.217 -2.4641 -3.4147  2.3306
 9204SOL     OW39247   3.187   3.360  16.902 -0.1299 -0.0949 -0.1774
 9204SOL    HW139248   3.228   3.445  16.887  0.1276 -0.0480  0.7715
 9204SOL    HW239249   3.227   3.344  16.988  0.9203  3.9540  0.1089
 9205SOL     OW39250   3.153   2.387  10.504 -0.3147  0.3201  0.0837
 9205SOL    HW139251   3.178   2.327  10.434  0.1330  0.7879 -0.1616
 9205SOL    HW239252   3.203   2.466  10.480 -0.0053  0.1637  0.2253
 9206SOL     OW39253   4.385   2.328   1.135  0.2909 -0.0918  0.3959
 9206SOL    HW139254   4.306   2.369   1.170  0.9799  0.5516  1.1861
 9206SOL    HW239255   4.349   2.242   1.111 -0.0100  0.3619 -0.7796
 9207SOL     OW39256   0.139   1.009   6.870 -0.0943 -0.4535  0.4170
 9207SOL    HW139257   0.212   1.046   6.919 -0.7077  2.2931 -0.7318
 9207SOL    HW239258   0.080   1.085   6.865  0.8898  0.4123  1.9369
 9208SOL     OW39259   0.132   4.711   7.424  0.8857  0.0247  0.0643
 9208SOL    HW139260   0.210   4.701   7.479  1.2238 -1.0315 -0.6166
 9208SOL    HW239261   0.068   4.726   7.494  0.7307  1.3929 -0.3730
 9209SOL     OW39262   2.998   2.648   2.243 -0.2448  0.2327 -0.1441
 9209SOL    HW139263   2.970   2.674   2.155  0.4107  2.0293  0.1661
 9209SOL    HW239264   2.976   2.731   2.285 -1.5902 -0.8204  1.1963
 9210SOL     OW39265   0.645   4.618   5.062  0.4095  0.8164  0.3482
 9210SOL    HW139266   0.665   4.588   5.151 -1.5898 -0.5182  0.3480
 9210SOL    HW239267   0.695   4.698   5.051  0.2697  0.8401 -0.1371
 9211SOL     OW39268   0.783   4.335   5.144 -0.1955  0.3181  0.8737
 9211SOL    HW139269   0.765   4.304   5.233 -1.0502 -2.1026 -0.1398
 9211SOL    HW239270   0.877   4.351   5.147  0.0044 -0.3903 -1.8530
 9212SOL     OW39271   4.471   0.217   6.904 -0.3182 -0.3108  0.3476
 9212SOL    HW139272   4.452   0.124   6.917 -1.6341 -0.2675 -1.2400
 9212SOL    HW239273   4.513   0.226   6.818  0.5915  0.0772  0.8311
 9213SOL     OW39274   1.878   0.767  11.826  0.6206  0.2674  0.0961
 9213SOL    HW139275   1.831   0.839  11.866 -1.1914  0.7126 -2.8154
 9213SOL    HW239276   1.901   0.717  11.904 -0.2303  2.3018  1.6269
 9214SOL     OW39277   2.881   4.736   4.966  0.0723 -0.0999  0.2088
 9214SOL    HW139278   2.858   4.725   5.058 -2.2188 -0.3052 -0.3862
 9214SOL    HW239279   2.972   0.029   4.963 -0.6185  2.2522  2.1069
 9215SOL     OW39280   2.523   4.692  17.709  0.0744 -0.2704 -0.3748
 9215SOL    HW139281   2.429   4.696  17.730  0.0633  2.0940 -0.8475
 9215SOL    HW239282   2.562   0.022   0.022  1.9739 -1.6045 -0.1309
 9216SOL     OW39283   3.843   4.633   9.958 -0.0181 -0.2671  0.1187
 9216SOL    HW139284   3.849   4.553   9.907 -1.7766 -1.2548  1.4587
 9216SOL    HW239285   3.756   4.657   9.925 -0.1833  0.3689  1.0210
 9217SOL     OW39286   3.745   2.336   9.419  0.1109  0.1347  0.2007
 9217SOL    HW139287   3.676   2.321   9.484 -0.1854  1.0139  0.0846
 9217SOL    HW239288   3.696   2.317   9.339  1.2835  0.6218 -0.6285
 9218SOL     OW39289   3.711   1.074   3.009  0.6444  0.0684 -0.8609
 9218SOL    HW139290   3.620   1.072   3.038  1.1493 -0.1623  0.7055
 9218SOL    HW239291   3.721   0.979   3.019 -1.0685 -0.2085 -1.7763
 9219SOL     OW39292   4.686   3.375  16.298  0.5522  0.6315  0.5430
 9219SOL    HW139293   4.645   3.412  16.220  0.5494  0.5468  0.5042
 9219SOL    HW239294   4.618   3.309  16.315  0.3328  0.6912 -0.1138
 9220SOL     OW39295   0.446   2.106   1.840 -0.0856 -0.7346 -0.1281
 9220SOL    HW139296   0.412   2.035   1.785 -0.9613  0.3685 -0.9918
 9220SOL    HW239297   0.535   2.109   1.806 -0.6738 -1.2528 -1.7056
 9221SOL     OW39298   2.976   2.666   7.170  0.1025 -0.1925 -0.6314
 9221SOL    HW139299   2.885   2.694   7.167 -0.1580 -1.0240 -0.5583
 9221SOL    HW239300   3.015   2.714   7.097  1.0626  1.7181  1.1556
 9222SOL     OW39301   1.862   3.954   1.947 -0.5339  0.0929 -0.0841
 9222SOL    HW139302   1.846   3.862   1.969 -1.8068  0.5536  0.9183
 9222SOL    HW239303   1.871   3.990   2.036 -1.0364 -2.0811  0.8438
 9223SOL     OW39304   4.100   4.240   3.203  0.2218  0.2633 -0.1351
 9223SOL    HW139305   4.172   4.275   3.150  0.9473  0.5065  1.0058
 9223SOL    HW239306   4.125   4.267   3.291  1.9911  0.2083 -0.6240
 9224SOL     OW39307   2.072   4.164   9.377  0.5127  0.2445  0.3433
 9224SOL    HW139308   2.069   4.081   9.424  1.4788 -0.0847 -0.1726
 9224SOL    HW239309   1.981   4.177   9.353  0.4561  0.4865  0.6769
 9225SOL     OW39310   3.156   3.261   6.210  0.1689 -0.0242  0.2306
 9225SOL    HW139311   3.182   3.190   6.270 -0.6510  1.2301  2.0678
 9225SOL    HW239312   3.242   3.287   6.178  0.6466  0.9777  2.3309
 9226SOL     OW39313   1.066   2.918   4.053 -0.0987 -0.3467 -0.6182
 9226SOL    HW139314   1.023   2.868   3.984 -1.0913 -2.4170  1.4823
 9226SOL    HW239315   1.119   2.852   4.098 -0.4164  0.1023  0.4192
 9227SOL     OW39316   3.425   2.105  13.640 -0.6227 -0.0970  0.5102
 9227SOL    HW139317   3.467   2.021  13.626 -0.7298 -0.0821  0.1215
 9227SOL    HW239318   3.367   2.088  13.714  0.0634  1.6521  1.4637
 9228SOL     OW39319   1.621   0.553  16.503 -0.5503 -0.0792 -0.4046
 9228SOL    HW139320   1.605   0.477  16.558 -2.0336  1.6561  1.5758
 9228SOL    HW239321   1.716   0.558  16.497 -0.3073 -0.3525  3.1471
 9229SOL     OW39322   0.801   0.550  12.392  0.5205 -0.1076 -0.1719
 9229SOL    HW139323   0.795   0.534  12.486 -1.5706 -0.7393 -0.4174
 9229SOL    HW239324   0.806   0.645  12.382 -1.6214  0.0406  0.2411
 9230SOL     OW39325   1.873   0.278  11.658  0.2599 -0.6375  0.2651
 9230SOL    HW139326   1.807   0.308  11.595 -0.1844 -1.0537  0.5343
 9230SOL    HW239327   1.814   0.225  11.712 -1.7304  1.8814  0.5432
 9231SOL     OW39328   1.056   1.352   5.625 -0.0197 -0.8745 -0.2789
 9231SOL    HW139329   0.987   1.388   5.680 -1.3278 -1.4363 -1.5580
 9231SOL    HW239330   1.055   1.266   5.668 -0.2574 -0.5467  0.3666
 9232SOL     OW39331   0.840   3.233   7.433  0.1155 -0.3071 -0.1203
 9232SOL    HW139332   0.807   3.302   7.375 -0.8200 -0.2493  0.4692
 9232SOL    HW239333   0.838   3.278   7.518 -0.7125  1.5596 -1.1052
 9233SOL     OW39334   0.287   4.294   6.938  0.6140  0.3462 -0.0955
 9233SOL    HW139335   0.371   4.248   6.946  0.0269 -0.4438  1.4792
 9233SOL    HW239336   0.318   4.369   6.888  3.0721 -0.3106  0.4541
 9234SOL     OW39337   0.151   0.501  13.814  0.1461 -0.0980 -0.5174
 9234SOL    HW139338   0.245   0.485  13.809  0.1834  0.3331 -1.1754
 9234SOL    HW239339   0.130   0.469  13.902  0.1716  0.5273 -0.2833
 9235SOL     OW39340   3.360   1.025  13.704 -0.5578  0.7210  0.4171
 9235SOL    HW139341   3.372   1.110  13.661  0.3657  0.6064  0.4661
 9235SOL    HW239342   3.363   1.049  13.796 -1.4669 -3.5606  1.5513
 9236SOL     OW39343   3.717   4.255   1.973  0.3994 -0.7521  0.1140
 9236SOL    HW139344   3.756   4.341   1.955 -2.4098  0.5912  0.4268
 9236SOL    HW239345   3.624   4.277   1.970 -0.1029 -2.6272  3.2732
 9237SOL     OW39346   3.955   0.519   3.529  0.1515 -0.6466 -0.2086
 9237SOL    HW139347   3.990   0.430   3.536  0.1114 -0.6143  0.3758
 9237SOL    HW239348   3.938   0.520   3.435  0.4432 -1.1079 -0.2688
 9238SOL     OW39349   1.089   4.115   3.156  0.2747  0.4672  0.2983
 9238SOL    HW139350   1.052   4.122   3.243 -1.2606  1.9883 -0.4846
 9238SOL    HW239351   1.156   4.050   3.179  1.7529  1.9800  0.2447
 9239SOL     OW39352   1.230   1.225   7.113 -0.6186 -0.2610  0.5465
 9239SOL    HW139353   1.298   1.247   7.177  1.1832  1.1063 -1.8554
 9239SOL    HW239354   1.189   1.149   7.156 -2.5698  1.0677  1.0211
 9240SOL     OW39355   1.637   2.964  15.783  0.0070  0.7478  0.0134
 9240SOL    HW139356   1.702   2.976  15.852 -1.0589 -0.1215  1.1704
 9240SOL    HW239357   1.689   3.004  15.714  0.8423  1.2153  0.9265
 9241SOL     OW39358   4.484   0.975   8.359  0.3380 -0.2753 -0.0293
 9241SOL    HW139359   4.501   1.068   8.346 -0.8968 -0.1234 -0.5284
 9241SOL    HW239360   4.482   0.978   8.455 -1.1512  1.7493 -0.1342
 9242SOL     OW39361   1.474   0.953   7.941  0.2588  0.1640  0.1544
 9242SOL    HW139362   1.553   1.007   7.940  1.9793 -2.3993 -1.7623
 9242SOL    HW239363   1.502   0.877   7.890  1.0311 -0.6593  1.7945
 9243SOL     OW39364   1.790   1.141   1.991 -0.2413 -0.2042  0.1458
 9243SOL    HW139365   1.741   1.130   2.073 -0.7096 -1.2670 -0.2828
 9243SOL    HW239366   1.737   1.109   1.918  3.5425 -0.2166 -2.5821
 9244SOL     OW39367   1.353   0.441   2.398 -0.2820  0.4404  0.3992
 9244SOL    HW139368   1.439   0.456   2.359  0.0237 -0.0463  0.8854
 9244SOL    HW239369   1.318   0.359   2.363  0.5288  0.5894 -0.7678
 9245SOL     OW39370   2.215   4.625   4.900 -0.3562 -0.0831 -0.0699
 9245SOL    HW139371   2.155   4.674   4.843 -2.2567 -3.1328 -0.7146
 9245SOL    HW239372   2.172   4.539   4.905  0.1084 -0.3955 -1.2153
 9246SOL     OW39373   3.492   0.523   6.111  0.1074 -0.4700 -0.0484
 9246SOL    HW139374   3.567   0.581   6.108 -0.5215  0.2695 -1.5038
 9246SOL    HW239375   3.471   0.507   6.019 -1.3887  1.1334 -0.0014
 9247SOL     OW39376   1.839   3.397   5.797 -0.3865  0.8910 -0.8622
 9247SOL    HW139377   1.757   3.384   5.844 -1.4955  1.3812 -2.6815
 9247SOL    HW239378   1.862   3.483   5.831 -2.2749  1.3473 -0.7865
 9248SOL     OW39379   0.215   3.346   7.398  0.4745  0.1268  0.3182
 9248SOL    HW139380   0.131   3.300   7.405 -0.0116  1.5020  3.2476
 9248SOL    HW239381   0.265   3.282   7.448  2.2906  1.3146  0.0207
 9249SOL     OW39382   2.347   0.304   1.994 -0.1790  0.3703  0.3055
 9249SOL    HW139383   2.364   0.235   1.930  0.4436  1.8664 -1.1532
 9249SOL    HW239384   2.394   0.277   2.073 -1.0348 -0.3385  0.5617
 9250SOL     OW39385   3.705   4.614   8.233  0.5780 -0.0218 -0.3583
 9250SOL    HW139386   3.637   4.621   8.165  0.4828 -0.6508 -0.3298
 9250SOL    HW239387   3.684   4.525   8.263  1.0567  0.3489  1.0682
 9251SOL     OW39388   2.983   1.965   9.060  0.1080  0.4162 -0.3220
 9251SOL    HW139389   2.994   1.939   8.969  0.4592  0.4532 -0.2909
 9251SOL    HW239390   3.060   2.018   9.080  1.1836 -1.3651  0.3518
 9252SOL     OW39391   1.030   1.067   1.310  0.7311 -0.1737  0.0621
 9252SOL    HW139392   1.117   1.045   1.277  0.1722 -1.8777 -0.2992
 9252SOL    HW239393   1.056   1.081   1.401  2.0007 -3.1876  0.1917
 9253SOL     OW39394   0.940   1.542   4.550  0.7557 -0.0196  0.1921
 9253SOL    HW139395   0.934   1.638   4.546  0.6863  0.0007  0.9308
 9253SOL    HW239396   1.035   1.534   4.547  0.9935  2.2609  1.1054
 9254SOL     OW39397   2.043   2.823   7.536  0.0508  0.2767  0.1405
 9254SOL    HW139398   1.992   2.742   7.534  0.0465  0.2428  1.8436
 9254SOL    HW239399   2.032   2.839   7.630 -2.4822  0.1485 -0.1216
 9255SOL     OW39400   2.085   1.884   7.444 -0.4356 -0.2934  0.2549
 9255SOL    HW139401   2.138   1.853   7.371 -0.7830  1.0650 -0.5751
 9255SOL    HW239402   2.005   1.892   7.394 -0.7105  1.5321  0.9952
 9256SOL     OW39403   1.387   2.359   8.944 -0.0933  0.6501 -0.4136
 9256SOL    HW139404   1.420   2.271   8.923 -0.8678  0.7193 -1.8872
 9256SOL    HW239405   1.339   2.376   8.863  0.1556  0.3103 -0.6304
 9257SOL     OW39406   4.153   3.264  11.917 -0.2279 -0.1568  0.1180
 9257SOL    HW139407   4.073   3.237  11.962 -0.4331  0.8445  0.3444
 9257SOL    HW239408   4.189   3.176  11.931 -3.2228 -1.0161  2.4248
 9258SOL     OW39409   1.984   2.273   6.921 -0.2394 -0.0227  0.1381
 9258SOL    HW139410   1.917   2.205   6.913 -0.4770  0.0996  1.0859
 9258SOL    HW239411   1.959   2.308   7.006  2.7564  1.0739  0.5484
 9259SOL     OW39412   0.911   4.627   6.869 -0.1611  0.3187 -0.2798
 9259SOL    HW139413   0.908   4.636   6.964 -0.1336  1.0124 -0.3463
 9259SOL    HW239414   0.914   4.532   6.861  2.7599  0.3056  0.9334
 9260SOL     OW39415   3.437   0.998   4.258  0.3984 -0.2572 -0.6821
 9260SOL    HW139416   3.510   1.057   4.276  0.5507 -0.7180  0.2566
 9260SOL    HW239417   3.457   0.971   4.169 -0.4821  0.4538 -1.0909
 9261SOL     OW39418   0.357   3.935   6.171 -0.0542 -0.0425  0.4807
 9261SOL    HW139419   0.285   3.873   6.184 -0.0849 -0.3728 -1.2217
 9261SOL    HW239420   0.391   3.936   6.260 -1.1027  1.8342  0.8514
 9262SOL     OW39421   3.285   1.832  12.764  0.0889  0.0857  0.0343
 9262SOL    HW139422   3.297   1.840  12.858 -1.9440  1.0004  0.2222
 9262SOL    HW239423   3.375   1.833  12.733 -0.8007 -0.1261 -2.6076
 9263SOL     OW39424   0.628   2.508  13.075  0.5572  0.2327  0.3203
 9263SOL    HW139425   0.552   2.566  13.086  0.1400 -0.3881  0.6961
 9263SOL    HW239426   0.657   2.534  12.987 -2.7867  0.7009 -0.6628
 9264SOL     OW39427   4.274   2.249   9.094 -0.4005 -0.2651  0.3995
 9264SOL    HW139428   4.296   2.312   9.163  0.0644  0.1028 -0.0874
 9264SOL    HW239429   4.228   2.177   9.137  0.3236 -0.8620  0.1694
 9265SOL     OW39430   0.460   1.964   2.692  0.1583  0.7950 -0.1081
 9265SOL    HW139431   0.387   1.964   2.753  0.9727 -0.7974  0.8596
 9265SOL    HW239432   0.444   2.038   2.633 -1.8110  0.0754 -0.4459
 9266SOL     OW39433   0.946   2.288  12.539 -0.0957  0.2360  0.0815
 9266SOL    HW139434   0.964   2.311  12.630  0.6617  0.8316 -0.2234
 9266SOL    HW239435   0.988   2.203  12.530  1.5365  1.1114 -0.4744
 9267SOL     OW39436   2.362   3.096   6.048 -0.4077 -0.1546 -0.2042
 9267SOL    HW139437   2.401   3.130   5.967 -0.7436  1.0726  0.1577
 9267SOL    HW239438   2.291   3.043   6.013 -0.8834  0.7600 -0.6288
 9268SOL     OW39439   4.194   1.434   4.907 -0.0256 -0.5995  0.5833
 9268SOL    HW139440   4.218   1.456   4.818 -0.8301 -1.4405  0.1537
 9268SOL    HW239441   4.101   1.453   4.919 -0.2138  0.3597 -2.4327
 9269SOL     OW39442   1.104   4.549   3.937 -0.5715  0.5279  0.1253
 9269SOL    HW139443   1.109   4.645   3.944  0.5094  0.4906 -0.0927
 9269SOL    HW239444   1.074   4.518   3.852 -0.8869 -1.3031  0.9165
 9270SOL     OW39445   2.451   1.118   1.077 -0.0423 -0.1978 -0.1233
 9270SOL    HW139446   2.530   1.075   1.043 -0.0117 -1.0829  1.0596
 9270SOL    HW239447   2.472   1.207   1.107  0.9183 -0.1704 -0.8770
 9271SOL     OW39448   3.512   4.625   6.411  0.2333 -0.0301 -0.5559
 9271SOL    HW139449   3.457   4.617   6.333 -1.6982 -0.0901  0.8159
 9271SOL    HW239450   3.589   4.662   6.369 -1.5313  2.3213 -1.6496
 9272SOL     OW39451   0.103   2.701  13.543  0.0426 -0.4535 -0.2382
 9272SOL    HW139452   0.067   2.757  13.612  0.0721  0.9039 -1.3485
 9272SOL    HW239453   0.119   2.618  13.589  3.0712 -0.4938 -1.3861
 9273SOL     OW39454   1.401   2.979   5.767 -0.3108 -0.2618  0.4672
 9273SOL    HW139455   1.375   3.058   5.814 -0.9448  1.0980 -2.1881
 9273SOL    HW239456   1.365   3.006   5.682  0.5414 -0.0045  0.1876
 9274SOL     OW39457   1.796   2.045   7.202 -0.1710 -0.2287 -0.1677
 9274SOL    HW139458   1.843   1.964   7.225  0.6760  0.5602  0.8555
 9274SOL    HW239459   1.729   1.998   7.151  0.8549 -0.2217 -1.5352
 9275SOL     OW39460   0.046   3.503   6.811 -0.3633 -0.1999  0.0697
 9275SOL    HW139461   0.059   3.523   6.904  1.0057  2.3681 -0.6800
 9275SOL    HW239462   4.700   3.454   6.814 -1.1983  1.1546 -0.8442
 9276SOL     OW39463   2.903   1.042   9.140  0.2731 -0.1346  0.1670
 9276SOL    HW139464   2.815   1.038   9.178 -0.1802 -3.1020 -1.1602
 9276SOL    HW239465   2.901   1.124   9.091  1.1410 -0.5414 -0.5530
 9277SOL     OW39466   2.405   3.630   1.297  0.5831 -0.2605  0.3513
 9277SOL    HW139467   2.384   3.562   1.362 -1.6315  1.8651  1.9019
 9277SOL    HW239468   2.440   3.579   1.224 -0.4935  0.1395 -0.4448
 9278SOL     OW39469   3.287   4.540   4.697 -0.1426 -0.2847 -0.3595
 9278SOL    HW139470   3.368   4.533   4.647  0.6245 -3.9924  1.4079
 9278SOL    HW239471   3.284   4.453   4.737  2.2422 -0.3101 -0.2413
 9279SOL     OW39472   1.115   0.172   5.887  0.1783  0.2207  0.0189
 9279SOL    HW139473   1.121   0.207   5.798  0.1497 -1.8207 -0.7808
 9279SOL    HW239474   1.126   0.260   5.923  0.5652  0.4493 -0.6473
 9280SOL     OW39475   0.794   3.496   8.725 -0.0583  0.7597 -0.1908
 9280SOL    HW139476   0.860   3.433   8.753  0.5085  0.8286 -1.4125
 9280SOL    HW239477   0.735   3.457   8.661  0.3540  0.0038 -0.1106
 9281SOL     OW39478   2.520   3.162   1.851  0.4098  0.0116 -0.2076
 9281SOL    HW139479   2.451   3.104   1.885  1.5322 -0.4218  1.3377
 9281SOL    HW239480   2.586   3.132   1.913 -0.1235 -1.5461 -0.3780
 9282SOL     OW39481   0.398   4.084   0.854 -0.0418 -0.2950 -0.0903
 9282SOL    HW139482   0.481   4.127   0.833 -0.6801  0.6037 -0.7584
 9282SOL    HW239483   0.394   4.113   0.945  1.0301 -2.4515  0.6538
 9283SOL     OW39484   2.027   2.485   2.441  0.2970 -0.0062 -0.1378
 9283SOL    HW139485   2.070   2.416   2.491 -0.7608 -0.0634  0.7083
 9283SOL    HW239486   2.102   2.526   2.400 -0.0455 -2.0143 -2.7511
 9284SOL     OW39487   1.548   3.539   6.599  0.1022 -0.1320 -0.1500
 9284SOL    HW139488   1.630   3.539   6.549 -0.1213 -1.8478 -0.5021
 9284SOL    HW239489   1.499   3.591   6.535  2.7242 -0.4999 -2.4742
 9285SOL     OW39490   0.123   2.175  14.262 -0.6188 -0.2885  0.0834
 9285SOL    HW139491   0.216   2.198  14.256 -0.6490 -0.3144 -0.4030
 9285SOL    HW239492   0.108   2.159  14.356  0.7220 -0.2222  0.3104
 9286SOL     OW39493   1.273   4.329   2.654  0.1427 -0.4923  0.1061
 9286SOL    HW139494   1.217   4.388   2.604  2.0884  1.4708  0.2544
 9286SOL    HW239495   1.363   4.346   2.628 -0.1190 -1.2159 -1.2520
 9287SOL     OW39496   1.694   2.952   5.249 -0.2816  0.0694 -0.2454
 9287SOL    HW139497   1.687   2.906   5.166 -3.1376  1.8668 -1.0211
 9287SOL    HW239498   1.629   3.016   5.222 -1.3932 -1.2124 -0.6187
 9288SOL     OW39499   3.886   2.638   6.890 -0.4616 -0.1624 -0.3637
 9288SOL    HW139500   3.886   2.592   6.973  1.7787 -0.0030 -0.2709
 9288SOL    HW239501   3.841   2.720   6.907  1.3647  0.9022 -0.6246
 9289SOL     OW39502   4.324   2.375   5.640 -0.1424 -0.0465  0.0491
 9289SOL    HW139503   4.347   2.296   5.592  3.6904  1.6887 -0.9920
 9289SOL    HW239504   4.249   2.405   5.589 -0.2091  0.1956  0.2884
 9290SOL     OW39505   0.460   0.494   5.776 -0.4694 -0.0769  0.5612
 9290SOL    HW139506   0.449   0.465   5.867 -0.6553  0.4571  0.7105
 9290SOL    HW239507   0.470   0.410   5.731 -2.0939 -0.2946  0.6284
 9291SOL     OW39508   3.445   3.422   2.483  0.2854 -0.3228 -0.0887
 9291SOL    HW139509   3.362   3.378   2.467 -0.0207 -0.5256  2.0950
 9291SOL    HW239510   3.412   3.501   2.525 -0.6336 -0.5266 -0.4388
 9292SOL     OW39511   0.926   2.665   2.038  0.7122  0.0553  0.0792
 9292SOL    HW139512   0.984   2.601   1.996  0.1102 -1.8221  2.0852
 9292SOL    HW239513   0.856   2.664   1.973  1.3202 -0.4252 -0.5648
 9293SOL     OW39514   2.364   2.120   3.757  0.0615 -0.6411 -0.0406
 9293SOL    HW139515   2.283   2.094   3.712 -1.3056 -0.2510  2.1998
 9293SOL    HW239516   2.416   2.040   3.750 -0.9852 -1.3196 -0.1357
 9294SOL     OW39517   0.790   3.514   5.739 -0.2907  0.4428  0.1444
 9294SOL    HW139518   0.713   3.463   5.764 -0.9622  1.0432 -0.7012
 9294SOL    HW239519   0.842   3.512   5.820 -0.5996  2.3409  0.3985
 9295SOL     OW39520   0.964   3.128   8.920  0.5226 -0.3124 -0.1771
 9295SOL    HW139521   0.971   3.175   9.004 -0.5129  0.1798 -0.3635
 9295SOL    HW239522   1.003   3.045   8.947 -1.2370 -0.5543  1.5969
 9296SOL     OW39523   0.685   1.399   4.237 -0.2274 -0.1870 -0.4525
 9296SOL    HW139524   0.601   1.354   4.241 -0.3945  0.2818  1.4490
 9296SOL    HW239525   0.718   1.388   4.326  1.3897  0.8905 -0.9242
 9297SOL     OW39526   0.843   3.023   4.160 -0.2198  0.0122 -0.0421
 9297SOL    HW139527   0.930   2.986   4.149 -1.2303 -2.1715 -0.6647
 9297SOL    HW239528   0.851   3.054   4.251 -0.0879  2.6418 -0.9567
 9298SOL     OW39529   2.745   3.733   4.048 -0.5661  0.3517 -0.3504
 9298SOL    HW139530   2.802   3.810   4.053  0.9264 -0.6972 -1.3199
 9298SOL    HW239531   2.760   3.710   4.139  1.5749 -0.5722 -0.9293
 9299SOL     OW39532   2.660   2.502   9.453  0.0175  0.0603 -0.0190
 9299SOL    HW139533   2.615   2.576   9.412 -0.7049 -0.6476 -0.4912
 9299SOL    HW239534   2.729   2.546   9.503 -1.4804  0.5901  1.5875
 9300SOL     OW39535   4.591   1.671  11.772  0.4283  0.3287  0.5044
 9300SOL    HW139536   4.637   1.657  11.690 -0.1714 -0.3234  0.2840
 9300SOL    HW239537   4.638   1.610  11.828  2.5319  0.3144 -1.2823
 9301SOL     OW39538   4.044   1.816   3.620  0.3695  0.4301 -0.1085
 9301SOL    HW139539   4.050   1.810   3.715  0.1310 -2.7245 -0.2885
 9301SOL    HW239540   3.963   1.865   3.607  0.7767  0.7139 -1.6517
 9302SOL     OW39541   2.670   4.016   5.707  0.0662  0.3358  0.3282
 9302SOL    HW139542   2.626   4.046   5.627  1.9251 -0.5993 -1.0488
 9302SOL    HW239543   2.760   4.047   5.697 -0.3340  0.9285 -1.5072
 9303SOL     OW39544   0.446   3.161   4.519  0.0660  0.4850  0.3901
 9303SOL    HW139545   0.522   3.149   4.575 -0.8312  0.4873  1.6034
 9303SOL    HW239546   0.421   3.252   4.535 -0.1458  0.7171 -1.1859
 9304SOL     OW39547   3.219   3.179   9.958 -0.0090 -0.5135  0.8532
 9304SOL    HW139548   3.312   3.203   9.956  0.6019 -3.1672 -2.2014
 9304SOL    HW239549   3.229   3.099  10.009  0.3737  0.0516  1.6631
 9305SOL     OW39550   3.307   0.173   7.954 -0.6104 -0.0871 -0.3872
 9305SOL    HW139551   3.264   0.244   8.001  1.9747  2.6895 -2.2330
 9305SOL    HW239552   3.276   0.091   7.994  1.3881 -0.0399  1.2528
 9306SOL     OW39553   3.642   1.488   9.070 -0.2423 -0.3326  0.1241
 9306SOL    HW139554   3.706   1.527   9.011  0.0766 -1.5178 -0.3207
 9306SOL    HW239555   3.597   1.447   8.996 -0.2834  1.4387 -0.8142
 9307SOL     OW39556   3.099   4.099  14.704 -0.6036 -0.1330  0.1491
 9307SOL    HW139557   3.134   4.047  14.777 -1.2586 -1.3394 -0.4021
 9307SOL    HW239558   3.024   4.044  14.680 -0.5535  0.0873 -0.5197
 9308SOL     OW39559   2.982   3.586  15.954 -0.4670  0.0376 -0.3654
 9308SOL    HW139560   3.005   3.671  15.991 -1.0226 -0.9874  2.3230
 9308SOL    HW239561   3.052   3.528  15.983  0.4336  1.0925 -0.4270
 9309SOL     OW39562   3.636   0.293   3.556 -0.2544  0.4144 -0.3442
 9309SOL    HW139563   3.574   0.229   3.520  0.5140 -0.3447 -0.3240
 9309SOL    HW239564   3.706   0.304   3.492 -0.0922  0.2097 -0.2040
 9310SOL     OW39565   3.546   0.659   5.092 -0.0571  0.8429  0.3163
 9310SOL    HW139566   3.592   0.585   5.052 -0.5320  0.0913  1.1457
 9310SOL    HW239567   3.609   0.729   5.074 -0.5903  1.0766 -0.6067
 9311SOL     OW39568   4.267   1.821   0.197 -0.3769  0.5384 -0.8359
 9311SOL    HW139569   4.195   1.883   0.209 -1.1340 -0.1879 -1.6464
 9311SOL    HW239570   4.342   1.879   0.188  0.1444  0.0589  0.4235
 9312SOL     OW39571   0.891   2.310   5.077 -0.1737 -0.1008 -0.2674
 9312SOL    HW139572   0.818   2.334   5.133 -0.8432  1.0991 -1.6494
 9312SOL    HW239573   0.883   2.215   5.069 -2.5140  0.2426 -1.9038
 9313SOL     OW39574   0.776   2.581   9.939  0.0841 -0.3040  0.2659
 9313SOL    HW139575   0.704   2.611   9.883  1.3896 -0.8639 -1.7495
 9313SOL    HW239576   0.821   2.518   9.883  1.3042 -0.9544  2.0271
 9314SOL     OW39577   4.023   2.801  10.537  0.1530 -0.3934  0.6797
 9314SOL    HW139578   4.041   2.875  10.595  0.8453  0.6367 -0.8256
 9314SOL    HW239579   4.016   2.849  10.454 -0.3317 -2.8330 -0.7136
 9315SOL     OW39580   1.183   3.118  10.445  0.2524  0.1822  0.1295
 9315SOL    HW139581   1.135   3.041  10.477  0.3228 -0.5022 -1.4323
 9315SOL    HW239582   1.143   3.120  10.358 -0.7042 -1.3261  0.5195
 9316SOL     OW39583   3.182   4.635  10.618  0.6104 -0.0698 -0.0058
 9316SOL    HW139584   3.183   4.678  10.533 -0.2538  1.6636  0.8512
 9316SOL    HW239585   3.273   4.656  10.640 -0.5088  2.9708  1.7562
 9317SOL     OW39586   3.473   3.539   2.903 -0.1574  0.1387  0.0980
 9317SOL    HW139587   3.422   3.461   2.882  1.9388 -1.1000 -0.4653
 9317SOL    HW239588   3.489   3.570   2.813 -0.7419  0.2331  0.0290
 9318SOL     OW39589   3.828   3.899   7.808  0.0160 -0.3702  0.3940
 9318SOL    HW139590   3.904   3.855   7.845  2.0179  2.8706  0.1281
 9318SOL    HW239591   3.801   3.944   7.889 -1.2697  1.5331 -1.0982
 9319SOL     OW39592   3.407   1.725   2.912  0.0073 -0.6520 -0.4109
 9319SOL    HW139593   3.376   1.808   2.949  1.3230  0.2348 -1.2863
 9319SOL    HW239594   3.496   1.726   2.946 -0.6120 -0.2299  1.1689
 9320SOL     OW39595   3.875   0.472   0.140  0.4791  0.3087 -0.3102
 9320SOL    HW139596   3.815   0.521   0.197 -1.2113 -1.2144 -0.7605
 9320SOL    HW239597   3.936   0.440   0.206  2.3472  3.8583 -0.3288
 9321SOL     OW39598   4.354   0.842   4.823 -0.1593  0.3582  0.4915
 9321SOL    HW139599   4.282   0.861   4.763  1.6065 -2.0984 -2.4468
 9321SOL    HW239600   4.429   0.879   4.777 -0.6982  0.8241  0.0009
 9322SOL     OW39601   0.074   1.988   4.123  0.2492  0.8250 -0.4441
 9322SOL    HW139602   0.050   1.896   4.129  0.7325  0.7698  0.5978
 9322SOL    HW239603   0.047   2.032   4.042  0.9998  1.0288 -0.5937
 9323SOL     OW39604   1.703   2.763   2.349  0.3686  0.2565  0.4722
 9323SOL    HW139605   1.790   2.803   2.359  2.1597 -4.1727  2.5319
 9323SOL    HW239606   1.720   2.669   2.351 -1.9937 -0.2209 -2.4566
 9324SOL     OW39607   0.845   0.386   9.132  0.9899  0.0173  0.4838
 9324SOL    HW139608   0.787   0.416   9.062 -0.4229  0.0265  1.6500
 9324SOL    HW239609   0.807   0.437   9.204  1.7329 -1.5670  2.0077
 9325SOL     OW39610   0.670   2.124   9.870  0.1287 -0.0504 -0.1283
 9325SOL    HW139611   0.698   2.173   9.947 -0.2932  0.6842 -0.4452
 9325SOL    HW239612   0.634   2.043   9.906  0.8784  0.2500  1.2904
 9326SOL     OW39613   2.558   0.207   6.419  0.3545  0.5450  0.6717
 9326SOL    HW139614   2.581   0.295   6.389 -2.5261  0.8439 -0.7751
 9326SOL    HW239615   2.482   0.185   6.364  1.3641 -0.1888 -0.4215
 9327SOL     OW39616   2.379   4.082  14.553  0.3838 -0.6497  0.4321
 9327SOL    HW139617   2.323   4.132  14.493  0.2167  0.9051  1.9005
 9327SOL    HW239618   2.313   4.071  14.622 -0.1419  0.1767  0.0619
 9328SOL     OW39619   1.349   2.893   8.926 -0.0497  0.1522  0.2837
 9328SOL    HW139620   1.356   2.949   9.004 -0.2627 -0.5905  0.8440
 9328SOL    HW239621   1.341   2.809   8.972  2.6622  0.6588  1.7297
 9329SOL     OW39622   3.971   1.418   3.900  0.1382  0.2936 -0.1513
 9329SOL    HW139623   3.956   1.512   3.898  1.3238  0.4716 -0.8088
 9329SOL    HW239624   3.888   1.376   3.876 -0.1389  1.4909 -1.3110
 9330SOL     OW39625   1.289   4.421   6.264 -0.8223 -0.2613 -0.2391
 9330SOL    HW139626   1.247   4.468   6.192  0.1236  0.4291 -0.3447
 9330SOL    HW239627   1.382   4.437   6.247 -0.9493  0.5242 -0.1926
 9331SOL     OW39628   4.317   1.578   5.083  0.6934  0.0673 -0.4344
 9331SOL    HW139629   4.289   1.515   5.017 -0.7097 -0.1393  0.3560
 9331SOL    HW239630   4.380   1.529   5.137  0.2131 -1.4015 -1.1966
 9332SOL     OW39631   3.238   1.473   5.430  0.2042  0.1876  0.6569
 9332SOL    HW139632   3.195   1.530   5.367 -0.7516 -0.2213  0.9412
 9332SOL    HW239633   3.268   1.540   5.492 -0.6358 -0.5879  1.9007
 9333SOL     OW39634   3.654   3.696   4.644  0.9752 -0.1622  0.0451
 9333SOL    HW139635   3.732   3.744   4.619  1.1668 -0.5364 -0.0749
 9333SOL    HW239636   3.664   3.622   4.584 -2.0082 -1.5870  1.3066
 9334SOL     OW39637   4.457   2.788   8.402 -0.1125  0.1604 -0.1123
 9334SOL    HW139638   4.459   2.862   8.462  0.1365 -0.7585  0.9956
 9334SOL    HW239639   4.411   2.840   8.336  0.0872  2.8037  1.8288
 9335SOL     OW39640   2.193   0.090   9.571  0.0360 -0.3102  0.3762
 9335SOL    HW139641   2.117   0.147   9.583 -0.4394 -0.7619 -0.5422
 9335SOL    HW239642   2.207   0.081   9.477 -0.6646  0.8120  0.1657
 9336SOL     OW39643   1.268   3.044  15.545  0.3970 -0.2759 -0.2118
 9336SOL    HW139644   1.253   3.091  15.463  0.5787 -0.6797 -0.4783
 9336SOL    HW239645   1.322   3.112  15.586  0.6826 -0.3985 -0.3891
 9337SOL     OW39646   1.868   4.294   0.383  0.0996 -0.3971 -0.8776
 9337SOL    HW139647   1.874   4.215   0.435 -0.6248  1.1770  1.6037
 9337SOL    HW239648   1.807   4.262   0.317  0.0310 -0.5954 -0.7162
 9338SOL     OW39649   4.563   0.436   1.863  0.0852  0.2328 -0.4418
 9338SOL    HW139650   4.621   0.434   1.940 -0.5574  0.6136  0.0477
 9338SOL    HW239651   4.571   0.352   1.818 -0.2023  0.9752 -1.8630
 9339SOL     OW39652   1.578   0.931   9.145  0.1405 -0.6311  0.5569
 9339SOL    HW139653   1.483   0.929   9.151  0.1030 -2.4757 -0.5113
 9339SOL    HW239654   1.596   0.868   9.216 -0.7038 -0.9151  0.5178
 9340SOL     OW39655   0.655   2.114   6.662 -0.3921  0.2531  0.3224
 9340SOL    HW139656   0.637   2.057   6.737  1.0396 -1.4889 -0.6384
 9340SOL    HW239657   0.750   2.124   6.670 -0.2291 -0.2668 -0.8638
 9341SOL     OW39658   0.101   0.819   7.784 -0.2345 -0.0222  0.0525
 9341SOL    HW139659   0.127   0.767   7.860 -0.3429  1.6485  1.2190
 9341SOL    HW239660   0.113   0.908   7.815 -1.6270 -0.1103  0.8467
 9342SOL     OW39661   2.908   0.607   4.920 -0.3654 -0.1596 -0.1983
 9342SOL    HW139662   2.948   0.579   4.837 -0.8314  2.3055 -1.2698
 9342SOL    HW239663   2.826   0.644   4.887 -0.9180 -0.3336  0.9799
 9343SOL     OW39664   0.502   4.693   1.894 -0.0271  0.2397  0.1487
 9343SOL    HW139665   0.477   4.616   1.843 -0.7998  0.1923  0.5962
 9343SOL    HW239666   0.519   4.655   1.981 -2.3605 -0.6750  0.2175
 9344SOL     OW39667   3.139   4.270  10.307 -0.0249 -0.8959  0.3886
 9344SOL    HW139668   3.120   4.251  10.215  1.2395 -1.5263  0.2472
 9344SOL    HW239669   3.048   4.279  10.334 -1.0040  0.1351 -3.1641
 9345SOL     OW39670   0.632   2.281  13.241 -0.3098  0.4603  0.5563
 9345SOL    HW139671   0.639   2.365  13.194 -0.6965 -0.2058 -0.6972
 9345SOL    HW239672   0.540   2.273  13.265 -0.1407  0.1179  1.0777
 9346SOL     OW39673   3.467   3.543   5.746 -0.0011 -0.4116  0.1803
 9346SOL    HW139674   3.503   3.498   5.670 -1.5317 -0.2094 -0.6608
 9346SOL    HW239675   3.521   3.497   5.811  0.0997  0.7553  0.9258
 9347SOL     OW39676   1.106   2.791   5.777  0.1425  0.3593  0.0696
 9347SOL    HW139677   1.038   2.812   5.841 -0.7485 -0.0210 -0.7545
 9347SOL    HW239678   1.094   2.868   5.722  1.3768  1.1068  0.8432
 9348SOL     OW39679   4.029   1.303  13.061 -0.4772  0.4500  0.0916
 9348SOL    HW139680   4.071   1.389  13.061  1.0100 -0.2675 -3.0535
 9348SOL    HW239681   3.940   1.331  13.043 -0.6378 -0.0206  0.1428
 9349SOL     OW39682   1.001   0.914   3.006 -0.0684 -0.4055 -0.2477
 9349SOL    HW139683   1.056   0.862   3.065 -2.1443 -0.4991  1.6169
 9349SOL    HW239684   0.960   0.984   3.058 -0.4637 -1.0047  0.2543
 9350SOL     OW39685   0.786   1.032   6.317  0.5409  0.1351  0.0370
 9350SOL    HW139686   0.722   0.968   6.347  1.5512 -1.3147 -0.8332
 9350SOL    HW239687   0.762   1.103   6.376  1.6415  0.2399  0.3540
 9351SOL     OW39688   3.660   1.817  17.299  1.0870  0.2696 -0.8363
 9351SOL    HW139689   3.583   1.801  17.353  1.8893 -1.2294 -0.1425
 9351SOL    HW239690   3.643   1.765  17.220  0.2053  0.0835 -0.5237
 9352SOL     OW39691   4.198   0.043   2.621 -0.2351 -0.1685  0.0268
 9352SOL    HW139692   4.129   4.713   2.613 -0.2843 -0.2102  0.8336
 9352SOL    HW239693   4.220   0.067   2.531 -0.4104 -0.2327 -0.0335
 9353SOL     OW39694   3.469   0.285  12.168 -0.3892 -0.3267 -0.5114
 9353SOL    HW139695   3.396   0.257  12.223  0.0185  1.6356  1.0192
 9353SOL    HW239696   3.519   0.206  12.189  0.3808 -0.0992 -1.4736
 9354SOL     OW39697   1.003   2.046  11.301 -0.2808 -0.4138 -0.5042
 9354SOL    HW139698   1.022   2.100  11.225  0.2156 -1.3605 -1.0462
 9354SOL    HW239699   0.916   2.081  11.322 -0.5741 -1.6135  0.2594
 9355SOL     OW39700   3.767   4.148   9.437  0.2936 -0.2307 -0.0831
 9355SOL    HW139701   3.735   4.061   9.413 -2.0440  0.7140 -0.3878
 9355SOL    HW239702   3.815   4.178   9.360  0.3128  0.3862  0.1713
 9356SOL     OW39703   3.537   1.109   3.420 -0.7377 -0.3174 -0.8269
 9356SOL    HW139704   3.456   1.118   3.370 -1.4344 -0.2713  0.3206
 9356SOL    HW239705   3.503   1.110   3.509 -1.7808 -0.4990 -1.2135
 9357SOL     OW39706   3.936   1.463  11.644  0.7732 -0.4248 -0.7923
 9357SOL    HW139707   4.005   1.408  11.608  0.3000 -1.5901  0.0972
 9357SOL    HW239708   3.857   1.410  11.645  1.4959 -1.4984 -1.0123
 9358SOL     OW39709   0.641   0.184  15.399 -0.2927  0.1367 -0.0397
 9358SOL    HW139710   0.735   0.198  15.402 -0.5275  1.1591  3.0961
 9358SOL    HW239711   0.623   0.185  15.493 -0.1860  2.3913 -0.0574
 9359SOL     OW39712   4.473   0.157   8.068 -0.2653  0.3430  0.5575
 9359SOL    HW139713   4.518   0.240   8.053 -1.6760  1.3807  2.0821
 9359SOL    HW239714   4.412   0.187   8.135 -0.8190  0.9951 -0.2299
 9360SOL     OW39715   0.003   0.963   8.922  0.4233 -0.4339  0.0420
 9360SOL    HW139716   0.040   1.039   8.966  0.8938 -0.8420  0.3615
 9360SOL    HW239717   4.647   0.978   8.942  0.4750  1.0942 -0.8999
 9361SOL     OW39718   2.501   0.139   2.587  0.5231 -0.5702  0.0392
 9361SOL    HW139719   2.461   0.221   2.614 -1.8724 -0.7768 -2.7844
 9361SOL    HW239720   2.426   0.078   2.585 -0.1600  0.2181  1.5549
 9362SOL     OW39721   2.029   2.526   7.616  0.3226  0.3464 -0.2940
 9362SOL    HW139722   2.046   2.500   7.526 -1.0067  0.5163 -0.6055
 9362SOL    HW239723   1.934   2.512   7.618  0.4060 -0.0077  1.2695
 9363SOL     OW39724   2.486   2.252   7.153  0.1396 -0.2604  0.8059
 9363SOL    HW139725   2.407   2.303   7.136  0.4183 -0.2285 -0.3812
 9363SOL    HW239726   2.553   2.320   7.144 -0.5460  0.1736 -1.0339
 9364SOL     OW39727   1.089   1.436   6.447  0.0427  0.0696  0.4332
 9364SOL    HW139728   1.074   1.341   6.453  0.5003  0.0278  0.9169
 9364SOL    HW239729   1.121   1.443   6.357 -1.7858  1.0842 -0.1351
 9365SOL     OW39730   3.115   2.180   4.456 -0.2288  0.4645 -0.2857
 9365SOL    HW139731   3.052   2.239   4.416  0.8393  2.7639  1.4317
 9365SOL    HW239732   3.060   2.102   4.466  2.3697 -1.5154 -1.6495
 9366SOL     OW39733   0.559   4.477   7.931  0.0726 -0.1893 -0.3807
 9366SOL    HW139734   0.626   4.528   7.976  0.8248 -1.6551  0.1954
 9366SOL    HW239735   0.614   4.434   7.865 -0.4942 -2.2888  0.4928
 9367SOL     OW39736   0.138   4.352   6.338  0.2905 -0.7878 -0.4811
 9367SOL    HW139737   0.138   4.430   6.282  0.7604  1.1890  2.2519
 9367SOL    HW239738   0.162   4.379   6.427 -1.4988  1.2982 -0.6164
 9368SOL     OW39739   3.294   2.582   9.704 -0.2279  0.2032  0.1603
 9368SOL    HW139740   3.382   2.616   9.692 -0.8157  1.1177 -1.5284
 9368SOL    HW239741   3.242   2.609   9.628 -0.4121 -0.0461  0.1964
 9369SOL     OW39742   3.341   3.013   1.099 -0.5241  0.4827  0.4348
 9369SOL    HW139743   3.266   2.963   1.132 -1.0423  1.5134  0.8136
 9369SOL    HW239744   3.296   3.066   1.034 -2.2511 -1.1282  0.3268
 9370SOL     OW39745   4.539   0.198   1.055  0.1311 -0.5122 -0.3874
 9370SOL    HW139746   4.463   0.148   1.086  1.2018 -1.3200  0.9525
 9370SOL    HW239747   4.508   0.288   1.062 -0.0402 -0.6871  1.2719
 9371SOL     OW39748   3.657   1.064   8.922  0.1395 -0.1250 -0.0290
 9371SOL    HW139749   3.734   1.027   8.879  0.4191 -1.1380  1.3287
 9371SOL    HW239750   3.594   1.048   8.852  2.7380 -1.8149 -1.9820
 9372SOL     OW39751   2.086   1.476   6.693  0.1846 -0.1690  0.1874
 9372SOL    HW139752   2.147   1.448   6.625 -0.3243  1.8979 -1.1275
 9372SOL    HW239753   2.015   1.419   6.663  0.1016 -0.0638  0.1835
 9373SOL     OW39754   3.722   2.521   5.877 -0.1387  0.9106 -0.1753
 9373SOL    HW139755   3.649   2.488   5.823 -0.5335  0.4369  0.6566
 9373SOL    HW239756   3.793   2.520   5.813  0.9215  0.5263  1.0084
 9374SOL     OW39757   0.188   4.412   6.589  0.1274 -0.5509 -0.5856
 9374SOL    HW139758   0.151   4.501   6.597 -1.3991 -1.2706  0.4586
 9374SOL    HW239759   0.244   4.390   6.664 -2.3170 -0.1316  1.3905
 9375SOL     OW39760   2.683   0.515   8.818 -0.1782 -0.5406 -0.6542
 9375SOL    HW139761   2.714   0.605   8.824 -0.6442 -0.3029 -1.7121
 9375SOL    HW239762   2.615   0.528   8.885  0.8455 -0.7209  0.4185
 9376SOL     OW39763   0.587   3.170   6.411 -0.5610  0.4542  0.6101
 9376SOL    HW139764   0.545   3.229   6.349  0.7848  0.0575 -0.6834
 9376SOL    HW239765   0.519   3.175   6.478 -1.6897 -2.5787 -0.2842
 9377SOL     OW39766   1.525   3.689   2.097  0.1181 -0.4702 -0.5377
 9377SOL    HW139767   1.548   3.603   2.131 -1.4801 -0.7768 -0.2143
 9377SOL    HW239768   1.612   3.709   2.063 -0.9747  0.8045 -2.5645
 9378SOL     OW39769   2.041   0.869   6.392 -0.0678 -0.2129 -0.3894
 9378SOL    HW139770   2.118   0.865   6.335  1.0953  2.1082  1.0126
 9378SOL    HW239771   2.074   0.852   6.480 -1.9796  0.9034  0.5532
 9379SOL     OW39772   4.371   1.124  11.032 -0.3026 -0.6989  0.2169
 9379SOL    HW139773   4.316   1.141  11.109 -0.0254 -0.4152  0.3544
 9379SOL    HW239774   4.412   1.040  11.053  0.8009 -0.1383  0.3131
 9380SOL     OW39775   0.342   1.225  16.482  0.4391  0.4970  0.4841
 9380SOL    HW139776   0.299   1.148  16.518 -0.8347  0.1368 -1.7982
 9380SOL    HW239777   0.427   1.190  16.454 -0.9316 -1.6302 -1.0519
 9381SOL     OW39778   3.710   2.310  13.348 -0.2196 -0.3072  0.3345
 9381SOL    HW139779   3.651   2.249  13.392  0.7427 -1.1248  0.5167
 9381SOL    HW239780   3.696   2.390  13.398  0.4140  0.8611 -1.3709
 9382SOL     OW39781   1.825   0.698  10.010  0.4308 -0.1621  0.2627
 9382SOL    HW139782   1.829   0.653   9.925  0.5356  0.3387  0.0029
 9382SOL    HW239783   1.783   0.779   9.982  2.0964  0.8117  0.5633
 9383SOL     OW39784   2.638   3.942  17.136  0.6430  0.3811  0.3760
 9383SOL    HW139785   2.699   3.968  17.067 -0.8186 -0.7923 -1.3402
 9383SOL    HW239786   2.643   3.847  17.127  2.3010  0.3066  2.1859
 9384SOL     OW39787   1.332   4.103   1.896 -1.3239 -0.3533 -0.3944
 9384SOL    HW139788   1.254   4.048   1.904 -2.1800  1.0835  1.0175
 9384SOL    HW239789   1.393   4.063   1.958 -0.6314  2.0633  0.4894
 9385SOL     OW39790   0.486   2.611   3.589 -0.0365  0.2373  0.1712
 9385SOL    HW139791   0.427   2.661   3.644 -0.7913 -1.7769  1.2016
 9385SOL    HW239792   0.437   2.529   3.583 -1.5277  1.2905 -1.8793
 9386SOL     OW39793   2.825   4.397   3.278 -0.3333  0.6256 -0.2908
 9386SOL    HW139794   2.745   4.361   3.317 -0.3463  1.1314  0.1688
 9386SOL    HW239795   2.815   4.365   3.189  1.2834  1.7932 -0.8870
 9387SOL     OW39796   4.460   3.503  16.428 -0.9054  0.3838 -0.0453
 9387SOL    HW139797   4.504   3.437  16.480 -1.2219  2.1326  2.4429
 9387SOL    HW239798   4.528   3.531  16.366  0.8940  0.6959  2.0572
 9388SOL     OW39799   1.314   3.163   7.387 -0.0980  0.5404  0.1115
 9388SOL    HW139800   1.395   3.187   7.433 -0.5529  2.3045  0.0026
 9388SOL    HW239801   1.274   3.249   7.370 -0.7442  0.0317 -0.9618
 9389SOL     OW39802   3.769   1.430   6.543 -0.8956 -0.2981 -1.0049
 9389SOL    HW139803   3.858   1.461   6.563 -1.9806  1.6142  0.9018
 9389SOL    HW239804   3.713   1.507   6.554 -0.6793 -0.6105  2.1365
 9390SOL     OW39805   0.937   4.581   1.081  0.1661 -0.2420  0.1674
 9390SOL    HW139806   0.987   4.656   1.049 -1.1533  1.1856  1.4405
 9390SOL    HW239807   0.854   4.605   1.040 -0.4540  0.6948  1.9919
 9391SOL     OW39808   0.349   0.929   8.789 -0.4289 -0.2066 -0.1952
 9391SOL    HW139809   0.400   1.006   8.764 -0.6545 -0.2789 -0.8758
 9391SOL    HW239810   0.258   0.953   8.775 -0.8707 -1.4057  0.6704
 9392SOL     OW39811   0.571   2.545   4.937 -0.0849 -0.0750  0.5495
 9392SOL    HW139812   0.483   2.558   4.973 -0.2225 -0.7848  0.4742
 9392SOL    HW239813   0.617   2.506   5.011  1.6920  3.3843  1.2484
 9393SOL     OW39814   3.533   0.818   5.534  0.1240  0.4487  0.2054
 9393SOL    HW139815   3.501   0.899   5.493  0.9804 -0.2542 -1.8942
 9393SOL    HW239816   3.612   0.847   5.579 -1.2848 -0.4045  3.2421
 9394SOL     OW39817   2.341   3.428  17.511  0.2203  0.1216 -0.2352
 9394SOL    HW139818   2.377   3.515  17.494 -0.7876  0.5797 -0.0257
 9394SOL    HW239819   2.250   3.456  17.522  0.6286  1.4960 -0.2958
 9395SOL     OW39820   1.230   3.313   4.137  0.5169 -0.2191  0.3462
 9395SOL    HW139821   1.175   3.283   4.065 -0.4450  1.9081  0.1720
 9395SOL    HW239822   1.185   3.395   4.157  0.4526  0.2226 -1.6861
 9396SOL     OW39823   0.630   0.489   9.017  0.0042  0.1651 -0.1107
 9396SOL    HW139824   0.618   0.456   8.928  1.9893  0.7596 -0.5890
 9396SOL    HW239825   0.642   0.584   9.008  0.7280 -0.0849 -1.6608
 9397SOL     OW39826   2.262   1.176   5.162  0.1027 -0.1108  0.1307
 9397SOL    HW139827   2.264   1.271   5.163  1.6849 -0.1332 -2.0260
 9397SOL    HW239828   2.236   1.154   5.252  1.4345  0.7854  0.7398
 9398SOL     OW39829   2.453   0.575   2.586  0.0841 -0.1431  0.1475
 9398SOL    HW139830   2.393   0.561   2.513 -1.1693  1.0420  0.9506
 9398SOL    HW239831   2.447   0.671   2.582 -0.1615 -0.1804 -0.4020
 9399SOL     OW39832   1.559   0.040   5.183 -0.6669  0.8078 -0.0550
 9399SOL    HW139833   1.627   0.075   5.241 -3.1848 -1.4728  4.2453
 9399SOL    HW239834   1.563   4.685   5.210 -1.5843  0.6299 -0.5299
 9400SOL     OW39835   0.198   4.555   6.149 -1.0838 -0.3229  0.0055
 9400SOL    HW139836   0.244   4.564   6.066 -0.6061 -0.6152  0.2406
 9400SOL    HW239837   0.108   4.575   6.121 -0.5903  0.3643 -1.0753
 9401SOL     OW39838   2.720   4.433   8.878  0.5271  0.2644  0.6155
 9401SOL    HW139839   2.720   4.347   8.835  0.5867 -0.3912  1.9210
 9401SOL    HW239840   2.653   4.418   8.945  0.6995  0.2169  0.7754
 9402SOL     OW39841   0.812   4.731   8.993  0.2169  0.2447 -0.1519
 9402SOL    HW139842   0.839   0.071   8.942 -1.2578  0.0953 -1.1402
 9402SOL    HW239843   0.881   4.669   8.967  1.0688  0.3405  1.8899
 9403SOL     OW39844   0.439   2.603  10.139  0.0882  0.4983  0.7181
 9403SOL    HW139845   0.455   2.522  10.188 -2.5645 -1.0256 -0.9597
 9403SOL    HW239846   0.344   2.597  10.145  0.2019 -1.0961  0.8954
 9404SOL     OW39847   0.125   4.338   2.856  0.0595  0.1018 -0.1012
 9404SOL    HW139848   0.103   4.248   2.881 -0.0113  0.6146  1.6439
 9404SOL    HW239849   0.046   4.375   2.896  1.1211  1.7186  0.5015
 9405SOL     OW39850   4.731   2.133  15.814 -0.5869 -0.2797 -0.0249
 9405SOL    HW139851   4.719   2.222  15.781  0.3106  0.1021  0.6661
 9405SOL    HW239852   4.669   2.131  15.887  0.8498 -1.7473  1.1799
 9406SOL     OW39853   0.922   4.360   1.740 -0.1761  0.0638 -0.2371
 9406SOL    HW139854   0.879   4.430   1.789 -0.5620 -1.5209  1.7081
 9406SOL    HW239855   0.901   4.288   1.800 -1.2622 -0.4363 -1.2242
 9407SOL     OW39856   3.212   3.275  14.671  0.0241 -0.3798  0.3575
 9407SOL    HW139857   3.223   3.348  14.610 -0.1592 -1.4847 -0.9980
 9407SOL    HW239858   3.160   3.325  14.734 -1.6218 -0.6058 -0.8108
 9408SOL     OW39859   4.229   2.203  11.379 -0.4590  0.3240  0.1418
 9408SOL    HW139860   4.310   2.169  11.341 -0.3782  1.0916 -0.3848
 9408SOL    HW239861   4.182   2.209  11.295 -2.0650  0.6575  1.0608
 9409SOL     OW39862   4.455   1.162   7.039 -0.1618 -0.2583 -0.1296
 9409SOL    HW139863   4.482   1.194   7.125 -1.1214 -0.9783  0.4284
 9409SOL    HW239864   4.511   1.085   7.028 -1.1331 -1.0961  0.7989
 9410SOL     OW39865   3.879   3.838   4.499  0.6757 -0.0705  0.2355
 9410SOL    HW139866   3.940   3.912   4.498  0.5405  0.1038  3.1710
 9410SOL    HW239867   3.945   3.773   4.522  0.8446 -0.0061 -0.0792
 9411SOL     OW39868   0.440   3.909   5.765  0.5647  0.3903  0.2493
 9411SOL    HW139869   0.386   3.832   5.745 -1.1412  1.7640 -0.4137
 9411SOL    HW239870   0.392   3.943   5.841  1.0420 -0.5863  0.9819
 9412SOL     OW39871   2.354   2.640   9.420  0.3845  0.4599 -0.3766
 9412SOL    HW139872   2.316   2.614   9.336  0.6538 -0.8125 -0.0999
 9412SOL    HW239873   2.412   2.713   9.398  1.8588 -0.2940  1.0391
 9413SOL     OW39874   2.444   1.674   4.258 -0.2231  0.2312  0.2589
 9413SOL    HW139875   2.476   1.750   4.210 -0.7291  0.1317 -0.2314
 9413SOL    HW239876   2.414   1.623   4.183 -0.3752  0.4736  0.1579
 9414SOL     OW39877   0.214   0.904   2.979 -0.1294 -0.4754  0.1206
 9414SOL    HW139878   0.183   0.840   3.044  0.9488  0.5278  1.6354
 9414SOL    HW239879   0.299   0.926   3.018  0.8230 -1.6322 -1.3419
 9415SOL     OW39880   4.447   1.226   9.742 -0.1330 -0.3276  0.0572
 9415SOL    HW139881   4.365   1.176   9.744 -0.1966 -0.2313 -0.1216
 9415SOL    HW239882   4.457   1.263   9.655  0.8927 -1.5709 -0.3485
 9416SOL     OW39883   0.704   3.321   3.277 -0.4424  0.0319  0.1174
 9416SOL    HW139884   0.639   3.392   3.278 -0.4191  0.0405  2.2887
 9416SOL    HW239885   0.779   3.362   3.320  0.6581 -1.7464 -0.1012
 9417SOL     OW39886   2.968   0.865  13.630 -0.0877 -0.0256 -0.7453
 9417SOL    HW139887   2.975   0.913  13.713  0.2010 -0.7872 -0.3338
 9417SOL    HW239888   2.898   0.915  13.588 -0.9358  0.6841  1.4980
 9418SOL     OW39889   2.561   2.394   6.392 -0.2598 -0.0566  0.2008
 9418SOL    HW139890   2.650   2.358   6.383 -0.2531  0.2965 -1.2426
 9418SOL    HW239891   2.544   2.412   6.484  0.9270 -0.0524  0.4243
 9419SOL     OW39892   0.052   0.049   5.799  0.5901 -0.0241 -0.3745
 9419SOL    HW139893   0.120   0.085   5.856 -0.6641  1.1120  0.4184
 9419SOL    HW239894   4.719   0.095   5.847  0.5330  0.2483 -0.7173
 9420SOL     OW39895   0.386   1.597  15.646 -0.6460 -0.6753  0.3062
 9420SOL    HW139896   0.373   1.504  15.632 -0.5078 -0.0449 -3.8047
 9420SOL    HW239897   0.446   1.615  15.574 -1.8112 -0.9429 -0.7149
 9421SOL     OW39898   3.034   3.546   0.730 -0.0097  0.6007 -0.1517
 9421SOL    HW139899   2.965   3.606   0.759  1.5752  1.7889  1.1380
 9421SOL    HW239900   3.115   3.596   0.740  0.0151  0.5248  0.0202
 9422SOL     OW39901   4.679   2.854  10.285 -0.2714 -0.0346  0.2550
 9422SOL    HW139902   4.673   2.893  10.372 -1.7568  0.6295 -0.1422
 9422SOL    HW239903   4.630   2.773  10.294 -0.0772 -0.2360 -0.5065
 9423SOL     OW39904   3.013   4.030  16.182 -0.3315 -0.4507  0.2286
 9423SOL    HW139905   3.011   4.120  16.149 -0.4596 -0.8244 -0.7974
 9423SOL    HW239906   3.088   4.034  16.241  0.7895  2.0080 -1.3537
 9424SOL     OW39907   4.403   2.142   8.069  0.1327 -0.5479 -0.1345
 9424SOL    HW139908   4.446   2.225   8.046 -0.1905  0.2032  1.9264
 9424SOL    HW239909   4.319   2.167   8.031 -0.7366 -1.1554  1.4088
 9425SOL     OW39910   1.277   1.249   1.895  0.2037  0.1182  0.1676
 9425SOL    HW139911   1.217   1.317   1.866 -1.6294 -0.6874  2.0304
 9425SOL    HW239912   1.290   1.197   1.816  0.7979  1.1860 -0.4370
 9426SOL     OW39913   1.190   4.269   4.700 -0.0871  0.0062  0.5975
 9426SOL    HW139914   1.250   4.209   4.656  1.3025  1.7571  0.1034
 9426SOL    HW239915   1.164   4.332   4.633  0.2039 -0.3254  0.1701
 9427SOL     OW39916   1.912   1.163   4.932  0.2160 -1.0508  0.5136
 9427SOL    HW139917   1.859   1.229   4.978 -1.8850 -0.4498 -2.7698
 9427SOL    HW239918   1.897   1.200   4.845 -1.8441 -0.8047  0.9695
 9428SOL     OW39919   3.588   0.376  17.275 -0.1060  0.7645  0.1149
 9428SOL    HW139920   3.559   0.317  17.345 -1.9756  2.7699  1.0510
 9428SOL    HW239921   3.608   0.316  17.204  0.4195  2.1054 -0.8666
 9429SOL     OW39922   3.584   0.668  15.011  0.0386  0.1169  0.1153
 9429SOL    HW139923   3.571   0.762  15.020 -0.5492  0.1312 -0.8126
 9429SOL    HW239924   3.520   0.646  14.943 -0.6424  2.2555  0.0512
 9430SOL     OW39925   4.380   4.249   0.084  0.3209 -0.5305  0.3887
 9430SOL    HW139926   4.408   4.249  17.735 -0.3513  0.2050  0.1809
 9430SOL    HW239927   4.324   4.327   0.086 -0.2854 -0.9706  0.8883
 9431SOL     OW39928   1.296   2.875   7.927 -0.1859  0.0421  0.2298
 9431SOL    HW139929   1.204   2.899   7.919 -0.6163 -1.5586  0.2878
 9431SOL    HW239930   1.276   2.797   7.979  0.4528  0.6148  1.3308
 9432SOL     OW39931   0.879   0.502  10.299  0.0679 -0.2254 -0.3437
 9432SOL    HW139932   0.923   0.442  10.359  0.2053 -1.9688 -2.1892
 9432SOL    HW239933   0.897   0.583  10.346 -1.2807 -0.4516  0.5612
 9433SOL     OW39934   4.239   2.860  16.120  0.2648  0.3582  0.0432
 9433SOL    HW139935   4.246   2.770  16.089 -2.0520  0.6094 -1.2386
 9433SOL    HW239936   4.159   2.893  16.079  0.7096 -0.4951 -1.5202
 9434SOL     OW39937   0.484   1.382  16.943  0.3003 -0.1409 -0.5263
 9434SOL    HW139938   0.461   1.398  17.035  1.2448  0.1169 -0.3359
 9434SOL    HW239939   0.410   1.321  16.938  1.0373 -1.0859 -0.0910
 9435SOL     OW39940   0.798   0.043  11.071 -0.0816  0.2512  0.3477
 9435SOL    HW139941   0.761   0.106  11.009 -1.1488 -2.0519 -1.3160
 9435SOL    HW239942   0.830   4.717  11.006 -0.9474  0.2090 -0.0411
 9436SOL     OW39943   1.243   4.721   2.633  0.2460 -0.1765  0.1819
 9436SOL    HW139944   1.260   0.066   2.681  0.3925  0.1644 -0.4387
 9436SOL    HW239945   1.285   0.007   2.549 -0.7015  1.3565  0.1051
 9437SOL     OW39946   3.675   3.009  13.251 -0.7064 -0.3259  0.0051
 9437SOL    HW139947   3.721   2.948  13.308  0.4263  1.3351  0.8439
 9437SOL    HW239948   3.757   3.042  13.214 -1.7088  0.5929 -1.4309
 9438SOL     OW39949   1.767   0.051   5.776  0.5739 -0.4064 -0.2594
 9438SOL    HW139950   1.746   4.703   5.818  0.4864 -0.5300 -0.5483
 9438SOL    HW239951   1.840   0.032   5.718 -0.0604 -1.6534 -0.6632
 9439SOL     OW39952   0.927   4.169   7.362 -0.3813 -0.5273  0.7817
 9439SOL    HW139953   0.844   4.165   7.410 -2.3439 -0.0720 -2.6381
 9439SOL    HW239954   0.963   4.256   7.380 -0.4064 -0.4067  0.2303
 9440SOL     OW39955   2.790   3.336   1.880 -0.1041  0.0609  0.3406
 9440SOL    HW139956   2.787   3.335   1.976 -1.1254  1.0063  0.3247
 9440SOL    HW239957   2.756   3.423   1.859 -2.2868 -0.5202  1.4101
 9441SOL     OW39958   3.864   2.560   7.946 -0.2894  0.3173  0.3698
 9441SOL    HW139959   3.794   2.502   7.917 -0.7986  1.3960 -0.5437
 9441SOL    HW239960   3.920   2.494   7.988  0.2392  0.1569 -0.5836
 9442SOL     OW39961   2.083   3.424  14.890  0.3181  0.8620 -0.7683
 9442SOL    HW139962   1.990   3.418  14.911  0.4120 -0.5534 -0.7416
 9442SOL    HW239963   2.123   3.362  14.952 -2.1878  1.6614  1.6389
 9443SOL     OW39964   2.092   1.810   7.700  0.3990 -0.0358 -0.1683
 9443SOL    HW139965   2.088   1.833   7.607  1.9277 -1.6009 -0.6158
 9443SOL    HW239966   2.181   1.835   7.726  0.3505  0.8255 -0.8338
 9444SOL     OW39967   2.376   4.252   3.513 -0.4657  0.0933 -0.6656
 9444SOL    HW139968   2.420   4.316   3.457 -0.1705  1.1245  0.7500
 9444SOL    HW239969   2.397   4.278   3.602 -1.4842 -0.5902 -0.2170
 9445SOL     OW39970   4.716   4.100   1.405 -0.4978 -0.2278 -0.2803
 9445SOL    HW139971   4.704   4.085   1.498 -0.6538  0.6724 -0.1616
 9445SOL    HW239972   4.629   4.076   1.370 -1.6628 -0.9210  3.1055
 9446SOL     OW39973   4.487   3.951   8.774 -0.4727  0.7039 -0.1971
 9446SOL    HW139974   4.516   4.018   8.711 -0.2099  0.7511 -0.0263
 9446SOL    HW239975   4.519   3.980   8.859  0.1329 -3.5721  1.0051
 9447SOL     OW39976   3.288   0.600  16.387 -0.1907  0.3904  0.1584
 9447SOL    HW139977   3.287   0.561  16.300 -0.7795  0.1520  0.2723
 9447SOL    HW239978   3.220   0.667  16.386  0.1128  0.7048  0.5446
 9448SOL     OW39979   1.039   3.582  15.234  0.6238 -0.0066 -0.3144
 9448SOL    HW139980   0.995   3.665  15.212 -0.7233 -0.2398  1.5741
 9448SOL    HW239981   1.126   3.606  15.266  1.1970 -1.5108 -0.7690
 9449SOL     OW39982   2.869   0.294   1.098 -0.1861  0.0992  0.0381
 9449SOL    HW139983   2.871   0.307   1.193  0.9212  2.7101 -0.3429
 9449SOL    HW239984   2.955   0.253   1.091 -0.7968 -0.7010 -2.5470
 9450SOL     OW39985   0.912   3.366   5.319 -0.3058  0.4852  0.5039
 9450SOL    HW139986   0.865   3.416   5.253  0.0904 -0.8394 -0.7806
 9450SOL    HW239987   0.903   3.430   5.389  3.0135  0.1063  1.2711
 9451SOL     OW39988   3.051   2.303  12.115  0.0289  0.0551  0.5732
 9451SOL    HW139989   3.061   2.383  12.065 -2.9794 -1.2898 -2.1852
 9451SOL    HW239990   3.136   2.268  12.140  0.2629 -0.3639 -0.8215
 9452SOL     OW39991   1.245   4.423   3.268  0.7809 -0.6051  0.2701
 9452SOL    HW139992   1.216   4.400   3.180  0.9051  0.4552 -0.0462
 9452SOL    HW239993   1.187   4.497   3.289 -0.9420 -2.1834  1.0476
 9453SOL     OW39994   3.311   3.064   6.940 -0.0754  0.2341 -0.2135
 9453SOL    HW139995   3.358   2.999   6.993 -0.5180 -0.1057 -0.2372
 9453SOL    HW239996   3.330   3.043   6.849  0.8120  0.2227 -0.0263
 9454SOL     OW39997   0.667   3.306  14.317 -0.4470 -0.1899  0.0708
 9454SOL    HW139998   0.726   3.268  14.382 -1.6602  0.6438  1.6662
 9454SOL    HW239999   0.705   3.393  14.306 -0.9946 -0.3839 -3.2882
 9455SOL     OW40000   0.541   1.159   9.270 -0.1596  0.4321  0.1111
 9455SOL    HW140001   0.595   1.097   9.219 -0.7510 -0.5656  0.7032
 9455SOL    HW240002   0.546   1.130   9.361 -0.0265 -1.0530 -0.3508
 9456SOL     OW40003   1.993   4.342   7.082  0.1530  0.5860  0.1913
 9456SOL    HW140004   2.053   4.327   7.009  1.1770  1.0593  0.9379
 9456SOL    HW240005   2.056   4.362   7.151  1.2524 -1.4301 -0.2376
 9457SOL     OW40006   4.005   0.540   5.643 -0.3068 -0.8573  0.1478
 9457SOL    HW140007   4.092   0.511   5.671  0.5140  1.1554 -0.2391
 9457SOL    HW240008   3.981   0.467   5.586 -1.5514 -1.6119  1.6631
 9458SOL     OW40009   1.909   0.193   4.057 -0.3739 -0.4950 -0.0342
 9458SOL    HW140010   1.824   0.213   4.018  0.8894  0.3222 -2.3913
 9458SOL    HW240011   1.964   0.179   3.980 -1.6502 -1.4941 -0.7557
 9459SOL     OW40012   1.477   1.946   9.884  0.1084 -0.2285 -0.3997
 9459SOL    HW140013   1.388   1.915   9.867 -1.2361  1.3877  3.5628
 9459SOL    HW240014   1.526   1.867   9.861 -0.3115 -1.0112  1.3431
 9460SOL     OW40015   2.152   1.853   1.536  0.1819 -0.0878  0.6612
 9460SOL    HW140016   2.078   1.799   1.562  0.9645 -0.5598  1.8800
 9460SOL    HW240017   2.131   1.933   1.585  1.1886  1.8246 -2.0095
 9461SOL     OW40018   0.339   1.889  15.686  0.9112  0.3537  0.3194
 9461SOL    HW140019   0.339   1.794  15.677 -1.0684  0.3459  0.3825
 9461SOL    HW240020   0.394   1.916  15.613  1.7180 -2.0299  0.0481
 9462SOL     OW40021   1.512   4.050   3.286  0.0079  0.2885  0.0005
 9462SOL    HW140022   1.424   4.050   3.325 -0.3023  1.1980 -0.7014
 9462SOL    HW240023   1.558   4.052   3.370  0.1937 -2.1301 -0.0361
 9463SOL     OW40024   3.482   0.126   5.045  0.0670 -0.1988 -0.2298
 9463SOL    HW140025   3.528   0.203   5.013 -0.6350  0.2113 -0.2466
 9463SOL    HW240026   3.419   0.105   4.975 -1.5656  0.9701  0.8886
 9464SOL     OW40027   2.271   1.015   3.224  0.5902 -0.1284 -0.3634
 9464SOL    HW140028   2.279   0.920   3.210  3.0251  0.2506 -1.5029
 9464SOL    HW240029   2.208   1.023   3.295  0.7408  1.9179 -0.4768
 9465SOL     OW40030   1.253   1.032   4.880  0.1151  0.0054 -0.3690
 9465SOL    HW140031   1.300   1.067   4.805  0.5899 -1.0020 -0.5399
 9465SOL    HW240032   1.175   1.084   4.897  0.4344  0.1958  0.5483
 9466SOL     OW40033   4.103   0.315   1.415  0.0381 -0.0994  0.4513
 9466SOL    HW140034   4.074   0.406   1.417 -1.0908 -0.4331 -0.5538
 9466SOL    HW240035   4.037   0.277   1.357 -0.5695 -2.4872  2.7009
 9467SOL     OW40036   3.614   1.125   6.976 -0.0728  0.2437 -0.1803
 9467SOL    HW140037   3.548   1.186   6.942  0.0242  0.0080 -0.7989
 9467SOL    HW240038   3.590   1.104   7.066 -0.6615 -0.8598 -0.5934
 9468SOL     OW40039   3.512   3.583  15.841 -0.1217 -0.2864  0.2370
 9468SOL    HW140040   3.586   3.644  15.846 -0.5975  0.3346 -0.2828
 9468SOL    HW240041   3.446   3.632  15.889 -0.0282 -0.3291  0.4073
 9469SOL     OW40042   4.181   1.263   6.049 -0.1113  0.3556 -0.3355
 9469SOL    HW140043   4.174   1.335   6.111  1.5142 -1.0910  1.5256
 9469SOL    HW240044   4.204   1.308   5.968  2.6255 -0.5672 -0.0726
 9470SOL     OW40045   3.961   3.444   6.041 -0.9383  0.8016  0.1270
 9470SOL    HW140046   4.005   3.417   6.122 -4.0029 -1.3761  1.0867
 9470SOL    HW240047   3.882   3.390   6.036 -1.6206  1.9003 -0.8031
 9471SOL     OW40048   3.431   3.890   2.878 -0.2955  0.0729 -0.1155
 9471SOL    HW140049   3.338   3.898   2.899  0.3962  1.4088  2.4217
 9471SOL    HW240050   3.437   3.795   2.868  2.2710  0.2763 -0.3811
 9472SOL     OW40051   1.725   3.469   8.707  0.0255  0.2282 -0.1009
 9472SOL    HW140052   1.772   3.551   8.690 -0.1892 -0.3669 -3.4599
 9472SOL    HW240053   1.718   3.437   8.617 -0.4773 -1.5928  0.5765
 9473SOL     OW40054   0.130   1.027  10.592  0.2697  0.3090 -0.9241
 9473SOL    HW140055   0.155   0.968  10.521  1.0973  0.0795 -0.4417
 9473SOL    HW240056   0.043   0.994  10.614  0.2638 -2.2102 -4.6213
 9474SOL     OW40057   2.860   3.765   0.661  0.0886 -0.5756  0.4409
 9474SOL    HW140058   2.814   3.706   0.721 -0.3641 -0.2352  0.4243
 9474SOL    HW240059   2.804   3.766   0.584 -1.1280  2.0338  1.3781
 9475SOL     OW40060   3.986   0.122   4.694  0.2830 -0.5026  0.2629
 9475SOL    HW140061   4.018   0.164   4.614  1.0721 -1.6503 -0.0330
 9475SOL    HW240062   3.895   0.110   4.665  1.8544 -1.7522 -4.1968
 9476SOL     OW40063   2.480   4.712   7.730  0.2332 -0.3225 -0.5140
 9476SOL    HW140064   2.399   4.736   7.686 -0.5578 -2.4118 -0.1981
 9476SOL    HW240065   2.495   4.636   7.673  1.0198  2.0792 -3.5218
 9477SOL     OW40066   3.646   2.963  12.346 -0.3932  0.0001  0.0102
 9477SOL    HW140067   3.737   2.991  12.336  0.2827 -2.1614  0.1046
 9477SOL    HW240068   3.644   2.883  12.292 -0.6866  0.2877 -0.4053
 9478SOL     OW40069   2.372   1.150   9.224 -0.2687  0.4813  0.3687
 9478SOL    HW140070   2.337   1.238   9.234 -2.4083 -0.3916  0.5853
 9478SOL    HW240071   2.336   1.105   9.300 -0.8489 -0.1034 -0.2513
 9479SOL     OW40072   2.010   0.766  14.105  0.4486 -0.5834  0.3611
 9479SOL    HW140073   1.915   0.758  14.114  0.3151 -0.3359 -0.7555
 9479SOL    HW240074   2.038   0.675  14.100 -1.8708 -1.2051 -1.3634
 9480SOL     OW40075   0.120   1.823   2.515 -0.1485 -0.0688 -0.5013
 9480SOL    HW140076   0.075   1.799   2.596  0.2170  1.4688  0.1619
 9480SOL    HW240077   0.164   1.741   2.493  0.6470 -0.4843  2.6160
 9481SOL     OW40078   4.416   2.438   7.511  0.2327 -0.0623  0.1136
 9481SOL    HW140079   4.329   2.477   7.525  1.1211  1.7089  0.7390
 9481SOL    HW240080   4.415   2.370   7.578  0.8525 -0.5005 -0.3277
 9482SOL     OW40081   3.464   2.441  16.649  0.0638 -0.1684  0.0086
 9482SOL    HW140082   3.541   2.401  16.688  1.8984  0.4177 -3.0436
 9482SOL    HW240083   3.433   2.498  16.720  2.5003 -0.0967  1.0184
 9483SOL     OW40084   4.653   4.552   3.930 -0.3690  0.3188 -0.0835
 9483SOL    HW140085   4.706   4.562   4.010 -3.0473 -0.1831  1.7536
 9483SOL    HW240086   4.690   4.618   3.872  0.5368 -2.0102 -2.1928
 9484SOL     OW40087   0.269   3.747   9.020  0.3493  0.7311  0.3086
 9484SOL    HW140088   0.286   3.832   9.059  1.3377  0.3414  0.7318
 9484SOL    HW240089   0.358   3.716   9.036  0.4850  0.8348 -0.2420
 9485SOL     OW40090   2.731   1.305   5.686  0.4092  0.0264 -0.6950
 9485SOL    HW140091   2.769   1.263   5.763 -1.5209  0.5676  0.5683
 9485SOL    HW240092   2.656   1.351   5.723  1.5542  0.4370  1.1272
 9486SOL     OW40093   1.748   2.867   2.759 -0.1437  0.3646 -0.6542
 9486SOL    HW140094   1.652   2.873   2.763 -0.1795  0.1533 -1.2992
 9486SOL    HW240095   1.755   2.781   2.718 -0.2807 -1.2779  2.6922
 9487SOL     OW40096   3.488   1.597   2.689 -0.1828  0.0123 -0.2410
 9487SOL    HW140097   3.540   1.667   2.649 -2.0633  1.6507  0.1897
 9487SOL    HW240098   3.442   1.640   2.762 -2.1809 -3.1885  0.3558
 9488SOL     OW40099   4.621   0.697   8.727  0.0371 -0.4005  0.6426
 9488SOL    HW140100   4.587   0.762   8.788  1.1653 -1.2953  2.2012
 9488SOL    HW240101   4.552   0.708   8.661  2.0805  1.4952 -1.2166
 9489SOL     OW40102   0.364   4.650   8.660 -0.7688 -0.1548 -0.4175
 9489SOL    HW140103   0.421   4.674   8.733 -1.1124 -1.5779  0.3259
 9489SOL    HW240104   0.406   4.571   8.625  0.8739  0.8687 -0.7655
 9490SOL     OW40105   1.462   4.697   3.433 -0.1596  0.1611 -0.2983
 9490SOL    HW140106   1.393   0.010   3.478  0.0829 -0.5176  0.7999
 9490SOL    HW240107   1.436   4.607   3.451 -0.8126  0.7374  1.5865
 9491SOL     OW40108   3.297   2.295   9.651  0.0355  0.4609 -0.6021
 9491SOL    HW140109   3.299   2.386   9.679  2.8144  0.4560 -0.8078
 9491SOL    HW240110   3.229   2.290   9.585  0.3769  0.6397 -0.9666
 9492SOL     OW40111   0.163   2.496   4.724 -0.6172 -0.5216  0.2901
 9492SOL    HW140112   0.160   2.439   4.801 -2.1926  0.7779  1.1810
 9492SOL    HW240113   0.148   2.438   4.649  0.3262 -0.4527  0.0521
 9493SOL     OW40114   2.191   0.506   9.574  0.5619  0.5646  0.3879
 9493SOL    HW140115   2.232   0.514   9.660  3.6420  1.1278 -1.1472
 9493SOL    HW240116   2.267   0.505   9.516  0.8069 -1.5011  0.7635
 9494SOL     OW40117   3.822   3.260   6.312 -0.8605 -0.1186 -0.0501
 9494SOL    HW140118   3.770   3.234   6.236 -2.0841 -0.5116  0.9013
 9494SOL    HW240119   3.772   3.254   6.394  0.3936  0.3455  0.7504
 9495SOL     OW40120   0.406   0.799   7.325 -0.3011  0.4549 -0.2572
 9495SOL    HW140121   0.350   0.809   7.403  0.1480 -2.1528  0.3901
 9495SOL    HW240122   0.491   0.793   7.368 -0.3095  2.0687  0.0018
 9496SOL     OW40123   0.655   2.584   6.135  0.2403  0.0152 -0.5978
 9496SOL    HW140124   0.710   2.562   6.060 -0.3739 -3.7319  0.0280
 9496SOL    HW240125   0.654   2.675   6.106  0.4452 -0.0037 -0.6621
 9497SOL     OW40126   0.878   2.409   9.178  0.0904  0.0509 -0.2523
 9497SOL    HW140127   0.786   2.407   9.153 -0.3172 -0.9834  1.3092
 9497SOL    HW240128   0.913   2.433   9.092  1.4215  2.1706  0.8798
 9498SOL     OW40129   4.268   3.891   0.041  0.3730 -0.1580 -0.3424
 9498SOL    HW140130   4.183   3.893  17.739  1.1681 -0.6310 -1.8442
 9498SOL    HW240131   4.329   3.917  17.715 -1.5187  1.3217 -1.4849
 9499SOL     OW40132   3.371   4.313   9.041 -0.5629 -0.2375 -0.2008
 9499SOL    HW140133   3.431   4.299   9.114 -0.4668  0.6040 -0.1190
 9499SOL    HW240134   3.312   4.238   9.050 -1.2249  0.2437 -0.5511
 9500SOL     OW40135   0.186   0.559   8.265  0.1607  0.5637 -0.8779
 9500SOL    HW140136   0.210   0.471   8.295  1.6826  0.6244 -1.9243
 9500SOL    HW240137   0.123   0.578   8.335  2.0195  1.3567  0.5986
 9501SOL     OW40138   0.227   2.862   5.958 -0.2350  0.0771  0.4640
 9501SOL    HW140139   0.311   2.903   5.939  0.1218 -1.6894 -1.8313
 9501SOL    HW240140   0.265   2.813   6.031 -1.6651  1.6783  2.2714
 9502SOL     OW40141   1.879   2.560   8.224  0.5246 -0.1722  0.1895
 9502SOL    HW140142   1.929   2.486   8.261  0.7153 -0.6998 -1.1142
 9502SOL    HW240143   1.808   2.568   8.287  0.6319  0.4097  0.2325
 9503SOL     OW40144   2.380   2.522   6.846 -0.4698 -0.0984 -0.1652
 9503SOL    HW140145   2.442   2.538   6.917  0.2369 -3.2036 -0.0900
 9503SOL    HW240146   2.337   2.446   6.884  1.8912 -0.1224  2.5201
 9504SOL     OW40147   4.526   1.721   0.848  0.1403 -0.0972 -0.1610
 9504SOL    HW140148   4.435   1.694   0.836  0.5439 -2.2156  1.6276
 9504SOL    HW240149   4.552   1.668   0.923 -1.8179  0.9928  1.2921
 9505SOL     OW40150   2.819   1.822   7.548 -0.2077  0.4835 -0.2118
 9505SOL    HW140151   2.848   1.908   7.519  2.4125 -0.7637 -1.2620
 9505SOL    HW240152   2.896   1.769   7.567  0.3285 -0.0838 -4.0471
 9506SOL     OW40153   4.003   2.178   4.363  0.0516 -0.2950  0.7452
 9506SOL    HW140154   3.952   2.146   4.437 -0.7331 -0.8706 -0.0396
 9506SOL    HW240155   4.029   2.101   4.313  2.8109  1.5568 -0.6860
 9507SOL     OW40156   0.640   4.374  13.808 -0.1098  0.2526  0.1733
 9507SOL    HW140157   0.649   4.278  13.808 -0.7363  0.1922 -0.6847
 9507SOL    HW240158   0.571   4.385  13.741  0.0470  0.2250  0.0077
 9508SOL     OW40159   0.194   4.574  16.057  0.6818 -0.6306 -0.0066
 9508SOL    HW140160   0.135   4.648  16.069  1.5388 -0.0961  0.9097
 9508SOL    HW240161   0.285   4.605  16.055  0.5409  0.1611  4.0667
 9509SOL     OW40162   3.864   1.377  12.377 -0.2204  0.5291  0.2142
 9509SOL    HW140163   3.795   1.311  12.373  0.5320 -0.2107 -0.5212
 9509SOL    HW240164   3.911   1.342  12.453 -1.7156 -1.0617  0.4020
 9510SOL     OW40165   0.746   0.740   8.915  0.1504  0.1576 -0.0015
 9510SOL    HW140166   0.652   0.750   8.897 -0.2382 -2.2884  0.7574
 9510SOL    HW240167   0.780   0.788   8.839  1.6774 -1.1214 -0.1059
 9511SOL     OW40168   2.035   2.088   1.940  0.0628 -0.1820 -0.0857
 9511SOL    HW140169   2.122   2.093   1.980 -0.9462  0.9738  1.9637
 9511SOL    HW240170   2.004   2.170   1.978  1.3203  0.0458  0.4476
 9512SOL     OW40171   3.747   0.575   8.128  0.2112  0.4749  0.2151
 9512SOL    HW140172   3.742   0.480   8.128 -0.8160  0.5356 -0.5325
 9512SOL    HW240173   3.799   0.605   8.053 -0.4983  2.7624  0.6381
 9513SOL     OW40174   0.903   2.256   8.806 -0.0444 -0.2296 -0.5938
 9513SOL    HW140175   0.883   2.182   8.748  0.3921 -0.8881  0.1020
 9513SOL    HW240176   0.907   2.218   8.894 -1.7243  2.6258  0.7007
 9514SOL     OW40177   1.038   2.271   9.382 -0.4000  0.8825  0.1383
 9514SOL    HW140178   1.064   2.190   9.427 -2.1568  1.9115  2.9951
 9514SOL    HW240179   1.085   2.271   9.299  1.1544  0.8620  1.0022
 9515SOL     OW40180   4.677   4.663   6.059  0.2150 -0.4507 -0.9848
 9515SOL    HW140181   4.642   4.661   6.148 -0.0190  1.3695 -1.0329
 9515SOL    HW240182   4.612   4.724   6.022  0.2744  0.0005 -0.3389
 9516SOL     OW40183   1.667   0.801   6.123  0.3147 -0.3005  0.1139
 9516SOL    HW140184   1.589   0.855   6.106  2.4439  1.7611 -3.1100
 9516SOL    HW240185   1.632   0.715   6.148  3.1097 -1.5017 -0.1317
 9517SOL     OW40186   0.314   2.967   5.377  0.2852 -0.1341  0.2701
 9517SOL    HW140187   0.338   2.902   5.312  2.3892  0.4265  0.4809
 9517SOL    HW240188   0.384   2.962   5.442 -1.2243 -1.9189  1.7326
 9518SOL     OW40189   4.262   2.655  10.225 -0.2711  0.2445 -0.2012
 9518SOL    HW140190   4.304   2.581  10.180  0.0322  1.7884 -2.5004
 9518SOL    HW240191   4.297   2.646  10.313 -2.2187 -3.0808  0.2420
 9519SOL     OW40192   0.146   3.842  14.463 -0.0079 -0.4115 -0.3608
 9519SOL    HW140193   0.132   3.874  14.374 -0.8892  0.5243  0.1175
 9519SOL    HW240194   0.188   3.915  14.508  0.3904 -0.3321 -0.8601
 9520SOL     OW40195   3.879   3.498   1.015 -0.0778  0.4269 -0.0560
 9520SOL    HW140196   3.843   3.586   1.027  1.5527  1.0701  0.0025
 9520SOL    HW240197   3.893   3.488   0.921  0.3659 -0.1865  0.0759
 9521SOL     OW40198   3.749   1.755  10.934  0.0095  0.4970 -0.3782
 9521SOL    HW140199   3.749   1.667  10.971 -0.9425  0.3279 -0.7847
 9521SOL    HW240200   3.663   1.779  10.968  0.2702 -1.1920  1.5136
 9522SOL     OW40201   2.767   2.163   7.890  0.0425 -0.0221 -0.2923
 9522SOL    HW140202   2.693   2.148   7.832 -1.0615 -0.2072  1.1500
 9522SOL    HW240203   2.832   2.155   7.821  2.8703 -0.3386  2.3668
 9523SOL     OW40204   0.514   1.004  15.709 -0.0306 -0.3393  0.3187
 9523SOL    HW140205   0.574   1.028  15.639  3.0601 -0.9082  2.7671
 9523SOL    HW240206   0.444   1.069  15.703  1.1233  0.6390 -2.5412
 9524SOL     OW40207   2.427   2.508   3.492 -0.5112  0.5185 -0.3650
 9524SOL    HW140208   2.354   2.468   3.539 -0.7086  1.9626  0.5706
 9524SOL    HW240209   2.390   2.596   3.490  0.6646  1.0190 -0.3259
 9525SOL     OW40210   3.335   3.086   5.623 -0.0415 -0.5897 -0.0814
 9525SOL    HW140211   3.244   3.086   5.653  1.0113 -1.4157  3.0881
 9525SOL    HW240212   3.322   3.045   5.537 -1.5750 -0.7065  0.2068
 9526SOL     OW40213   2.896   3.405  16.956 -0.2555 -0.3467 -0.3887
 9526SOL    HW140214   2.884   3.447  17.041 -1.3858  1.5129 -1.4768
 9526SOL    HW240215   2.992   3.394  16.952 -0.0375  2.4469 -2.5264
 9527SOL     OW40216   3.373   0.421  11.948  0.2933  0.3545  0.1983
 9527SOL    HW140217   3.408   0.374  12.023 -0.6418  1.6941  1.4728
 9527SOL    HW240218   3.290   0.376  11.937  0.1127  0.8014 -0.3109
 9528SOL     OW40219   0.254   2.870   9.455 -0.6268  0.2100 -0.5178
 9528SOL    HW140220   0.234   2.800   9.518  0.7878  0.9512  0.7403
 9528SOL    HW240221   0.201   2.942   9.489  0.9804 -0.4719  3.4495
 9529SOL     OW40222   2.412   1.550   7.314  0.1078 -0.0837 -0.1870
 9529SOL    HW140223   2.330   1.568   7.361  0.0777 -0.0729 -0.2434
 9529SOL    HW240224   2.450   1.638   7.313 -0.0795  0.0280  1.3568
 9530SOL     OW40225   3.882   1.790   4.960 -0.1953 -0.3161 -0.3961
 9530SOL    HW140226   3.845   1.748   4.883 -2.2932  0.2122  0.3211
 9530SOL    HW240227   3.805   1.843   4.982 -0.8818 -0.5846 -2.1189
 9531SOL     OW40228   4.445   4.649   7.800 -0.0496  0.4908  0.3146
 9531SOL    HW140229   4.528   4.683   7.765  0.2067  0.0338  0.4831
 9531SOL    HW240230   4.448   4.658   7.895 -1.4998 -1.2751  0.5188
 9532SOL     OW40231   0.865   0.099   4.666 -0.3123 -0.3678 -0.2491
 9532SOL    HW140232   0.923   0.024   4.683 -0.2813  0.0097  1.2758
 9532SOL    HW240233   0.786   0.049   4.644 -1.6979  2.9504 -2.7673
 9533SOL     OW40234   1.371   0.555  13.622 -0.2814 -0.0623  0.2828
 9533SOL    HW140235   1.426   0.633  13.617 -0.5979  0.2260  1.4749
 9533SOL    HW240236   1.431   0.490  13.585  1.2275  1.3343  0.2844
 9534SOL     OW40237   1.044   2.787   7.367 -0.3835 -0.4081 -0.4975
 9534SOL    HW140238   1.063   2.798   7.274  2.8692 -1.6809  0.0077
 9534SOL    HW240239   1.110   2.734   7.412 -0.4077 -0.7850 -0.9141
 9535SOL     OW40240   3.797   2.982  17.260 -0.2497 -0.1818 -0.0641
 9535SOL    HW140241   3.840   3.025  17.186 -4.0004  2.0334 -0.9607
 9535SOL    HW240242   3.855   2.906  17.270  0.4760 -0.1415 -3.8380
 9536SOL     OW40243   2.675   2.077   3.981  0.2332 -0.1300  0.0785
 9536SOL    HW140244   2.770   2.072   3.989  0.3501 -2.4694 -2.4349
 9536SOL    HW240245   2.642   2.029   4.057 -0.0419  0.0165  0.0526
 9537SOL     OW40246   3.312   2.053  13.887  0.2503 -0.3953 -0.0497
 9537SOL    HW140247   3.262   2.049  13.969  1.5849 -0.2483  0.7766
 9537SOL    HW240248   3.335   2.146  13.879 -0.4860 -0.2704 -0.6675
 9538SOL     OW40249   3.382   2.362   4.176 -0.6158  0.2764 -0.6900
 9538SOL    HW140250   3.435   2.355   4.256 -2.7681 -1.9571  0.5385
 9538SOL    HW240251   3.439   2.403   4.111 -0.5869 -1.8594 -2.0130
 9539SOL     OW40252   3.683   2.865   9.575  0.5334  0.2438 -0.8034
 9539SOL    HW140253   3.699   2.959   9.564  0.7253  0.5520  2.0272
 9539SOL    HW240254   3.727   2.821   9.502  2.0712  0.5082 -0.0284
 9540SOL     OW40255   1.847   0.735   9.709 -0.0033 -0.4161 -0.4341
 9540SOL    HW140256   1.763   0.722   9.664 -0.5039  0.4804  0.2524
 9540SOL    HW240257   1.899   0.731   9.629 -0.5651 -0.3755 -0.8006
 9541SOL     OW40258   1.539   1.999  14.323  0.3737  0.7969 -0.1921
 9541SOL    HW140259   1.604   2.041  14.380 -0.1807  0.2729  0.8425
 9541SOL    HW240260   1.503   1.943  14.392  0.6581  0.5090 -0.2794
 9542SOL     OW40261   1.100   2.182   3.888  0.2110 -0.0958  0.0571
 9542SOL    HW140262   1.061   2.101   3.922  2.5259 -0.8838  0.8352
 9542SOL    HW240263   1.033   2.243   3.918  0.8116  0.0214  1.1607
 9543SOL     OW40264   0.869   0.749   7.314 -0.2729 -0.0067  0.0620
 9543SOL    HW140265   0.879   0.716   7.225  1.6115 -0.6766  0.5356
 9543SOL    HW240266   0.957   0.732   7.348 -0.6693 -0.5207  0.8327
 9544SOL     OW40267   2.575   4.020   8.244 -0.2664  0.4753 -0.0728
 9544SOL    HW140268   2.494   4.070   8.257 -0.2988  0.9137 -1.9545
 9544SOL    HW240269   2.606   4.013   8.335  0.2808 -2.6764 -0.5012
 9545SOL     OW40270   2.436   2.418  15.962  0.6704  0.1201  0.4533
 9545SOL    HW140271   2.430   2.333  15.919 -1.3793  1.2410 -1.4706
 9545SOL    HW240272   2.342   2.436  15.962  0.2440 -2.1672 -1.3992
 9546SOL     OW40273   3.120   3.395   1.030  0.4166 -0.3955 -0.7180
 9546SOL    HW140274   3.060   3.368   1.100  1.0090  0.2831  0.0601
 9546SOL    HW240275   3.061   3.435   0.966 -1.9156 -0.7263  1.2032
 9547SOL     OW40276   3.434   1.642  10.390  0.0360 -0.1671 -0.6074
 9547SOL    HW140277   3.380   1.691  10.451  0.0802  0.7741 -1.3242
 9547SOL    HW240278   3.421   1.552  10.419  1.3109 -0.7157 -1.7204
 9548SOL     OW40279   0.776   3.784   6.100 -0.0646 -0.6194  0.1175
 9548SOL    HW140280   0.862   3.748   6.119 -0.3988 -1.3393  0.2743
 9548SOL    HW240281   0.725   3.773   6.180  0.0287 -2.5269 -0.0888
 9549SOL     OW40282   1.106   3.789   2.681 -0.4188  0.5481 -0.2325
 9549SOL    HW140283   1.200   3.805   2.675  0.1821 -2.4580  1.3823
 9549SOL    HW240284   1.101   3.696   2.702 -0.1383  0.0502 -2.3985
 9550SOL     OW40285   2.760   0.871   9.731 -0.6730 -0.3743  0.3596
 9550SOL    HW140286   2.810   0.820   9.666 -1.1390  0.3791 -0.5911
 9550SOL    HW240287   2.796   0.959   9.721 -1.9082  0.1879  0.9169
 9551SOL     OW40288   1.857   1.425   9.455 -0.0797 -0.2411 -0.5832
 9551SOL    HW140289   1.810   1.343   9.469  1.3032 -1.3158 -2.2108
 9551SOL    HW240290   1.789   1.490   9.471  1.4284  0.8828  1.2134
 9552SOL     OW40291   0.661   0.640  10.942 -0.1361  0.2666 -0.2035
 9552SOL    HW140292   0.716   0.589  11.001 -1.5402  0.6332  1.4349
 9552SOL    HW240293   0.693   0.611  10.857  0.7997  2.0016 -0.4260
 9553SOL     OW40294   3.962   4.604   7.760 -0.5908  0.0686 -0.4729
 9553SOL    HW140295   3.881   4.582   7.806 -0.5420  0.3997 -0.2259
 9553SOL    HW240296   3.981   4.522   7.716  0.2261  0.2669 -0.5061
 9554SOL     OW40297   4.501   0.139   2.952  0.1415  0.0645 -0.0304
 9554SOL    HW140298   4.440   0.169   2.884 -0.1354 -0.5627 -0.0675
 9554SOL    HW240299   4.556   0.217   2.958 -1.5091  1.3499 -1.6361
 9555SOL     OW40300   3.971   2.123   4.952  0.8471 -0.3574 -0.0348
 9555SOL    HW140301   3.902   2.097   5.013 -0.2593 -0.9613 -1.5470
 9555SOL    HW240302   4.051   2.095   4.996  0.3723 -1.3301  0.1958
 9556SOL     OW40303   2.294   1.215   6.837  0.5275 -0.1584  0.2166
 9556SOL    HW140304   2.228   1.252   6.778  2.6541  0.3614 -1.8256
 9556SOL    HW240305   2.319   1.132   6.797  1.6147 -0.4817  1.5711
 9557SOL     OW40306   0.005   2.664   6.594 -0.1289 -0.0749 -0.0750
 9557SOL    HW140307   0.029   2.744   6.549 -2.1817 -0.3423 -1.6484
 9557SOL    HW240308   0.084   2.614   6.575 -0.2289  0.3355 -1.5263
 9558SOL     OW40309   3.130   1.221   5.500  0.1365  0.1342 -0.7752
 9558SOL    HW140310   3.163   1.310   5.487  0.1592  0.4945  1.9190
 9558SOL    HW240311   3.036   1.230   5.509  0.0084 -1.2024 -0.7753
 9559SOL     OW40312   1.767   4.234   3.787 -0.1296  0.3208 -0.0895
 9559SOL    HW140313   1.772   4.280   3.703 -0.2296  0.3666 -0.0707
 9559SOL    HW240314   1.860   4.226   3.810 -0.2623 -2.0790 -0.3987
 9560SOL     OW40315   2.861   2.333  17.351 -0.0115  0.6405 -0.9541
 9560SOL    HW140316   2.930   2.283  17.395 -0.8348  0.7339  0.4382
 9560SOL    HW240317   2.783   2.293  17.390 -0.1424  1.6722 -0.1725
 9561SOL     OW40318   4.736   2.391   9.996  0.6084  0.4318 -0.1390
 9561SOL    HW140319   4.677   2.316   9.984  0.6882  0.2620  0.5004
 9561SOL    HW240320   4.696   2.461   9.945  0.1686  0.2962  0.0174
 9562SOL     OW40321   0.880   3.003  13.355  0.1737 -0.7029  0.3591
 9562SOL    HW140322   0.820   3.048  13.415  0.9203 -0.3437  0.8348
 9562SOL    HW240323   0.965   3.037  13.383 -0.6058  0.8995  0.8017
 9563SOL     OW40324   3.392   2.134   7.192  0.1571 -0.4518  0.1942
 9563SOL    HW140325   3.347   2.167   7.269  2.3987  0.3959  1.1499
 9563SOL    HW240326   3.316   2.097   7.148 -0.7024  2.4052 -0.6759
 9564SOL     OW40327   2.625   4.569  12.516  0.3750 -0.4958 -0.8483
 9564SOL    HW140328   2.683   4.616  12.455 -2.0651 -0.4818 -3.1728
 9564SOL    HW240329   2.676   4.589  12.594  0.4041  1.4244 -1.3548
 9565SOL     OW40330   4.222   1.051  12.352  0.2169 -0.1110 -0.1247
 9565SOL    HW140331   4.191   1.007  12.273 -1.6927 -0.6704  0.9492
 9565SOL    HW240332   4.315   1.031  12.355 -0.0752 -1.6562 -1.4047
 9566SOL     OW40333   0.519   4.031  16.509  0.0839 -0.3449  0.1263
 9566SOL    HW140334   0.607   3.995  16.507 -0.2307 -1.3086  3.6520
 9566SOL    HW240335   0.467   3.967  16.460  1.9707  0.3511 -2.7923
 9567SOL     OW40336   0.016   2.699  16.506 -0.3405 -0.3760  0.3273
 9567SOL    HW140337   0.013   2.791  16.532  4.7281 -0.0483 -0.2199
 9567SOL    HW240338   4.661   2.685  16.480 -0.4578  0.7990  0.0956
 9568SOL     OW40339   2.309   0.696  14.593  0.2251 -0.2582 -0.3103
 9568SOL    HW140340   2.224   0.727  14.623 -0.6346 -2.8993 -0.0514
 9568SOL    HW240341   2.345   0.648  14.667 -1.8124 -2.5303 -0.8092
 9569SOL     OW40342   0.087   2.965   3.676  0.7042  0.2609  0.3487
 9569SOL    HW140343   0.089   2.977   3.581  1.2311 -0.3714  0.2794
 9569SOL    HW240344   4.732   2.941   3.693  1.3662 -1.8829  0.9398
   4.73601   4.73601  17.74267
