Membrane in water
40344
    1TMC1    C1    1   4.656   2.963  10.669  0.5923 -0.4914 -0.2323
    1TMC1    C2    2   4.540   2.944  10.605 -0.3856  0.0886  0.1285
    1TMC1    C3    3   4.499   3.047  10.530 -0.3154  0.6302 -0.0690
    1TMC1    C4    4   4.724   3.083  10.676  0.0427 -0.2542  0.3811
    1TMC1    C5    5   4.678   3.182  10.590 -0.1369 -0.2007  0.3535
    1TMC1    C6    6   4.567   3.166  10.514  0.2327  0.5765 -0.2682
    1TMC1     C    7   4.675   2.867  10.771  0.2676  0.1693 -0.4606
    1TMC1     O    8   4.580   2.810  10.818 -0.1118 -0.3041 -0.2553
    1TMC1     H    9   4.489   2.850  10.591  0.1031 -0.0474 -0.7451
    1TMC1    H1   10   0.080   3.107  10.729  1.2684 -0.9454 -1.4480
    1TMC1    H2   11   4.538   3.248  10.449  0.8347 -0.2979 -1.6550
    1TMC1    C7   12   0.007   3.310  10.601 -0.7212 -0.6872  0.1779
    1TMC1    C8   13   4.364   3.037  10.493 -0.2294 -0.2421 -1.1105
    1TMC1    O1   14   0.121   3.331  10.560  0.3155  0.2719 -0.5449
    1TMC1    O2   15   4.307   2.929  10.480  0.0508  0.2994 -0.3613
    1TMC1    O3   16   4.646   3.398  10.609  0.4895 -0.2444  0.4753
    1TMC1    H3   17   4.560   3.359  10.634  1.3382  0.0662  3.8873
    1TMC1    O5   18   4.302   3.133  10.570 -0.5208  0.2772 -0.0665
    1TMC1    H5   19   4.363   3.200  10.606 -0.7808 -1.4378  3.5517
    2MPD2     C   20   0.275   2.599  11.064  0.4464 -0.1388  0.0124
    2MPD2    C1   21   0.144   2.585  11.058  0.1239  0.2705 -0.8971
    2MPD2    C2   22   0.065   2.657  10.968  0.0727  0.9366  0.0999
    2MPD2    C3   23   0.131   2.760  10.887  0.0357 -0.1919  0.3963
    2MPD2    C4   24   0.266   2.762  10.896  0.1461 -0.4451  0.2965
    2MPD2    C5   25   0.335   2.688  10.980 -0.5743  0.0160 -0.2379
    2MPD2     H   26   4.693   2.657  10.971  0.0494 -3.1980 -0.6677
    2MPD2    H1   27   0.322   2.833  10.836  0.0491 -0.3143  0.3623
    2MPD2    H2   28   0.343   2.559  11.139  0.4013  0.7296  0.5272
    2MPD2    H3   29   0.442   2.707  10.976 -0.7470  0.5712 -2.1969
    2MPD2     N   30   0.071   2.859  10.803  0.1376 -0.1014 -0.3415
    2MPD2    H5   31   0.131   2.919  10.747  0.2280  2.0953  2.1265
    2MPD2    N1   32   0.074   2.512  11.155  0.1532  0.5965  0.4332
    2MPD2    H7   33   4.708   2.516  11.155  0.1931  1.7109 -0.0835
    3TMC1    C1   34   3.669   3.083  10.955 -0.1720 -0.2739 -1.3803
    3TMC1    C2   35   3.653   3.178  10.859 -0.2957 -0.2797 -0.0193
    3TMC1    C3   36   3.712   3.159  10.736 -0.4127  1.0787 -0.5985
    3TMC1    C4   37   3.752   2.978  10.934 -0.0299  0.3828 -0.4150
    3TMC1    C5   38   3.808   2.961  10.814 -0.1657  0.4127  0.4188
    3TMC1    C6   39   3.790   3.048  10.707  0.0497 -0.5227  1.2627
    3TMC1     C   40   3.603   3.090  11.086  0.4653 -0.1086  1.0425
    3TMC1     O   41   3.610   2.988  11.160  0.1130  0.9854 -0.5978
    3TMC1     H   42   3.580   3.257  10.867  1.8420  1.4281  2.8084
    3TMC1    H1   43   3.757   2.896  11.005 -1.2383  0.3029 -0.4304
    3TMC1    H2   44   3.811   3.029  10.603 -0.3422 -0.3635  1.1529
    3TMC1    C7   45   3.857   2.824  10.780 -0.2916  0.7124  0.3433
    3TMC1    C8   46   3.684   3.253  10.621  1.1577  0.1478 -0.0381
    3TMC1    O1   47   3.827   2.726  10.842  0.2870  0.1792 -0.3318
    3TMC1    O2   48   3.712   3.227  10.500 -0.3690 -0.3017 -0.8369
    3TMC1    O3   49   3.928   2.827  10.665  1.0308  0.2092 -0.0826
    3TMC1    H3   50   3.960   2.915  10.635 -1.1930  0.9575 -0.2179
    3TMC1    O5   51   3.699   3.374  10.680 -0.3695  0.5963 -0.0572
    3TMC1    H5   52   3.699   3.380  10.778  0.8715  2.6772 -0.1756
    4MPD2     C   53   3.390   3.369  11.459 -0.3018  0.2385 -0.7621
    4MPD2    C1   54   3.406   3.454  11.351 -0.4144  0.4053  0.7551
    4MPD2    C2   55   3.469   3.401  11.235  0.2213  0.6512 -0.0336
    4MPD2    C3   56   3.497   3.264  11.228 -0.4540 -0.2335 -1.0683
    4MPD2    C4   57   3.462   3.178  11.335  0.7428 -1.1387  0.2772
    4MPD2    C5   58   3.411   3.234  11.450  0.1640  0.1409  0.2616
    4MPD2     H   59   3.489   3.472  11.155 -0.7851  2.2220  1.0966
    4MPD2    H1   60   3.469   3.071  11.328  0.4831 -1.1259 -0.1479
    4MPD2    H2   61   3.346   3.399  11.553 -0.5343  0.2900 -0.8864
    4MPD2    H3   62   3.401   3.173  11.538 -1.5712  0.0637  0.0159
    4MPD2     N   63   3.551   3.213  11.107  0.2827 -0.2044 -0.5907
    4MPD2    H5   64   3.559   3.283  11.034  2.1034  0.2508  0.0370
    4MPD2    N1   65   3.383   3.590  11.359  0.1326  0.2388 -0.0490
    4MPD2    H7   66   3.406   3.645  11.277  0.0329 -0.6059 -0.6419
    5TCq1    O1   67   0.163   4.521  12.001  0.0833  0.1416  0.0052
    5TCq1    C1   68   0.058   4.490  12.080 -0.1750  0.0499  0.5420
    5TCq1    O2   69   0.059   4.390  12.151  0.1142 -0.3013  0.3398
    5TCq1    C2   70   4.717   4.611  12.105 -0.1112 -0.2970  0.7250
    5TCq1    C3   71   4.699   4.651  12.235 -0.1019 -0.0286 -0.4454
    5TCq1    C4   72   4.604   0.014  12.264  0.7821 -0.1981  0.0900
    5TCq1    C5   73   4.546   0.083  12.164  0.0997 -0.1568 -0.0114
    5TCq1    C6   74   4.567   0.038  12.035  0.9387  0.4944  0.2500
    5TCq1    C7   75   4.654   4.681  12.005 -0.6649  0.5453  0.0025
    5TCq1    C8   76   4.501   0.115  11.933 -0.7972 -0.1875 -0.1154
    5TCq1    O4   77   4.555   0.119  11.821 -0.2575 -0.5887  0.3135
    5TCq1    C9   78   4.569   0.051  12.405  0.0695  0.0921 -0.7486
    5TCq1    O5   79   4.638   4.735  12.496  0.3199  0.5703 -0.2258
    5TCq1    O6   80   4.475   0.132  12.420 -0.0831  0.0072 -0.2834
    5TCq1    H1   81   0.144   4.595  11.940  2.6027 -0.3428 -1.3597
    5TCq1    H2   82   0.022   4.612  12.317  0.6915  1.2555 -0.4080
    5TCq1    H3   83   4.483   0.168  12.191  0.0699 -0.2857  0.3238
    5TCq1    H4   84   4.660   4.650  11.902 -0.3431  0.8558 -0.0676
    6MPD2     C   85   4.185   0.293  11.974  0.8052 -0.0355 -0.1649
    6MPD2    C1   86   4.284   0.233  11.895 -0.0571  0.1100  0.0828
    6MPD2    C2   87   4.271   0.217  11.756 -0.0423 -0.0899 -0.5524
    6MPD2    C3   88   4.168   0.273  11.690  0.0189  0.3421 -0.5327
    6MPD2    C4   89   4.072   0.338  11.766  0.3297  0.1471 -0.2944
    6MPD2    C5   90   4.077   0.344  11.900  0.0303  0.0692 -0.5872
    6MPD2     H   91   4.348   0.164  11.702 -0.0012  0.4599 -1.0339
    6MPD2    H1   92   3.985   0.383  11.719  0.8280  0.9607 -0.4212
    6MPD2    H2   93   4.199   0.300  12.081 -1.6607 -1.2461  0.2360
    6MPD2    H3   94   3.990   0.388  11.947 -1.3862 -2.0821 -1.2276
    6MPD2     N   95   4.157   0.265  11.545  0.2237 -0.1063 -0.3083
    6MPD2    H5   96   4.234   0.223  11.494  0.2728 -2.5524  1.8019
    6MPD2    N1   97   4.381   0.174  11.972  0.5098  0.3502  0.0541
    6MPD2    H7   98   4.370   0.181  12.073 -0.3306  2.1553 -0.1701
    7TCq1    O1   99   2.102   4.480  14.022 -0.3042  0.0808  0.4989
    7TCq1    C1  100   2.171   4.587  13.972 -0.1090 -0.0841  0.4886
    7TCq1    O2  101   2.204   4.684  14.041 -0.4213  0.0577 -0.0430
    7TCq1    C2  102   2.179   4.567  13.829  0.3077  0.2700 -0.0089
    7TCq1    C3  103   2.167   4.678  13.748  0.1526  0.9954  0.3975
    7TCq1    C4  104   2.155   4.671  13.613  0.2296 -0.2137 -0.0994
    7TCq1    C5  105   2.138   4.545  13.562  0.2836  0.2410 -0.0903
    7TCq1    C6  106   2.145   4.438  13.645  0.2954 -0.5312  0.2214
    7TCq1    C7  107   2.176   4.443  13.781  0.2294  0.1717  0.8534
    7TCq1    C8  108   2.064   4.319  13.607 -0.6192  0.6792  0.0411
    7TCq1    O4  109   2.052   4.234  13.692  0.1696 -0.1268 -0.3218
    7TCq1    C9  110   2.165   0.046  13.526  0.3192 -0.3532 -1.0404
    7TCq1    O5  111   2.184   0.028  13.402 -0.0196 -0.3882  0.1714
    7TCq1    O6  112   2.166   0.157  13.586 -0.6797  0.3282  0.0394
    7TCq1    H1  113   2.059   4.428  13.951  2.2323  0.5737 -1.3915
    7TCq1    H2  114   2.183   0.038  13.795 -0.4091  0.5724  1.4570
    7TCq1    H3  115   2.132   4.539  13.454 -2.8782  0.6938  0.0766
    7TCq1    H4  116   2.186   4.353  13.841 -1.9780 -0.0428  0.8969
    8MPD2     C  117   1.766   4.046  13.288 -0.1561 -0.7327  0.1730
    8MPD2    C1  118   1.775   4.040  13.429 -0.5690  0.0334 -0.5222
    8MPD2    C2  119   1.870   4.122  13.494  0.0237 -0.8080  0.1945
    8MPD2    C3  120   1.944   4.217  13.420 -0.2693  0.5867  0.0201
    8MPD2    C4  121   1.935   4.220  13.283  0.4584  0.5562  0.5255
    8MPD2    C5  122   1.842   4.136  13.212  0.0991  0.3270 -0.4241
    8MPD2     H  123   1.879   4.117  13.602 -2.6095 -1.0072  0.3890
    8MPD2    H1  124   1.990   4.294  13.226 -0.6003  1.0416  0.1409
    8MPD2    H2  125   1.690   3.983  13.244 -0.4758 -0.7587  0.7687
    8MPD2    H3  126   1.819   4.154  13.108 -2.1735  1.4338  0.2796
    8MPD2     N  127   2.038   4.305  13.475 -0.2164 -0.9191 -0.5341
    8MPD2    H5  128   2.076   4.377  13.415  0.2709 -2.2896 -1.8720
    8MPD2    N1  129   1.683   3.957  13.505 -0.6424  0.1519  0.0638
    8MPD2    H7  130   1.618   3.900  13.452 -1.4646  0.8844  0.2835
    9TMC1    C1  131   4.728   3.874  11.410  0.1423  0.4721 -0.5266
    9TMC1    C2  132   4.736   3.739  11.370  0.4369  0.0659  0.0415
    9TMC1    C3  133   0.059   3.723  11.247  0.1322  0.2289  0.9766
    9TMC1    C4  134   0.072   3.964  11.343  0.2848 -0.4661  0.0421
    9TMC1    C5  135   0.142   3.934  11.233 -0.2205  0.5658  0.0246
    9TMC1    C6  136   0.139   3.811  11.182 -0.3866 -0.7241 -0.0327
    9TMC1     C  137   4.706   3.899  11.550 -0.6315 -0.5132  0.6092
    9TMC1     O  138   0.022   3.998  11.600  0.6009 -0.6997 -0.5389
    9TMC1     H  139   4.703   3.662  11.439 -0.4884  0.2826 -0.1530
    9TMC1    H1  140   0.072   4.069  11.369  0.0336 -0.5284  0.2919
    9TMC1    H2  141   0.209   3.778  11.106 -0.5554 -1.4082  0.1159
    9TMC1    C7  142   0.265   4.004  11.204 -0.1244  0.2428  0.9071
    9TMC1    C8  143   0.103   3.586  11.235  0.2527 -0.6925 -0.1707
    9TMC1    O1  144   0.372   3.946  11.193 -0.1233  0.5615 -0.0458
    9TMC1    O2  145   0.218   3.546  11.220 -0.0048 -0.0281 -0.1598
    9TMC1    O3  146   0.253   4.133  11.230 -0.9550  0.0355  0.1575
    9TMC1    H3  147   0.158   4.157  11.225 -0.1005  3.0609 -1.3306
    9TMC1    O5  148   0.005   3.497  11.256 -0.0794  0.2592 -0.0894
    9TMC1    H5  149   4.657   3.547  11.265 -0.2819  0.0722 -0.9370
   10MPD2     C  150   4.596   3.903  11.831  0.4951  1.3136  0.4471
   10MPD2    C1  151   4.577   3.800  11.748 -0.2978  0.3175 -0.1314
   10MPD2    C2  152   4.528   3.681  11.787  0.4206  1.1278  0.8467
   10MPD2    C3  153   4.484   3.670  11.925 -0.4240 -0.0369  0.1704
   10MPD2    C4  154   4.515   3.776  12.016 -0.0027  0.3168 -0.1200
   10MPD2    C5  155   4.560   3.888  11.961 -0.2515 -0.5537  0.1260
   10MPD2     H  156   4.524   3.601  11.714  0.2204  0.7956  1.2192
   10MPD2    H1  157   4.512   3.759  12.123  0.4190 -1.2934 -0.3625
   10MPD2    H2  158   4.639   3.997  11.798  0.7797  0.1450 -2.5334
   10MPD2    H3  159   4.576   3.969  12.032  0.3270 -0.3161 -0.2768
   10MPD2     N  160   4.430   3.552  11.988  0.1736 -0.4873 -0.2715
   10MPD2    H5  161   4.403   3.551  12.085 -0.4342 -2.4503 -0.4548
   10MPD2    N1  162   4.613   3.809  11.611  0.6022 -0.1051  0.2734
   10MPD2    H7  163   4.578   3.730  11.557 -1.8935  0.1272  1.5396
   11TCq1    O1  164   0.126   3.388  14.757 -0.6800 -0.3389 -0.1636
   11TCq1    C1  165   0.240   3.321  14.723  0.3078 -0.4313  0.4284
   11TCq1    O2  166   0.348   3.333  14.778  0.1057 -0.5059  0.5602
   11TCq1    C2  167   0.205   3.199  14.655 -0.4687  0.7217 -0.8224
   11TCq1    C3  168   0.287   3.092  14.683 -0.4002  0.3175 -0.7377
   11TCq1    C4  169   0.259   2.979  14.616 -0.1561 -0.2803  0.0559
   11TCq1    C5  170   0.135   2.958  14.555  0.5968 -0.0129 -0.6214
   11TCq1    C6  171   0.062   3.071  14.526 -0.1719  0.3973 -0.4283
   11TCq1    C7  172   0.100   3.196  14.567 -0.3547  1.2542  0.0634
   11TCq1    C8  173   4.703   3.065  14.414 -0.1840 -0.1508 -0.4409
   11TCq1    O4  174   4.623   3.153  14.398 -0.3721 -1.1950 -0.5256
   11TCq1    C9  175   0.349   2.865  14.640 -1.2076  0.0122 -0.3906
   11TCq1    O5  176   0.316   2.758  14.584  0.8988  0.1584 -0.0784
   11TCq1    O6  177   0.460   2.890  14.697  0.1036  0.2696  0.2957
   11TCq1    H1  178   0.036   3.360  14.729 -1.0570  2.3009 -1.5528
   11TCq1    H2  179   0.384   3.100  14.730  0.0909 -0.2784 -1.6484
   11TCq1    H3  180   0.121   2.855  14.523 -0.2836  0.5433 -2.0399
   11TCq1    H4  181   0.051   3.287  14.536 -1.2624  0.4277 -0.9365
   12MPD2     C  182   4.540   2.987  14.184  0.0693 -0.6361  0.4144
   12MPD2    C1  183   4.649   2.915  14.228  0.6451 -0.1989 -0.2906
   12MPD2    C2  184   4.682   2.802  14.156  0.0053  0.6317 -0.0561
   12MPD2    C3  185   4.602   2.760  14.051  0.2204  0.1049 -0.4923
   12MPD2    C4  186   4.496   2.837  14.005  0.8715 -0.1436  0.3758
   12MPD2    C5  187   4.463   2.954  14.079  0.4235 -0.0656  0.3947
   12MPD2     H  188   0.038   2.756  14.190  0.0858  0.2279 -0.8452
   12MPD2    H1  189   4.430   2.809  13.923 -1.0213  0.9917  1.4974
   12MPD2    H2  190   4.505   3.079  14.231  0.6273  0.2225 -0.8612
   12MPD2    H3  191   4.376   3.011  14.047 -0.1858 -1.2647 -0.0793
   12MPD2     N  192   4.628   2.640  13.987 -0.3718 -0.6028  0.1790
   12MPD2    H5  193   4.559   2.617  13.915  0.2743 -0.9176 -0.3376
   12MPD2    N1  194   4.729   2.957  14.330  0.0296  0.1548  0.2636
   12MPD2    H7  195   0.072   2.895  14.344 -0.2605 -0.5737 -1.2888
   13TCq1    O1  196   3.970   3.501  10.727 -0.7311 -0.6870 -0.3126
   13TCq1    C1  197   3.986   3.551  10.849  0.2296 -0.0526  0.2695
   13TCq1    O2  198   3.902   3.607  10.917 -0.0818 -0.3983  0.4683
   13TCq1    C2  199   4.099   3.488  10.912  0.1949 -0.2689 -0.6622
   13TCq1    C3  200   4.189   3.427  10.835 -0.1590  0.3839  0.6188
   13TCq1    C4  201   4.292   3.370  10.893  0.2338  0.2487 -0.0856
   13TCq1    C5  202   4.297   3.365  11.028 -0.4679  0.8624 -0.9467
   13TCq1    C6  203   4.197   3.421  11.104 -0.2061  0.4891 -0.0321
   13TCq1    C7  204   4.098   3.494  11.046 -0.4373 -0.0484  0.3516
   13TCq1    C8  205   4.164   3.374  11.238 -0.1537 -0.1477  0.5408
   13TCq1    O4  206   4.066   3.429  11.291  0.8340  0.7298  0.5339
   13TCq1    C9  207   4.402   3.305  10.825 -0.3019  0.3311 -0.0077
   13TCq1    O5  208   4.422   3.326  10.703 -0.1346 -0.1610  0.4579
   13TCq1    O6  209   4.460   3.208  10.886 -0.2015 -0.0243 -0.3392
   13TCq1    H1  210   4.041   3.442  10.693  0.2154 -1.0519  2.2825
   13TCq1    H2  211   4.192   3.432  10.726  0.6004 -0.9900  0.5763
   13TCq1    H3  212   4.389   3.323  11.068 -1.3312 -1.0394 -0.9914
   13TCq1    H4  213   4.021   3.543  11.104  0.1708  1.1836  0.1161
   14MPD2     C  214   4.311   3.081  11.409 -0.1277 -0.4721 -0.4966
   14MPD2    C1  215   4.232   3.187  11.393  0.7829 -0.0105 -0.6546
   14MPD2    C2  216   4.127   3.211  11.482  0.6257  0.1791 -0.1991
   14MPD2    C3  217   4.106   3.123  11.584 -0.7172  0.0389 -0.3671
   14MPD2    C4  218   4.193   3.021  11.602  0.3263  0.2508 -1.1228
   14MPD2    C5  219   4.292   2.993  11.519 -0.0473  0.2992 -0.0159
   14MPD2     H  220   4.059   3.293  11.465  0.6389 -0.2216 -2.1171
   14MPD2    H1  221   4.174   2.944  11.675  0.1728  1.2470 -0.1197
   14MPD2    H2  222   4.393   3.064  11.341  1.8829  0.1419  1.7592
   14MPD2    H3  223   4.344   2.900  11.535  0.1630  0.3867 -0.1881
   14MPD2     N  224   4.007   3.151  11.678  0.3179  0.0719 -0.9409
   14MPD2    H5  225   3.943   3.228  11.663 -1.7507 -1.6989 -1.0901
   14MPD2    N1  226   4.248   3.267  11.275 -0.2161 -0.3171  0.2077
   14MPD2    H7  227   4.330   3.249  11.219  3.0230  0.5944  4.6572
   15TCq1    O1  228   1.562   2.116   2.250 -0.1314 -0.4284 -0.4647
   15TCq1    C1  229   1.568   2.139   2.115  0.8776 -0.4699 -1.0929
   15TCq1    O2  230   1.665   2.157   2.044 -0.1675  0.0659 -0.2584
   15TCq1    C2  231   1.455   2.063   2.065  0.6654 -0.5316  0.2440
   15TCq1    C3  232   1.337   2.099   2.125 -0.4350 -0.3101 -0.8308
   15TCq1    C4  233   1.218   2.052   2.076  0.1487  0.0686  0.7876
   15TCq1    C5  234   1.218   1.972   1.966 -0.1068 -0.4946  0.9865
   15TCq1    C6  235   1.336   1.924   1.916  0.2664  0.3366  0.0506
   15TCq1    C7  236   1.458   1.974   1.963  0.7920  0.0107  0.1802
   15TCq1    C8  237   1.342   1.852   1.793  0.8257  0.2076  0.0089
   15TCq1    O4  238   1.451   1.798   1.774  0.0603 -0.5548 -0.2881
   15TCq1    C9  239   1.097   2.114   2.117 -0.0305 -0.7754  0.9219
   15TCq1    O5  240   0.989   2.064   2.079 -0.1029  0.4054 -0.0523
   15TCq1    O6  241   1.113   2.188   2.219 -0.1353  0.9927  0.4941
   15TCq1    H1  242   1.473   2.084   2.278  0.0663 -0.7924 -0.2429
   15TCq1    H2  243   1.340   2.173   2.204  0.3523 -1.8900  0.6252
   15TCq1    H3  244   1.125   1.944   1.916 -1.4383  1.7817  2.1579
   15TCq1    H4  245   1.552   1.945   1.918  0.8900 -1.3010  1.2376
   16MPD2     C  246   1.069   1.808   1.559  0.4915 -0.0066 -0.6413
   16MPD2    C1  247   1.187   1.771   1.617  0.4455  0.1289 -0.5048
   16MPD2    C2  248   1.258   1.663   1.563 -0.1468 -0.8697 -0.8133
   16MPD2    C3  249   1.213   1.589   1.454 -0.9814 -0.0339  0.2950
   16MPD2    C4  250   1.098   1.631   1.399 -0.4804  0.0543  1.2590
   16MPD2    C5  251   1.027   1.742   1.446 -0.1578 -1.0952  0.3414
   16MPD2     H  252   1.343   1.628   1.620  1.1414 -1.1248 -2.8769
   16MPD2    H1  253   1.061   1.589   1.306  0.6143  0.8003  0.4851
   16MPD2    H2  254   1.004   1.886   1.597  0.8071  1.0896 -2.4035
   16MPD2    H3  255   0.935   1.768   1.395  1.4318  0.2388 -1.7936
   16MPD2     N  256   1.292   1.480   1.404 -0.3737 -0.1092 -0.0498
   16MPD2    H5  257   1.381   1.475   1.453 -1.1003 -0.4111  1.2302
   16MPD2    N1  258   1.229   1.856   1.719 -0.1504  0.1895  0.4640
   16MPD2    H7  259   1.163   1.923   1.757 -0.5705 -0.0836  0.2041
   17TMC1    C1  260   3.866   2.912  11.399 -0.2799 -0.2460 -0.6694
   17TMC1    C2  261   3.775   3.000  11.454 -0.2586  0.5486  0.0806
   17TMC1    C3  262   3.733   2.975  11.579  0.1254 -1.2162 -0.6853
   17TMC1    C4  263   3.914   2.802  11.465 -0.2429  0.0220 -0.3892
   17TMC1    C5  264   3.867   2.785  11.594  0.5970  0.0623  0.1959
   17TMC1    C6  265   3.773   2.863  11.646  0.0362 -0.4197  0.0748
   17TMC1     C  266   3.927   2.960  11.274  0.5109  1.2246  0.4925
   17TMC1     O  267   3.891   3.069  11.237 -0.6183  0.0882 -0.3974
   17TMC1     H  268   3.740   3.085  11.397 -2.5794 -0.1282  0.4861
   17TMC1    H1  269   4.000   2.742  11.440 -1.1416 -1.2233 -0.5041
   17TMC1    H2  270   3.743   2.846  11.748 -2.0570  0.7136 -0.3460
   17TMC1    C7  271   3.905   2.667  11.662 -0.2774  0.2066 -0.8060
   17TMC1    C8  272   3.642   3.074  11.637 -0.3887  0.1247 -0.2789
   17TMC1    O1  273   3.875   2.645  11.775  0.0792 -0.0105 -0.0880
   17TMC1    O2  274   3.664   3.196  11.635 -0.4688  0.0867  0.5170
   17TMC1    O3  275   3.884   2.570  11.565  0.4378 -0.0178 -0.0712
   17TMC1    H3  276   3.918   2.582  11.474 -2.1989  1.6069 -0.8375
   17TMC1    O5  277   3.565   3.009  11.733 -0.5424 -0.0085  0.3845
   17TMC1    H5  278   3.541   2.916  11.715 -2.0191  0.1568  1.4225
   18MPD2     C  279   4.057   2.997  11.012  0.1954  0.1582 -0.3722
   18MPD2    C1  280   4.057   2.876  11.080 -0.8249 -0.2081  0.2141
   18MPD2    C2  281   4.132   2.770  11.040 -0.0714  0.4104 -0.1521
   18MPD2    C3  282   4.210   2.786  10.924  0.4438 -0.3953 -0.2284
   18MPD2    C4  283   4.220   2.908  10.852 -0.4862 -0.2447  0.6754
   18MPD2    C5  284   4.141   3.011  10.903  0.4415 -0.0525  0.7191
   18MPD2     H  285   4.131   2.680  11.101 -3.6736 -0.7176 -1.8777
   18MPD2    H1  286   4.284   2.928  10.767 -0.3199  0.2445  0.9176
   18MPD2    H2  287   4.007   3.085  11.052 -1.0263  0.1217 -1.7975
   18MPD2    H3  288   4.148   3.105  10.850 -0.1705  0.7744  2.1144
   18MPD2     N  289   4.290   2.684  10.875 -0.4254  0.0510 -0.1026
   18MPD2    H5  290   4.352   2.696  10.796 -0.9259  2.9296 -0.0488
   18MPD2    N1  291   4.001   2.864  11.211 -0.3784  0.1986 -0.0278
   18MPD2    H7  292   4.001   2.773  11.254  0.3550  0.8537  1.3644
   19TMC2    C1  293   1.181   3.081  14.117 -0.3833 -0.8249 -0.2132
   19TMC2    C2  294   1.114   3.166  14.204 -1.3983 -0.0822 -0.8396
   19TMC2    C3  295   1.006   3.118  14.271 -0.4899  0.1747  0.8425
   19TMC2    C4  296   1.139   2.950  14.093 -0.0581 -0.2223  0.8975
   19TMC2    C5  297   1.043   2.909  14.179 -0.5140 -0.4730  0.2700
   19TMC2    C6  298   0.978   2.986  14.265  0.2158  0.3442 -0.2730
   19TMC2     C  299   1.313   3.126  14.076  0.1544 -0.2792  0.4274
   19TMC2     O  300   1.338   3.244  14.096  0.1622  0.1073 -0.0422
   19TMC2     H  301   1.136   3.272  14.211 -0.8581 -0.2740  0.3537
   19TMC2    H1  302   1.181   2.884  14.017  1.3800 -0.6565  2.0777
   19TMC2    H2  303   0.905   2.956  14.339 -1.7545 -0.2938 -2.4470
   19TMC2    C7  304   0.969   2.787  14.141 -0.3182  0.5139 -0.7515
   19TMC2    C8  305   0.995   3.168  14.409  0.5777 -0.9520 -0.5118
   19TMC2    O1  306   1.030   2.722  14.059  1.0931  0.6746 -0.5774
   19TMC2    O2  307   1.047   3.113  14.509  0.6096  0.0058 -0.4572
   19TMC2    O5  308   0.970   3.294  14.389 -0.4007  0.1997  0.1074
   19TMC2    H5  309   0.923   3.306  14.304  2.8386  1.0533 -1.5592
   20MPD2     C  310   1.593   3.150  13.993  0.5975 -0.5102 -0.2765
   20MPD2    C1  311   1.533   3.029  14.011  0.2425  0.0611 -0.3507
   20MPD2    C2  312   1.603   2.908  14.000 -0.6397 -0.0181  0.9096
   20MPD2    C3  313   1.739   2.912  13.961 -0.3153 -0.2941  0.3123
   20MPD2    C4  314   1.800   3.035  13.953  0.0559  0.2290  0.1189
   20MPD2    C5  315   1.730   3.146  13.975 -0.5548  0.6403  0.4060
   20MPD2     H  316   1.555   2.811  14.012 -0.5320 -0.0901  0.7570
   20MPD2    H1  317   1.892   3.052  13.897  0.5445 -1.7919  0.3057
   20MPD2    H2  318   1.539   3.244  14.003 -0.7404 -0.9788 -3.0310
   20MPD2    H3  319   1.778   3.242  13.963 -0.1183  0.6630  2.3516
   20MPD2     N  320   1.818   2.799  13.935  0.9799 -0.1234 -0.4339
   20MPD2    H5  321   1.906   2.819  13.887  1.5181 -1.3625  0.0513
   20MPD2    N1  322   1.396   3.024  14.050  0.1211  0.1857  0.3248
   20MPD2    H7  323   1.361   2.929  14.040 -1.2208  0.7813 -0.6317
   21TMC2    C1  324   3.867   3.262  14.085  0.5501 -0.1449 -0.6776
   21TMC2    C2  325   3.877   3.206  13.955  0.0338  0.2228  0.4324
   21TMC2    C3  326   3.759   3.175  13.896 -0.5341  0.6154 -0.2781
   21TMC2    C4  327   3.743   3.270  14.149 -0.9505  0.2521 -0.1617
   21TMC2    C5  328   3.630   3.237  14.088  0.0839 -0.5126  0.1169
   21TMC2    C6  329   3.635   3.184  13.960 -0.5838 -0.0190  0.3797
   21TMC2     C  330   3.985   3.257  14.171  0.1375  0.2065 -0.5876
   21TMC2     O  331   4.071   3.180  14.128  0.4249  0.1115 -0.0055
   21TMC2     H  332   3.973   3.195  13.905  0.8670  1.5668  1.7171
   21TMC2    H1  333   3.743   3.317  14.246 -0.4581 -3.4994  1.6281
   21TMC2    H2  334   3.540   3.171  13.908 -0.9890  0.2765  1.0423
   21TMC2    C7  335   3.507   3.252  14.161 -0.4028 -0.3107  0.0788
   21TMC2    C8  336   3.773   3.142  13.754  0.3867 -0.3130 -0.9502
   21TMC2    O1  337   3.407   3.256  14.096  0.2349  0.4229 -0.3977
   21TMC2    O2  338   3.844   3.052  13.718 -0.1981 -0.3432 -0.7785
   21TMC2    O5  339   3.657   3.166  13.692  0.2074  0.1273 -0.6489
   21TMC2    H5  340   3.612   3.236  13.744 -1.7896 -0.8290 -1.1179
   22MPD2     C  341   4.259   3.335  14.603 -0.0643 -0.1140 -0.2460
   22MPD2    C1  342   4.256   3.235  14.511 -0.3535  0.0622  0.0324
   22MPD2    C2  343   4.171   3.237  14.404 -0.4409 -0.3222 -0.0509
   22MPD2    C3  344   4.086   3.349  14.382  0.3446 -0.3758 -0.5090
   22MPD2    C4  345   4.080   3.445  14.485  0.2459 -0.6366 -0.7979
   22MPD2    C5  346   4.176   3.442  14.588  0.2566  0.2139  0.2532
   22MPD2     H  347   4.169   3.147  14.344  3.1801  1.1972 -2.4526
   22MPD2    H1  348   3.999   3.516  14.495 -0.7037 -2.1493  2.2258
   22MPD2    H2  349   4.322   3.342  14.692  1.1424  1.2853 -1.2099
   22MPD2    H3  350   4.167   3.519  14.663 -1.3073  0.1641  0.1189
   22MPD2     N  351   3.983   3.334  14.288 -0.4282 -0.1848 -1.2601
   22MPD2    H5  352   3.906   3.399  14.299  1.4331  1.7492  0.2636
   22MPD2    N1  353   4.338   3.127  14.524  0.0794  0.0943 -0.1361
   22MPD2    H7  354   4.314   3.064  14.449 -0.4852  0.0771  0.0611
   23TMC2    C1  355   0.151   4.178  14.876  0.2944  0.6787  0.6144
   23TMC2    C2  356   0.093   4.300  14.859  0.6901 -0.3595  0.6385
   23TMC2    C3  357   4.697   4.304  14.850  0.0467 -0.0970 -0.8553
   23TMC2    C4  358   0.079   4.059  14.876  0.2014 -0.0266  1.0111
   23TMC2    C5  359   4.684   4.073  14.854  0.0922 -0.0056 -0.6424
   23TMC2    C6  360   4.622   4.193  14.833 -0.1504 -0.1371 -0.6700
   23TMC2     C  361   0.269   4.170  14.960 -0.7556 -0.7530 -0.7342
   23TMC2     O  362   0.265   4.081  15.046 -0.2102 -0.7150 -0.0570
   23TMC2     H  363   0.149   4.387  14.890 -0.7728  0.5694  0.6537
   23TMC2    H1  364   0.129   3.966  14.900  0.3853 -0.3805 -0.7414
   23TMC2    H2  365   4.516   4.204  14.818 -0.1749 -0.0377 -0.4267
   23TMC2    C7  366   4.602   3.957  14.891 -0.0619  0.0720 -0.3785
   23TMC2    C8  367   4.612   4.424  14.866 -0.1559 -0.2211 -0.0095
   23TMC2    O1  368   4.664   3.866  14.937  0.0968 -0.4399  0.7519
   23TMC2    O2  369   4.493   4.425  14.872  0.4322 -0.3536 -0.5673
   23TMC2    O5  370   4.694   4.529  14.838  0.7468 -0.2966  0.2262
   23TMC2    H5  371   0.054   4.517  14.823  0.6060  1.6759 -2.2839
   24MPD2     C  372   0.739   4.328  15.115 -0.1993  0.4450 -0.2324
   24MPD2    C1  373   0.646   4.237  15.162 -0.4576 -0.4078  0.4310
   24MPD2    C2  374   0.522   4.218  15.107 -0.2860  0.1437 -0.1362
   24MPD2    C3  375   0.482   4.283  14.996 -0.6630  0.4959 -0.9366
   24MPD2    C4  376   0.568   4.374  14.944 -0.2884  0.6312 -0.3607
   24MPD2    C5  377   0.695   4.397  15.003 -0.1689  0.1056 -0.7455
   24MPD2     H  378   0.454   4.149  15.155 -1.1733  0.2126 -1.2938
   24MPD2    H1  379   0.538   4.429  14.856 -0.0058 -2.1633 -2.2014
   24MPD2    H2  380   0.838   4.349  15.154 -0.7034 -0.1319  1.3738
   24MPD2    H3  381   0.754   4.480  14.965  0.0620  0.2008 -0.1940
   24MPD2     N  382   0.362   4.264  14.924 -0.4718 -0.4581  0.0719
   24MPD2    H5  383   0.353   4.308  14.833  0.5136  0.6629  0.5147
   24MPD2    N1  384   0.669   4.162  15.284  0.1196  0.3385  0.0621
   24MPD2    H7  385   0.605   4.090  15.315  1.0186  0.3967  2.0581
   25TMC2    C1  386   4.357   1.934  11.426 -0.1406  0.6847  0.0863
   25TMC2    C2  387   4.390   2.051  11.372  0.4706 -0.8514  0.3544
   25TMC2    C3  388   4.312   2.160  11.394 -0.1996  0.0005  0.1666
   25TMC2    C4  389   4.262   1.927  11.523 -0.3152  0.8143  0.9830
   25TMC2    C5  390   4.188   2.039  11.550  0.5565 -0.2399 -0.1566
   25TMC2    C6  391   4.200   2.158  11.479 -0.6279 -0.1351 -0.0435
   25TMC2     C  392   4.441   1.820  11.390 -0.0454 -0.4532  0.2077
   25TMC2     O  393   4.522   1.837  11.298  0.4210 -0.6203 -0.2661
   25TMC2     H  394   4.476   2.058  11.307  0.4642  0.6531  0.5090
   25TMC2    H1  395   4.258   1.836  11.581  2.3234 -0.6131 -1.0955
   25TMC2    H2  396   4.126   2.237  11.485  1.1701  1.6012 -0.5639
   25TMC2    C7  397   4.073   2.011  11.639 -0.2230  0.1588 -0.8389
   25TMC2    C8  398   4.314   2.284  11.313 -0.1678 -0.3742  0.4345
   25TMC2    O1  399   4.040   1.895  11.653  0.2079  0.3654  0.0371
   25TMC2    O2  400   4.247   2.382  11.344  0.0101  0.3626  1.0011
   25TMC2    O5  401   4.439   2.308  11.262  0.1555 -0.2947 -0.6046
   25TMC2    H5  402   4.487   2.231  11.224 -0.3056  0.1694 -2.1170
   26MPD2     C  403   4.508   1.317  11.330 -0.1321 -0.5336 -0.6741
   26MPD2    C1  404   4.378   1.337  11.357 -0.2756  0.1839 -0.7279
   26MPD2    C2  405   4.337   1.470  11.391 -0.2542  0.8329  0.3085
   26MPD2    C3  406   4.420   1.575  11.396 -0.4512  0.0396  0.5137
   26MPD2    C4  407   4.553   1.547  11.372 -0.5162  0.4061 -0.1527
   26MPD2    C5  408   4.594   1.421  11.346 -0.0671  0.4803  0.0402
   26MPD2     H  409   4.232   1.496  11.401  0.0988  2.3745  0.0020
   26MPD2    H1  410   4.631   1.622  11.380 -0.3973  0.4898 -2.3141
   26MPD2    H2  411   4.546   1.225  11.286 -1.3166 -0.9477 -0.8255
   26MPD2    H3  412   4.699   1.412  11.321  0.1801  0.7793  0.9838
   26MPD2     N  413   4.374   1.709  11.407  0.9120  0.7994 -0.2096
   26MPD2    H5  414   4.276   1.714  11.435  1.1633  0.6912  0.6932
   26MPD2    N1  415   4.281   1.235  11.334  0.2827 -0.3059  0.1712
   26MPD2    H7  416   4.318   1.155  11.284  0.0760 -0.0155 -0.4394
   27TMC2    C1  417   2.390   3.942  12.380  0.1433 -0.0144  0.3004
   27TMC2    C2  418   2.343   4.063  12.334 -0.8541  0.2491  0.5424
   27TMC2    C3  419   2.366   4.173  12.410  0.2220 -0.5537  0.0949
   27TMC2    C4  420   2.464   3.940  12.496 -0.9470  0.3370  0.3810
   27TMC2    C5  421   2.492   4.053  12.561 -0.0518  0.7993 -0.6155
   27TMC2    C6  422   2.447   4.169  12.521  0.1474  0.5020  0.5785
   27TMC2     C  423   2.294   3.832  12.391  0.9101  0.1628 -0.0403
   27TMC2     O  424   2.182   3.856  12.419 -0.8258 -0.3753  0.2758
   27TMC2     H  425   2.285   4.065  12.242  0.7140 -3.2277 -0.5137
   27TMC2    H1  426   2.484   3.850  12.553 -0.5490  0.4108  0.3577
   27TMC2    H2  427   2.458   4.265  12.569  0.0373 -0.2899  2.1689
   27TMC2    C7  428   2.489   4.037  12.706 -0.3356 -0.1411 -0.2032
   27TMC2    C8  429   2.356   4.300  12.329 -0.6948  0.1288  0.1497
   27TMC2    O1  430   2.430   3.942  12.742  0.1188  0.1387  0.2441
   27TMC2    O2  431   2.404   4.313  12.220 -0.3953 -0.0894 -0.1876
   27TMC2    O5  432   2.281   4.382  12.399  0.0722 -0.2850 -0.0828
   27TMC2    H5  433   2.261   4.337  12.483 -2.4589 -1.1716 -1.1814
   28MPD2     C  434   2.191   3.339  12.445  0.4884 -0.6768  0.2313
   28MPD2    C1  435   2.135   3.447  12.505 -0.4817 -0.3549 -0.3018
   28MPD2    C2  436   2.191   3.570  12.476 -0.4242 -0.0544 -0.0813
   28MPD2    C3  437   2.307   3.590  12.406  0.2753  0.3697  0.5071
   28MPD2    C4  438   2.365   3.469  12.358  0.1430 -0.5219 -0.0855
   28MPD2    C5  439   2.307   3.345  12.377  0.6598 -0.8069 -0.0860
   28MPD2     H  440   2.141   3.655  12.519  1.7036  0.8402  0.5905
   28MPD2    H1  441   2.459   3.472  12.304 -1.2933 -1.4513 -2.6074
   28MPD2    H2  442   2.141   3.246  12.468 -1.1922 -0.1660 -1.3800
   28MPD2    H3  443   2.370   3.258  12.364  1.7399  0.1684 -1.4995
   28MPD2     N  444   2.362   3.716  12.371  0.4271  0.3142 -0.1100
   28MPD2    H5  445   2.456   3.714  12.334 -0.4540  0.9160 -2.3861
   28MPD2    N1  446   2.012   3.434  12.575 -0.2556  0.0764  0.0462
   28MPD2    H7  447   1.982   3.340  12.596  1.0495 -0.8578 -2.2991
   29TMC2    C1  448   2.587   1.303  14.158 -0.0491 -0.7082  0.1998
   29TMC2    C2  449   2.575   1.322  14.298 -0.3070 -0.0139 -0.3649
   29TMC2    C3  450   2.586   1.454  14.344 -0.2719  0.1293  0.0264
   29TMC2    C4  451   2.630   1.403  14.074 -0.2839  0.4898  0.7945
   29TMC2    C5  452   2.638   1.530  14.131  0.2587  0.6313 -0.0602
   29TMC2    C6  453   2.620   1.561  14.261  0.9504 -0.1382  0.4275
   29TMC2     C  454   2.607   1.163  14.121  0.2218  0.1050 -0.2813
   29TMC2     O  455   2.644   1.077  14.198 -0.4720 -0.9249  0.3450
   29TMC2     H  456   2.553   1.250  14.377 -0.5670  1.6179  1.0526
   29TMC2    H1  457   2.651   1.386  13.969 -0.7983 -1.2773  0.9734
   29TMC2    H2  458   2.624   1.665  14.292 -1.2728 -0.1957  0.8772
   29TMC2    C7  459   2.659   1.634  14.031 -0.7676 -0.2105 -0.5804
   29TMC2    C8  460   2.532   1.484  14.473 -0.1712  0.3440 -0.1583
   29TMC2    O1  461   2.593   1.628  13.929  0.4653 -0.1498 -0.6946
   29TMC2    O2  462   2.479   1.396  14.542 -0.0970  0.1614  0.3761
   29TMC2    O5  463   2.514   1.620  14.487  0.3695  0.1349 -0.2667
   29TMC2    H5  464   2.567   1.679  14.428 -1.6744  1.3936 -0.8376
   30MPD2     C  465   2.523   0.785  13.778  0.1912 -0.1825 -0.0452
   30MPD2    C1  466   2.578   0.777  13.902 -0.6013  0.3197  0.2965
   30MPD2    C2  467   2.594   0.892  13.980  0.3626 -0.5297  0.0157
   30MPD2    C3  468   2.552   1.012  13.922  0.3471  0.3976  0.2028
   30MPD2    C4  469   2.485   1.013  13.806 -0.0468  0.1989  0.6021
   30MPD2    C5  470   2.478   0.901  13.729  0.3488 -0.0942  0.0356
   30MPD2     H  471   2.640   0.896  14.078 -3.6021  1.3565  1.7861
   30MPD2    H1  472   2.448   1.106  13.763  1.7520  0.4293 -0.4491
   30MPD2    H2  473   2.521   0.699  13.712 -3.1735 -0.9498  1.0779
   30MPD2    H3  474   2.428   0.900  13.633 -3.0931  1.3873  1.8118
   30MPD2     N  475   2.561   1.134  13.988 -0.1468 -0.3578 -0.0343
   30MPD2    H5  476   2.533   1.219  13.941  0.9381  0.5728  1.0260
   30MPD2    N1  477   2.624   0.654  13.958  0.3703  0.2760 -0.1872
   30MPD2    H7  478   2.650   0.654  14.057  0.9053  2.1716 -0.3290
   31TMC2    C1  479   0.077   4.693  15.596  0.5368 -0.4235  0.4954
   31TMC2    C2  480   4.681   4.729  15.591  0.3268  0.7902 -0.3128
   31TMC2    C3  481   4.617   4.720  15.711 -0.5064 -0.1011 -0.4115
   31TMC2    C4  482   0.131   4.656  15.716  0.0455  0.4743 -0.2285
   31TMC2    C5  483   0.050   4.624  15.818 -0.2494  0.2863 -0.9180
   31TMC2    C6  484   4.659   4.664  15.826  0.2680 -0.1570  0.1149
   31TMC2     C  485   0.157   0.006  15.480 -1.1115  0.3114 -0.4456
   31TMC2     O  486   0.116   0.110  15.437 -0.4061 -0.3292 -0.3306
   31TMC2     H  487   4.640   0.036  15.501  1.6491  2.0601 -0.3076
   31TMC2    H1  488   0.239   4.646  15.727  0.0567  1.0052  0.1433
   31TMC2    H2  489   4.592   4.647  15.909  0.7268  0.0907  0.5367
   31TMC2    C7  490   0.118   4.604  15.944  0.8578  0.0939 -0.9314
   31TMC2    C8  491   4.483   0.045  15.725 -0.2862  0.1063  0.6859
   31TMC2    O1  492   0.217   4.535  15.929 -0.1147  0.1390 -0.0492
   31TMC2    O2  493   4.412   0.022  15.821 -0.2756 -0.2710  0.3628
   31TMC2    O5  494   4.444   0.102  15.610  0.3295 -0.6709  0.5835
   31TMC2    H5  495   4.519   0.148  15.567 -1.2869  0.5521 -0.8782
   32MPD2     C  496   0.582   4.732  15.205  0.5323 -0.2520  0.7419
   32MPD2    C1  497   0.496   0.097  15.223  0.4442 -0.5655  0.6871
   32MPD2    C2  498   0.391   0.080  15.312 -0.0397  0.0747 -0.2006
   32MPD2    C3  499   0.374   4.695  15.374 -0.3523  0.3726 -0.6749
   32MPD2    C4  500   0.471   4.598  15.363  0.3715 -0.0837  0.1807
   32MPD2    C5  501   0.567   4.619  15.274 -0.0912  0.0590 -0.4398
   32MPD2     H  502   0.322   0.162  15.329 -0.0791  0.3775 -1.8025
   32MPD2    H1  503   0.473   4.502  15.414  0.3333 -0.6144 -0.8046
   32MPD2    H2  504   0.665   0.004  15.136 -0.4160  1.1982 -0.2286
   32MPD2    H3  505   0.644   4.546  15.256 -0.1067 -0.2570  0.7491
   32MPD2     N  506   0.269   4.669  15.463  0.3666 -0.1962  0.3707
   32MPD2    H5  507   0.273   4.574  15.499  2.9215 -0.1690  0.1596
   32MPD2    N1  508   0.519   0.212  15.141  0.3934  0.4341 -0.2296
   32MPD2    H7  509   0.595   0.206  15.074  0.4713  1.1052 -0.1966
   33TMC2    C1  510   0.089   3.092  10.264  0.6144  0.4301 -0.2224
   33TMC2    C2  511   0.019   3.116  10.145 -1.0282  0.8468 -0.2367
   33TMC2    C3  512   0.052   3.223  10.065 -0.6883  0.1776  0.3191
   33TMC2    C4  513   0.180   3.183  10.307  0.1772  0.1067 -0.2701
   33TMC2    C5  514   0.197   3.296  10.231 -0.3574 -0.0323 -0.4809
   33TMC2    C6  515   0.142   3.312  10.106  0.2259 -0.2569  0.8532
   33TMC2     C  516   0.087   2.962  10.316 -0.0041  0.4718 -0.6913
   33TMC2     O  517   4.719   2.902  10.309 -0.3774 -0.3321  0.5500
   33TMC2     H  518   4.697   3.035  10.103 -2.9403  1.1337  1.8726
   33TMC2    H1  519   0.235   3.162  10.398 -1.1035 -1.7185  0.0759
   33TMC2    H2  520   0.164   3.397  10.042  0.4931 -0.8248  0.1902
   33TMC2    C7  521   0.308   3.388  10.261 -0.6560  1.6593  0.0616
   33TMC2    C8  522   0.000   3.221   9.928  0.4278  0.1321  0.6195
   33TMC2    O1  523   0.345   3.456  10.165 -0.2435  0.3429 -0.3490
   33TMC2    O2  524   4.691   3.330   9.891  0.1360  0.3313  0.1339
   33TMC2    O5  525   0.085   3.137   9.866  0.4388  0.2530 -0.0852
   33TMC2    H5  526   0.088   3.054   9.919 -0.7983 -0.0437 -0.4738
   34MPD2     C  527   0.278   2.563  10.566 -0.0882  0.5993  0.2704
   34MPD2    C1  528   0.148   2.601  10.553  0.0746  0.0441  0.5552
   34MPD2    C2  529   0.124   2.718  10.484 -0.7401 -0.0645  0.6192
   34MPD2    C3  530   0.227   2.796  10.437 -0.1384 -0.0844  0.5683
   34MPD2    C4  531   0.360   2.755  10.453 -0.4926  0.0498  0.0059
   34MPD2    C5  532   0.385   2.641  10.520 -0.3232  0.4918 -0.4020
   34MPD2     H  533   0.022   2.746  10.462 -0.8024  0.8097  2.0140
   34MPD2    H1  534   0.447   2.802  10.408 -0.9511 -0.5638 -1.5132
   34MPD2    H2  535   0.308   2.472  10.617 -1.9124 -0.3856 -0.4454
   34MPD2    H3  536   0.487   2.605  10.530 -0.8528 -0.5877  1.1969
   34MPD2     N  537   0.206   2.914  10.366 -0.1973  0.7079  0.3202
   34MPD2    H5  538   0.293   2.959  10.338 -0.3692  1.1514  0.4898
   34MPD2    N1  539   0.051   2.515  10.612 -0.2479 -0.2763 -0.1061
   34MPD2    H7  540   0.076   2.453  10.688 -1.3037  0.0485  0.4952
   35TMC2    C1  541   0.776   3.680  11.331 -0.4992 -0.2589  0.7135
   35TMC2    C2  542   0.792   3.632  11.199  0.0095 -0.0165  0.1345
   35TMC2    C3  543   0.684   3.564  11.156  0.5007 -0.4439  0.1961
   35TMC2    C4  544   0.672   3.643  11.414 -0.0609 -0.3350 -0.9130
   35TMC2    C5  545   0.578   3.564  11.365 -0.2433  0.0964  0.5875
   35TMC2    C6  546   0.571   3.535  11.229 -0.8932  0.2835  0.6864
   35TMC2     C  547   0.894   3.740  11.378  0.4358 -0.3846  0.3151
   35TMC2     O  548   0.979   3.765  11.297 -0.0864 -0.0724  0.2979
   35TMC2     H  549   0.875   3.641  11.129  0.3036  0.7554  0.5883
   35TMC2    H1  550   0.671   3.674  11.518 -0.3836 -2.7018 -0.2201
   35TMC2    H2  551   0.496   3.474  11.180 -2.6970  2.5497  0.6455
   35TMC2    C7  552   0.514   3.477  11.463  1.1646  0.4198  0.0360
   35TMC2    C8  553   0.680   3.492  11.033  0.2436  0.0265  0.3931
   35TMC2    O1  554   0.559   3.478  11.575 -0.6702 -0.3697 -0.3679
   35TMC2    O2  555   0.643   3.375  11.033  0.2004 -0.3997 -0.0244
   35TMC2    O5  556   0.738   3.571  10.936 -0.1388 -0.0353 -0.3559
   35TMC2    H5  557   0.762   3.660  10.970 -2.0575  0.5050 -0.4183
   36MPD2     C  558   1.160   3.974  11.760  0.6392  0.4095 -0.3882
   36MPD2    C1  559   1.080   3.877  11.815 -0.8086 -0.7144 -0.4890
   36MPD2    C2  560   0.986   3.810  11.739 -0.1249 -1.1811 -0.4992
   36MPD2    C3  561   0.975   3.831  11.603 -0.0102 -0.2973 -0.4933
   36MPD2    C4  562   1.071   3.911  11.551 -0.1217 -0.3746  0.1072
   36MPD2    C5  563   1.158   3.989  11.628 -0.4690 -0.3802 -0.3170
   36MPD2     H  564   0.927   3.737  11.794  1.4026 -0.5689  1.9700
   36MPD2    H1  565   1.079   3.938  11.446  1.5040  1.5798  0.7356
   36MPD2    H2  566   1.246   4.018  11.810  0.2614  0.4971  0.1758
   36MPD2    H3  567   1.228   4.051  11.573 -2.2049  1.3960 -0.5311
   36MPD2     N  568   0.889   3.750  11.517  0.1839  0.6159  0.3882
   36MPD2    H5  569   0.819   3.689  11.558  1.0304  0.8475  2.1585
   36MPD2    N1  570   1.081   3.858  11.961 -0.7048  0.5553  0.2848
   36MPD2    H7  571   1.024   3.783  11.998 -1.4359  0.6976 -0.5415
   37TMC2    C1  572   2.996   4.449  11.786  0.3659 -0.0710  0.6476
   37TMC2    C2  573   2.930   4.521  11.693  0.2695  0.2439  0.4275
   37TMC2    C3  574   2.976   4.507  11.571 -0.3398 -0.6947  0.2890
   37TMC2    C4  575   3.111   4.384  11.767  0.3351 -0.9174 -0.2328
   37TMC2    C5  576   3.152   4.368  11.640  0.4626 -0.5033 -0.0390
   37TMC2    C6  577   3.083   4.424  11.537  0.2060 -0.4027  0.2333
   37TMC2     C  578   2.926   4.444  11.912  0.5319  0.4522  0.0220
   37TMC2     O  579   2.816   4.500  11.917  0.4281  0.2811 -0.0629
   37TMC2     H  580   2.833   4.569  11.697  0.1827  0.2565 -1.7848
   37TMC2    H1  581   3.167   4.322  11.836  0.6262 -1.0263 -0.5619
   37TMC2    H2  582   3.102   4.414  11.430  0.6092  0.7349  0.2054
   37TMC2    C7  583   3.294   4.341  11.621  0.5200  0.3730  0.6962
   37TMC2    C8  584   2.930   4.592  11.466  0.0012 -0.6361 -0.5567
   37TMC2    O1  585   3.358   4.289  11.711 -0.0263 -0.4194  0.4475
   37TMC2    O2  586   2.944   4.563  11.347  0.7365  0.1043  0.9964
   37TMC2    O5  587   2.908   4.721  11.501 -0.1072  0.4098 -0.2163
   37TMC2    H5  588   2.934   0.007  11.593 -2.1092  0.2755  0.3835
   38MPD2     C  589   2.814   4.248  12.362  0.5214  0.0151 -0.3925
   38MPD2    C1  590   2.949   4.228  12.344  0.4378 -0.0942 -0.6138
   38MPD2    C2  591   3.002   4.263  12.227 -0.4737  0.3948  0.5169
   38MPD2    C3  592   2.931   4.334  12.128  0.3549  0.2458  0.6639
   38MPD2    C4  593   2.797   4.349  12.152 -0.2403 -0.4642 -0.1528
   38MPD2    C5  594   2.741   4.305  12.262 -0.0910  0.4700 -0.5487
   38MPD2     H  595   3.108   4.241  12.214 -0.6088  0.0857 -0.0026
   38MPD2    H1  596   2.724   4.391  12.083 -1.5718 -0.5942  1.1659
   38MPD2    H2  597   2.766   4.223  12.456 -2.4973 -0.6264 -2.0978
   38MPD2    H3  598   2.634   4.316  12.270 -0.2115 -1.5065  0.6788
   38MPD2     N  599   2.992   4.367  12.003  0.3701  0.4180  0.2365
   38MPD2    H5  600   3.083   4.326  11.988  0.3018 -0.1591  1.4667
   38MPD2    N1  601   3.025   4.149  12.435 -0.5214 -0.3269  0.1475
   38MPD2    H7  602   3.125   4.133  12.422 -0.3979  0.9779 -0.4808
   39TMC2    C1  603   2.127   0.681   1.466 -0.7294 -0.5330  0.1415
   39TMC2    C2  604   2.083   0.622   1.587  0.0594  0.4162  0.1456
   39TMC2    C3  605   2.176   0.580   1.676  0.1732 -0.0232  0.6951
   39TMC2    C4  606   2.255   0.678   1.436 -0.0404  0.3583  0.2622
   39TMC2    C5  607   2.344   0.639   1.529 -0.1198  0.5655  0.0098
   39TMC2    C6  608   2.307   0.592   1.654 -0.2131  0.0316  0.0896
   39TMC2     C  609   2.024   0.693   1.362  0.5751  0.2363  0.0141
   39TMC2     O  610   1.909   0.678   1.394 -0.2498 -0.2249 -0.2578
   39TMC2     H  611   1.980   0.603   1.615 -0.8535  1.7300 -2.2609
   39TMC2    H1  612   2.284   0.724   1.342  0.9717  0.4847  0.6451
   39TMC2    H2  613   2.382   0.579   1.731 -1.9963  1.0931  1.9675
   39TMC2    C7  614   2.482   0.627   1.496 -0.2466  0.0557 -0.3663
   39TMC2    C8  615   2.117   0.570   1.801 -0.5935  0.3706  0.0498
   39TMC2    O1  616   2.550   0.554   1.571 -0.4036  0.0462  0.1551
   39TMC2    O2  617   2.053   0.659   1.848  0.1034  0.0447  0.3637
   39TMC2    O5  618   2.197   0.485   1.864 -0.1166 -0.1612 -0.6712
   39TMC2    H5  619   2.233   0.416   1.803  0.2636  0.4502 -1.1374
   40MPD2     C  620   2.081   0.667   0.996  0.3743  0.5267  0.0043
   40MPD2    C1  621   2.007   0.682   1.113  0.2796 -0.5193  0.8003
   40MPD2    C2  622   1.869   0.703   1.102  0.3306  0.2105 -0.2031
   40MPD2    C3  623   1.810   0.690   0.980  0.0543  0.5646  0.4953
   40MPD2    C4  624   1.886   0.650   0.872  0.1740  0.3504 -0.4252
   40MPD2    C5  625   2.021   0.633   0.884  0.0386 -1.0007 -0.3570
   40MPD2     H  626   1.807   0.729   1.187  1.8209 -1.9829  1.5394
   40MPD2    H1  627   1.839   0.633   0.775 -1.6541  0.6240  0.4018
   40MPD2    H2  628   2.187   0.645   1.006  0.3012  0.3453  0.4100
   40MPD2    H3  629   2.075   0.595   0.798 -1.2617  0.9276 -2.0386
   40MPD2     N  630   1.674   0.719   0.959 -0.1311 -0.2383  0.3095
   40MPD2    H5  631   1.643   0.721   0.863  0.1933  1.0082  0.2372
   40MPD2    N1  632   2.076   0.691   1.236 -0.0669  0.6395 -0.9394
   40MPD2    H7  633   2.176   0.687   1.220  0.1232 -0.2869  0.4493
   41TMC2    C1  634   1.120   4.102  13.301  0.2377  0.0550 -0.5046
   41TMC2    C2  635   1.034   4.020  13.369 -0.9265 -0.5615  0.3993
   41TMC2    C3  636   0.941   3.955  13.288  0.6019  0.2158  0.3559
   41TMC2    C4  637   1.110   4.125  13.161  0.6416  0.4469 -0.6068
   41TMC2    C5  638   1.013   4.057  13.101  1.3965 -0.3129  0.1907
   41TMC2    C6  639   0.922   3.972  13.152  0.2097  0.3159  0.4948
   41TMC2     C  640   1.242   4.155  13.372  0.0354 -0.1587  0.3775
   41TMC2     O  641   1.346   4.149  13.310 -0.0132  0.1453  0.1263
   41TMC2     H  642   1.043   4.010  13.477  3.7137  1.0561  0.1524
   41TMC2    H1  643   1.177   4.201  13.122  0.0864  0.6448 -1.1702
   41TMC2    H2  644   0.836   3.929  13.102 -0.4033  2.1469 -0.0335
   41TMC2    C7  645   1.004   4.084  12.961  0.0631  0.0311  0.3484
   41TMC2    C8  646   0.824   3.914  13.355 -0.0179 -0.9977  0.5884
   41TMC2    O1  647   1.024   4.194  12.912 -0.0305 -0.7305 -0.6944
   41TMC2    O2  648   0.719   3.960  13.317  0.3792 -0.5848 -0.3566
   41TMC2    O5  649   0.853   3.876  13.481  0.5583 -0.1086 -0.8339
   41TMC2    H5  650   0.946   3.845  13.488  0.5311  0.0241  0.1926
   42MPD2     C  651   1.446   4.222  13.577 -0.3109  0.3930 -0.5763
   42MPD2    C1  652   1.310   4.231  13.603 -0.0845 -0.4015  0.6343
   42MPD2    C2  653   1.266   4.250  13.735 -0.6345  0.5952 -0.2815
   42MPD2    C3  654   1.361   4.281  13.832 -0.0930  0.1650  0.1775
   42MPD2    C4  655   1.496   4.272  13.805 -0.6406  0.2559  0.4181
   42MPD2    C5  656   1.535   4.253  13.675 -0.4145  0.0421  0.5883
   42MPD2     H  657   1.163   4.260  13.769 -0.8417  1.4615 -1.1537
   42MPD2    H1  658   1.567   4.304  13.879 -0.3004 -0.6628  0.4899
   42MPD2    H2  659   1.495   4.192  13.485 -1.4406 -0.1322 -0.9983
   42MPD2    H3  660   1.639   4.248  13.645 -0.1164 -2.8779  2.1617
   42MPD2     N  661   1.330   4.297  13.973  0.1795  0.2620  0.4098
   42MPD2    H5  662   1.405   4.293  14.041 -1.2465 -0.8191  1.8950
   42MPD2    N1  663   1.217   4.193  13.503 -0.4768  0.2981 -0.5218
   42MPD2    H7  664   1.121   4.206  13.530 -0.0207  0.0636  1.2067
   43TMC2    C1  665   1.901   2.160   0.835  0.3786 -0.0994 -0.0024
   43TMC2    C2  666   1.789   2.091   0.865 -0.1610 -0.4305 -0.4318
   43TMC2    C3  667   1.730   2.127   0.984  0.0109  0.5283  0.9937
   43TMC2    C4  668   1.949   2.259   0.914  0.8868  0.0896 -0.3147
   43TMC2    C5  669   1.889   2.298   1.029 -0.2177  1.1096  0.6739
   43TMC2    C6  670   1.773   2.232   1.066  0.0016  0.2342 -0.2255
   43TMC2     C  671   1.976   2.123   0.722  0.0662  0.2810  1.2447
   43TMC2     O  672   1.973   2.004   0.689 -0.0326 -0.6688 -0.3292
   43TMC2     H  673   1.758   2.013   0.796  1.5673 -0.9440 -0.6152
   43TMC2    H1  674   2.042   2.308   0.886  1.0234  0.1286  0.2010
   43TMC2    H2  675   1.709   2.268   1.146 -0.4962 -0.0995 -0.4759
   43TMC2    C7  676   1.971   2.380   1.115  0.4851  0.9592  1.0360
   43TMC2    C8  677   1.600   2.071   1.002  0.3127 -0.0524  0.3636
   43TMC2    O1  678   2.078   2.433   1.079  0.3426  0.3062 -0.6113
   43TMC2    O2  679   1.512   2.143   1.044 -0.0357 -0.1337  0.3582
   43TMC2    O5  680   1.616   1.948   1.051  0.1730 -0.4243  0.5645
   43TMC2    H5  681   1.710   1.926   1.033  0.4889  3.9550 -2.9811
   44MPD2     C  682   2.308   2.251   0.340 -0.4046 -0.0271  0.4200
   44MPD2    C1  683   2.278   2.127   0.398 -0.3100 -0.4316  0.2203
   44MPD2    C2  684   2.181   2.118   0.494  0.1784  0.0828 -0.2422
   44MPD2    C3  685   2.106   2.232   0.533 -0.2531 -0.0043  0.3059
   44MPD2    C4  686   2.125   2.355   0.469 -0.4090 -0.1954  0.3704
   44MPD2    C5  687   2.228   2.359   0.380  0.1350  0.2515 -0.0779
   44MPD2     H  688   2.181   2.031   0.560 -0.2283  0.6311  0.4818
   44MPD2    H1  689   2.077   2.441   0.514 -1.6380  0.1078 -1.4889
   44MPD2    H2  690   2.379   2.268   0.260 -2.9061 -1.0715 -2.0374
   44MPD2    H3  691   2.248   2.451   0.326  0.9421  0.2018  0.1375
   44MPD2     N  692   2.023   2.233   0.650  0.4557 -0.1069  0.0701
   44MPD2    H5  693   1.988   2.326   0.673  1.0922  0.8028 -2.6833
   44MPD2    N1  694   2.345   2.009   0.367 -0.1240  0.3010 -0.4596
   44MPD2    H7  695   2.311   1.921   0.405 -0.3259  0.2086 -0.8549
   45TMC2    C1  696   2.666   4.679   9.855  0.6683  0.5675 -0.2622
   45TMC2    C2  697   2.669   4.658   9.719  0.2181  0.3275 -0.8498
   45TMC2    C3  698   2.710   0.026   9.639 -0.1705 -0.7150  0.6209
   45TMC2    C4  699   2.709   0.059   9.905 -0.4329  0.1219 -0.0957
   45TMC2    C5  700   2.753   0.158   9.822 -0.4669 -0.0440 -0.5808
   45TMC2    C6  701   2.755   0.143   9.686 -0.3606  0.2071 -0.3861
   45TMC2     C  702   2.648   4.570   9.945  0.5757  0.7584  0.4407
   45TMC2     O  703   2.680   4.586  10.064 -0.2452 -0.1817 -0.2061
   45TMC2     H  704   2.658   4.558   9.680 -0.1313 -0.0867  0.3145
   45TMC2    H1  705   2.723   0.063  10.013 -0.3765 -1.3974 -0.0509
   45TMC2    H2  706   2.794   0.215   9.615  2.6029 -1.2613 -0.2442
   45TMC2    C7  707   2.797   0.282   9.888 -0.1064 -0.0629 -1.0644
   45TMC2    C8  708   2.693   0.011   9.497  0.5930 -0.0417 -0.3837
   45TMC2    O1  709   2.805   0.276  10.012  0.5150  0.5042  0.1641
   45TMC2    O2  710   2.745   0.087   9.414 -0.7635 -0.0885 -0.3500
   45TMC2    O5  711   2.568   4.700   9.481 -0.1563 -0.0890  0.3164
   45TMC2    H5  712   2.531   4.644   9.553  2.0079 -0.7754  0.8973
   46MPD2     C  713   2.722   4.300  10.007 -0.1275 -0.7277 -0.0265
   46MPD2    C1  714   2.615   4.331   9.924 -0.0247 -0.0723  0.5458
   46MPD2    C2  715   2.550   4.226   9.871 -0.1203  0.3307  0.0123
   46MPD2    C3  716   2.579   4.100   9.907  0.1273 -0.4023 -0.2394
   46MPD2    C4  717   2.687   4.067   9.988 -0.4553  0.3481  0.2527
   46MPD2    C5  718   2.759   4.172  10.031 -0.4314 -0.1650 -0.4719
   46MPD2     H  719   2.462   4.248   9.812 -0.2917 -0.3772 -0.0050
   46MPD2    H1  720   2.704   3.967  10.025  1.3175  0.9942  1.1730
   46MPD2    H2  721   2.790   4.370  10.052 -1.9468  1.4815 -0.7200
   46MPD2    H3  722   2.839   4.150  10.100  0.8956 -0.0036 -1.9698
   46MPD2     N  723   2.487   4.000   9.867 -0.1583  0.0086  0.4653
   46MPD2    H5  724   2.396   4.037   9.841 -0.1351  0.0910  0.5033
   46MPD2    N1  725   2.593   4.464   9.881 -0.2911  0.5787  0.1975
   46MPD2    H7  726   2.546   4.473   9.792  2.9379  0.9475 -1.4948
   47TMC2    C1  727   4.337   4.512   8.976 -0.2662 -0.4902 -0.2288
   47TMC2    C2  728   4.427   4.459   8.888  0.8329  0.2920 -0.2143
   47TMC2    C3  729   4.381   4.343   8.826  0.1194  0.0411 -0.0419
   47TMC2    C4  730   4.215   4.451   9.002 -0.0960 -0.5232 -1.0824
   47TMC2    C5  731   4.181   4.340   8.939  0.1457  0.5655  0.0993
   47TMC2    C6  732   4.259   4.282   8.842  0.4898  0.0117  0.0474
   47TMC2     C  733   4.383   4.613   9.073 -0.4294  0.6568  0.4253
   47TMC2     O  734   4.291   4.685   9.117  0.4174 -0.6310 -0.3769
   47TMC2     H  735   4.528   4.496   8.870  1.2817 -1.9084 -2.3755
   47TMC2    H1  736   4.149   4.487   9.080 -1.9536 -0.2800 -2.7766
   47TMC2    H2  737   4.244   4.180   8.808 -0.7369 -0.0000  0.6213
   47TMC2    C7  738   4.067   4.267   8.975  0.0375 -0.8276 -0.2965
   47TMC2    C8  739   4.477   4.253   8.768  0.1422  0.1173 -0.8012
   47TMC2    O1  740   4.026   4.279   9.092  0.0972 -0.6173 -0.1930
   47TMC2    O2  741   4.452   4.135   8.748 -0.5383 -0.5226 -0.2222
   47TMC2    O5  742   4.546   4.319   8.670  0.4158  0.3432 -0.0887
   47TMC2    H5  743   4.538   4.417   8.668  0.1841  0.2918 -2.2089
   48MPD2     C  744   4.542   0.063   9.239  0.1660 -0.1483  0.1022
   48MPD2    C1  745   4.587   4.673   9.198 -0.5031  0.5104  0.1527
   48MPD2    C2  746   4.711   4.630   9.236 -0.1412  0.4700 -0.1713
   48MPD2    C3  747   0.053   4.703   9.316 -0.4694  0.1804 -0.6909
   48MPD2    C4  748   0.010   0.090   9.361 -0.0473 -0.4826 -0.1364
   48MPD2    C5  749   4.623   0.137   9.320 -0.0274 -0.4093  0.4771
   48MPD2     H  750   4.736   4.529   9.205  1.0188  0.3488  1.1688
   48MPD2    H1  751   0.066   0.163   9.419  0.3933 -0.4565 -0.5996
   48MPD2    H2  752   4.452   0.114   9.206  0.5300  2.3388  2.9334
   48MPD2    H3  753   4.591   0.230   9.365  0.5696 -0.8198  1.7363
   48MPD2     N  754   0.186   4.665   9.334 -0.6432  0.2545  0.1536
   48MPD2    H5  755   0.222   4.606   9.260 -0.8625  0.1298  0.1431
   48MPD2    N1  756   4.510   4.592   9.112  0.1181 -0.3578 -0.5108
   48MPD2    H7  757   4.553   4.505   9.083 -2.1578 -1.0497 -1.8279
   49TMC2    C1  758   0.105   2.238  10.322  0.2940  0.5318 -0.7994
   49TMC2    C2  759   0.159   2.355  10.283 -0.1600 -0.5427  0.1566
   49TMC2    C3  760   0.083   2.440  10.214  0.7029 -1.1571  0.7315
   49TMC2    C4  761   4.721   2.202  10.275 -0.3714 -0.2283 -0.5662
   49TMC2    C5  762   4.646   2.295  10.207  0.2838 -0.4469  0.0733
   49TMC2    C6  763   4.689   2.419  10.181  0.0994  0.3041  0.0725
   49TMC2     C  764   0.158   2.161  10.432  0.1407  0.3928  0.2676
   49TMC2     O  765   0.264   2.104  10.410  0.1764 -0.6294  0.1008
   49TMC2     H  766   0.240   2.385  10.349 -0.1408  0.7662 -0.4534
   49TMC2    H1  767   4.679   2.103  10.289 -1.9620  0.2364 -1.9311
   49TMC2    H2  768   4.621   2.493  10.141  1.8210  1.8551  0.0443
   49TMC2    C7  769   4.502   2.278  10.228  0.4741  0.2545 -0.2369
   49TMC2    C8  770   0.149   2.558  10.161 -0.1164  0.1638 -0.2114
   49TMC2    O1  771   4.458   2.167  10.207  0.0842 -0.1993 -0.0315
   49TMC2    O2  772   0.093   2.654  10.124 -0.2026 -0.4629  0.1994
   49TMC2    O5  773   0.264   2.509  10.118  0.3854 -0.1175  0.3830
   49TMC2    H5  774   0.276   2.413  10.131  1.1799  0.0727  1.0255
   50MPD2     C  775   0.194   1.964  10.666 -0.3319  0.6827  1.0621
   50MPD2    C1  776   0.072   2.020  10.629  0.3516  0.4429  0.3248
   50MPD2    C2  777   4.691   1.976  10.693 -0.4709  0.6629  0.3299
   50MPD2    C3  778   4.694   1.875  10.790 -0.1078 -0.3562 -1.1029
   50MPD2    C4  779   0.081   1.818  10.819  0.0053  0.7479 -0.0800
   50MPD2    C5  780   0.199   1.860  10.750 -0.5323  0.3038 -0.1753
   50MPD2     H  781   4.599   2.027  10.667  0.0447  1.1878 -0.4633
   50MPD2    H1  782   0.101   1.759  10.908  2.8322  2.1047  0.1868
   50MPD2    H2  783   0.288   1.992  10.621 -1.1919  0.2302 -1.0157
   50MPD2    H3  784   0.295   1.816  10.777  0.4784  1.3731 -2.0075
   50MPD2     N  785   4.583   1.831  10.873 -0.5251  0.6299  0.3022
   50MPD2    H5  786   4.596   1.771  10.953  0.2494 -2.0658 -1.8321
   50MPD2    N1  787   0.059   2.113  10.517  0.1560  0.1540  0.4318
   50MPD2    H7  788   4.707   2.159  10.499 -0.0073 -0.5983 -0.6333
   51TMC2    C1  789   3.316   0.789   0.807 -0.2133  0.2688  0.2964
   51TMC2    C2  790   3.305   0.853   0.931 -0.3541 -0.3576  0.5388
   51TMC2    C3  791   3.367   0.976   0.941 -0.0386  0.1401  0.1969
   51TMC2    C4  792   3.359   0.844   0.694 -0.6437 -0.2062 -0.1555
   51TMC2    C5  793   3.397   0.976   0.700 -0.1201 -1.4790 -0.1968
   51TMC2    C6  794   3.408   1.044   0.824  0.0603 -0.0798  0.2926
   51TMC2     C  795   3.356   0.650   0.817  0.6384 -0.2643  0.2164
   51TMC2     O  796   3.455   0.620   0.758  0.0056 -0.3783  0.6767
   51TMC2     H  797   3.281   0.805   1.025  0.4239  0.6041  1.2339
   51TMC2    H1  798   3.346   0.776   0.611  0.5488  0.5648 -0.9649
   51TMC2    H2  799   3.438   1.147   0.837  1.0030 -0.2541 -0.5106
   51TMC2    C7  800   3.490   1.025   0.597 -0.1487  0.2680 -0.5485
   51TMC2    C8  801   3.345   1.053   1.062 -0.4574  0.3487  0.5374
   51TMC2    O1  802   3.554   1.122   0.631 -0.4876  0.1520  0.4625
   51TMC2    O2  803   3.247   1.031   1.134  0.6474  0.3429  0.7810
   51TMC2    O5  804   3.425   1.165   1.080  0.0613  0.3531 -0.0786
   51TMC2    H5  805   3.512   1.143   1.040 -0.1414 -0.1917 -0.2223
   52MPD2     C  806   3.359   0.209   1.070  0.2473  1.0321 -0.5122
   52MPD2    C1  807   3.467   0.286   1.016 -0.1116  0.1084  0.3187
   52MPD2    C2  808   3.435   0.407   0.953 -0.4217 -0.4962 -0.6853
   52MPD2    C3  809   3.308   0.461   0.959 -0.6459 -0.6435 -0.3458
   52MPD2    C4  810   3.212   0.401   1.031 -0.1366  0.4338 -0.8454
   52MPD2    C5  811   3.235   0.269   1.070  0.0884 -0.1245 -0.0593
   52MPD2     H  812   3.517   0.456   0.903 -0.6778 -0.8163 -1.4127
   52MPD2    H1  813   3.113   0.446   1.038  0.1056  0.9015 -0.3654
   52MPD2    H2  814   3.370   0.116   1.126  1.2668  2.2754  1.3501
   52MPD2    H3  815   3.156   0.211   1.116  0.0764 -0.6210 -0.7240
   52MPD2     N  816   3.271   0.582   0.899 -0.5090  0.0591 -0.1625
   52MPD2    H5  817   3.176   0.617   0.907 -0.3141  0.9759 -1.9097
   52MPD2    N1  818   3.601   0.246   1.001 -0.2543  0.0187  0.1678
   52MPD2    H7  819   3.660   0.323   0.970 -0.7078 -0.5000 -2.0135
   53TMC2    C1  820   4.030   4.252  11.582 -0.4428 -0.6917 -0.6619
   53TMC2    C2  821   4.145   4.200  11.523  0.2415  0.6808  0.2046
   53TMC2    C3  822   4.233   4.137  11.602 -0.1201  0.1989 -0.4052
   53TMC2    C4  823   3.999   4.234  11.711  0.3480  0.3606  0.6230
   53TMC2    C5  824   4.096   4.181  11.788  0.8558 -0.3844 -1.4359
   53TMC2    C6  825   4.211   4.128  11.736  0.3300  1.0371 -0.6807
   53TMC2     C  826   3.946   4.326  11.495 -0.2205  1.2135 -1.0176
   53TMC2     O  827   3.999   4.382  11.403  0.3917 -0.6516 -0.0915
   53TMC2     H  828   4.161   4.209  11.416 -1.7651 -1.1766 -0.2504
   53TMC2    H1  829   3.914   4.286  11.753  0.1264 -2.6190  3.8276
   53TMC2    H2  830   4.277   4.068  11.798 -2.5939  0.1662  1.6020
   53TMC2    C7  831   4.086   4.221  11.928  0.0610 -0.1118  0.0959
   53TMC2    C8  832   4.349   4.078  11.540 -0.4355  0.9467  0.5865
   53TMC2    O1  833   4.004   4.304  11.960  0.1733 -0.7900  0.0193
   53TMC2    O2  834   4.353   4.071  11.419  0.3261  0.2779 -0.6466
   53TMC2    O5  835   4.442   4.141  11.607  0.4089  0.3706  0.6450
   53TMC2    H5  836   4.434   4.144  11.705 -1.4048  2.6969  0.4209
   54MPD2     C  837   3.720   4.465  11.366  0.0739 -0.3613 -0.2818
   54MPD2    C1  838   3.705   4.384  11.475 -0.1921 -0.4710 -0.6155
   54MPD2    C2  839   3.577   4.362  11.528 -0.5812 -0.3568  0.4661
   54MPD2    C3  840   3.465   4.412  11.463 -0.6114  0.0935 -0.5886
   54MPD2    C4  841   3.482   4.482  11.346 -0.0205  0.1945  0.0826
   54MPD2    C5  842   3.606   4.518  11.305  0.2826 -0.4249  0.5049
   54MPD2     H  843   3.563   4.303  11.618 -0.7517  0.7793  1.1763
   54MPD2    H1  844   3.399   4.516  11.285  2.1508 -1.5271 -3.8229
   54MPD2    H2  845   3.815   4.461  11.312 -0.9649  1.6358 -2.2456
   54MPD2    H3  846   3.605   4.571  11.210 -0.5175  2.7318  2.2672
   54MPD2     N  847   3.337   4.403  11.509 -0.4085  0.0582 -0.2986
   54MPD2    H5  848   3.276   4.454  11.446 -0.9765 -1.6083 -1.0917
   54MPD2    N1  849   3.816   4.320  11.531  0.1861  0.6382  0.3181
   54MPD2    H7  850   3.806   4.261  11.613  0.9647 -2.2129 -1.6877
   55TMC2    C1  851   0.597   1.571  17.056 -0.2329 -0.3888  0.3736
   55TMC2    C2  852   0.595   1.494  16.941 -0.5841  0.0662 -0.3729
   55TMC2    C3  853   0.632   1.364  16.957  0.4314 -0.5989 -0.0023
   55TMC2    C4  854   0.622   1.522  17.184  0.2486 -0.7969 -0.3428
   55TMC2    C5  855   0.654   1.383  17.184  0.2518  0.0644  0.0513
   55TMC2    C6  856   0.646   1.304  17.073 -0.0099  0.8026 -0.9597
   55TMC2     C  857   0.567   1.719  17.065 -0.6594 -1.0597 -0.1984
   55TMC2     O  858   0.569   1.763  17.177  0.0290 -0.9273 -0.3960
   55TMC2     H  859   0.570   1.533  16.843 -1.6040 -1.3324 -0.6728
   55TMC2    H1  860   0.637   1.586  17.270  0.1258  1.0453 -1.6884
   55TMC2    H2  861   0.683   1.202  17.078  2.0523  1.5157 -1.9114
   55TMC2    C7  862   0.662   1.316  17.318 -0.1931 -0.8218  0.4907
   55TMC2    C8  863   0.579   1.275  16.848  0.7113  0.5287  0.7577
   55TMC2    O1  864   0.707   1.202  17.319  0.0851 -0.4374  0.1984
   55TMC2    O2  865   0.536   1.161  16.865  0.6108 -0.9470 -0.1126
   55TMC2    O5  866   0.639   1.324  16.739 -0.2332  0.1029  0.5265
   55TMC2    H5  867   0.712   1.385  16.766  0.5679 -0.6579  0.0833
   56MPD2     C  868   0.464   1.942  16.792  0.7617 -0.1257  0.7104
   56MPD2    C1  869   0.464   1.901  16.922 -0.6529 -0.0432 -0.4881
   56MPD2    C2  870   0.413   1.975  17.030 -0.1493  0.2976  0.3490
   56MPD2    C3  871   0.349   2.095  16.990 -0.1453 -0.4783 -0.5712
   56MPD2    C4  872   0.342   2.136  16.861  0.2024  0.7050 -0.3172
   56MPD2    C5  873   0.396   2.060  16.764  0.7263  0.2454  0.5043
   56MPD2     H  874   0.427   1.950  17.134 -1.6399 -0.1615  0.4350
   56MPD2    H1  875   0.287   2.225  16.836 -0.6958  0.4339  0.7025
   56MPD2    H2  876   0.521   1.888  16.717 -1.6292 -3.6354  1.3833
   56MPD2    H3  877   0.386   2.102  16.664  0.4394 -0.4724  0.2359
   56MPD2     N  878   0.302   2.172  17.098  0.2136  0.8852 -0.1117
   56MPD2    H5  879   0.329   2.125  17.183  1.2046 -0.4782 -1.1767
   56MPD2    N1  880   0.537   1.784  16.940  0.3369 -0.7710  0.3491
   56MPD2    H7  881   0.563   1.736  16.855 -2.2167 -0.1580 -0.7718
   57TMC2    C1  882   0.092   3.051  13.548 -0.3893 -0.0362  0.2062
   57TMC2    C2  883   0.024   2.960  13.474  0.0395 -0.1674 -0.3316
   57TMC2    C3  884   0.098   2.849  13.450 -0.1219  0.1353  0.1051
   57TMC2    C4  885   0.218   3.038  13.591  0.5933  0.0544 -0.2671
   57TMC2    C5  886   0.294   2.939  13.539 -0.3650  0.4389 -0.1633
   57TMC2    C6  887   0.233   2.844  13.463  0.1786 -0.1542 -0.1539
   57TMC2     C  888   0.007   3.151  13.612 -1.1002  0.3569 -0.0812
   57TMC2     O  889   4.648   3.188  13.544 -0.2490 -0.4472 -0.1191
   57TMC2     H  890   4.652   2.961  13.463 -0.0145 -2.6313  0.0333
   57TMC2    H1  891   0.269   3.114  13.649  0.7642 -1.5263  1.6554
   57TMC2    H2  892   0.287   2.761  13.421  0.9864  0.9565 -1.3204
   57TMC2    C7  893   0.432   2.952  13.556 -1.2461 -0.2367  0.2450
   57TMC2    C8  894   0.044   2.753  13.356 -0.3810  0.7795 -0.0554
   57TMC2    O1  895   0.476   3.050  13.612 -0.1735  0.1865  0.0658
   57TMC2    O2  896   0.110   2.687  13.270 -0.2611 -0.2841 -0.1285
   57TMC2    O5  897   4.671   2.707  13.413 -0.4522 -0.1897  0.5488
   57TMC2    H5  898   4.654   2.744  13.502  0.6693 -2.2840  1.6279
   58MPD2     C  899   4.537   3.387  14.008 -0.5006 -0.2429  0.3025
   58MPD2    C1  900   4.521   3.405  13.873 -0.2639  0.3624  0.4077
   58MPD2    C2  901   4.605   3.339  13.786  0.0547 -0.2858  0.2066
   58MPD2    C3  902   4.698   3.261  13.828 -0.6897  0.0682 -0.1666
   58MPD2    C4  903   4.714   3.241  13.966 -0.2872  0.3050  0.1452
   58MPD2    C5  904   4.643   3.314  14.059 -0.1525 -0.3953 -0.0870
   58MPD2     H  905   4.588   3.366  13.682  3.5514 -2.3079 -0.8938
   58MPD2    H1  906   0.050   3.173  14.009  1.7855  1.8237 -0.9340
   58MPD2    H2  907   4.476   3.451  14.071  0.1718  2.1089 -1.4529
   58MPD2    H3  908   4.663   3.301  14.164  1.0055  3.0763  0.1401
   58MPD2     N  909   0.039   3.186  13.739  0.3107 -0.0690  0.1118
   58MPD2    H5  910   0.106   3.122  13.780  1.6689 -0.0569 -2.0388
   58MPD2    N1  911   4.413   3.488  13.825  0.2338  0.1665  0.1076
   58MPD2    H7  912   4.402   3.517  13.728  1.3411  0.3467  0.0403
   59TMC2    C1  913   1.810   2.842  12.729 -0.3998 -0.1542  0.0344
   59TMC2    C2  914   1.686   2.807  12.771 -0.3858 -0.8728  0.1822
   59TMC2    C3  915   1.584   2.889  12.724  0.1955  0.5752 -0.4363
   59TMC2    C4  916   1.837   2.946  12.643  0.4555  0.4011  0.4752
   59TMC2    C5  917   1.738   3.028  12.604  0.3863  0.0479 -0.0246
   59TMC2    C6  918   1.607   3.000  12.641 -0.3051 -0.6026  0.7385
   59TMC2     C  919   1.921   2.772  12.793 -0.3854 -0.0695 -0.3261
   59TMC2     O  920   1.941   2.659  12.752 -0.2155  0.3411 -0.2257
   59TMC2     H  921   1.672   2.724  12.839  1.3255 -0.4430  1.0493
   59TMC2    H1  922   1.941   2.969  12.624  0.4552 -1.2264 -1.5956
   59TMC2    H2  923   1.522   3.063  12.620 -0.5422 -0.3664  2.3980
   59TMC2    C7  924   1.764   3.148  12.524 -0.2331 -0.0508 -0.1118
   59TMC2    C8  925   1.447   2.878  12.769 -0.4877 -0.3918  0.5742
   59TMC2    O1  926   1.883   3.157  12.494 -0.7346 -0.1753  0.2969
   59TMC2    O2  927   1.365   2.972  12.775 -0.1582 -0.2810  0.0350
   59TMC2    O5  928   1.433   2.763  12.822  0.6279 -0.8285  0.0711
   59TMC2    H5  929   1.493   2.694  12.786  0.2710  0.0763 -2.2600
   60MPD2     C  930   2.196   2.724  12.862 -0.2552  0.5222 -1.4359
   60MPD2    C1  931   2.125   2.828  12.915  0.2158  0.4371 -0.0977
   60MPD2    C2  932   2.180   2.905  13.019  0.0971  0.0117 -0.7119
   60MPD2    C3  933   2.310   2.881  13.055 -0.3906  0.4923  0.1072
   60MPD2    C4  934   2.384   2.784  12.999  0.2747 -0.5426  0.5121
   60MPD2    C5  935   2.325   2.702  12.907  0.5695 -0.2606 -0.1549
   60MPD2     H  936   2.130   2.993  13.057 -1.4313  0.1963 -3.1243
   60MPD2    H1  937   2.492   2.778  13.003  0.2870 -0.0595  0.7985
   60MPD2    H2  938   2.150   2.662  12.785 -2.5427 -1.1685  1.2727
   60MPD2    H3  939   2.387   2.625  12.862 -0.3765 -1.7291  1.0909
   60MPD2     N  940   2.379   2.983  13.126  0.2933 -0.2710 -0.1031
   60MPD2    H5  941   2.478   2.981  13.105  0.1873 -0.3893 -0.5938
   60MPD2    N1  942   1.997   2.860  12.863 -0.4331  0.2120 -0.3991
   60MPD2    H7  943   1.946   2.945  12.884  0.1153  0.6386 -0.7958
   61TMC2    C1  944   1.817   4.086  15.371  0.8365 -1.2688  0.7064
   61TMC2    C2  945   1.830   3.995  15.476 -0.0607 -0.0693 -0.4328
   61TMC2    C3  946   1.718   3.977  15.554  0.5842  0.5326 -0.1994
   61TMC2    C4  947   1.699   4.148  15.338  0.3608 -0.1736 -0.0961
   61TMC2    C5  948   1.587   4.109  15.416 -1.3157  0.5669  0.1973
   61TMC2    C6  949   1.593   4.031  15.519  0.1810  0.1393  0.7097
   61TMC2     C  950   1.914   4.087  15.268  0.3006  0.4039  0.8402
   61TMC2     O  951   2.010   4.015  15.279 -0.4280 -0.0825 -0.2672
   61TMC2     H  952   1.922   3.941  15.492  0.9415  1.1118 -2.2013
   61TMC2    H1  953   1.686   4.226  15.264 -1.9871 -0.8278 -0.3609
   61TMC2    H2  954   1.512   4.014  15.588 -1.6523  2.4192 -0.8659
   61TMC2    C7  955   1.483   4.220  15.414 -0.4571  1.0902  0.2936
   61TMC2    C8  956   1.716   3.857  15.635  0.3681 -0.0524  0.1629
   61TMC2    O1  957   1.511   4.317  15.348 -0.2044 -0.2704 -0.5874
   61TMC2    O2  958   1.622   3.776  15.638 -0.1929  0.6784 -0.0330
   61TMC2    O5  959   1.841   3.843  15.687 -0.1506  0.3572  0.4309
   61TMC2    H5  960   1.887   3.926  15.711  1.7397 -0.6570  0.3373
   62MPD2     C  961   2.118   4.181  15.054  0.5993  0.3597  0.9526
   62MPD2    C1  962   1.992   4.236  15.076 -0.3528  0.2592 -0.1985
   62MPD2    C2  963   1.966   4.352  15.010  0.1963  0.4440  0.3874
   62MPD2    C3  964   2.057   4.412  14.927  0.5942 -0.3291 -0.3013
   62MPD2    C4  965   2.184   4.358  14.911  0.6791 -0.1819  0.1118
   62MPD2    C5  966   2.212   4.238  14.977  0.1817  0.1064  0.1904
   62MPD2     H  967   1.869   4.399  15.024 -1.7790 -2.8251 -2.3936
   62MPD2    H1  968   2.258   4.404  14.847  1.1660  3.6723  3.4489
   62MPD2    H2  969   2.144   4.089  15.106  1.1539  0.1486  0.3065
   62MPD2    H3  970   2.307   4.186  14.983  0.0553  0.1061  1.9572
   62MPD2     N  971   2.032   4.549  14.884  0.2213  0.3137 -0.0595
   62MPD2    H5  972   2.110   4.608  14.857  0.4560  0.7435  1.5305
   62MPD2    N1  973   1.901   4.194  15.179 -0.4249 -0.8147  0.1185
   62MPD2    H7  974   1.814   4.245  15.188  0.6375  0.9265  0.4378
   63TMC2    C1  975   0.875   0.098  10.367 -0.3980  0.4524 -0.3775
   63TMC2    C2  976   0.985   0.048  10.305  0.1804 -0.2654 -0.1473
   63TMC2    C3  977   1.024   0.105  10.186 -0.0030 -0.3383 -0.4166
   63TMC2    C4  978   0.791   0.185  10.296  0.2550  0.1403 -0.3566
   63TMC2    C5  979   0.823   0.212  10.168  0.3217 -0.4584 -0.5064
   63TMC2    C6  980   0.947   0.188  10.107 -0.3929 -0.3845  0.2940
   63TMC2     C  981   0.804   4.717  10.430 -0.6736  0.6283 -0.5533
   63TMC2     O  982   0.853   4.648  10.516  0.1714 -0.4615  0.3636
   63TMC2     H  983   1.043   4.707  10.354 -0.8112 -2.2681 -2.1144
   63TMC2    H1  984   0.697   0.218  10.339 -0.1003  0.7504 -1.5753
   63TMC2    H2  985   0.972   0.219  10.006 -0.9581  0.5365  0.4351
   63TMC2    C7  986   0.701   0.207  10.086  0.7249 -0.2416 -0.1388
   63TMC2    C8  987   1.106   0.017  10.105  0.4827  0.5471 -0.8867
   63TMC2    O1  988   0.610   0.147  10.143  0.4326 -0.1997 -0.2287
   63TMC2    O2  989   1.063   4.643  10.077 -0.0372  0.0538  0.2229
   63TMC2    O5  990   1.178   0.097  10.021  0.4812 -0.3625  0.5202
   63TMC2    H5  991   1.207   0.184  10.058 -0.9004 -0.1265  1.0559
   64MPD2     C  992   0.411   4.388  10.399  0.3490 -0.1809 -0.5194
   64MPD2    C1  993   0.513   4.391  10.495  0.4688  0.6665 -0.0461
   64MPD2    C2  994   0.601   4.497  10.491  0.4753  0.3750 -0.5810
   64MPD2    C3  995   0.590   4.603  10.397 -0.1814 -0.1258 -0.1293
   64MPD2    C4  996   0.481   4.605  10.321 -0.6497  0.8512 -0.0298
   64MPD2    C5  997   0.389   4.503  10.326 -0.2689  0.0052  0.4889
   64MPD2     H  998   0.676   4.504  10.569 -0.4926 -0.8733  0.4775
   64MPD2    H1  999   0.467   4.694  10.261  0.2613  1.1364  0.1912
   64MPD2    H2 1000   0.332   4.313  10.401  0.5873 -0.3867  1.3595
   64MPD2    H3 1001   0.303   4.512  10.260 -0.1879 -0.2593  0.3458
   64MPD2     N 1002   0.683   4.704  10.369  0.0853  0.3722  0.2945
   64MPD2    H5 1003   0.655   0.028  10.292  1.6441  0.9767  0.1943
   64MPD2    N1 1004   0.533   4.288  10.591 -0.2327  0.1114 -0.0478
   64MPD2    H7 1005   0.595   4.303  10.670  0.2111 -0.6160 -0.2579
   65TMC2    C1 1006   2.296   4.024  15.645 -0.0627 -0.3625 -0.2212
   65TMC2    C2 1007   2.334   3.983  15.526  0.1590 -0.5292  0.1006
   65TMC2    C3 1008   2.303   4.071  15.430  0.1351 -0.1846 -0.0901
   65TMC2    C4 1009   2.218   4.127  15.673 -0.1193 -0.1662  0.3022
   65TMC2    C5 1010   2.179   4.205  15.567 -0.3291 -0.4799  0.3045
   65TMC2    C6 1011   2.225   4.179  15.447  0.6315  0.0348 -0.2507
   65TMC2     C 1012   2.324   3.934  15.751 -0.3192  0.0325 -0.1797
   65TMC2     O 1013   2.364   3.978  15.859 -0.2615 -0.3933 -0.0188
   65TMC2     H 1014   2.407   3.903  15.515 -0.7090 -1.2881 -0.0871
   65TMC2    H1 1015   2.183   4.150  15.773  3.1609 -0.0992  1.4422
   65TMC2    H2 1016   2.199   4.235  15.358 -0.5253  0.8573  0.6112
   65TMC2    C7 1017   2.088   4.317  15.577 -0.0210 -0.3638 -0.2070
   65TMC2    C8 1018   2.385   4.062  15.313 -0.1355  0.8173  0.5526
   65TMC2    O1 1019   2.044   4.348  15.467  0.2376 -0.7084  0.2747
   65TMC2    O2 1020   2.452   3.962  15.285 -0.0885 -0.7329 -0.2037
   65TMC2    O5 1021   2.440   4.185  15.307 -0.4265  0.5054 -0.1066
   65TMC2    H5 1022   2.396   4.250  15.367 -1.9998 -0.5722 -0.0870
   66MPD2     C 1023   2.296   3.686  15.930  0.7163  0.7041 -0.4918
   66MPD2    C1 1024   2.302   3.684  15.794  0.7009  0.2524  0.0559
   66MPD2    C2 1025   2.306   3.569  15.730  0.0522 -0.2050 -0.2140
   66MPD2    C3 1026   2.282   3.455  15.797 -0.3396 -0.0844  0.2498
   66MPD2    C4 1027   2.276   3.456  15.933 -0.6112  0.6544 -0.2987
   66MPD2    C5 1028   2.286   3.571  16.006 -0.7006  0.4274  0.5205
   66MPD2     H 1029   2.324   3.564  15.623  2.7334 -1.4775  0.2858
   66MPD2    H1 1030   2.255   3.364  15.987 -2.9410  1.2413 -0.1867
   66MPD2    H2 1031   2.300   3.771  15.996 -0.4201 -0.0482  0.5448
   66MPD2    H3 1032   2.282   3.574  16.114 -2.7419  1.2791  0.4250
   66MPD2     N 1033   2.269   3.334  15.723 -0.3893 -0.0715 -0.6563
   66MPD2    H5 1034   2.260   3.252  15.783  1.2903  1.2013  1.3079
   66MPD2    N1 1035   2.293   3.802  15.713 -0.9122  1.0002 -0.4456
   66MPD2    H7 1036   2.268   3.795  15.615 -1.5264  0.8605 -0.2808
   67TMC2    C1 1037   1.851   3.563  14.729  0.0733  0.0716 -0.3799
   67TMC2    C2 1038   1.871   3.599  14.591  0.4158  0.4767 -1.2649
   67TMC2    C3 1039   1.989   3.577  14.528 -0.4064 -0.0529  0.6393
   67TMC2    C4 1040   1.963   3.514  14.796  0.3521  0.0193 -0.9027
   67TMC2    C5 1041   2.087   3.495  14.730 -0.2861 -0.1066 -0.0183
   67TMC2    C6 1042   2.100   3.525  14.594 -0.1589  0.4242 -0.4781
   67TMC2     C 1043   1.726   3.570  14.795  0.0875 -0.6069  0.6314
   67TMC2     O 1044   1.731   3.530  14.909 -0.0519  0.0194 -0.2525
   67TMC2     H 1045   1.798   3.651  14.531 -0.2873  1.1657  0.1977
   67TMC2    H1 1046   1.956   3.492  14.902  2.1309 -0.7848 -0.9466
   67TMC2    H2 1047   2.186   3.499  14.534 -0.1060  1.0794 -0.6956
   67TMC2    C7 1048   2.198   3.492  14.823 -0.1207 -0.1714 -0.2227
   67TMC2    C8 1049   1.995   3.559  14.384 -1.1409 -0.1679 -0.5348
   67TMC2    O1 1050   2.179   3.519  14.941  0.4528  0.0984  0.2006
   67TMC2    O2 1051   2.108   3.544  14.333 -0.4747 -0.2679  0.4445
   67TMC2    O5 1052   1.890   3.615  14.318  0.2441 -0.3425 -0.4422
   67TMC2    H5 1053   1.812   3.626  14.377  0.5470 -1.2520  0.1290
   68MPD2     C 1054   1.449   3.571  14.885  0.1657  0.3571  0.3755
   68MPD2    C1 1055   1.487   3.589  14.750  0.2117  0.2262 -1.0187
   68MPD2    C2 1056   1.398   3.602  14.649  0.0191 -0.8613  0.6508
   68MPD2    C3 1057   1.261   3.589  14.674  0.4067 -0.8011 -0.2683
   68MPD2    C4 1058   1.220   3.579  14.808 -0.3034  0.9280  0.3962
   68MPD2    C5 1059   1.312   3.567  14.908 -0.4104  0.0445  0.7139
   68MPD2     H 1060   1.428   3.623  14.547  0.8235 -2.5685  0.5487
   68MPD2    H1 1061   1.116   3.567  14.832 -0.4516  2.5216  0.5964
   68MPD2    H2 1062   1.518   3.566  14.969 -0.9410 -0.5177  1.2402
   68MPD2    H3 1063   1.276   3.559  15.010  1.4921  1.1398  1.4728
   68MPD2     N 1064   1.154   3.614  14.583  0.5125  0.0640 -0.4442
   68MPD2    H5 1065   1.060   3.611  14.620  0.8911 -1.6446  0.3910
   68MPD2    N1 1066   1.619   3.594  14.706 -0.0174  1.1295 -0.1687
   68MPD2    H7 1067   1.626   3.587  14.605 -1.3211 -0.9005 -0.1327
   69TMC2    C1 1068   4.294   4.544  12.435 -0.5132  0.1182  0.3101
   69TMC2    C2 1069   4.230   4.667  12.444 -0.3813  0.5545 -0.8193
   69TMC2    C3 1070   4.173   4.713  12.329  0.2663 -0.2474 -0.8218
   69TMC2    C4 1071   4.300   4.478  12.315  0.1621  0.0628 -0.8260
   69TMC2    C5 1072   4.247   4.533  12.202 -0.2184  0.6719  0.1028
   69TMC2    C6 1073   4.180   4.653  12.209 -0.6392  0.0993 -0.3174
   69TMC2     C 1074   4.367   4.500  12.550  0.4178 -0.5486 -0.0343
   69TMC2     O 1075   4.337   4.543  12.661  0.0631 -0.3844 -0.6884
   69TMC2     H 1076   4.229   4.719  12.539  3.5831  0.2245 -0.6112
   69TMC2    H1 1077   4.352   4.383  12.301  0.4809  0.3390 -1.5511
   69TMC2    H2 1078   4.137   4.710  12.128  0.2130  1.1123 -0.0431
   69TMC2    C7 1079   4.313   4.496  12.083  0.8325 -0.3231 -0.2290
   69TMC2    C8 1080   4.135   0.117  12.322  0.5507  0.1858 -0.6142
   69TMC2    O1 1081   4.414   4.431  12.081 -0.2566  0.0187 -0.2730
   69TMC2    O2 1082   4.035   0.149  12.262  0.1757  0.6225 -0.3266
   69TMC2    O5 1083   4.256   0.165  12.288  0.1856 -0.0629  0.5857
   69TMC2    H5 1084   4.330   0.139  12.347  1.9694  2.0637 -0.7303
   70MPD2     C 1085   4.610   4.228  12.592  0.2146 -0.5247 -0.3268
   70MPD2    C1 1086   4.510   4.317  12.634  0.2889 -0.0391  0.4209
   70MPD2    C2 1087   4.477   4.317  12.767  0.3897 -0.6179  0.0047
   70MPD2    C3 1088   4.541   4.239  12.861  0.0718  0.3079 -0.1475
   70MPD2    C4 1089   4.640   4.156  12.816  0.1749  0.3048 -0.5916
   70MPD2    C5 1090   4.673   4.153  12.683  0.0862  0.1080  0.0733
   70MPD2     H 1091   4.400   4.385  12.801 -0.1913 -0.1542 -2.2284
   70MPD2    H1 1092   4.684   4.079  12.878 -0.9696 -0.2425 -0.4670
   70MPD2    H2 1093   4.635   4.224  12.487 -1.9067  0.5747 -0.8762
   70MPD2    H3 1094   0.019   4.094  12.644  1.0850  1.1547  0.5502
   70MPD2     N 1095   4.516   4.233  13.005  0.0477  0.1764  0.2588
   70MPD2    H5 1096   4.581   4.176  13.059  2.0279  0.1180 -2.1493
   70MPD2    N1 1097   4.449   4.391  12.530  0.3196  0.1613  0.1720
   70MPD2    H7 1098   4.482   4.377  12.435  0.0491  2.3351 -0.2519
   71TMC2    C1 1099   1.733   0.350   0.997  0.5122 -0.9199 -0.6923
   71TMC2    C2 1100   1.859   0.347   1.044 -0.8822  0.8815  0.6612
   71TMC2    C3 1101   1.877   0.372   1.175  0.2255 -0.0312 -0.4066
   71TMC2    C4 1102   1.622   0.378   1.072 -0.1445  0.6023 -0.1028
   71TMC2    C5 1103   1.644   0.385   1.209 -0.5967 -0.6771  0.1960
   71TMC2    C6 1104   1.769   0.390   1.262  0.8249 -0.5557  0.1046
   71TMC2     C 1105   1.709   0.339   0.857  0.7744  0.0439 -0.6201
   71TMC2     O 1106   1.601   0.390   0.836  0.5455 -0.1899 -0.0703
   71TMC2     H 1107   1.941   0.322   0.978 -1.5450 -2.6484  1.1594
   71TMC2    H1 1108   1.522   0.368   1.032  0.3119  1.0456 -1.3547
   71TMC2    H2 1109   1.783   0.426   1.364 -1.2500 -0.6835  0.4238
   71TMC2    C7 1110   1.535   0.410   1.301  0.2116 -0.1619 -0.1145
   71TMC2    C8 1111   2.013   0.364   1.225 -0.1054 -0.2865  0.5017
   71TMC2    O1 1112   1.549   0.495   1.384 -0.0816 -0.1037  0.4531
   71TMC2    O2 1113   2.109   0.335   1.153 -0.0714  0.3477 -0.1825
   71TMC2    O5 1114   2.004   0.341   1.355 -0.7280 -0.2694 -0.5147
   71TMC2    H5 1115   1.920   0.355   1.404  0.2358 -1.4081  1.4467
   72MPD2     C 1116   1.792   0.297   0.364 -0.1409 -0.4790 -0.2047
   72MPD2    C1 1117   1.703   0.375   0.437  0.4067  0.5274  0.3390
   72MPD2    C2 1118   1.701   0.365   0.573 -0.0242 -0.2787 -0.3042
   72MPD2    C3 1119   1.807   0.298   0.638  0.9972 -0.1889  0.8967
   72MPD2    C4 1120   1.893   0.219   0.566  0.3483 -0.0711  0.0202
   72MPD2    C5 1121   1.880   0.216   0.430  0.3089  0.8293 -0.0336
   72MPD2     H 1122   1.624   0.422   0.623  0.4645  0.2377 -0.1424
   72MPD2    H1 1123   1.963   0.153   0.614 -1.5028 -0.4134  2.2348
   72MPD2    H2 1124   1.793   0.304   0.255  0.0982  1.1296 -0.1019
   72MPD2    H3 1125   1.940   0.152   0.367 -0.3619  0.3099 -0.1481
   72MPD2     N 1126   1.808   0.283   0.780  0.3923 -0.4379 -0.2659
   72MPD2    H5 1127   1.882   0.243   0.837  1.5631  2.3103  0.1191
   72MPD2    N1 1128   1.609   0.464   0.381 -0.2088  0.2644 -0.9553
   72MPD2    H7 1129   1.552   0.513   0.449  2.3808  2.5836 -0.4800
   73TMC2    C1 1130   1.333   2.157  13.905 -0.5807  0.4545 -0.0169
   73TMC2    C2 1131   1.310   2.181  14.036  0.1071 -0.1730  0.0240
   73TMC2    C3 1132   1.335   2.092  14.135  0.0809  0.0392  0.1871
   73TMC2    C4 1133   1.381   2.031  13.879 -0.1345  0.1396 -0.2407
   73TMC2    C5 1134   1.418   1.945  13.977  0.2198  0.6124  0.1993
   73TMC2    C6 1135   1.390   1.972  14.111 -0.3504  0.1016  0.5500
   73TMC2     C 1136   1.417   2.255  13.839  0.3338  0.2085  0.2718
   73TMC2     O 1137   1.515   2.212  13.782  0.0049 -0.5527  0.8127
   73TMC2     H 1138   1.258   2.268  14.074  0.5430 -0.2692  0.8360
   73TMC2    H1 1139   1.380   2.003  13.774 -0.2991  0.0318 -0.2107
   73TMC2    H2 1140   1.424   1.907  14.191 -0.1500  1.0322  1.2113
   73TMC2    C7 1141   1.547   1.888  13.950 -0.6358 -0.3355  0.2403
   73TMC2    C8 1142   1.297   2.129  14.271  0.5899 -0.7248  0.1794
   73TMC2    O1 1143   1.585   1.790  14.014  0.4042 -0.2996  0.2820
   73TMC2    O2 1144   1.266   2.242  14.301 -0.7646 -0.5212 -0.5623
   73TMC2    O5 1145   1.241   2.026  14.341 -0.0294 -0.3300  0.6118
   73TMC2    H5 1146   1.261   1.939  14.300 -1.7165  0.2371 -1.4207
   74MPD2     C 1147   1.549   2.717  13.662  0.4895 -0.3572  0.8251
   74MPD2    C1 1148   1.605   2.588  13.633 -0.3426  0.7315  0.0735
   74MPD2    C2 1149   1.550   2.485  13.699 -0.0023  0.9073  0.3885
   74MPD2    C3 1150   1.435   2.498  13.775 -0.4867  0.3223 -0.2189
   74MPD2    C4 1151   1.369   2.620  13.787 -0.0743  0.2968 -0.5093
   74MPD2    C5 1152   1.432   2.734  13.739 -0.2603  0.6533  0.0908
   74MPD2     H 1153   1.602   2.391  13.690  0.2614  1.0254  0.6536
   74MPD2    H1 1154   1.285   2.630  13.854 -1.5817 -1.9551 -2.0959
   74MPD2    H2 1155   1.592   2.808  13.622 -3.9384  0.8116 -1.2700
   74MPD2    H3 1156   1.388   2.829  13.767 -0.0663  1.0754 -1.0325
   74MPD2     N 1157   1.373   2.387  13.841 -0.1727 -0.1329  0.3741
   74MPD2    H5 1158   1.285   2.395  13.890 -0.9826 -1.9038 -0.8144
   74MPD2    N1 1159   1.721   2.584  13.552  0.0973 -0.1849  0.9139
   74MPD2    H7 1160   1.777   2.665  13.527 -0.2983 -0.6549 -1.4264
   75TMC2    C1 1161   1.071   3.637  14.357  0.2745 -0.0333 -0.0010
   75TMC2    C2 1162   0.970   3.727  14.388 -0.1853  0.2586  0.1109
   75TMC2    C3 1163   0.889   3.778  14.292  0.1387  0.2427  0.6637
   75TMC2    C4 1164   1.092   3.598  14.224 -0.2722 -0.6296  0.3765
   75TMC2    C5 1165   1.011   3.651  14.127  0.0653  0.0921 -0.5489
   75TMC2    C6 1166   0.913   3.743  14.159  0.3446  0.4767  0.0438
   75TMC2     C 1167   1.180   3.607  14.446 -0.5038 -0.4083 -0.4640
   75TMC2     O 1168   1.281   3.585  14.382 -0.1994 -0.1062 -0.2815
   75TMC2     H 1169   0.962   3.766  14.489 -2.1802  0.4154 -0.1073
   75TMC2    H1 1170   1.181   3.549  14.186  0.0119 -0.8795  1.3542
   75TMC2    H2 1171   0.849   3.776  14.077  1.8604  0.4341 -1.1685
   75TMC2    C7 1172   1.028   3.614  13.987  0.0001 -0.1754  0.2181
   75TMC2    C8 1173   0.764   3.829  14.335 -0.1620 -0.1942 -0.3730
   75TMC2    O1 1174   1.067   3.500  13.961  0.0963 -0.4841  0.2869
   75TMC2    O2 1175   0.698   3.901  14.255 -0.3455 -0.2901  0.5027
   75TMC2    O5 1176   0.727   3.736  14.426 -0.2582 -0.4591  0.2946
   75TMC2    H5 1177   0.800   3.693  14.475 -0.2469 -1.1508 -0.3413
   76TMC2    C1 1178   0.094   3.459  11.776 -0.3246 -0.4903 -0.5798
   76TMC2    C2 1179   0.013   3.389  11.689  0.0056  0.4289 -0.8485
   76TMC2    C3 1180   4.682   3.280  11.724 -0.6415  0.2221 -0.5651
   76TMC2    C4 1181   0.129   3.402  11.898  0.5300  0.1008  0.2175
   76TMC2    C5 1182   0.067   3.287  11.927  0.5185 -0.1945 -0.1529
   76TMC2    C6 1183   4.713   3.222  11.841 -0.1831 -0.7825  0.3885
   76TMC2     C 1184   0.157   3.580  11.735 -0.0062 -0.3056  0.2026
   76TMC2     O 1185   0.111   3.647  11.646 -0.4576 -0.0297 -0.2388
   76TMC2     H 1186   4.713   3.449  11.606 -2.6668 -0.0548 -0.0292
   76TMC2    H1 1187   0.196   3.452  11.966 -0.8585 -0.8482  2.2858
   76TMC2    H2 1188   4.662   3.134  11.878  0.8946 -1.6514 -0.1908
   76TMC2    C7 1189   0.101   3.227  12.053 -0.1666 -0.6435  0.6156
   76TMC2    C8 1190   4.595   3.215  11.628 -0.7223 -0.9599 -0.6052
   76TMC2    O1 1191   0.002   3.183  12.112 -0.3892 -0.2198 -0.3580
   76TMC2    O2 1192   4.582   3.281  11.526 -0.0629 -0.3775 -0.0122
   76TMC2    O5 1193   4.635   3.088  11.630 -0.0350 -0.4892 -0.1450
   76TMC2    H5 1194   4.673   3.058  11.715  0.2203 -0.0520 -0.1052
   77MPD2     C 1195   0.516   3.941  11.698  0.0375 -0.0978  0.0988
   77MPD2    C1 1196   0.382   3.948  11.688 -0.7817  0.6451  0.0144
   77MPD2    C2 1197   0.310   3.833  11.721 -0.2999 -0.1412  0.2018
   77MPD2    C3 1198   0.364   3.718  11.757  0.4113 -0.4534 -0.0083
   77MPD2    C4 1199   0.504   3.721  11.778 -0.2910  0.3562  0.1371
   77MPD2    C5 1200   0.578   3.833  11.753 -0.1389  0.3229 -0.5387
   77MPD2     H 1201   0.202   3.830  11.717 -0.3643 -0.1279  1.9011
   77MPD2    H1 1202   0.566   3.632  11.784 -0.2894  0.1717 -2.4040
   77MPD2    H2 1203   0.571   4.031  11.670  1.3719 -0.2099  2.3609
   77MPD2    H3 1204   0.687   3.829  11.756 -0.1485  2.2807  2.4051
   77MPD2     N 1205   0.288   3.598  11.782  0.3221 -0.0713  0.0190
   77MPD2    H5 1206   0.336   3.520  11.826 -0.1773 -0.4589 -0.1277
   77MPD2    N1 1207   0.308   4.058  11.626 -0.3490  0.5194 -0.7044
   77MPD2    H7 1208   0.207   4.049  11.617 -0.5200  1.3208  0.3268
   78TMC2    C1 1209   1.025   4.640   1.358 -0.3262 -0.3314  0.1575
   78TMC2    C2 1210   0.993   4.691   1.484  0.3292 -0.4211  0.1673
   78TMC2    C3 1211   1.090   0.027   1.550  0.1979 -0.4842 -0.1434
   78TMC2    C4 1212   1.157   4.660   1.305  0.0507  0.0279 -0.4957
   78TMC2    C5 1213   1.245   4.720   1.387  0.0080  0.3793  0.8714
   78TMC2    C6 1214   1.218   0.033   1.515 -0.7124 -0.0546 -0.2044
   78TMC2     C 1215   0.913   4.595   1.272  0.0015  0.1684  0.0230
   78TMC2     O 1216   0.804   4.629   1.318  0.0925 -0.1916  0.6113
   78TMC2     H 1217   0.893   4.701   1.524 -0.2152  1.2000 -1.6181
   78TMC2    H1 1218   1.174   4.636   1.200 -4.0760 -0.5874 -1.0241
   78TMC2    H2 1219   1.288   0.097   1.566 -0.3521  0.3281 -1.1800
   78TMC2    C7 1220   1.383   0.005   1.342  0.6363  0.5419  0.5562
   78TMC2    C8 1221   1.082   0.028   1.698  0.1138  0.6137 -0.3198
   78TMC2    O1 1222   1.471   0.002   1.423  0.3855  0.0632 -0.4162
   78TMC2    O2 1223   1.140   0.111   1.765  0.1472  0.2811 -0.0729
   78TMC2    O5 1224   1.054   4.641   1.724 -0.8779 -0.3594 -0.0898
   78TMC2    H5 1225   1.036   4.578   1.651 -1.3793 -0.1957 -0.1047
   79MPD1     C 1226   0.697   4.381   0.871 -0.1493 -0.2399 -0.6795
   79MPD1    C1 1227   0.659   4.488   0.955  0.2858  0.3878 -0.5686
   79MPD1    C2 1228   0.729   4.514   1.071  0.5055 -0.8548 -0.1222
   79MPD1    C3 1229   0.863   4.463   1.084 -0.0500 -0.2043  0.3172
   79MPD1    C4 1230   0.908   4.368   0.995  0.2522  0.3098  0.0781
   79MPD1    C5 1231   0.826   4.329   0.889 -0.0024 -0.3112  0.3545
   79MPD1     H 1232   0.679   4.578   1.144  1.8918  0.5366 -0.4070
   79MPD1    H1 1233   1.008   4.330   1.010  0.5768  1.0705 -0.1793
   79MPD1    H2 1234   0.638   4.341   0.789 -1.1280  0.4328 -0.3020
   79MPD1    H3 1235   0.863   4.251   0.823 -1.0333  0.4032 -1.0659
   79MPD1     N 1236   0.957   4.498   1.181 -0.0060  0.5290 -0.5256
   79MPD1    H5 1237   1.052   4.463   1.178 -0.3207 -0.3182 -0.6155
   79MPD1    N1 1238   0.531   4.550   0.945 -0.7917  0.3355 -0.3333
   79MPD1    H6 1239   0.524   4.637   0.997  0.1033 -0.6855  1.4807
   79MPD1    H7 1240   0.488   4.567   0.854 -1.7834 -1.9304 -0.2854
   80TMC2    C1 1241   4.015   3.821  12.283 -0.0065  0.0815  0.4794
   80TMC2    C2 1242   3.942   3.896  12.187  0.3478 -0.1991 -0.3820
   80TMC2    C3 1243   3.928   3.851  12.061  0.8654 -0.4727  0.4263
   80TMC2    C4 1244   4.067   3.698  12.256 -0.3911  0.2838 -0.1906
   80TMC2    C5 1245   4.033   3.650  12.128 -0.4584 -0.5543 -0.0433
   80TMC2    C6 1246   3.984   3.730  12.031  0.2759 -0.0418 -0.3569
   80TMC2     C 1247   4.016   3.856  12.423  0.0722 -0.3703 -0.6244
   80TMC2     O 1248   4.108   3.827  12.500  0.1693 -0.5621 -0.0605
   80TMC2     H 1249   3.896   3.990  12.213 -0.1351 -0.3894 -0.5399
   80TMC2    H1 1250   4.121   3.647  12.334 -0.0762  1.7000  0.5211
   80TMC2    H2 1251   3.982   3.687  11.931  0.6087  1.2837 -0.9387
   80TMC2    C7 1252   4.042   3.508  12.102 -0.7271 -0.3966 -1.2351
   80TMC2    C8 1253   3.831   3.915  11.971 -0.0959 -0.8702 -0.1313
   80TMC2    O1 1254   4.053   3.469  11.989 -0.2539 -0.0706 -0.4277
   80TMC2    O2 1255   3.763   4.014  12.011  0.3455  0.2887 -0.2965
   80TMC2    O5 1256   3.884   3.907  11.847 -0.4184  0.4080  0.0505
   80TMC2    H5 1257   3.963   3.850  11.835 -0.0472  0.8165  0.5913
   81MPD2     C 1258   3.923   3.959  12.690 -0.0404  0.4621 -0.3284
   81MPD2    C1 1259   3.849   3.969  12.579  0.7254 -0.3786 -0.0853
   81MPD2    C2 1260   3.716   4.008  12.591  0.2702  0.0562 -0.2949
   81MPD2    C3 1261   3.665   4.041  12.720  0.7934  0.5565  0.6913
   81MPD2    C4 1262   3.752   4.039  12.831  0.3285 -0.3252 -0.2268
   81MPD2    C5 1263   3.879   4.004  12.813  0.5693 -0.2429  0.1688
   81MPD2     H 1264   3.650   4.010  12.505 -0.8538 -2.0216  0.5209
   81MPD2    H1 1265   3.719   4.073  12.929  0.5457  0.4124 -0.4083
   81MPD2    H2 1266   4.023   3.915  12.692 -0.0933  0.3352 -0.4825
   81MPD2    H3 1267   3.943   3.989  12.900 -1.5400 -3.5066  1.1690
   81MPD2     N 1268   3.527   4.067  12.748 -0.8763  0.6139  0.5726
   81MPD2    H5 1269   3.496   4.068  12.845  0.0588 -3.3023  0.9217
   81MPD2    N1 1270   3.899   3.926  12.457  0.1692  0.3574 -0.5072
   81MPD2    H7 1271   3.840   3.939  12.375 -0.3043  1.1808 -0.0455
   82TMC2    C1 1272   1.979   3.447  11.176 -0.3970 -0.2176  0.4870
   82TMC2    C2 1273   1.967   3.545  11.269  0.3162 -0.3231 -0.5023
   82TMC2    C3 1274   1.912   3.507  11.388 -0.0992 -0.0934  0.1059
   82TMC2    C4 1275   1.931   3.318  11.193  0.4060  0.3508  0.2150
   82TMC2    C5 1276   1.864   3.295  11.312  0.0659  0.0138 -0.9478
   82TMC2    C6 1277   1.863   3.381  11.414 -0.0235 -0.1402  0.3033
   82TMC2     C 1278   2.004   3.496  11.042 -0.0121 -0.0915 -0.7330
   82TMC2     O 1279   1.942   3.446  10.951 -0.0984 -0.0021 -0.0388
   82TMC2     H 1280   1.985   3.651  11.256 -0.5776 -0.2912 -1.5530
   82TMC2    H1 1281   1.930   3.250  11.109 -1.8403  0.7895 -0.1125
   82TMC2    H2 1282   1.807   3.361  11.505 -1.2404 -2.1147 -0.9020
   82TMC2    C7 1283   1.833   3.154  11.350  0.2706 -0.9765 -0.3608
   82TMC2    C8 1284   1.854   3.615  11.462 -1.1026  0.2539 -0.0301
   82TMC2    O1 1285   1.856   3.134  11.463  0.5570 -0.5259  0.3877
   82TMC2    O2 1286   1.808   3.716  11.412  0.7355 -0.1153 -0.4810
   82TMC2    O5 1287   1.940   3.620  11.569 -0.4772 -0.1404 -0.0190
   82TMC2    H5 1288   2.002   3.544  11.575  0.4215  0.5289 -0.7770
   83MPD2     C 1289   2.166   3.893  10.736 -0.4625 -0.2793 -0.1355
   83MPD2    C1 1290   2.078   3.790  10.707  0.0468  0.0618 -0.1319
   83MPD2    C2 1291   2.053   3.692  10.810  0.7560 -0.2993 -0.0114
   83MPD2    C3 1292   2.116   3.698  10.934 -0.0073  0.6635 -0.9716
   83MPD2    C4 1293   2.218   3.796  10.948 -0.9718  0.6729  0.6016
   83MPD2    C5 1294   2.245   3.885  10.845  0.6545  0.6129 -0.4040
   83MPD2     H 1295   1.972   3.620  10.801  0.6712  0.1532 -2.8802
   83MPD2    H1 1296   2.288   3.793  11.031 -1.9506  0.4099  1.4303
   83MPD2    H2 1297   2.168   3.973  10.662  2.2849 -0.2984 -0.0848
   83MPD2    H3 1298   2.323   3.958  10.865  0.8973  0.5281 -1.0603
   83MPD2     N 1299   2.093   3.607  11.037  0.9266 -0.4769  0.3932
   83MPD2    H5 1300   2.148   3.622  11.121  0.2153  3.0401  0.2015
   83MPD2    N1 1301   2.013   3.787  10.584  0.2421  0.1404  0.2071
   83MPD2    H7 1302   2.033   3.867  10.525  0.1422 -0.1910 -0.2769
   84TMC2    C1 1303   4.165   1.872  11.084  0.1701  0.2369 -0.4936
   84TMC2    C2 1304   4.155   1.735  11.110  0.9779 -0.2837  0.5289
   84TMC2    C3 1305   4.252   1.654  11.067 -0.1766  0.1071  0.0482
   84TMC2    C4 1306   4.279   1.924  11.019  0.1559  0.4118  0.0117
   84TMC2    C5 1307   4.375   1.837  10.978 -0.3309 -0.9226  0.3587
   84TMC2    C6 1308   4.359   1.701  10.997 -0.2578  0.0788 -0.1629
   84TMC2     C 1309   4.067   1.971  11.126 -0.0489  0.1545 -0.1172
   84TMC2     O 1310   4.074   2.087  11.087  0.1734  0.1756  0.1261
   84TMC2     H 1311   4.064   1.698  11.155 -0.3087  1.1631 -0.9217
   84TMC2    H1 1312   4.293   2.031  11.002  1.5421  0.2738  0.2890
   84TMC2    H2 1313   4.422   1.635  10.940 -0.8067 -0.3238 -0.3077
   84TMC2    C7 1314   4.456   1.880  10.865 -0.5236 -0.7451 -0.5201
   84TMC2    C8 1315   4.231   1.510  11.087  0.3264  0.1109 -0.0340
   84TMC2    O1 1316   4.413   1.978  10.804 -1.2210 -0.4953 -0.4199
   84TMC2    O2 1317   4.139   1.468  11.153 -0.5856  0.1812  0.0389
   84TMC2    O5 1318   4.278   1.449  10.972 -0.3530  0.0228 -0.2263
   84TMC2    H5 1319   4.348   1.497  10.923  1.3277 -0.6603  1.5047
   85TMC2    C1 1320   4.558   0.521  16.124 -0.2315 -0.1656  0.6543
   85TMC2    C2 1321   4.446   0.600  16.106  0.3108  0.4096  0.6922
   85TMC2    C3 1322   4.463   0.725  16.038 -0.2040 -0.3298 -0.2708
   85TMC2    C4 1323   4.680   0.561  16.083  0.3682 -0.0989 -0.6213
   85TMC2    C5 1324   4.692   0.657  15.993  0.4946 -0.2112  0.0705
   85TMC2    C6 1325   4.586   0.747  15.975 -0.0968  0.2425 -0.2131
   85TMC2     C 1326   4.556   0.419  16.228 -0.3778 -0.2325 -0.0130
   85TMC2     O 1327   4.652   0.400  16.300  0.0306 -0.0605  0.1356
   85TMC2     H 1328   4.352   0.557  16.141 -1.0718  1.6561 -1.4636
   85TMC2    H1 1329   0.015   0.480  16.084  1.5530  0.9299 -1.2910
   85TMC2    H2 1330   4.595   0.841  15.922  2.5767 -0.7838 -1.5661
   85TMC2    C7 1331   0.055   0.642  15.889  0.6326 -0.0843  0.4524
   85TMC2    C8 1332   4.338   0.773  15.978 -0.6077  0.0690  0.7879
   85TMC2    O1 1333   0.153   0.570  15.916  0.0786 -0.0779  0.3662
   85TMC2    O2 1334   4.243   0.702  15.978 -0.1290  0.5016  0.1486
   85TMC2    O5 1335   4.366   0.890  15.909 -0.0520  0.5709  0.1634
   85TMC2    H5 1336   4.452   0.926  15.939  1.0971 -1.3047 -0.8210
   86MPD2     C 1337   4.366   4.730  16.471  0.1083  0.6195 -0.3042
   86MPD2    C1 1338   4.289   0.026  16.360 -0.1580 -0.4596 -0.1012
   86MPD2    C2 1339   4.315   0.138  16.279  0.2819 -0.7172 -0.1993
   86MPD2    C3 1340   4.416   0.222  16.313 -0.5792 -0.0155  0.0529
   86MPD2    C4 1341   4.488   0.194  16.422  0.0936 -0.8896  0.7026
   86MPD2    C5 1342   4.470   0.078  16.493 -0.4057  0.8480  0.2668
   86MPD2     H 1343   4.258   0.158  16.190  1.8748  0.3556 -0.9811
   86MPD2    H1 1344   4.565   0.259  16.460 -0.5070  0.0888  0.2332
   86MPD2    H2 1345   4.352   4.640  16.530  3.2410 -0.4879 -1.2498
   86MPD2    H3 1346   4.544   0.056  16.569 -0.8901 -0.5456  0.3218
   86MPD2     N 1347   4.444   0.338  16.226  0.0745  0.1384  0.0036
   86MPD2    H5 1348   4.386   0.359  16.145  1.1574  2.7013 -0.1060
   86MPD2    N1 1349   4.182   4.672  16.321 -0.4894 -0.2140  0.5918
   86MPD2    H7 1350   4.143   4.684  16.228  0.2997 -1.1729  0.1459
   87TMC2    C1 1351   1.636   3.021   0.810  0.8052  0.1926 -0.4124
   87TMC2    C2 1352   1.563   3.002   0.921 -0.0336  0.4466  0.0978
   87TMC2    C3 1353   1.599   3.074   1.034 -0.0819  0.0031 -1.2383
   87TMC2    C4 1354   1.746   3.096   0.808 -0.4131  0.6719 -0.5218
   87TMC2    C5 1355   1.785   3.161   0.923  1.0223  0.0787  0.1265
   87TMC2    C6 1356   1.713   3.153   1.042 -0.1763  1.0730 -0.2624
   87TMC2     C 1357   1.630   2.909   0.714  0.6273  0.3127  0.0152
   87TMC2     O 1358   1.574   2.806   0.747  0.0371  0.0734  0.0799
   87TMC2     H 1359   1.473   2.941   0.916  1.0918 -1.2999  1.0035
   87TMC2    H1 1360   1.818   3.103   0.728 -2.2739  0.0822 -2.2579
   87TMC2    H2 1361   1.739   3.206   1.133  1.8591 -1.1827  0.4702
   87TMC2    C7 1362   1.899   3.254   0.902  0.5765  0.4532  1.0033
   87TMC2    C8 1363   1.551   3.037   1.168 -0.3216  0.1532 -0.1333
   87TMC2    O1 1364   1.904   3.298   0.786 -0.1940 -0.2804  0.3347
   87TMC2    O2 1365   1.629   3.028   1.263  0.4151 -0.4826  0.1626
   87TMC2    O5 1366   1.437   2.969   1.152 -0.9634 -0.3097 -0.4368
   87TMC2    H5 1367   1.384   3.019   1.086 -1.1294 -0.2575 -0.2656
   88MPD2     C 1368   2.161   3.356   1.133  0.4046 -0.3994 -0.3645
   88MPD2    C1 1369   2.074   3.371   1.024  0.3640  0.0106  0.7842
   88MPD2    C2 1370   2.101   3.471   0.939  0.3211  0.1927 -0.0238
   88MPD2    C3 1371   2.228   3.541   0.943  0.7461 -0.5343  0.1243
   88MPD2    C4 1372   2.314   3.520   1.048  0.2489 -0.0805 -0.6591
   88MPD2    C5 1373   2.282   3.432   1.150  0.3698 -0.0515  0.3605
   88MPD2     H 1374   2.025   3.493   0.865 -0.3524 -0.0869  0.5875
   88MPD2    H1 1375   2.411   3.567   1.060  0.0691 -0.3011  1.8532
   88MPD2    H2 1376   2.137   3.277   1.203  2.5556 -0.6649  0.0925
   88MPD2    H3 1377   2.349   3.419   1.234  0.5975  0.4382  0.2527
   88MPD2     N 1378   2.258   3.636   0.837  0.2523 -0.6684 -0.0169
   88MPD2    H5 1379   2.351   3.676   0.847 -0.4480  1.3036 -1.2721
   88MPD2    N1 1380   1.971   3.277   1.015 -0.2496  0.3672  0.1947
   88MPD2    H7 1381   1.961   3.209   1.090  1.9545 -0.4371 -0.2263
   89TMC2    C1 1382   2.904   0.991   0.880 -0.6145  0.2711  0.7575
   89TMC2    C2 1383   3.012   1.003   0.793  0.8407 -0.0939 -0.0236
   89TMC2    C3 1384   2.993   1.101   0.700  0.4442  0.3898  0.6757
   89TMC2    C4 1385   2.786   1.060   0.875 -0.6662 -0.8089  0.6752
   89TMC2    C5 1386   2.795   1.172   0.799 -0.3938  0.9190 -0.0046
   89TMC2    C6 1387   2.896   1.196   0.708  0.6981  0.2266  0.2080
   89TMC2     C 1388   2.933   0.875   0.975 -0.5024 -0.0058  0.1448
   89TMC2     O 1389   3.025   0.791   0.957 -0.2570  0.2833 -0.5700
   89TMC2     H 1390   3.099   0.941   0.812  1.7056  0.6290 -1.7083
   89TMC2    H1 1391   2.714   1.056   0.956 -0.9919 -1.6784  0.3388
   89TMC2    H2 1392   2.906   1.280   0.641  2.2397 -0.8365 -0.9115
   89TMC2    C7 1393   2.701   1.278   0.823  0.1311  0.5371 -0.5863
   89TMC2    C8 1394   3.111   1.138   0.618  0.4768 -0.2495  0.5087
   89TMC2    O1 1395   2.587   1.244   0.847  0.0481 -0.0482  0.5147
   89TMC2    O2 1396   3.131   1.253   0.593  0.2321  0.2680 -0.1663
   89TMC2    O5 1397   3.112   1.042   0.521 -0.0529  0.9751 -0.2727
   89TMC2    H5 1398   3.062   0.961   0.547  2.4423 -0.7786 -0.9218
   90MPD2     C 1399   2.741   0.579   1.348 -0.4334  0.8069  0.0068
   90MPD2    C1 1400   2.645   0.672   1.315  0.0772  0.0353  0.1460
   90MPD2    C2 1401   2.678   0.770   1.223  1.1065  0.6643 -0.2292
   90MPD2    C3 1402   2.799   0.770   1.154  0.5250 -0.7669  0.0233
   90MPD2    C4 1403   2.887   0.663   1.183  0.5887 -0.3542 -0.0439
   90MPD2    C5 1404   2.864   0.582   1.286  0.7169 -0.0603  0.8932
   90MPD2     H 1405   2.612   0.855   1.209 -1.2943 -1.3621 -1.2006
   90MPD2    H1 1406   2.979   0.651   1.128 -0.1071 -1.9269 -0.8623
   90MPD2    H2 1407   2.720   0.497   1.416  1.3378  1.8244  1.7580
   90MPD2    H3 1408   2.941   0.508   1.304 -0.8056 -1.5961  1.0992
   90MPD2     N 1409   2.821   0.868   1.056  0.3923 -0.0620  0.1307
   90MPD2    H5 1410   2.755   0.945   1.062  0.2616  0.0104 -2.0182
   90MPD2    N1 1411   2.517   0.685   1.378 -0.3972 -0.3037  0.0081
   90MPD2    H7 1412   2.446   0.742   1.332 -2.0892 -2.0761  0.4561
   91TMC2    C1 1413   4.133   1.258  16.527 -0.3622 -0.4819  0.0345
   91TMC2    C2 1414   4.192   1.335  16.625  0.3404 -0.2689 -0.7002
   91TMC2    C3 1415   4.107   1.386  16.726 -0.7371  0.4066  0.2868
   91TMC2    C4 1416   3.997   1.249  16.517 -0.4538  0.1173  0.2009
   91TMC2    C5 1417   3.921   1.290  16.631 -0.0293  0.7284  0.4380
   91TMC2    C6 1418   3.972   1.359  16.734 -0.3366  0.4392 -0.4059
   91TMC2     C 1419   4.208   1.151  16.471 -0.8458  0.2058 -0.6286
   91TMC2     O 1420   4.135   1.063  16.424  0.0609 -0.0918 -0.3005
   91TMC2     H 1421   4.298   1.349  16.642  0.0954  0.5076  0.2505
   91TMC2    H1 1422   3.949   1.208  16.428 -1.8917  0.6731  0.7162
   91TMC2    H2 1423   3.913   1.395  16.817 -2.7606  1.0317 -2.3935
   91TMC2    C7 1424   3.776   1.303  16.630  0.1285  0.0799  0.1282
   91TMC2    C8 1425   4.184   1.423  16.846  0.4162  0.0388 -0.5930
   91TMC2    O1 1426   3.712   1.325  16.732  0.9428  0.0720 -0.2595
   91TMC2    O2 1427   4.306   1.409  16.862  0.4029  0.8980  0.4976
   91TMC2    O5 1428   4.100   1.481  16.928  0.0073 -0.5898  0.2437
   91TMC2    H5 1429   4.011   1.492  16.888  0.5213 -0.1515 -0.7944
   92MPD2     C 1430   4.416   0.951  16.388  0.2107 -0.7707  0.2378
   92MPD2    C1 1431   4.438   1.087  16.392  0.5016  0.0115  0.0118
   92MPD2    C2 1432   4.561   1.134  16.361 -0.3424  0.3316 -0.4711
   92MPD2    C3 1433   4.663   1.048  16.320  0.6448  0.2014 -0.3351
   92MPD2    C4 1434   4.636   0.914  16.314  0.4398 -0.1957  0.5069
   92MPD2    C5 1435   4.517   0.872  16.353 -0.1961  0.3070  0.2981
   92MPD2     H 1436   4.582   1.241  16.362 -1.1082  0.5088 -2.2146
   92MPD2    H1 1437   4.710   0.840  16.289 -0.0868 -0.5148 -0.1116
   92MPD2    H2 1438   4.319   0.911  16.412 -0.4980  0.0239 -1.3025
   92MPD2    H3 1439   4.488   0.768  16.365  0.4017 -0.2750 -3.2986
   92MPD2     N 1440   0.053   1.096  16.280 -0.3840 -0.2192  0.3978
   92MPD2    H5 1441   0.071   1.194  16.302 -2.1156  0.1132  0.3202
   92MPD2    N1 1442   4.338   1.174  16.435  0.2839 -0.0691 -0.8794
   92MPD2    H7 1443   4.374   1.268  16.451 -0.1172  0.3085 -2.2067
   93TMC2    C1 1444   1.512   1.164  13.502 -0.0078  0.6425  0.2107
   93TMC2    C2 1445   1.436   1.264  13.444  0.0301  0.2891  0.0883
   93TMC2    C3 1446   1.490   1.362  13.369  0.3355  0.2220 -0.4674
   93TMC2    C4 1447   1.649   1.173  13.486  0.1729 -0.1144  0.4588
   93TMC2    C5 1448   1.699   1.287  13.425  0.1006 -0.7216  0.6281
   93TMC2    C6 1449   1.624   1.384  13.358  0.1737  0.2198  0.5796
   93TMC2     C 1450   1.455   1.054  13.582 -0.1241 -0.2032 -0.2403
   93TMC2     O 1451   1.528   0.961  13.605 -0.6488 -0.1525 -0.0942
   93TMC2     H 1452   1.328   1.258  13.443  0.0393  0.5565 -1.5342
   93TMC2    H1 1453   1.709   1.102  13.541 -0.0802  0.4834  1.5223
   93TMC2    H2 1454   1.670   1.458  13.294 -2.2426 -0.7780 -2.3581
   93TMC2    C7 1455   1.844   1.299  13.430 -0.1485 -0.0920  0.5005
   93TMC2    C8 1456   1.401   1.453  13.295 -0.1054 -0.4073  0.1941
   93TMC2    O1 1457   1.919   1.200  13.439 -0.0457 -0.4217 -0.2065
   93TMC2    O2 1458   1.290   1.418  13.256  0.0726 -0.1857  0.3864
   93TMC2    O5 1459   1.426   1.582  13.333  0.1721 -0.8467 -0.8991
   93TMC2    H5 1460   1.515   1.590  13.374 -0.3964 -2.7957  0.7271
   94MPD2     C 1461   1.281   0.893  13.765  0.4687  0.2617  0.3360
   94MPD2    C1 1462   1.249   1.018  13.719 -0.6644 -0.9097  0.1379
   94MPD2    C2 1463   1.130   1.076  13.753 -0.0297  0.6266 -0.0613
   94MPD2    C3 1464   1.038   1.013  13.839  0.0388 -0.4883 -0.1757
   94MPD2    C4 1465   1.073   0.897  13.891 -0.6092 -0.8092 -0.9271
   94MPD2    C5 1466   1.194   0.840  13.852  0.2257 -0.2130 -0.9041
   94MPD2     H 1467   1.108   1.181  13.735 -2.0714 -0.3180 -3.0869
   94MPD2    H1 1468   1.007   0.840  13.956 -1.2928  2.4793  1.2540
   94MPD2    H2 1469   1.371   0.840  13.734  1.2811  1.7444  0.1506
   94MPD2    H3 1470   1.204   0.740  13.892  2.1128  0.4174  0.1936
   94MPD2     N 1471   0.913   1.070  13.870  0.3807 -0.1441 -0.2239
   94MPD2    H5 1472   0.874   1.036  13.958 -1.4970  1.7823 -0.3407
   94MPD2    N1 1473   1.336   1.098  13.636 -0.6700 -0.0569 -0.5465
   94MPD2    H7 1474   1.305   1.195  13.627 -1.1266 -0.2962 -1.6123
   95TMC2    C1 1475   1.324   3.520  15.674 -0.0700 -0.6149 -0.0374
   95TMC2    C2 1476   1.347   3.550  15.805  0.9034 -0.1956  0.2542
   95TMC2    C3 1477   1.338   3.686  15.835 -0.5574 -0.1832 -0.0805
   95TMC2    C4 1478   1.298   3.612  15.579 -0.1252  0.0551  0.1174
   95TMC2    C5 1479   1.288   3.740  15.613  0.9558 -0.3677  0.1018
   95TMC2    C6 1480   1.311   3.784  15.743  0.0243  0.0384 -0.2616
   95TMC2     C 1481   1.401   3.417  15.617  0.7186 -1.1758  0.1246
   95TMC2     O 1482   1.460   3.446  15.514 -0.0234  0.5519 -0.4437
   95TMC2     H 1483   1.395   3.490  15.882 -0.9238  1.1031  2.3732
   95TMC2    H1 1484   1.283   3.581  15.476  0.6964 -0.3924  0.1349
   95TMC2    H2 1485   1.332   3.885  15.777  1.5163 -0.6903  0.9761
   95TMC2    C7 1486   1.257   3.849  15.515 -0.1276  0.2521  0.0630
   95TMC2    C8 1487   1.421   3.746  15.942  0.2497 -0.6590 -0.2243
   95TMC2    O1 1488   1.270   3.961  15.568 -0.1942  0.0791  0.2130
   95TMC2    O2 1489   1.365   3.789  16.043  0.1657 -0.0342  0.6047
   95TMC2    O5 1490   1.531   3.798  15.881  0.4048  0.0550  0.1797
   95TMC2    H5 1491   1.524   3.779  15.785  0.6224  1.0295 -0.0240
   96MPD2     C 1492   1.656   2.992  15.708  0.2115 -0.2607 -0.2914
   96MPD2    C1 1493   1.705   3.107  15.645  0.0500 -0.3216  0.3052
   96MPD2    C2 1494   1.614   3.213  15.642 -0.0285 -0.0646 -0.1595
   96MPD2    C3 1495   1.493   3.205  15.703  0.4155 -0.9534 -0.0894
   96MPD2    C4 1496   1.462   3.098  15.777  0.0027  0.3908  0.1315
   96MPD2    C5 1497   1.543   2.996  15.785 -0.5189  0.0910  0.1787
   96MPD2     H 1498   1.629   3.303  15.584 -0.0917 -0.0030 -0.0792
   96MPD2    H1 1499   1.370   3.091  15.833  0.3008 -0.6861  0.4938
   96MPD2    H2 1500   1.702   2.893  15.708  1.1315  0.1702 -1.9963
   96MPD2    H3 1501   1.512   2.912  15.846  0.2960 -0.0411  0.4121
   96MPD2     N 1502   1.398   3.310  15.701  0.4279 -0.3386  0.7720
   96MPD2    H5 1503   1.319   3.307  15.765  1.8774 -0.7062  2.5390
   96MPD2    N1 1504   1.833   3.120  15.601  0.0306 -0.1032 -0.3903
   96MPD2    H7 1505   1.856   3.208  15.555  0.3625  0.5464  0.9924
   97TMC2    C1 1506   3.511   0.874  17.569  0.4804 -0.0567 -0.1833
   97TMC2    C2 1507   3.481   0.874  17.442 -0.2462 -0.5855  0.0141
   97TMC2    C3 1508   3.535   0.955  17.355  0.3361  0.1767 -0.4763
   97TMC2    C4 1509   3.611   0.957  17.618 -0.4791 -0.2659  0.3740
   97TMC2    C5 1510   3.660   1.037  17.528 -0.5028 -0.2317  0.3178
   97TMC2    C6 1511   3.635   1.043  17.393 -0.1566 -0.7305 -0.4196
   97TMC2     C 1512   3.486   0.756  17.655 -0.2501 -0.2203  0.4487
   97TMC2     O 1513   3.372   0.737  17.702 -0.4902  0.4644 -0.0600
   97TMC2     H 1514   3.400   0.813  17.404 -0.3198  1.0631 -2.5046
   97TMC2    H1 1515   3.642   0.947  17.721  0.5263 -3.7541 -0.2645
   97TMC2    H2 1516   3.675   1.120  17.328 -0.8795  1.0992  1.3042
   97TMC2    C7 1517   3.745   1.138  17.583  0.1599 -0.8587  0.3420
   97TMC2    C8 1518   3.487   0.947  17.219  0.2704  0.4241  0.3209
   97TMC2    O1 1519   3.828   1.192  17.510 -0.2245 -0.4207 -0.2764
   97TMC2    O2 1520   3.371   0.921  17.188 -0.9998  0.4446  0.8024
   97TMC2    O5 1521   3.591   0.957  17.141  0.1289  0.3248  0.5237
   97TMC2    H5 1522   3.678   0.962  17.186 -0.9353  0.1693  2.5909
   98MPD2     C 1523   3.678   0.334   0.114  0.6426 -0.9317 -0.2394
   98MPD2    C1 1524   3.568   0.411   0.158  0.2780  0.6801  0.2474
   98MPD2    C2 1525   3.541   0.529   0.086  0.2946 -0.6257  0.2655
   98MPD2    C3 1526   3.613   0.556  17.716 -0.5892 -0.2381  1.4250
   98MPD2    C4 1527   3.719   0.480  17.674  0.3418  0.6730 -0.3343
   98MPD2    C5 1528   3.752   0.366   0.001 -0.5971  0.0811 -0.4988
   98MPD2     H 1529   3.461   0.598   0.112  0.7314  1.2347 -3.3551
   98MPD2    H1 1530   3.781   0.522  17.596 -3.2205  0.3615 -3.3415
   98MPD2    H2 1531   3.715   0.244   0.162 -1.6725 -1.1696  1.1027
   98MPD2    H3 1532   3.841   0.309  17.720 -0.5104 -0.0402  0.1021
   98MPD2     N 1533   3.593   0.670  17.637  0.0892 -0.3699 -0.2744
   98MPD2    H5 1534   3.659   0.700  17.566  0.9862  2.0196  1.5555
   98MPD2    N1 1535   3.503   0.367   0.273 -0.0798 -0.1847 -0.1376
   98MPD2    H7 1536   3.524   0.277   0.314 -1.0244 -2.0612 -3.7678
   99TMC2    C1 1537   1.824   2.564   1.930 -0.1539  0.3580  0.5513
   99TMC2    C2 1538   1.871   2.594   2.052 -0.0361 -0.2868  0.0473
   99TMC2    C3 1539   1.790   2.554   2.157 -0.4024 -0.1511  0.3663
   99TMC2    C4 1540   1.698   2.515   1.899  0.2278 -0.0079 -0.0376
   99TMC2    C5 1541   1.625   2.482   2.009  0.5395  0.7803  0.0643
   99TMC2    C6 1542   1.661   2.500   2.138 -0.0181 -0.4363 -0.0693
   99TMC2     C 1543   1.919   2.595   1.822 -0.2468  0.1131  0.3629
   99TMC2     O 1544   2.003   2.675   1.844 -0.1349  0.2891  0.1684
   99TMC2     H 1545   1.965   2.647   2.063  0.6951 -1.3334 -1.0911
   99TMC2    H1 1546   1.658   2.510   1.798 -1.3105 -3.0679  0.7380
   99TMC2    H2 1547   1.599   2.452   2.213  0.8940 -0.1248  0.8905
   99TMC2    C7 1548   1.490   2.432   1.974 -0.1089 -0.1139  0.0841
   99TMC2    C8 1549   1.836   2.588   2.291 -0.5752  0.0721  1.4100
   99TMC2    O1 1550   1.412   2.449   2.066 -0.5157  0.1900  0.8671
   99TMC2    O2 1551   1.955   2.582   2.321  0.4892  0.0650  0.0418
   99TMC2    O5 1552   1.732   2.626   2.373 -0.0499  0.2529  0.1909
   99TMC2    H5 1553   1.655   2.658   2.322  0.0313  1.6593  0.9454
  100MPD2     C 1554   2.100   2.582   1.580 -0.2422  0.3103 -0.0340
  100MPD2    C1 1555   1.976   2.527   1.588  0.0743 -0.1924  0.3391
  100MPD2    C2 1556   1.925   2.467   1.473 -0.2606 -0.1711 -0.3853
  100MPD2    C3 1557   1.991   2.460   1.349 -0.8796  0.4102 -0.0696
  100MPD2    C4 1558   2.102   2.531   1.340  0.0782  0.3294 -0.3442
  100MPD2    C5 1559   2.160   2.583   1.456  0.2085 -0.0188  0.4232
  100MPD2     H 1560   1.824   2.428   1.467 -0.5131  0.7386 -2.0173
  100MPD2    H1 1561   2.167   2.532   1.253 -1.1909  1.8839 -1.2690
  100MPD2    H2 1562   2.153   2.618   1.668  1.7295 -0.7706 -0.7734
  100MPD2    H3 1563   2.266   2.605   1.465  0.3200  0.3045 -1.7779
  100MPD2     N 1564   1.924   2.390   1.242 -0.1236  0.2772  0.4627
  100MPD2    H5 1565   1.845   2.336   1.274  1.3283 -0.4475  2.8151
  100MPD2    N1 1566   1.891   2.531   1.705  0.4519  0.1030 -0.2986
  100MPD2    H7 1567   1.810   2.470   1.711 -0.1306  0.9852  0.8235
  101TMC2    C1 1568   3.229   3.896  13.473  0.1221 -0.7394  0.2726
  101TMC2    C2 1569   3.250   3.893  13.615  0.5875  0.2388  0.5090
  101TMC2    C3 1570   3.328   3.994  13.665 -0.0652 -0.2812  0.4018
  101TMC2    C4 1571   3.286   3.991  13.393 -0.5475  0.4433 -0.1892
  101TMC2    C5 1572   3.368   4.078  13.450  0.0551  0.3820  0.2131
  101TMC2    C6 1573   3.384   4.087  13.583  0.1042 -0.7038 -0.3654
  101TMC2     C 1574   3.148   3.788  13.419  0.2088 -0.1626  0.2993
  101TMC2     O 1575   3.127   3.697  13.502  0.0782 -0.1326 -0.0520
  101TMC2     H 1576   3.208   3.822  13.686 -0.4445  1.5085  1.1620
  101TMC2    H1 1577   3.302   3.983  13.287  0.4831  0.1356 -0.0085
  101TMC2    H2 1578   3.433   4.175  13.625  1.4399 -1.4692 -0.3250
  101TMC2    C7 1579   3.446   4.164  13.366 -0.0043 -0.0694 -0.5042
  101TMC2    C8 1580   3.359   3.997  13.804 -0.2170 -0.0641  0.0227
  101TMC2    O1 1581   3.393   4.182  13.258 -0.3791  0.1789  0.6236
  101TMC2    O2 1582   3.471   4.024  13.838 -0.8437 -0.3118  0.1238
  101TMC2    O5 1583   3.253   3.977  13.883 -0.1633  0.4163 -0.4599
  101TMC2    H5 1584   3.166   3.966  13.840 -0.0236 -1.1765 -0.3209
  102MPD2     C 1585   2.944   3.820  13.120  0.2074  0.5766  1.1467
  102MPD2    C1 1586   3.000   3.750  13.227 -0.5082  0.1815  0.4641
  102MPD2    C2 1587   2.957   3.622  13.264 -0.2165  0.2260 -0.7561
  102MPD2    C3 1588   2.852   3.571  13.191  0.0592 -0.4225 -0.7294
  102MPD2    C4 1589   2.818   3.634  13.071  0.0009  0.0363 -0.0353
  102MPD2    C5 1590   2.864   3.756  13.037  0.2368  0.7972  0.4928
  102MPD2     H 1591   3.004   3.573  13.349 -1.3464 -1.1038 -0.8961
  102MPD2    H1 1592   2.747   3.586  13.004 -1.0894  0.0880  1.0861
  102MPD2    H2 1593   2.987   3.915  13.089  0.5263  0.5946  1.6476
  102MPD2    H3 1594   2.816   3.812  12.957 -0.6752 -2.1481 -1.0121
  102MPD2     N 1595   2.791   3.448  13.239 -0.3682  0.4273  0.4054
  102MPD2    H5 1596   2.826   3.404  13.324 -0.4643 -1.7543 -0.6928
  102MPD2    N1 1597   3.095   3.823  13.297  0.4989  0.2115 -0.5081
  102MPD2    H7 1598   3.118   3.917  13.265  0.8199  0.2559 -0.1510
  103TMC2    C1 1599   0.828   3.291  12.398 -0.9072  0.5420  0.0911
  103TMC2    C2 1600   0.878   3.168  12.433 -1.0712 -0.3737 -0.0246
  103TMC2    C3 1601   0.990   3.175  12.521 -0.7377 -0.4437  0.1865
  103TMC2    C4 1602   0.867   3.409  12.443 -0.3115 -0.5519  0.3306
  103TMC2    C5 1603   0.973   3.408  12.533  0.2793  0.4003 -0.6847
  103TMC2    C6 1604   1.040   3.294  12.572 -0.0632  0.5376  0.0253
  103TMC2     C 1605   0.708   3.288  12.317  0.6932 -0.7213 -0.2678
  103TMC2     O 1606   0.671   3.375  12.243  0.4633  0.7300 -0.2289
  103TMC2     H 1607   0.851   3.077  12.381  1.9698 -1.1265 -0.2915
  103TMC2    H1 1608   0.807   3.497  12.427 -0.2230 -0.5730 -0.0968
  103TMC2    H2 1609   1.117   3.300  12.649  0.7529 -0.8419 -0.6825
  103TMC2    C7 1610   1.001   3.526  12.607 -0.0513 -0.2578  0.5199
  103TMC2    C8 1611   1.050   3.052  12.561 -0.3050 -0.3049 -0.2431
  103TMC2    O1 1612   1.056   3.514  12.716  0.1666  0.2817  0.1415
  103TMC2    O2 1613   0.985   2.948  12.569 -0.5117  0.2787 -0.3386
  103TMC2    O5 1614   1.179   3.053  12.524 -0.1965  0.4017 -0.6092
  103TMC2    H5 1615   1.202   3.136  12.478  0.6333  0.9777  0.8163
  104MPD2     C 1616   0.434   3.067  12.424 -0.0550 -0.0456 -0.5496
  104MPD2    C1 1617   0.495   3.147  12.328 -0.3443  0.1176  0.9902
  104MPD2    C2 1618   0.424   3.208  12.224 -0.0478 -0.2720  0.2813
  104MPD2    C3 1619   0.290   3.177  12.209 -0.3749  0.0290 -0.3226
  104MPD2    C4 1620   0.228   3.088  12.303  0.2249 -0.5429 -0.1464
  104MPD2    C5 1621   0.306   3.033  12.403  0.0994 -0.1985  0.2237
  104MPD2     H 1622   0.473   3.275  12.155  1.6153 -0.3051  1.4132
  104MPD2    H1 1623   0.123   3.063  12.292 -0.4808  2.9075 -1.2765
  104MPD2    H2 1624   0.483   3.026  12.511 -3.8950  1.7547  2.4465
  104MPD2    H3 1625   0.265   2.969  12.481  0.4066 -1.3370 -0.5385
  104MPD2     N 1626   0.234   3.237  12.091 -0.0107 -0.5862 -0.3732
  104MPD2    H5 1627   0.290   3.289  12.024  0.5826 -2.3077 -1.2151
  104MPD2    N1 1628   0.634   3.177  12.356 -0.9021 -0.3394  0.1860
  104MPD2    H7 1629   0.667   3.135  12.442 -3.0744 -1.5552  0.4075
  105TMC2    C1 1630   2.127   2.866  17.549 -0.6486 -0.3096  0.1526
  105TMC2    C2 1631   2.093   2.996  17.550 -0.5344  0.6003 -0.4321
  105TMC2    C3 1632   1.974   3.026  17.610 -0.0264 -0.7921 -0.0681
  105TMC2    C4 1633   2.039   2.775  17.607 -0.2519 -0.0659  0.5177
  105TMC2    C5 1634   1.922   2.818  17.674 -0.1682  0.5304 -0.4639
  105TMC2    C6 1635   1.879   2.948  17.669  0.3320 -0.3248 -0.3645
  105TMC2     C 1636   2.242   2.806  17.479 -0.0876 -0.4013  0.7308
  105TMC2     O 1637   2.239   2.688  17.451 -0.4120  0.3478  0.3143
  105TMC2     H 1638   2.158   3.074  17.512 -0.6559 -0.5330 -2.9509
  105TMC2    H1 1639   2.067   2.671  17.616  0.6700  0.1809  0.4983
  105TMC2    H2 1640   1.780   2.982  17.698 -0.1663 -0.8869 -1.4252
  105TMC2    C7 1641   1.891   2.741   0.050 -0.3608  0.9887  0.1469
  105TMC2    C8 1642   1.951   3.172  17.624  0.4812 -0.5005 -0.2111
  105TMC2    O1 1643   1.913   2.620   0.035 -0.3612 -0.4587 -0.5219
  105TMC2    O2 1644   2.032   3.232  17.690 -0.0688 -0.5440  0.1048
  105TMC2    O5 1645   1.822   3.199  17.600 -0.2001  0.5476  0.1590
  105TMC2    H5 1646   1.797   3.157  17.515  3.2150  0.6676 -0.9191
  106MPD2     C 1647   2.679   2.817  17.212 -0.4167 -0.0162  0.6444
  106MPD2    C1 1648   2.674   2.930  17.292  0.6607  0.0448 -1.1268
  106MPD2    C2 1649   2.560   2.947  17.375 -0.2128 -0.2051 -0.4931
  106MPD2    C3 1650   2.454   2.856  17.383 -0.4809  0.8223  0.3448
  106MPD2    C4 1651   2.472   2.743  17.310  0.3843  0.6145  0.0776
  106MPD2    C5 1652   2.584   2.717  17.230 -0.5528 -0.6123  0.1524
  106MPD2     H 1653   2.547   3.037  17.434 -0.5683 -0.9983  0.6642
  106MPD2    H1 1654   2.405   2.657  17.311  1.3416 -0.1406 -0.7528
  106MPD2    H2 1655   2.747   2.789  17.132  1.4514  1.2259  1.7910
  106MPD2    H3 1656   2.579   2.640  17.153 -2.5129 -1.0258  0.6987
  106MPD2     N 1657   2.344   2.894  17.465  0.4198  0.3906  0.5467
  106MPD2    H5 1658   2.339   2.990  17.496  0.5113  0.7826 -0.6557
  106MPD2    N1 1659   2.758   3.040  17.278  0.0484 -0.3150  0.1721
  106MPD2    H7 1660   2.727   3.126  17.321 -2.6860 -1.3384  0.2107
  107TMC2    C1 1661   3.507   2.715  11.395 -0.7597 -0.3899  0.6718
  107TMC2    C2 1662   3.501   2.739  11.259 -0.1174 -0.0841 -0.0745
  107TMC2    C3 1663   3.572   2.657  11.177  0.0333  0.3799 -0.1921
  107TMC2    C4 1664   3.580   2.612  11.448 -0.0485 -0.0077  0.0917
  107TMC2    C5 1665   3.644   2.521  11.364  0.5360  0.4345 -0.8787
  107TMC2    C6 1666   3.630   2.540  11.228 -0.1800  0.1438 -0.3661
  107TMC2     C 1667   3.438   2.791  11.495  0.3068  0.4803  0.5856
  107TMC2     O 1668   3.493   2.779  11.604  0.1638  0.5046  0.2666
  107TMC2     H 1669   3.455   2.832  11.227  0.8191  0.9689  1.6379
  107TMC2    H1 1670   3.584   2.584  11.552  1.2828  1.1491  0.3583
  107TMC2    H2 1671   3.663   2.464  11.158 -1.5284 -1.3948  0.6715
  107TMC2    C7 1672   3.650   2.389  11.407 -0.2611  0.3265 -0.1595
  107TMC2    C8 1673   3.545   2.665  11.035  0.2255 -0.4103 -0.5557
  107TMC2    O1 1674   3.594   2.360  11.513 -0.5427  0.2050 -0.1205
  107TMC2    O2 1675   3.549   2.580  10.946  0.5527  0.8269  0.2174
  107TMC2    O5 1676   3.538   2.792  11.009  0.3935  0.4225 -0.3870
  107TMC2    H5 1677   3.566   2.846  11.086 -0.4446  1.0225 -0.4933
  108MPD2     C 1678   3.166   3.048  11.466 -0.2091 -0.3309 -0.0987
  108MPD2    C1 1679   3.243   2.951  11.533 -0.9645  0.5774 -0.3831
  108MPD2    C2 1680   3.223   2.935  11.668  0.4003  0.4128 -0.6829
  108MPD2    C3 1681   3.130   3.008  11.734  0.4772  0.3099  0.3132
  108MPD2    C4 1682   3.051   3.101  11.665  0.5506  0.1222  0.6600
  108MPD2    C5 1683   3.072   3.119  11.536 -0.0840  0.0553  1.2745
  108MPD2     H 1684   3.281   2.856  11.714 -0.2839  0.8351  0.9109
  108MPD2    H1 1685   2.977   3.158  11.721  1.1739  0.8156  0.7922
  108MPD2    H2 1686   3.192   3.060  11.362 -0.3756 -0.6831 -0.1801
  108MPD2    H3 1687   3.027   3.206  11.490  1.8787 -1.1869 -3.0924
  108MPD2     N 1688   3.103   2.995  11.877  1.0337 -0.0431  0.3281
  108MPD2    H5 1689   3.031   3.054  11.919 -0.8301 -1.7765 -0.3999
  108MPD2    N1 1690   3.336   2.880  11.452  0.8239  0.2995  0.2411
  108MPD2    H7 1691   3.314   2.879  11.353  0.8837 -1.7834  0.2597
  109TMC2    C1 1692   2.702   0.231   0.408 -0.2219 -0.2650  0.1360
  109TMC2    C2 1693   2.698   0.215   0.276  0.5164 -0.3640  0.3555
  109TMC2    C3 1694   2.779   0.133   0.209 -1.1894  0.1401  0.2156
  109TMC2    C4 1695   2.802   0.169   0.478  0.8126  0.1323 -0.8951
  109TMC2    C5 1696   2.892   0.090   0.407 -0.1976  0.2029 -0.6967
  109TMC2    C6 1697   2.877   0.063   0.274 -0.2942  0.1400 -0.3520
  109TMC2     C 1698   2.583   0.278   0.470  0.3699  0.2167  0.1820
  109TMC2     O 1699   2.512   0.348   0.398  0.1771  0.7361 -0.2128
  109TMC2     H 1700   2.631   0.277   0.216  0.8591 -1.0380 -0.7125
  109TMC2    H1 1701   2.820   0.191   0.582  1.0914  0.8039 -1.0838
  109TMC2    H2 1702   2.947   4.736   0.221  2.6362  1.0352  2.4167
  109TMC2    C7 1703   3.006   0.027   0.472  0.3184 -1.0554  0.1978
  109TMC2    C8 1704   2.803   0.144   0.073  0.5170  0.6328  0.4582
  109TMC2    O1 1705   3.099   4.727   0.404 -0.5846 -0.4108  0.0672
  109TMC2    O2 1706   2.872   0.047   0.032  0.0962 -0.0859  0.0668
  109TMC2    O5 1707   2.826   0.269   0.041  0.3924 -0.3869 -0.5975
  109TMC2    H5 1708   2.758   0.332   0.073  2.0352  0.8798  0.3977
  110MPD2     C 1709   2.276   0.361   0.854  0.0592 -0.2937 -0.2046
  110MPD2    C1 1710   2.349   0.251   0.896  0.4734 -0.0745  0.5583
  110MPD2    C2 1711   2.465   0.222   0.826  0.2464 -0.3492 -0.1443
  110MPD2    C3 1712   2.485   0.286   0.702  0.4753  0.2570  0.2636
  110MPD2    C4 1713   2.421   0.406   0.670 -0.6453 -0.0203  0.0703
  110MPD2    C5 1714   2.323   0.446   0.755  0.8387  0.3485 -0.2362
  110MPD2     H 1715   2.520   0.131   0.849  0.8949 -0.6258 -2.8336
  110MPD2    H1 1716   2.445   0.468   0.585 -1.2656  0.5052  0.2799
  110MPD2    H2 1717   2.191   0.402   0.906  0.9824 -1.3108  2.1075
  110MPD2    H3 1718   2.263   0.535   0.743  0.2725 -0.2014 -1.4794
  110MPD2     N 1719   2.577   0.239   0.605  0.0604 -0.2337  0.8104
  110MPD2    H5 1720   2.638   0.160   0.627 -1.6494 -1.4294  1.2328
  110MPD2    N1 1721   2.297   0.174   1.004  0.0915 -0.4515  0.1969
  110MPD2    H7 1722   2.208   0.214   1.030  1.1637  1.4708  0.9354
  111TMC2    C1 1723   2.732   0.035  12.060 -0.8586  0.2497 -0.5338
  111TMC2    C2 1724   2.629   0.002  12.145  0.2069  0.0160 -0.4725
  111TMC2    C3 1725   2.663   4.687  12.272  1.1233  0.5488 -0.1054
  111TMC2    C4 1726   2.863   0.016  12.093  0.1544  0.4504  0.7292
  111TMC2    C5 1727   2.891   4.699  12.219  0.6751  0.4198 -0.4596
  111TMC2    C6 1728   2.791   4.667  12.309  0.0489 -0.3911 -0.2736
  111TMC2     C 1729   2.714   0.046  11.921 -0.3444 -0.1707 -0.2254
  111TMC2     O 1730   2.798   0.114  11.863  0.2856  0.1640 -0.5196
  111TMC2     H 1731   2.526   0.003  12.111 -0.2200  0.3904  0.8405
  111TMC2    H1 1732   2.938   0.042  12.020 -0.2142 -1.4911 -0.3293
  111TMC2    H2 1733   2.816   4.615  12.400  0.1801 -3.5138 -2.1078
  111TMC2    C7 1734   3.032   4.660  12.252  0.4354 -0.1236 -0.6696
  111TMC2    C8 1735   2.564   4.597  12.343 -0.3244  0.6983 -0.5155
  111TMC2    O1 1736   3.053   4.609  12.357 -0.2574  0.1454 -0.3773
  111TMC2    O2 1737   2.608   4.505  12.407 -0.6232  0.1521 -0.1787
  111TMC2    O5 1738   2.468   4.680  12.384  0.1808 -0.6481 -0.0309
  111TMC2    H5 1739   2.455   0.018  12.320  1.0643  0.2512  0.8258
  112MPD2     C 1740   2.448   4.671  11.489  0.0734 -0.2965 -0.2756
  112MPD2    C1 1741   2.563   0.015  11.510  1.5111  1.2355  0.5134
  112MPD2    C2 1742   2.613   0.038  11.641 -0.2475  0.4937  0.0001
  112MPD2    C3 1743   2.550   4.715  11.748 -0.0568 -0.1084  0.4213
  112MPD2    C4 1744   2.447   4.624  11.725 -0.4964  0.6010  0.0999
  112MPD2    C5 1745   2.395   4.609  11.598  0.3144 -0.0103 -0.2138
  112MPD2     H 1746   2.696   0.106  11.657 -0.2530  0.4918  0.0372
  112MPD2    H1 1747   2.407   4.569  11.810 -0.1103  0.6610  0.3196
  112MPD2    H2 1748   2.400   4.664  11.392  0.6774 -2.5473 -0.3932
  112MPD2    H3 1749   2.320   4.532  11.589  0.9553 -0.7014  0.2927
  112MPD2     N 1750   2.593   4.726  11.881  0.6161  0.6380 -0.0067
  112MPD2    H5 1751   2.531   4.677  11.945  0.0904 -0.7273 -1.5446
  112MPD2    N1 1752   2.622   0.091  11.406 -0.0380 -0.1120  0.1662
  112MPD2    H7 1753   2.670   0.175  11.436  1.2832 -0.4456 -1.0377
  113TMC2    C1 1754   0.819   1.635   0.231  0.0454  0.5433  0.2339
  113TMC2    C2 1755   0.841   1.648   0.096 -0.2927 -0.0695  0.4476
  113TMC2    C3 1756   0.816   1.545   0.015  0.1269  0.0705  0.0014
  113TMC2    C4 1757   0.767   1.518   0.287  0.1435  0.1928 -0.1777
  113TMC2    C5 1758   0.746   1.419   0.193 -0.3756  0.4602 -0.8807
  113TMC2    C6 1759   0.775   1.424   0.058  0.1105 -0.5795  0.1205
  113TMC2     C 1760   0.870   1.743   0.312  0.6244 -0.7676  0.2003
  113TMC2     O 1761   0.881   1.859   0.276 -0.6182  0.2034  0.0231
  113TMC2     H 1762   0.871   1.744   0.056 -1.0616 -0.1941 -0.4073
  113TMC2    H1 1763   0.717   1.521   0.383  1.0023 -1.4839  0.3084
  113TMC2    H2 1764   0.752   1.343  17.733 -1.0860  0.2902 -0.4962
  113TMC2    C7 1765   0.731   1.284   0.250  0.2803  0.1822  0.6208
  113TMC2    C8 1766   0.816   1.575  17.621 -0.6773 -0.1985 -0.2799
  113TMC2    O1 1767   0.785   1.200   0.181 -0.1249  0.9662  0.0504
  113TMC2    O2 1768   0.838   1.690  17.589  0.6061 -0.0622 -0.5978
  113TMC2    O5 1769   0.877   1.475  17.559 -0.7668  0.3975  0.2716
  113TMC2    H5 1770   0.879   1.392  17.611  0.2423  1.3287  1.7190
  114MPD2     C 1771   1.098   1.878   0.763 -0.3375 -0.1423  0.4236
  114MPD2    C1 1772   1.072   1.946   0.649 -0.0317 -1.0002 -0.8152
  114MPD2    C2 1773   1.001   1.891   0.548  0.5153 -0.3043  0.1202
  114MPD2    C3 1774   0.959   1.755   0.541 -0.4279 -0.4119 -0.1633
  114MPD2    C4 1775   0.997   1.686   0.653  0.0601  0.0266 -0.2756
  114MPD2    C5 1776   1.061   1.746   0.761  0.2458  0.4237 -1.0348
  114MPD2     H 1777   0.983   1.960   0.466 -2.1226 -1.6605 -0.4520
  114MPD2    H1 1778   0.976   1.580   0.664 -1.8920  0.3976 -0.4236
  114MPD2    H2 1779   1.154   1.912   0.849  1.8786 -0.1579 -1.0122
  114MPD2    H3 1780   1.085   1.674   0.839 -1.7392 -0.2114 -1.0230
  114MPD2     N 1781   0.894   1.689   0.437 -0.0647 -0.1658 -0.3694
  114MPD2    H5 1782   0.843   1.602   0.448 -0.1124  0.4814  4.5855
  114MPD2    N1 1783   1.117   2.080   0.628  0.2605 -0.3752  0.1558
  114MPD2    H7 1784   1.078   2.144   0.559  0.1282  0.5392  1.0787
  115TMC2    C1 1785   2.229   0.640  17.731  0.2365  0.5834  0.0997
  115TMC2    C2 1786   2.097   0.632   0.038  0.4913 -0.4687 -0.8793
  115TMC2    C3 1787   2.019   0.747   0.042 -0.3343 -0.2583  0.1348
  115TMC2    C4 1788   2.285   0.756  17.685  0.0661  0.7249 -0.0819
  115TMC2    C5 1789   2.196   0.857  17.682  0.4885  0.9939  0.3287
  115TMC2    C6 1790   2.072   0.856  17.725 -0.6135 -0.2533  0.5309
  115TMC2     C 1791   2.317   0.515  17.732  0.4341 -0.2667 -0.5159
  115TMC2     O 1792   2.438   0.531  17.740  0.7073  0.1562  0.2780
  115TMC2     H 1793   2.072   0.529   0.061  2.0887 -0.3807  1.3168
  115TMC2    H1 1794   2.387   0.749  17.651 -0.0244 -2.2894  0.2510
  115TMC2    H2 1795   2.027   0.954  17.738  1.2564  0.6183  0.5302
  115TMC2    C7 1796   2.248   0.979  17.640 -0.3527  0.3490 -0.0937
  115TMC2    C8 1797   1.910   0.757   0.131  0.5401  0.2997 -0.4534
  115TMC2    O1 1798   2.354   1.011  17.687  0.2638  0.0074  0.2707
  115TMC2    O2 1799   1.841   0.857   0.137 -0.4954  0.3548 -0.1401
  115TMC2    O5 1800   1.893   0.640   0.196  0.5336 -0.6709  0.0573
  115TMC2    H5 1801   1.963   0.571   0.193 -0.2541 -1.3908 -1.5541
  116MPD2     C 1802   2.438   0.062  17.524  1.0276  0.5144  0.4142
  116MPD2    C1 1803   2.307   0.102  17.489  0.2297 -0.0158 -0.1077
  116MPD2    C2 1804   2.249   0.210  17.552 -0.1234 -0.6496 -0.1106
  116MPD2    C3 1805   2.314   0.286  17.644 -0.3681 -0.1147 -0.6484
  116MPD2    C4 1806   2.442   0.249  17.683  0.7202  0.3929 -0.1763
  116MPD2    C5 1807   2.498   0.139  17.626 -0.7128  0.5205 -0.1785
  116MPD2     H 1808   2.146   0.232  17.529  0.0296 -1.4251 -1.5777
  116MPD2    H1 1809   2.493   0.301   0.021  1.5406 -1.6309  0.6224
  116MPD2    H2 1810   2.494   4.719  17.474  2.6214  2.2574 -0.5648
  116MPD2    H3 1811   2.599   0.113  17.652 -1.1117 -0.1742  0.6435
  116MPD2     N 1812   2.246   0.404  17.687  0.2170 -0.1139  0.7803
  116MPD2    H5 1813   2.150   0.419  17.659  1.3642 -0.1102 -3.1795
  116MPD2    N1 1814   2.243   0.039  17.379 -0.5922  0.0264  0.6815
  116MPD2    H7 1815   2.285   4.689  17.347 -0.7403 -0.2102  1.1241
  117TMC2    C1 1816   0.791   1.931  14.109 -0.0905 -0.2306 -0.0325
  117TMC2    C2 1817   0.901   1.873  14.060  0.2738  0.2832  0.1905
  117TMC2    C3 1818   0.976   1.950  13.969  0.6942  0.4485  0.7855
  117TMC2    C4 1819   0.758   2.059  14.083 -0.7636 -0.8893  0.3566
  117TMC2    C5 1820   0.831   2.137  13.996  0.2974 -0.4418  0.3813
  117TMC2    C6 1821   0.943   2.083  13.937  0.2985  0.0775 -0.5207
  117TMC2     C 1822   0.684   1.833  14.115  1.3224 -0.1625  0.2043
  117TMC2     O 1823   0.705   1.722  14.152  0.6173 -0.2188  0.0655
  117TMC2     H 1824   0.917   1.766  14.075  0.2606  0.1697 -0.6126
  117TMC2    H1 1825   0.680   2.098  14.147  0.0894 -1.2683  1.6471
  117TMC2    H2 1826   1.011   2.137  13.872 -1.0363  1.2786 -0.9062
  117TMC2    C7 1827   0.844   2.276  14.027 -0.0268 -1.1148  0.2527
  117TMC2    C8 1828   1.079   1.885  13.887  0.0937 -0.1526  0.5153
  117TMC2    O1 1829   0.956   2.319  14.054 -0.2718 -0.3572 -0.0845
  117TMC2    O2 1830   1.118   1.933  13.780 -0.4467  0.3201 -0.4121
  117TMC2    O5 1831   1.151   1.807  13.965  0.0156  0.8139  0.0222
  117TMC2    H5 1832   1.110   1.788  14.052 -0.6888 -0.6681 -0.6413
  118MPD2     C 1833   0.554   2.504  14.075  0.8090 -0.4426  0.2966
  118MPD2    C1 1834   0.686   2.471  14.060 -0.4214  0.4177  0.1204
  118MPD2    C2 1835   0.780   2.568  14.101 -0.0247  0.2457  0.7961
  118MPD2    C3 1836   0.744   2.697  14.142  0.1389 -0.3085 -0.1938
  118MPD2    C4 1837   0.611   2.722  14.156 -0.2909 -0.5699  0.3660
  118MPD2    C5 1838   0.518   2.631  14.119 -0.3526  0.3885  0.1338
  118MPD2     H 1839   0.884   2.536  14.110  0.3122 -0.0503 -4.2171
  118MPD2    H1 1840   0.580   2.823  14.181  2.2620  0.1728  0.5058
  118MPD2    H2 1841   0.483   2.427  14.046  1.2087 -0.7615  0.1620
  118MPD2    H3 1842   0.412   2.656  14.117 -0.1869  1.1924  1.8652
  118MPD2     N 1843   0.837   2.790  14.170 -0.2125 -0.0706 -0.3846
  118MPD2    H5 1844   0.797   2.878  14.200 -0.7864  0.3389 -2.3714
  118MPD2    N1 1845   0.716   2.340  14.026 -0.3553  0.2640 -0.3018
  118MPD2    H7 1846   0.638   2.282  13.995 -0.3186  0.5000 -0.8444
  119TMC2    C1 1847   3.931   3.519  12.878 -0.1314  0.5902  0.1443
  119TMC2    C2 1848   3.913   3.576  12.757  0.6191  0.0650  0.4077
  119TMC2    C3 1849   3.805   3.543  12.672  0.2183 -0.2784  0.5168
  119TMC2    C4 1850   3.847   3.421  12.923 -0.1167 -0.1975  0.4504
  119TMC2    C5 1851   3.748   3.378  12.839 -0.6830  0.6213  0.5471
  119TMC2    C6 1852   3.736   3.438  12.716 -0.5641  0.8695 -0.9708
  119TMC2     C 1853   4.049   3.556  12.955  0.4004  0.8450  0.3093
  119TMC2     O 1854   4.069   3.493  13.058  0.5823  0.4933  0.3990
  119TMC2     H 1855   3.985   3.648  12.719 -0.6679  1.1082 -0.0577
  119TMC2    H1 1856   3.854   3.394  13.028 -1.1406 -1.9064  0.0826
  119TMC2    H2 1857   3.653   3.409  12.653 -0.2801 -2.1454  0.0017
  119TMC2    C7 1858   3.614   3.342  12.897  0.2143  0.4229 -0.2205
  119TMC2    C8 1859   3.809   3.558  12.527  0.8929 -0.1390 -0.2246
  119TMC2    O1 1860   3.511   3.375  12.838  0.2277 -0.0530  0.3209
  119TMC2    O2 1861   3.916   3.549  12.465 -0.5529  0.1493 -0.1499
  119TMC2    O5 1862   3.687   3.568  12.474  0.6765 -0.2857  0.0159
  119TMC2    H5 1863   3.629   3.596  12.549 -0.1469  2.0764 -1.5110
  120MPD2     C 1864   4.320   3.887  13.222 -0.7551 -0.2851 -0.0781
  120MPD2    C1 1865   4.229   3.792  13.258  0.1139 -0.3568 -1.1814
  120MPD2    C2 1866   4.160   3.723  13.163 -0.1850  0.1780 -0.4226
  120MPD2    C3 1867   4.172   3.759  13.029  0.6535  0.1360 -0.7781
  120MPD2    C4 1868   4.239   3.875  12.998 -0.0940 -0.4117 -0.4892
  120MPD2    C5 1869   4.319   3.938  13.089 -0.1132  0.1193 -0.0624
  120MPD2     H 1870   4.084   3.655  13.197 -0.4021 -0.0404 -1.3543
  120MPD2    H1 1871   4.245   3.909  12.895 -1.9001 -0.3521 -0.5672
  120MPD2    H2 1872   4.386   3.938  13.291 -2.9818  0.7579  1.2548
  120MPD2    H3 1873   4.384   4.020  13.058  0.8805  0.2624  2.4029
  120MPD2     N 1874   4.102   3.686  12.931  0.0884 -0.3338  0.5399
  120MPD2    H5 1875   4.123   3.704  12.833 -3.9825  0.2835 -0.1860
  120MPD2    N1 1876   4.204   3.751  13.390  0.1914  0.2280  0.0289
  120MPD2    H7 1877   4.139   3.673  13.390  0.8638 -0.3328 -3.0229
  121TMC2    C1 1878   0.449   4.648  14.159  0.2758 -0.2265  0.1133
  121TMC2    C2 1879   0.459   0.046  14.182  0.1275 -0.7600 -0.4306
  121TMC2    C3 1880   0.405   0.097  14.300 -0.2698  0.1209 -0.0907
  121TMC2    C4 1881   0.380   4.562  14.245  0.0342 -0.2356  0.2565
  121TMC2    C5 1882   0.322   4.614  14.362  0.5430  1.3440 -0.3017
  121TMC2    C6 1883   0.339   0.014  14.393 -0.5887 -0.3961 -0.2035
  121TMC2     C 1884   0.536   4.584  14.054  0.0173  0.2435 -1.0558
  121TMC2     O 1885   0.560   4.465  14.063  0.3410 -0.3620 -0.2665
  121TMC2     H 1886   0.541   0.095  14.130  0.2473 -0.1514  0.3412
  121TMC2    H1 1887   0.362   4.459  14.216 -1.9354  0.2504 -0.3113
  121TMC2    H2 1888   0.298   0.058  14.483 -0.1295 -4.1846  1.8338
  121TMC2    C7 1889   0.196   4.561  14.407 -0.2600 -0.0837 -0.7619
  121TMC2    C8 1890   0.439   0.230  14.340 -0.1898  0.0870 -0.1819
  121TMC2    O1 1891   0.187   4.441  14.439  0.2811 -0.8208  0.7446
  121TMC2    O2 1892   0.386   0.272  14.441 -0.4958 -0.4757  0.1962
  121TMC2    O5 1893   0.443   0.289  14.222  0.1060 -0.2833  0.2274
  121TMC2    H5 1894   0.438   0.230  14.144 -2.7038 -0.0857  0.2497
  122MPD2     C 1895   0.690   4.512  13.809  0.2908  0.6022  1.0152
  122MPD2    C1 1896   0.635   4.636  13.837 -0.3621  0.4931 -0.0359
  122MPD2    C2 1897   0.665   0.009  13.747 -0.2624  0.0628  0.0486
  122MPD2    C3 1898   0.752   4.725  13.637 -0.6113  0.2688  0.5044
  122MPD2    C4 1899   0.817   4.604  13.620 -0.1996 -0.1658  0.7680
  122MPD2    C5 1900   0.784   4.507  13.704  0.1398 -0.6448  0.4487
  122MPD2     H 1901   0.618   0.105  13.760 -0.9989 -0.1044 -1.3599
  122MPD2    H1 1902   0.871   4.578  13.530  1.4512 -0.7649  1.9395
  122MPD2    H2 1903   0.660   4.428  13.870 -0.4107  0.0807 -0.0369
  122MPD2    H3 1904   0.831   4.413  13.678  0.4239 -0.8438  1.6882
  122MPD2     N 1905   0.769   0.092  13.536 -0.3802 -0.1686 -0.5869
  122MPD2    H5 1906   0.843   0.072  13.468  0.0824 -1.8973  0.4088
  122MPD2    N1 1907   0.558   4.669  13.951 -0.2724  0.1452 -0.2866
  122MPD2    H7 1908   0.515   0.024  13.945  0.5777  0.5539 -0.1759
  123TMC2    C1 1909   4.083   3.371   9.468  0.2088  0.7780  0.1978
  123TMC2    C2 1910   4.211   3.421   9.446 -0.0097  0.6070 -0.3240
  123TMC2    C3 1911   4.316   3.330   9.451  0.5523  0.8200  0.0553
  123TMC2    C4 1912   4.059   3.236   9.500 -0.2280 -0.7214 -0.5801
  123TMC2    C5 1913   4.166   3.156   9.531  0.0359  0.5646 -0.3931
  123TMC2    C6 1914   4.290   3.204   9.503  0.4608 -0.2650  0.1717
  123TMC2     C 1915   3.974   3.469   9.506  0.0682  0.8211  0.6783
  123TMC2     O 1916   3.989   3.594   9.486  0.1233  0.1817  0.0348
  123TMC2     H 1917   4.227   3.526   9.422  1.1095  0.7383  0.9615
  123TMC2    H1 1918   3.962   3.192   9.516 -0.6915  0.6450  0.3977
  123TMC2    H2 1919   4.382   3.146   9.505  0.3233 -0.4634  0.8077
  123TMC2    C7 1920   4.149   3.014   9.570 -0.5269  0.4124 -0.2577
  123TMC2    C8 1921   4.442   3.373   9.501  0.6827  0.5434 -0.6649
  123TMC2    O1 1922   4.039   2.993   9.616  0.4430  0.2827  0.1214
  123TMC2    O2 1923   4.478   3.354   9.616 -0.1804  0.0334 -0.1620
  123TMC2    O5 1924   4.471   3.477   9.423  0.0771 -0.4642 -0.1742
  123TMC2    H5 1925   4.429   3.479   9.334 -0.0937  0.8023 -0.0726
  124MPD2     C 1926   3.573   3.590   9.778 -0.6029 -0.9899  0.5595
  124MPD2    C1 1927   3.616   3.462   9.819 -0.4779 -0.1856  0.5855
  124MPD2    C2 1928   3.702   3.396   9.738  0.0726 -0.2708 -0.1738
  124MPD2    C3 1929   3.770   3.474   9.643 -0.6654  0.3181  0.0769
  124MPD2    C4 1930   3.736   3.603   9.611 -0.3316 -0.2590 -0.2817
  124MPD2    C5 1931   3.631   3.658   9.672  0.1025  0.6017  0.3681
  124MPD2     H 1932   3.745   3.299   9.760  0.4688 -0.5634 -2.2538
  124MPD2    H1 1933   3.780   3.663   9.532 -1.7629  0.8851 -0.2143
  124MPD2    H2 1934   3.489   3.631   9.831  0.0226  1.1824 -0.1170
  124MPD2    H3 1935   3.589   3.755   9.645 -0.1549  1.0856  2.5268
  124MPD2     N 1936   3.883   3.411   9.586  0.2206 -0.1945  0.0168
  124MPD2    H5 1937   3.897   3.315   9.614  0.4736  0.1878  1.2031
  124MPD2    N1 1938   3.541   3.404   9.928  0.6848 -0.4712  0.6116
  124MPD2    H7 1939   3.464   3.454   9.971  1.2850  0.7451  0.2752
  125TMC2    C1 1940   3.335   3.827   9.400 -0.4346  0.1662  0.2376
  125TMC2    C2 1941   3.397   3.889   9.503 -0.2725 -0.2463 -0.4874
  125TMC2    C3 1942   3.470   4.002   9.473  0.7494  0.0498 -0.5193
  125TMC2    C4 1943   3.358   3.857   9.267 -0.6295 -0.1014 -0.3248
  125TMC2    C5 1944   3.444   3.960   9.244 -0.5143  0.7608 -0.3846
  125TMC2    C6 1945   3.501   4.036   9.343  0.1564  0.4323  0.0770
  125TMC2     C 1946   3.246   3.724   9.437  0.2070  0.3258  0.5124
  125TMC2     O 1947   3.273   3.669   9.541  0.1254  0.4507 -0.4788
  125TMC2     H 1948   3.372   3.863   9.605 -0.1120  0.0266 -0.3769
  125TMC2    H1 1949   3.312   3.789   9.197  0.6949 -0.9633 -0.3527
  125TMC2    H2 1950   3.564   4.121   9.319  0.7968  0.2302  1.0265
  125TMC2    C7 1951   3.471   3.996   9.108 -0.2788  0.0852  0.4130
  125TMC2    C8 1952   3.550   4.067   9.580 -0.2390  0.1077  0.0840
  125TMC2    O1 1953   3.375   3.991   9.036 -0.2085  0.2069  0.0965
  125TMC2    O2 1954   3.580   4.005   9.683  0.5633 -0.0709 -0.0061
  125TMC2    O5 1955   3.568   4.199   9.558  0.3588 -0.2494  0.3142
  125TMC2    H5 1956   3.512   4.232   9.484  1.2370  0.8545  0.1447
  126MPD1     C 1957   2.878   3.382   9.372 -0.0426 -0.1859 -0.6260
  126MPD1    C1 1958   2.856   3.475   9.275 -0.2988 -0.5576  0.4594
  126MPD1    C2 1959   2.946   3.578   9.260 -0.0432  0.0422 -0.4926
  126MPD1    C3 1960   3.051   3.595   9.350  0.4645 -0.8439 -0.2880
  126MPD1    C4 1961   3.064   3.503   9.446 -0.7580  0.0544  0.5755
  126MPD1    C5 1962   2.976   3.404   9.464 -0.1648 -0.1336  0.1090
  126MPD1     H 1963   2.925   3.654   9.185  0.0332  3.0255  2.5336
  126MPD1    H1 1964   3.145   3.487   9.516 -0.2957 -2.1201 -0.4546
  126MPD1    H2 1965   2.819   3.291   9.376  2.6540 -2.1131 -4.4824
  126MPD1    H3 1966   2.994   3.334   9.545  1.6760  2.2100  1.7274
  126MPD1     N 1967   3.145   3.707   9.344 -0.0445  0.6830  0.4348
  126MPD1    H5 1968   3.124   3.778   9.275  3.9125  0.2810 -1.1652
  126MPD1    N1 1969   2.769   3.441   9.170 -0.8119  0.5867  0.1483
  126MPD1    H6 1970   2.702   3.374   9.207 -0.1033 -0.0910  0.1831
  126MPD1    H7 1971   2.713   3.518   9.133 -2.0338  0.0938  0.9707
  127TMC2    C1 1972   0.835   3.982  10.100 -0.2755 -0.7191 -0.1565
  127TMC2    C2 1973   0.970   4.003  10.115 -0.1837 -0.0451 -0.0184
  127TMC2    C3 1974   1.019   3.973  10.242  0.2620 -0.1957 -0.5716
  127TMC2    C4 1975   0.755   3.932  10.198 -0.2756  0.9506 -0.0242
  127TMC2    C5 1976   0.812   3.917  10.319  0.2175  0.1215 -0.0357
  127TMC2    C6 1977   0.946   3.941  10.352  0.4966 -0.1226 -0.9235
  127TMC2     C 1978   0.783   4.028   9.976 -0.1601  0.3202 -0.7811
  127TMC2     O 1979   0.851   4.112   9.921 -0.2500  0.2913  0.3509
  127TMC2     H 1980   1.024   4.027  10.025 -0.5235  0.3764 -0.1088
  127TMC2    H1 1981   0.647   3.933  10.183 -0.4619  0.9202  1.3383
  127TMC2    H2 1982   0.991   3.898  10.441 -0.4171 -0.7159 -0.7476
  127TMC2    C7 1983   0.734   3.860  10.418  0.1877 -0.5559  0.2123
  127TMC2    C8 1984   1.157   4.007  10.257 -0.2950 -0.1932  0.2428
  127TMC2    O1 1985   0.777   3.881  10.531 -0.8557 -0.3410  0.3349
  127TMC2    O2 1986   1.201   4.089  10.338 -0.3341 -0.3139  0.0195
  127TMC2    O5 1987   1.219   3.984  10.138 -0.4877  0.0113 -0.2235
  127TMC2    H5 1988   1.178   3.908  10.091 -2.0459  0.9298 -0.3570
  128MPD2     C 1989   0.516   3.889   9.778  0.3647  0.0766  0.6596
  128MPD2    C1 1990   0.597   3.991   9.820  0.0151  0.0259 -0.6622
  128MPD2    C2 1991   0.616   4.100   9.736  0.0671 -0.4424  0.4726
  128MPD2    C3 1992   0.544   4.100   9.620 -0.6098 -0.3425 -0.3823
  128MPD2    C4 1993   0.453   4.005   9.583  0.2408 -0.1353  1.1590
  128MPD2    C5 1994   0.440   3.898   9.661 -0.4404 -0.0885  0.2936
  128MPD2     H 1995   0.687   4.179   9.760 -1.0745  1.6309 -2.9680
  128MPD2    H1 1996   0.405   4.005   9.486 -0.4627  4.1652  1.5089
  128MPD2    H2 1997   0.518   3.796   9.833 -2.0474 -1.8656 -2.5525
  128MPD2    H3 1998   0.383   3.815   9.623  1.1869 -0.2542 -1.7974
  128MPD2     N 1999   0.556   4.222   9.549 -0.8692 -0.4654  0.4628
  128MPD2    H5 2000   0.629   4.282   9.587 -1.2190 -0.4427  1.0954
  128MPD2    N1 2001   0.669   3.963   9.935 -0.0086 -0.1669  0.2567
  128MPD2    H7 2002   0.657   3.874   9.982 -3.9100  1.1052  1.7075
  129TMC2    C1 2003   3.737   3.974   1.447 -0.0487  0.1417  0.0060
  129TMC2    C2 2004   3.685   4.085   1.509 -0.3375  0.2952  0.0840
  129TMC2    C3 2005   3.587   4.063   1.600  0.0434  0.3656 -0.9100
  129TMC2    C4 2006   3.712   3.848   1.486 -0.9936  0.2527 -0.2007
  129TMC2    C5 2007   3.607   3.828   1.572 -0.2347 -0.3559  0.5405
  129TMC2    C6 2008   3.557   3.937   1.637  0.3832 -0.4703  0.7787
  129TMC2     C 2009   3.844   3.996   1.358  0.1313 -0.2852  0.6841
  129TMC2     O 2010   3.938   3.916   1.361 -0.3691  0.5693 -0.5924
  129TMC2     H 2011   3.723   4.184   1.489  0.9378 -0.1331  0.3697
  129TMC2    H1 2012   3.753   3.765   1.430  0.3816  0.8651 -0.0968
  129TMC2    H2 2013   3.476   3.919   1.707 -0.5378  0.1253 -0.1364
  129TMC2    C7 2014   3.545   3.697   1.595 -0.2904  0.0898 -0.0396
  129TMC2    C8 2015   3.505   4.173   1.630  0.6922  0.3000 -0.0160
  129TMC2    O1 2016   3.435   3.695   1.640 -0.1712 -0.8070  0.5248
  129TMC2    O2 2017   3.512   4.278   1.564  0.1819  0.5342  0.0765
  129TMC2    O5 2018   3.501   4.172   1.764  0.1244  0.1336 -0.0766
  129TMC2    H5 2019   3.501   4.082   1.804 -2.6755  0.1620 -0.0078
  130MPD2     C 2020   4.025   4.103   1.150 -0.5116 -0.2401  0.2554
  130MPD2    C1 2021   3.913   4.167   1.187  0.0523  0.1223  0.5179
  130MPD2    C2 2022   3.890   4.297   1.146 -0.8072  0.1239 -0.7854
  130MPD2    C3 2023   3.989   4.364   1.071  0.1168 -0.5971  0.4755
  130MPD2    C4 2024   4.094   4.292   1.022 -0.3190  0.3563 -0.1493
  130MPD2    C5 2025   4.117   4.157   1.063 -0.1846 -0.0278 -0.1351
  130MPD2     H 2026   3.804   4.353   1.179  0.6270  0.6427  2.1064
  130MPD2    H1 2027   4.173   4.330   0.958 -1.1148  0.6700 -0.9398
  130MPD2    H2 2028   4.035   4.001   1.185 -0.9639 -0.5743 -0.5943
  130MPD2    H3 2029   4.198   4.098   1.024 -0.0604  0.5395 -0.7480
  130MPD2     N 2030   3.957   4.495   1.042 -0.0377  0.4980 -0.7390
  130MPD2    H5 2031   3.879   4.528   1.098  0.0004  1.2143 -1.0999
  130MPD2    N1 2032   3.820   4.109   1.279  0.2693 -0.0482 -0.5148
  130MPD2    H7 2033   3.731   4.157   1.288  0.4095 -0.1135  1.2230
  131TMC2    C1 2034   2.728   3.624   9.640 -0.2577  0.7459  0.3826
  131TMC2    C2 2035   2.635   3.550   9.566 -1.0884  0.3210 -0.0867
  131TMC2    C3 2036   2.595   3.609   9.443  0.2435 -0.2316  0.0067
  131TMC2    C4 2037   2.785   3.740   9.594 -0.2016 -0.6468  0.1035
  131TMC2    C5 2038   2.751   3.789   9.464 -0.7719  0.8486 -0.6406
  131TMC2    C6 2039   2.643   3.728   9.398 -0.3734 -0.1256  0.2868
  131TMC2     C 2040   2.794   3.562   9.753 -0.2666 -1.3899  0.2080
  131TMC2     O 2041   2.903   3.613   9.782 -0.3336 -0.1320 -0.3836
  131TMC2     H 2042   2.599   3.451   9.592 -1.6492 -0.1340 -2.6043
  131TMC2    H1 2043   2.850   3.797   9.660  1.0179 -1.7318 -0.1700
  131TMC2    H2 2044   2.628   3.762   9.296  0.4716 -2.6672 -0.6752
  131TMC2    C7 2045   2.832   3.888   9.389  0.2006  0.0115  0.1145
  131TMC2    C8 2046   2.500   3.536   9.356 -0.1393  0.2915  0.4767
  131TMC2    O1 2047   2.788   3.919   9.280 -0.1296  0.3856 -0.5384
  131TMC2    O2 2048   2.525   3.429   9.302 -0.4374  0.0439 -0.4516
  131TMC2    O5 2049   2.419   3.633   9.296 -0.1491  0.0626  0.1323
  131TMC2    H5 2050   2.404   3.709   9.355  0.8930  1.4630 -1.4143
  132MPD2     C 2051   2.691   3.285   9.977  0.6345  0.3584 -0.2822
  132MPD2    C1 2052   2.781   3.374   9.917  0.8162 -0.0064 -0.4675
  132MPD2    C2 2053   2.909   3.382   9.966  0.2923 -0.3648 -0.8767
  132MPD2    C3 2054   2.942   3.302  10.075  0.4990  0.6717  0.2301
  132MPD2    C4 2055   2.854   3.230  10.140 -0.3999 -0.4787  0.2467
  132MPD2    C5 2056   2.719   3.227  10.094  0.5466 -0.8004 -0.4506
  132MPD2     H 2057   2.991   3.437   9.921  2.1255 -0.5939  2.1854
  132MPD2    H1 2058   2.875   3.153  10.214  2.0179 -1.0616 -1.0842
  132MPD2    H2 2059   2.592   3.283   9.933  1.4029 -0.5672 -1.9699
  132MPD2    H3 2060   2.653   3.147  10.128 -0.9659 -0.1986 -1.9734
  132MPD2     N 2061   3.079   3.294  10.105 -0.0728  0.4422 -1.4239
  132MPD2    H5 2062   3.137   3.357  10.051 -0.1194 -0.0997 -2.1021
  132MPD2    N1 2063   2.731   3.448   9.809 -0.0763 -0.4612  0.0310
  132MPD2    H7 2064   2.639   3.431   9.769 -0.3480 -0.3380  0.5982
  133TMC2    C1 2065   2.662   2.856   9.875 -0.0326  0.0061 -0.4982
  133TMC2    C2 2066   2.630   2.720   9.868  0.5599 -0.2229  0.3390
  133TMC2    C3 2067   2.734   2.638   9.854  0.0942  0.4286  0.2128
  133TMC2    C4 2068   2.781   2.905   9.833 -0.0100 -0.0018  0.3979
  133TMC2    C5 2069   2.878   2.815   9.806 -0.1343  0.0100  0.3338
  133TMC2    C6 2070   2.860   2.679   9.825 -0.5613  0.2939  0.7971
  133TMC2     C 2071   2.554   2.946   9.845  0.5781 -1.1725 -0.0217
  133TMC2     O 2072   2.567   3.043   9.771  0.1183  0.1476  0.4767
  133TMC2     H 2073   2.536   2.688   9.912  0.3646  2.5532  1.9554
  133TMC2    H1 2074   2.789   3.013   9.827 -0.3085  0.1360  2.4966
  133TMC2    H2 2075   2.940   2.606   9.815 -0.0095  1.0186 -0.0670
  133TMC2    C7 2076   3.009   2.867   9.761 -0.1020  0.4399  0.3452
  133TMC2    C8 2077   2.716   2.503   9.892  0.2842  0.4709  0.1218
  133TMC2    O1 2078   3.083   2.782   9.711 -0.8758  0.2977 -0.0453
  133TMC2    O2 2079   2.647   2.478   9.989 -0.7400  0.3688  0.4054
  133TMC2    O5 2080   2.812   2.422   9.837  0.4419  0.3046 -0.2727
  133TMC2    H5 2081   2.850   2.443   9.749 -2.9126  0.4099 -1.6845
  134MPD2     C 2082   2.245   2.961  10.065 -0.0682  0.4437  0.2121
  134MPD2    C1 2083   2.342   3.007   9.976  0.2425 -0.4485 -0.5178
  134MPD2    C2 2084   2.332   3.131   9.935  0.3507 -0.5218 -0.7335
  134MPD2    C3 2085   2.236   3.213   9.971  0.0264  0.1458  0.0543
  134MPD2    C4 2086   2.145   3.172  10.065  0.3801 -0.1514  0.0838
  134MPD2    C5 2087   2.151   3.047  10.123  0.7058 -0.0642  0.4606
  134MPD2     H 2088   2.411   3.170   9.870  2.7165  0.8203  2.9552
  134MPD2    H1 2089   2.077   3.249  10.100 -2.3819 -2.3058 -0.4493
  134MPD2    H2 2090   2.251   2.857  10.095  0.3041  0.2113 -0.6631
  134MPD2    H3 2091   2.077   3.018  10.197  2.6091  0.6045  2.6431
  134MPD2     N 2092   2.240   3.351   9.933  0.2778  0.5550 -0.1633
  134MPD2    H5 2093   2.177   3.417   9.978  0.9033  1.5678 -0.7762
  134MPD2    N1 2094   2.452   2.921   9.938 -1.0045 -0.1433 -0.2463
  134MPD2    H7 2095   2.459   2.836   9.994  2.4065 -0.3889 -1.0501
  135TMC2    C1 2096   4.562   0.576   9.932  0.5960  0.1554  0.3021
  135TMC2    C2 2097   4.469   0.527   9.841  0.4193  0.2236 -0.4825
  135TMC2    C3 2098   4.378   0.440   9.890 -0.1819  0.3767  0.0196
  135TMC2    C4 2099   4.566   0.550  10.068  0.1130  0.3846 -0.8540
  135TMC2    C5 2100   4.457   0.476  10.112 -0.9250  0.1419  0.2270
  135TMC2    C6 2101   4.363   0.428  10.026 -0.7562 -0.5251 -0.7616
  135TMC2     C 2102   4.690   0.619   9.879 -0.0737  0.2354 -0.1334
  135TMC2     O 2103   0.013   0.697   9.956  0.7758 -0.1409 -0.2343
  135TMC2     H 2104   4.467   0.550   9.735 -0.6698 -0.8246 -0.6790
  135TMC2    H1 2105   4.650   0.581  10.129 -1.1101  2.4591 -0.2314
  135TMC2    H2 2106   4.279   0.375  10.069 -1.7093  2.7505  1.3977
  135TMC2    C7 2107   4.470   0.416  10.240  0.2179  0.2103 -0.2874
  135TMC2    C8 2108   4.262   0.397   9.812  0.3901  0.7730 -0.4749
  135TMC2    O1 2109   4.582   0.431  10.289 -0.2447 -0.5172 -0.1195
  135TMC2    O2 2110   4.256   0.434   9.696 -0.0073  0.2935 -0.1535
  135TMC2    O5 2111   4.236   0.267   9.850 -0.1537 -0.1489  0.0548
  135TMC2    H5 2112   4.271   0.254   9.941  0.6239 -1.6679 -0.4617
  136MPD2     C 2113   0.214   0.671   9.742 -0.3352  0.4497 -0.9639
  136MPD2    C1 2114   0.106   0.605   9.679  0.3261  0.4952  0.0724
  136MPD2    C2 2115   0.124   0.552   9.552  0.2399 -0.2255  0.1437
  136MPD2    C3 2116   0.247   0.555   9.496  0.5074 -0.2049  0.0025
  136MPD2    C4 2117   0.352   0.612   9.560 -0.5628 -0.2541 -0.6695
  136MPD2    C5 2118   0.336   0.669   9.681  1.1197 -0.1165 -0.5071
  136MPD2     H 2119   0.036   0.505   9.508 -1.4695 -1.0867  4.4393
  136MPD2    H1 2120   0.451   0.609   9.518 -0.3104  2.5264 -0.2576
  136MPD2    H2 2121   0.207   0.722   9.838  0.4920  2.5045 -2.0063
  136MPD2    H3 2122   0.430   0.702   9.725  1.2447 -1.0870 -0.0661
  136MPD2     N 2123   0.270   0.497   9.366  0.3259 -0.2610 -0.1636
  136MPD2    H5 2124   0.363   0.499   9.324 -0.0177  2.3766 -0.8108
  136MPD2    N1 2125   4.718   0.583   9.748  0.1127  0.1691  0.6154
  136MPD2    H7 2126   4.647   0.523   9.708 -0.2987 -1.5966  3.9370
  137TMC2    C1 2127   4.466   4.654   9.804  0.0160  0.7362  0.6288
  137TMC2    C2 2128   4.560   0.021   9.805 -0.7221  0.0996 -0.4120
  137TMC2    C3 2129   4.538   0.122   9.716 -0.8362  1.0343  0.4820
  137TMC2    C4 2130   4.353   4.654   9.730 -0.0435  0.1376  0.1455
  137TMC2    C5 2131   4.334   0.025   9.647  0.2656  0.0144  0.4256
  137TMC2    C6 2132   4.425   0.126   9.642  0.0078 -0.7902  0.1504
  137TMC2     C 2133   4.520   4.531   9.862 -0.5929  0.0561 -0.1826
  137TMC2     O 2134   4.599   4.541   9.958 -0.1963  0.4692 -0.7857
  137TMC2     H 2135   4.657   0.010   9.853 -0.8626  0.8008  0.0246
  137TMC2    H1 2136   4.278   4.578   9.753  0.8990  0.2736  3.5785
  137TMC2    H2 2137   4.404   0.217   9.587  0.7427 -0.2629  0.7346
  137TMC2    C7 2138   4.226   0.031   9.549 -1.2511 -0.2274 -0.1986
  137TMC2    C8 2139   4.646   0.219   9.696  0.0839 -0.4129  0.0706
  137TMC2    O1 2140   4.217   0.129   9.477 -0.7299  0.3681 -0.7689
  137TMC2    O2 2141   4.661   0.296   9.600  0.1597  0.1413  0.1520
  137TMC2    O5 2142   4.665   0.267   9.821  0.2119 -0.1923  0.1868
  137TMC2    H5 2143   4.625   0.213   9.893  0.6858  1.2142  1.4927
  138MPD2     C 2144   4.426   4.180   9.765 -0.0409 -0.2609 -0.8100
  138MPD2    C1 2145   4.489   4.283   9.835 -0.0098 -0.3593 -0.6459
  138MPD2    C2 2146   4.547   4.244   9.953 -0.0586  0.5760 -0.3631
  138MPD2    C3 2147   4.533   4.111  10.006 -0.2344  0.1023 -0.3800
  138MPD2    C4 2148   4.477   4.015   9.926 -0.2209 -0.1442 -0.1321
  138MPD2    C5 2149   4.419   4.055   9.815 -0.3538  0.3269 -0.0256
  138MPD2     H 2150   4.601   4.322  10.005 -0.4744 -0.5744  1.7961
  138MPD2    H1 2151   4.483   3.911   9.956  1.0079 -0.2543 -0.7303
  138MPD2    H2 2152   4.371   4.213   9.678 -0.5791  1.2924  0.1210
  138MPD2    H3 2153   4.370   3.976   9.760 -0.9042  1.0577 -0.5876
  138MPD2     N 2154   4.582   4.081  10.129 -0.3272  0.3428 -0.1226
  138MPD2    H5 2155   4.619   4.158  10.184 -1.1604  0.1244  0.7403
  138MPD2    N1 2156   4.466   4.420   9.801  0.1821  0.1630  0.3185
  138MPD2    H7 2157   4.410   4.438   9.719 -0.3728  2.2958  1.1533
  139TMC2    C1 2158   0.614   3.115  13.951 -0.0898 -1.1695 -1.0952
  139TMC2    C2 2159   0.699   3.152  13.855 -0.3837 -0.3625 -0.6022
  139TMC2    C3 2160   0.661   3.264  13.785 -0.2262  0.3406  0.3236
  139TMC2    C4 2161   0.517   3.194  13.999  0.2400 -0.1934  0.1435
  139TMC2    C5 2162   0.481   3.306  13.927  0.7265  0.3241  1.6462
  139TMC2    C6 2163   0.552   3.341  13.819  0.5573  0.1087 -0.9185
  139TMC2     C 2164   0.565   2.973  13.937  0.1658  0.1019 -0.6041
  139TMC2     O 2165   0.637   2.905  13.865 -0.9113  0.4284 -0.4087
  139TMC2     H 2166   0.774   3.082  13.818  0.5090 -0.0321  0.5872
  139TMC2    H1 2167   0.466   3.171  14.092 -0.1296  0.4935  0.1085
  139TMC2    H2 2168   0.511   3.412  13.748  1.3699  1.7739  0.2777
  139TMC2    C7 2169   0.353   3.376  13.947 -0.2640  0.5103 -0.0607
  139TMC2    C8 2170   0.743   3.301  13.673  0.1506  0.0040  0.2940
  139TMC2    O1 2171   0.299   3.427  13.850 -0.3620  0.0467 -0.4794
  139TMC2    O2 2172   0.711   3.353  13.570  0.2748  0.3116 -0.0043
  139TMC2    O5 2173   0.869   3.305  13.714  0.7222  0.5724 -0.0507
  139TMC2    H5 2174   0.877   3.280  13.808  1.2877  1.8764  0.2570
  140MPD2     C 2175   0.200   2.894  13.913 -0.9960 -0.3166  0.2231
  140MPD2    C1 2176   0.339   2.867  13.900  1.2068  0.4883  0.5192
  140MPD2    C2 2177   0.382   2.757  13.823  0.6343 -0.7691  0.2956
  140MPD2    C3 2178   0.295   2.671  13.758  0.0698 -0.3320  0.8008
  140MPD2    C4 2179   0.158   2.712  13.767 -0.1306 -0.0677 -0.2207
  140MPD2    C5 2180   0.118   2.818  13.844  1.2785 -0.2516  0.2784
  140MPD2     H 2181   0.487   2.734  13.820  0.4464 -1.6409  0.2858
  140MPD2    H1 2182   0.082   2.646  13.726  0.0107  0.4580 -1.3257
  140MPD2    H2 2183   0.173   2.982  13.970 -0.1185  0.5335 -0.6695
  140MPD2    H3 2184   0.011   2.836  13.844  0.7563 -3.2155 -2.2648
  140MPD2     N 2185   0.339   2.548  13.698 -0.6925 -0.1363 -0.0282
  140MPD2    H5 2186   0.440   2.534  13.697 -0.9299 -1.6445 -2.9069
  140MPD2    N1 2187   0.428   2.963  13.959  0.3328 -0.2578  0.4116
  140MPD2    H7 2188   0.386   3.034  14.019 -2.1412 -1.8259  0.5096
  141TMC2    C1 2189   1.207   4.350  14.163 -0.5917 -0.3148 -0.3626
  141TMC2    C2 2190   1.269   4.258  14.251 -0.1595  0.7157 -0.3014
  141TMC2    C3 2191   1.258   4.281  14.384 -0.4684  0.1910  0.6123
  141TMC2    C4 2192   1.134   4.454  14.210  0.4952 -0.3404  0.1514
  141TMC2    C5 2193   1.135   4.467  14.344  0.3953 -0.3605 -0.6518
  141TMC2    C6 2194   1.195   4.392  14.431  0.0217 -0.4489  1.3245
  141TMC2     C 2195   1.210   4.331  14.022 -0.0248 -0.3170  0.7334
  141TMC2     O 2196   1.124   4.392  13.959 -0.2184 -0.5433 -0.0723
  141TMC2     H 2197   1.332   4.175  14.222  0.0038  0.7589 -0.0668
  141TMC2    H1 2198   1.097   4.531  14.144 -0.8007 -0.6112  0.5631
  141TMC2    H2 2199   1.182   4.405  14.538 -1.1998  3.6072  0.6848
  141TMC2    C7 2200   1.117   4.604  14.384 -0.6735 -0.8447  1.0925
  141TMC2    C8 2201   1.319   4.192  14.484  0.0901 -0.2816 -0.6599
  141TMC2    O1 2202   1.048   4.675  14.307  0.1844  0.3640  0.3281
  141TMC2    O2 2203   1.324   4.232  14.604 -0.0686  0.2016 -0.1032
  141TMC2    O5 2204   1.301   4.067  14.445  0.6137 -0.4930 -0.5768
  141TMC2    H5 2205   1.271   4.053  14.352  1.0278 -0.2861 -0.7426
  142TMC2    C1 2206   3.634   2.441   9.945 -0.2734  0.8648 -0.5339
  142TMC2    C2 2207   3.626   2.306   9.908 -0.0869  0.9075  0.4146
  142TMC2    C3 2208   3.725   2.266   9.828 -0.3846 -0.3206  0.1071
  142TMC2    C4 2209   3.728   2.525   9.895  0.6996 -0.7797  0.4321
  142TMC2    C5 2210   3.819   2.478   9.815 -0.0577  0.3582 -0.0933
  142TMC2    C6 2211   3.818   2.349   9.773 -0.1618 -0.8410  0.2157
  142TMC2     C 2212   3.522   2.487  10.022  1.1786  0.4269 -0.7076
  142TMC2     O 2213   3.457   2.404  10.087  0.0707  0.2933 -0.1175
  142TMC2     H 2214   3.555   2.241   9.957  1.4689 -1.1280 -0.0646
  142TMC2    H1 2215   3.732   2.628   9.931 -0.9918 -0.4365 -0.3711
  142TMC2    H2 2216   3.888   2.308   9.701  0.5160 -2.5824  1.8627
  142TMC2    C7 2217   3.909   2.574   9.761  0.3002 -0.6638  0.4399
  142TMC2    C8 2218   3.720   2.127   9.770 -0.1903 -0.0468  0.1452
  142TMC2    O1 2219   3.869   2.690   9.768  0.0981  0.3920 -0.5192
  142TMC2    O2 2220   3.729   2.109   9.648 -0.4224  0.2290  0.4755
  142TMC2    O5 2221   3.678   2.046   9.868  0.5753  0.1308  0.1169
  142TMC2    H5 2222   3.676   2.082   9.960  1.7230 -0.7339  0.4761
  143MPD2     C 2223   3.224   2.864  10.176  0.4648  0.2643 -0.4485
  143MPD2    C1 2224   3.269   2.752  10.239 -0.0355  0.0277 -0.0371
  143MPD2    C2 2225   3.362   2.668  10.177 -0.3156 -0.0548 -0.7627
  143MPD2    C3 2226   3.400   2.694  10.042 -0.7979 -0.6641  0.2213
  143MPD2    C4 2227   3.356   2.806   9.981  0.2041  0.5218  0.1846
  143MPD2    C5 2228   3.271   2.885  10.046 -0.3207 -0.1241  0.0984
  143MPD2     H 2229   3.404   2.583  10.229  0.2523  0.4794 -0.3560
  143MPD2    H1 2230   3.380   2.832   9.879 -2.6582 -1.3784 -0.9736
  143MPD2    H2 2231   3.157   2.939  10.218  0.7321 -0.0606  0.5646
  143MPD2    H3 2232   3.233   2.978  10.005  1.2250  0.2095 -0.5895
  143MPD2     N 2233   3.494   2.610   9.984  0.2161 -0.1750  0.1983
  143MPD2    H5 2234   3.536   2.640   9.896  1.1617 -1.4155  0.2299
  143MPD2    N1 2235   3.227   2.751  10.373  0.0392  0.5013  0.1634
  143MPD2    H7 2236   3.178   2.833  10.407 -2.6271 -1.7496  1.7216
  144TMC2    C1 2237   1.654   1.157   0.471 -0.0350 -0.1246 -0.3787
  144TMC2    C2 2238   1.711   1.030   0.461 -0.0553  0.3597 -0.2905
  144TMC2    C3 2239   1.747   0.967   0.576 -0.4886 -0.3832 -0.1624
  144TMC2    C4 2240   1.647   1.223   0.595  0.0483  0.1998 -0.1817
  144TMC2    C5 2241   1.704   1.151   0.703 -0.0263  0.9338  0.2692
  144TMC2    C6 2242   1.757   1.029   0.695  0.0435  0.1605 -0.2298
  144TMC2     C 2243   1.556   1.186   0.367 -0.3044  0.1173 -0.0734
  144TMC2     O 2244   1.567   1.117   0.265  0.0582  0.0988 -0.2427
  144TMC2     H 2245   1.730   0.993   0.361 -1.9919  1.6260 -1.1369
  144TMC2    H1 2246   1.623   1.328   0.603 -1.5161 -0.3085  1.9575
  144TMC2    H2 2247   1.775   0.968   0.783 -0.3954  0.0783 -0.1993
  144TMC2    C7 2248   1.760   1.209   0.823 -0.0520  0.5586  0.5514
  144TMC2    C8 2249   1.808   0.841   0.567  0.6926 -0.8108 -0.1754
  144TMC2    O1 2250   1.843   1.151   0.894  0.0020  0.4811  0.1632
  144TMC2    O2 2251   1.918   0.826   0.617  0.3440  0.3621  0.2245
  144TMC2    O5 2252   1.701   0.767   0.606 -0.1891  0.4482  0.2787
  144TMC2    H5 2253   1.618   0.812   0.579 -0.4896 -0.9121 -1.0611
  145MPD2     C 2254   1.138   1.393   0.159  0.4212  0.1526 -0.3567
  145MPD2    C1 2255   1.228   1.294   0.126  0.3284 -0.1381  0.1393
  145MPD2    C2 2256   1.339   1.261   0.194 -0.0443  0.4216 -0.4178
  145MPD2    C3 2257   1.359   1.317   0.317  0.6656 -0.7766 -0.5443
  145MPD2    C4 2258   1.277   1.424   0.352 -0.1137 -0.1198  0.0972
  145MPD2    C5 2259   1.164   1.459   0.276  0.2461 -0.5153  0.3572
  145MPD2     H 2260   1.414   1.197   0.149 -2.2006 -2.1590 -0.3299
  145MPD2    H1 2261   1.302   1.487   0.437  1.4558 -0.7128  0.0824
  145MPD2    H2 2262   1.049   1.427   0.108 -0.3220 -1.8538 -0.3686
  145MPD2    H3 2263   1.104   1.545   0.302 -1.1489 -1.3813 -0.0015
  145MPD2     N 2264   1.473   1.291   0.395 -0.3234 -0.7656 -0.2726
  145MPD2    H5 2265   1.473   1.328   0.490 -1.9419 -1.3414 -0.0415
  145MPD2    N1 2266   1.219   1.243  17.735 -0.0287  0.3278  0.1340
  145MPD2    H7 2267   1.304   1.210  17.691 -1.7642 -1.2447 -2.0699
  146TMC2    C1 2268   3.397   0.325  12.532 -0.1449 -0.0541  0.3257
  146TMC2    C2 2269   3.378   0.361  12.401 -0.0336 -0.2839  0.8203
  146TMC2    C3 2270   3.451   0.306  12.303 -0.2684  0.7888 -0.2724
  146TMC2    C4 2271   3.488   0.232  12.563  0.3553  0.0616  0.0193
  146TMC2    C5 2272   3.573   0.183  12.461 -0.2868 -0.1094 -0.5745
  146TMC2    C6 2273   3.557   0.223  12.329 -0.0061 -0.5826 -0.7867
  146TMC2     C 2274   3.355   0.414  12.631  0.4364 -0.4563  0.0474
  146TMC2     O 2275   3.327   0.525  12.592  0.2610  0.1036 -0.1109
  146TMC2     H 2276   3.307   0.441  12.382 -1.0627 -1.0657  1.3949
  146TMC2    H1 2277   3.517   0.212  12.666 -0.1649 -2.5821 -0.3505
  146TMC2    H2 2278   3.617   0.194  12.243 -0.7446  0.4026 -1.6402
  146TMC2    C7 2279   3.669   0.079  12.492  0.1419  0.6069  0.0888
  146TMC2    C8 2280   3.419   0.321  12.164 -0.3950 -0.3537 -0.0326
  146TMC2    O1 2281   3.723   0.032  12.391 -0.0957 -0.3508 -0.1606
  146TMC2    O2 2282   3.430   0.235  12.077 -0.0530 -0.3173 -0.0155
  146TMC2    O5 2283   3.366   0.450  12.151  0.2665 -0.2797 -0.1190
  146TMC2    H5 2284   3.396   0.504  12.227  1.4102  0.4877 -1.1171
  147MPD2     C 2285   4.016   4.627  12.823  0.1832 -0.6398  0.1522
  147MPD2    C1 2286   3.923   4.699  12.891 -0.5776 -0.0029 -0.5194
  147MPD2    C2 2287   3.806   4.736  12.825 -0.0424  1.0336 -0.1448
  147MPD2    C3 2288   3.792   4.731  12.687 -0.2995  0.0829  0.0794
  147MPD2    C4 2289   3.894   4.675  12.614  0.6527 -0.4502  0.0745
  147MPD2    C5 2290   4.001   4.618  12.687  0.1442 -0.0169 -0.3723
  147MPD2     H 2291   3.728   0.058  12.873  0.3330  0.3315  1.3027
  147MPD2    H1 2292   3.899   4.668  12.506 -0.3646 -1.4060  0.0814
  147MPD2    H2 2293   4.109   4.593  12.867  1.1573 -0.6565 -1.9405
  147MPD2    H3 2294   4.085   4.570  12.637  0.1360 -0.7912  0.3640
  147MPD2     N 2295   3.679   0.056  12.624  0.2934  0.1011  0.0500
  147MPD2    H5 2296   3.608   0.093  12.686 -1.4773 -0.5087 -1.5960
  147MPD2    N1 2297   3.944   4.714  13.034  0.1490 -0.3712  0.3251
  147MPD2    H7 2298   4.035   4.690  13.070  0.2171  1.6845  1.5498
  148TMC2    C1 2299   2.363   3.018  11.382  0.2641 -0.3858  0.0095
  148TMC2    C2 2300   2.315   3.034  11.517  0.3939 -0.2985  0.7136
  148TMC2    C3 2301   2.399   3.104  11.602  0.7175  0.1920  0.2921
  148TMC2    C4 2302   2.485   3.065  11.344 -0.4214 -1.1355 -0.2485
  148TMC2    C5 2303   2.559   3.132  11.433  0.5963 -0.1279 -0.5041
  148TMC2    C6 2304   2.525   3.151  11.561 -0.1892  0.2899  0.1560
  148TMC2     C 2305   2.263   2.976  11.282 -0.5010  0.2566  0.4965
  148TMC2     O 2306   2.210   2.868  11.291 -0.0406  0.1188 -0.4675
  148TMC2     H 2307   2.226   2.985  11.553 -1.0257  1.8570  0.1451
  148TMC2    H1 2308   2.521   3.062  11.242 -1.0020 -2.2202 -0.4183
  148TMC2    H2 2309   2.593   3.198  11.631  0.1616  0.4350 -0.2810
  148TMC2    C7 2310   2.686   3.189  11.387 -0.0219  0.1907 -0.0799
  148TMC2    C8 2311   2.378   3.099  11.749 -0.3194 -0.1921  0.6742
  148TMC2    O1 2312   2.756   3.121  11.311  0.3920  0.3794 -0.0520
  148TMC2    O2 2313   2.474   3.111  11.827  0.0265 -0.1225  0.0975
  148TMC2    O5 2314   2.254   3.061  11.779  0.1145  0.3030 -0.3694
  148TMC2    H5 2315   2.192   3.081  11.705 -0.9371  2.4144  1.1073
  149MPD2     C 2316   2.081   2.995  11.054  0.5199 -0.2798 -0.3186
  149MPD2    C1 2317   2.195   3.068  11.063  0.0659 -0.3045 -0.2293
  149MPD2    C2 2318   2.224   3.164  10.970  0.3605 -0.8593  0.2489
  149MPD2    C3 2319   2.145   3.172  10.853 -0.7024 -0.9052  0.9382
  149MPD2    C4 2320   2.035   3.094  10.848  0.0412  0.5342  0.6101
  149MPD2    C5 2321   1.993   3.011  10.951  0.1057  0.9762  0.0555
  149MPD2     H 2322   2.314   3.222  10.987  0.9526 -1.1094 -1.9240
  149MPD2    H1 2323   1.968   3.099  10.763 -1.2260 -0.7030  1.5411
  149MPD2    H2 2324   2.063   2.923  11.133  1.8274 -1.1017 -0.7789
  149MPD2    H3 2325   1.904   2.949  10.948  0.6141  0.2446  0.1428
  149MPD2     N 2326   2.175   3.252  10.742 -0.1064  0.4331 -0.8666
  149MPD2    H5 2327   2.101   3.256  10.673 -1.6765  0.9568  0.8339
  149MPD2    N1 2328   2.277   3.062  11.175 -0.0449 -0.3239  0.0372
  149MPD2    H7 2329   2.353   3.128  11.177  0.0272 -0.4418  0.9557
  150TMC2    C1 2330   0.305   3.236  12.857  0.3454  0.0046  0.1747
  150TMC2    C2 2331   0.240   3.356  12.863  0.5375 -0.2984 -0.2409
  150TMC2    C3 2332   0.326   3.465  12.878  0.3491  0.1063 -0.0871
  150TMC2    C4 2333   0.436   3.220  12.897  0.0661 -0.5392 -0.4216
  150TMC2    C5 2334   0.506   3.331  12.923 -0.8886  0.1395  0.2284
  150TMC2    C6 2335   0.455   3.459  12.912 -0.1003  0.6186 -0.3657
  150TMC2     C 2336   0.231   3.121  12.809  0.2942 -0.4954 -0.0322
  150TMC2     O 2337   0.280   3.012  12.843  0.3020  0.0712 -0.6147
  150TMC2     H 2338   0.132   3.360  12.857  0.5860  0.7271 -0.5383
  150TMC2    H1 2339   0.474   3.120  12.919  0.1193 -0.1948  1.0337
  150TMC2    H2 2340   0.525   3.542  12.918  2.1506 -1.1983 -1.4141
  150TMC2    C7 2341   0.646   3.324  12.957  0.2100  0.2895 -0.3004
  150TMC2    C8 2342   0.276   3.602  12.876 -0.8172 -1.3967 -0.1519
  150TMC2    O1 2343   0.698   3.424  12.992  0.0104 -0.1659 -0.3401
  150TMC2    O2 2344   0.332   3.693  12.930 -0.6391 -0.5192  0.2939
  150TMC2    O5 2345   0.162   3.603  12.814 -0.6069  0.4161  0.6011
  150TMC2    H5 2346   0.159   3.520  12.761 -0.2743 -0.3361  1.7630
  151MPD2     C 2347   4.603   2.899  12.515 -0.2658  0.4254  0.2877
  151MPD2    C1 2348   4.619   3.030  12.476  0.3326 -0.2495 -0.0806
  151MPD2    C2 2349   4.703   3.111  12.544  0.5077  0.1429 -0.4456
  151MPD2    C3 2350   0.050   3.059  12.645  0.1095  0.0871  0.4819
  151MPD2    C4 2351   0.027   2.924  12.678 -0.1861 -0.5355  0.2149
  151MPD2    C5 2352   4.674   2.846  12.619  0.3767  0.2984  0.0026
  151MPD2     H 2353   4.714   3.213  12.507  3.0861  0.7440  1.9881
  151MPD2    H1 2354   0.076   2.884  12.767 -0.1325 -2.0395 -0.4828
  151MPD2    H2 2355   4.533   2.835  12.462  1.0911 -1.0315  0.2458
  151MPD2    H3 2356   4.651   2.746  12.655 -3.4246  0.7170 -1.2787
  151MPD2     N 2357   0.135   3.148  12.713 -0.4002 -0.9386 -0.1727
  151MPD2    H5 2358   0.129   3.244  12.679 -1.9837 -0.7113  0.7620
  151MPD2    N1 2359   4.540   3.067  12.366  1.1512 -0.4572  0.6665
  151MPD2    H7 2360   4.484   2.991  12.329  2.0012 -1.0432  0.6015
  152TMC2    C1 2361   4.551   2.835  12.949  0.2662  0.1528  0.1564
  152TMC2    C2 2362   4.613   2.712  12.943 -0.0364 -0.1275  0.2131
  152TMC2    C3 2363   0.010   2.704  12.988  0.2327  0.5873  0.2398
  152TMC2    C4 2364   4.604   2.943  13.004 -0.1395 -0.3018 -0.6323
  152TMC2    C5 2365   0.001   2.936  13.047  0.3108 -0.3609 -0.6135
  152TMC2    C6 2366   0.071   2.816  13.038 -0.0111  0.3383 -0.4415
  152TMC2     C 2367   4.408   2.835  12.926  0.1480 -0.5035  0.3351
  152TMC2     O 2368   4.365   2.939  12.877  0.0065  0.3000 -0.0280
  152TMC2     H 2369   4.563   2.622  12.910 -1.5535  0.7914 -0.0037
  152TMC2    H1 2370   4.542   3.032  13.008 -0.7219 -0.6678 -1.3721
  152TMC2    H2 2371   0.172   2.814  13.077 -0.9042  2.7390  2.0304
  152TMC2    C7 2372   0.049   3.044  13.132  0.0562 -1.1992  0.9130
  152TMC2    C8 2373   0.079   2.590  12.950  0.6080  0.7356  0.0777
  152TMC2    O1 2374   4.696   3.116  13.167  0.3755  0.3175 -0.4674
  152TMC2    O2 2375   0.053   2.531  12.849  0.2057  0.4897 -0.2530
  152TMC2    O5 2376   0.134   2.532  13.058  0.9527  0.4119  0.2157
  152TMC2    H5 2377   0.121   2.590  13.136  2.3272 -1.5867  1.9279
  153MPD2     C 2378   4.175   2.556  13.001 -0.5268 -0.2792 -0.1256
  153MPD2    C1 2379   4.208   2.683  12.956  0.0676 -0.1009  0.4992
  153MPD2    C2 2380   4.115   2.760  12.886  0.1151  0.0928 -0.2120
  153MPD2    C3 2381   3.985   2.718  12.886  0.2153  0.0663  0.4536
  153MPD2    C4 2382   3.951   2.592  12.925  0.4847 -1.0015 -0.1487
  153MPD2    C5 2383   4.046   2.511  12.981 -0.5566 -0.3197 -0.0371
  153MPD2     H 2384   4.144   2.859  12.854 -0.9134  0.4467 -0.0366
  153MPD2    H1 2385   3.851   2.553  12.906 -0.5251  0.2129  2.5530
  153MPD2    H2 2386   4.247   2.490  13.048  3.1384  1.7109 -2.9987
  153MPD2    H3 2387   4.028   2.405  12.994  2.8721 -0.5042  3.0326
  153MPD2     N 2388   3.886   2.814  12.843  0.1856 -0.0280 -0.4132
  153MPD2    H5 2389   3.920   2.900  12.802  3.1363 -1.4230 -0.8303
  153MPD2    N1 2390   4.344   2.725  12.984  0.1796 -0.3240 -0.0071
  153MPD2    H7 2391   4.399   2.667  13.047  0.7317  0.0976 -0.1058
  154TMC2    C1 2392   1.662   2.375   0.160 -0.2151  0.2538 -1.0109
  154TMC2    C2 2393   1.608   2.324   0.282 -0.3728  0.5720 -0.3436
  154TMC2    C3 2394   1.686   2.224   0.339  0.5171 -0.0953 -0.1210
  154TMC2    C4 2395   1.780   2.335   0.108  0.0483 -0.0003  0.7559
  154TMC2    C5 2396   1.847   2.239   0.181  0.2692 -0.0001 -0.1439
  154TMC2    C6 2397   1.807   2.186   0.292 -0.3461 -0.5742 -0.3982
  154TMC2     C 2398   1.596   2.495   0.103 -0.6840 -0.0608 -0.1413
  154TMC2     O 2399   1.496   2.545   0.157 -0.1303  0.6932  0.6328
  154TMC2     H 2400   1.511   2.357   0.318  0.7916  1.5913  1.8409
  154TMC2    H1 2401   1.826   2.381   0.022  0.8864  0.0024  1.1997
  154TMC2    H2 2402   1.854   2.095   0.328 -0.0299 -1.0847 -2.1023
  154TMC2    C7 2403   1.971   2.179   0.129 -0.2650  0.2557  0.1972
  154TMC2    C8 2404   1.623   2.153   0.448 -0.0725  0.2249 -0.4484
  154TMC2    O1 2405   1.998   2.065   0.167  0.3191  0.2913  0.1668
  154TMC2    O2 2406   1.692   2.088   0.527  0.2862  0.0114  0.2108
  154TMC2    O5 2407   1.502   2.110   0.411  0.0376  0.1214 -0.5257
  154TMC2    H5 2408   1.454   2.164   0.345 -1.7664 -1.0488 -0.1805
  155MPD2     C 2409   1.641   2.623  17.508 -0.2716 -0.3833 -0.6594
  155MPD2    C1 2410   1.603   2.629  17.638 -0.0476  0.2450 -0.5508
  155MPD2    C2 2411   1.549   2.740  17.695 -0.4481 -0.3693 -0.1846
  155MPD2    C3 2412   1.533   2.857  17.627  0.5172 -0.3400  1.0222
  155MPD2    C4 2413   1.569   2.850  17.496 -0.6574 -0.7215 -0.1871
  155MPD2    C5 2414   1.621   2.734  17.441 -0.9352 -1.0659  0.3794
  155MPD2     H 2415   1.515   2.747   0.055  0.3790 -4.3666  0.3650
  155MPD2    H1 2416   1.570   2.937  17.431 -0.3316  0.6563  1.6963
  155MPD2    H2 2417   1.677   2.533  17.459 -0.7488 -1.4125  0.8864
  155MPD2    H3 2418   1.657   2.734  17.339 -0.7632  0.6258  0.4299
  155MPD2     N 2419   1.479   2.973  17.690  0.3043 -0.5182 -0.0162
  155MPD2    H5 2420   1.439   2.951   0.038 -2.6600  2.5857 -0.5894
  155MPD2    N1 2421   1.629   2.513  17.718 -0.2834 -0.4296  0.0298
  155MPD2    H7 2422   1.683   2.435  17.680  0.5270 -0.3600  1.0276
  156TMC2    C1 2423   0.321   0.426  11.680  0.1843 -0.3125 -0.5536
  156TMC2    C2 2424   0.238   0.323  11.637  0.1169  0.0918  0.0244
  156TMC2    C3 2425   0.204   0.320  11.504  1.5581 -0.1964  0.3589
  156TMC2    C4 2426   0.363   0.525  11.590  0.2420 -0.0178  0.0698
  156TMC2    C5 2427   0.313   0.516  11.466 -0.1049 -0.1137  0.2809
  156TMC2    C6 2428   0.241   0.412  11.420 -0.7905 -0.7603  0.7519
  156TMC2     C 2429   0.386   0.437  11.812  0.2201  0.1251  0.3563
  156TMC2     O 2430   0.479   0.513  11.815  0.1013 -0.1572 -0.3193
  156TMC2     H 2431   0.215   0.241  11.704 -1.4612  0.6008  0.1110
  156TMC2    H1 2432   0.407   0.617  11.624  1.7515 -0.6165 -0.2803
  156TMC2    H2 2433   0.219   0.408  11.314 -4.0290 -2.1497  1.4764
  156TMC2    C7 2434   0.306   0.640  11.394 -0.1137  0.7041 -0.4104
  156TMC2    C8 2435   0.059   0.306  11.482  0.0182  0.3800  1.2610
  156TMC2    O1 2436   0.386   0.735  11.416 -0.1992 -0.5077  0.1568
  156TMC2    O2 2437   0.008   0.403  11.426  0.0604  0.3975 -0.0519
  156TMC2    O5 2438   0.012   0.253  11.598  0.0151 -0.7491  0.3733
  156TMC2    H5 2439   0.057   0.168  11.618  0.0392 -0.7401  0.3563
  157MPD2     C 2440   0.257   0.318  12.142 -0.6941 -0.0867 -0.7059
  157MPD2    C1 2441   0.343   0.374  12.054  0.5911 -0.3800  0.2290
  157MPD2    C2 2442   0.445   0.444  12.111 -0.4365  0.2912 -0.5609
  157MPD2    C3 2443   0.448   0.472  12.247  0.1659 -0.1625  0.0327
  157MPD2    C4 2444   0.358   0.425  12.330  0.1485  0.0254 -0.2761
  157MPD2    C5 2445   0.252   0.359  12.268  0.2812 -0.2311  0.4923
  157MPD2     H 2446   0.523   0.493  12.054  0.4731  0.4760  0.8442
  157MPD2    H1 2447   0.368   0.448  12.436  0.7308  1.7661 -0.6998
  157MPD2    H2 2448   0.170   0.264  12.105  0.0303 -1.8318  0.1229
  157MPD2    H3 2449   0.172   0.321  12.330  0.3316  0.4594  0.9834
  157MPD2     N 2450   0.562   0.545  12.288  0.1289 -0.4016 -0.3448
  157MPD2    H5 2451   0.628   0.554  12.212  0.5513  0.5593  0.1357
  157MPD2    N1 2452   0.323   0.368  11.916 -0.5422  0.2021 -0.3117
  157MPD2    H7 2453   0.238   0.319  11.890 -1.1438  0.2647  1.5192
  158TMC2    C1 2454   0.526   4.405  13.455  0.4595 -0.6475 -0.1058
  158TMC2    C2 2455   0.591   4.512  13.405  0.6195 -0.1911  0.3014
  158TMC2    C3 2456   0.517   4.609  13.351 -0.0160  0.1244 -0.7398
  158TMC2    C4 2457   0.384   4.400  13.467 -0.4205 -0.2280 -0.0974
  158TMC2    C5 2458   0.315   4.510  13.426  0.3766  0.4776 -0.6376
  158TMC2    C6 2459   0.379   4.610  13.361 -0.1410 -0.6790  1.0056
  158TMC2     C 2460   0.599   4.294  13.523 -0.4579 -0.0764 -0.4914
  158TMC2     O 2461   0.710   4.273  13.475  0.1375 -0.2161 -0.0216
  158TMC2     H 2462   0.699   4.516  13.399  0.7780 -1.4898  2.4521
  158TMC2    H1 2463   0.341   4.313  13.514 -2.8867  0.7619 -0.4889
  158TMC2    H2 2464   0.318   4.695  13.332  2.8369  1.1572  0.1412
  158TMC2    C7 2465   0.177   4.525  13.458  0.3016 -0.4030 -0.3411
  158TMC2    C8 2466   0.583   4.700  13.268  0.1700  0.1858  0.6743
  158TMC2    O1 2467   0.113   4.581  13.373  0.4841 -0.1379  0.1178
  158TMC2    O2 2468   0.687   4.664  13.208 -0.1916 -0.3045 -0.1032
  158TMC2    O5 2469   0.544   0.093  13.279  0.3811  0.3624  0.8563
  158TMC2    H5 2470   0.469   0.097  13.342 -0.2285 -2.6110  0.3515
  159MPD2     C 2471   0.706   4.001  13.921  0.5412 -0.1134 -0.5285
  159MPD2    C1 2472   0.608   4.088  13.958 -0.2655  0.2060 -0.3194
  159MPD2    C2 2473   0.568   4.171  13.860  0.2161  0.5339  0.9255
  159MPD2    C3 2474   0.616   4.171  13.734 -0.2662 -0.0025  0.5150
  159MPD2    C4 2475   0.708   4.070  13.701  0.0745  0.1072 -0.2067
  159MPD2    C5 2476   0.752   3.985  13.794  1.0682 -0.4170  0.5428
  159MPD2     H 2477   0.504   4.255  13.883  1.9075  1.6188  1.6828
  159MPD2    H1 2478   0.754   4.055  13.604 -1.5881 -0.8669 -0.8423
  159MPD2    H2 2479   0.743   3.938  14.000 -2.0786  0.1385  0.9129
  159MPD2    H3 2480   0.815   3.903  13.760  2.0303  0.2668  0.6834
  159MPD2     N 2481   0.550   4.256  13.641 -0.2620  0.1698 -0.2221
  159MPD2    H5 2482   0.485   4.317  13.690  0.9739 -0.2956  2.0322
  159MPD2    N1 2483   0.536   4.079  14.077 -0.0612 -0.8241  0.0613
  159MPD2    H7 2484   0.574   4.014  14.146 -1.2002 -0.8828  0.6373
  160TMC2    C1 2485   4.160   1.655   0.752 -0.1273  0.2592 -0.0439
  160TMC2    C2 2486   4.157   1.778   0.700  0.7579 -0.6235  0.1530
  160TMC2    C3 2487   4.285   1.836   0.681 -0.2223 -0.3014  0.2715
  160TMC2    C4 2488   4.277   1.589   0.782  0.1651 -0.2956 -0.3561
  160TMC2    C5 2489   4.396   1.649   0.758 -0.1858 -0.0540 -0.0456
  160TMC2    C6 2490   4.401   1.769   0.697  0.2495 -0.5894 -0.4592
  160TMC2     C 2491   4.041   1.591   0.805 -0.0420  0.5148  0.2826
  160TMC2     O 2492   4.046   1.470   0.802  0.5675  0.4371 -0.4177
  160TMC2     H 2493   4.066   1.824   0.664  1.4850  2.6006  2.4305
  160TMC2    H1 2494   4.266   1.489   0.823 -0.4828  0.1925  0.6854
  160TMC2    H2 2495   4.493   1.809   0.657  0.0779  0.1595 -0.1089
  160TMC2    C7 2496   4.515   1.561   0.759  0.2969  0.0716 -0.0671
  160TMC2    C8 2497   4.286   1.963   0.621 -0.3226  0.2460 -0.1925
  160TMC2    O1 2498   4.511   1.448   0.801 -0.3793 -0.2376  0.0986
  160TMC2    O2 2499   4.372   1.997   0.539 -0.0501 -0.5679  0.9088
  160TMC2    O5 2500   4.168   2.021   0.639 -0.3743 -0.6164 -0.3510
  160TMC2    H5 2501   4.110   1.993   0.713 -1.7306 -0.9052 -1.5071
  161MPD2     C 2502   3.774   1.536   0.951 -0.2864  0.0569 -0.3388
  161MPD2    C1 2503   3.831   1.655   0.927 -0.2648  0.8236  0.4649
  161MPD2    C2 2504   3.772   1.764   0.985 -0.7244  0.1491  0.2876
  161MPD2    C3 2505   3.664   1.748   1.075 -0.9167 -0.4943  0.2314
  161MPD2    C4 2506   3.612   1.626   1.099 -0.1598  0.2507 -0.0437
  161MPD2    C5 2507   3.661   1.519   1.032  0.2140  0.3145  0.0638
  161MPD2     H 2508   3.802   1.866   0.964  1.6623 -0.5935  0.0451
  161MPD2    H1 2509   3.522   1.602   1.154  0.1813  0.7455  0.7251
  161MPD2    H2 2510   3.819   1.446   0.911  1.1267  0.8196 -0.4570
  161MPD2    H3 2511   3.619   1.419   1.029  1.2113 -0.1841  2.8580
  161MPD2     N 2512   3.592   1.856   1.134 -0.0435 -0.4715  0.4557
  161MPD2    H5 2513   3.496   1.836   1.163 -0.3492  0.0892 -0.1808
  161MPD2    N1 2514   3.952   1.681   0.860  0.0280  0.0504 -0.2916
  161MPD2    H7 2515   3.974   1.780   0.857 -2.1470  0.4865 -1.6780
  162TMC2    C1 2516   2.569   4.019   1.293  0.2020 -0.4063 -0.5310
  162TMC2    C2 2517   2.464   4.093   1.265  0.2050  0.6618 -0.0440
  162TMC2    C3 2518   2.357   4.096   1.351  0.9824  0.5155  0.1232
  162TMC2    C4 2519   2.569   3.941   1.408  1.0317  0.5715  0.5649
  162TMC2    C5 2520   2.470   3.953   1.500 -0.2932  0.3374  0.2480
  162TMC2    C6 2521   2.366   4.038   1.474  0.5456 -0.4216  0.0557
  162TMC2     C 2522   2.675   3.994   1.202  0.1906 -0.8672  0.1088
  162TMC2     O 2523   2.641   4.016   1.088  1.1956  0.3547  0.1581
  162TMC2     H 2524   2.449   4.135   1.166 -0.5136  1.7412  0.5173
  162TMC2    H1 2525   2.644   3.865   1.429  0.7817 -0.3891 -1.9723
  162TMC2    H2 2526   2.284   4.049   1.544  1.5090  0.4586  1.0199
  162TMC2    C7 2527   2.451   3.851   1.603  0.4535 -0.0639  0.6451
  162TMC2    C8 2528   2.227   4.131   1.292 -0.1007  0.5453  0.2085
  162TMC2    O1 2529   2.380   3.881   1.698  0.8251 -0.0402  0.7144
  162TMC2    O2 2530   2.210   4.246   1.252  0.4643  0.2714 -0.2921
  162TMC2    O5 2531   2.203   4.027   1.217 -0.1709  0.1733 -0.3782
  162TMC2    H5 2532   2.229   3.943   1.258  1.2180 -1.0660 -3.7915
  163MPD2     C 2533   3.128   3.783   1.105 -0.0302 -0.5950 -0.3271
  163MPD2    C1 2534   3.036   3.827   1.014  1.0612 -0.5779 -0.2244
  163MPD2    C2 2535   2.926   3.889   1.070 -0.0017  0.2320  0.4884
  163MPD2    C3 2536   2.913   3.920   1.207  0.1512 -0.6797 -0.2053
  163MPD2    C4 2537   3.016   3.876   1.284  0.8224  0.0996  0.2912
  163MPD2    C5 2538   3.122   3.816   1.236  0.1193  0.9376  0.6143
  163MPD2     H 2539   2.845   3.920   1.004  0.7862  2.2332  0.4671
  163MPD2    H1 2540   3.012   3.875   1.392  1.6950  2.6290  0.3478
  163MPD2    H2 2541   3.217   3.734   1.067 -1.0607 -1.9511 -0.9836
  163MPD2    H3 2542   3.193   3.764   1.299 -0.6318  1.7073  2.1033
  163MPD2     N 2543   2.795   3.963   1.266 -0.3036 -0.1507 -0.5197
  163MPD2    H5 2544   2.790   3.963   1.368 -1.7466  0.6850 -0.5888
  163MPD2    N1 2545   3.056   3.784   0.884 -0.2732  0.3131 -0.1959
  163MPD2    H7 2546   3.133   3.722   0.864 -0.7274 -1.0181  2.1596
  164TMC2    C1 2547   3.344   3.799  11.463  0.0976  0.2141  0.5737
  164TMC2    C2 2548   3.429   3.866  11.374  0.1636 -0.5044  0.1071
  164TMC2    C3 2549   3.404   3.990  11.324  0.4246 -0.2176 -0.2003
  164TMC2    C4 2550   3.238   3.867  11.517 -0.1841 -0.4626 -0.5475
  164TMC2    C5 2551   3.217   3.994  11.462  0.6374 -0.3810  0.0367
  164TMC2    C6 2552   3.299   4.061  11.368  0.5001 -0.7942  0.9470
  164TMC2     C 2553   3.338   3.655  11.475 -0.0674  0.4180 -0.0220
  164TMC2     O 2554   3.282   3.615  11.572 -0.0108  0.5991 -0.0035
  164TMC2     H 2555   3.524   3.821  11.350 -0.5807 -1.5016 -0.9647
  164TMC2    H1 2556   3.171   3.825  11.591 -1.5519  2.0295 -0.3690
  164TMC2    H2 2557   3.288   4.165  11.343 -2.4213 -1.1801  0.5619
  164TMC2    C7 2558   3.103   4.068  11.496  0.1236 -1.3282 -0.9063
  164TMC2    C8 2559   3.518   4.070  11.272 -0.5690 -0.0051 -0.4619
  164TMC2    O1 2560   3.055   4.134  11.406 -0.3682 -0.4803  0.3154
  164TMC2    O2 2561   3.633   4.042  11.293  0.0915 -0.2700  0.1183
  164TMC2    O5 2562   3.468   4.104  11.154 -0.1134  0.3972  0.4320
  164TMC2    H5 2563   3.371   4.116  11.144 -0.5292 -3.4450 -0.1656
  165TMC2    C1 2564   4.142   1.164   0.449 -0.0326 -0.1510 -0.1814
  165TMC2    C2 2565   4.196   1.175   0.322 -0.2679  0.1612  0.3266
  165TMC2    C3 2566   4.328   1.195   0.309 -0.2117 -0.5695  0.2369
  165TMC2    C4 2567   4.219   1.172   0.565 -0.2194  0.0761 -0.7127
  165TMC2    C5 2568   4.352   1.164   0.541 -0.4441 -0.2290 -0.2331
  165TMC2    C6 2569   4.411   1.180   0.419  0.0014  0.9298 -0.4900
  165TMC2     C 2570   4.003   1.138   0.458  0.0335 -0.1030  0.5746
  165TMC2     O 2571   3.947   1.187   0.555 -0.3342 -0.1736  0.3552
  165TMC2     H 2572   4.129   1.185   0.237  0.8843 -2.4532 -0.8692
  165TMC2    H1 2573   4.167   1.184   0.660 -1.1846 -2.3863 -0.9481
  165TMC2    H2 2574   4.518   1.177   0.401  0.4386  0.7350  2.0839
  165TMC2    C7 2575   4.445   1.144   0.654 -0.3168 -0.1125  0.3369
  165TMC2    C8 2576   4.378   1.190   0.175  0.1438  0.6885  0.0921
  165TMC2    O1 2577   4.564   1.138   0.636 -0.8650  0.1166 -0.2914
  165TMC2    O2 2578   4.319   1.131   0.088 -0.1854  0.2913  0.5669
  165TMC2    O5 2579   4.474   1.284   0.157  0.1780  0.7457 -0.1825
  165TMC2    H5 2580   4.516   1.321   0.238 -0.4289 -3.4431  2.0594
  166MPD2     C 2581   3.604   0.853   0.295 -0.2719 -0.4315  0.5850
  166MPD2    C1 2582   3.613   0.940   0.403  0.6855  0.3870 -0.1399
  166MPD2    C2 2583   3.731   1.009   0.426  0.0605 -0.5958 -0.1775
  166MPD2    C3 2584   3.834   0.993   0.338 -0.3315 -0.1400 -0.1996
  166MPD2    C4 2585   3.827   0.913   0.229  0.2308 -0.5001  0.2872
  166MPD2    C5 2586   3.707   0.839   0.213 -0.1193  0.3343 -0.2070
  166MPD2     H 2587   3.744   1.063   0.519 -0.4154  0.1278 -0.5366
  166MPD2    H1 2588   3.908   0.909   0.157  1.2336 -0.1537  1.4117
  166MPD2    H2 2589   3.517   0.795   0.268  0.7576 -1.5566 -0.3109
  166MPD2    H3 2590   3.699   0.782   0.121 -1.2919 -0.5488  0.4363
  166MPD2     N 2591   3.958   1.049   0.362  0.2416  0.6786  0.6519
  166MPD2    H5 2592   4.033   1.019   0.300 -0.4874  1.0710 -0.4079
  166MPD2    N1 2593   3.504   0.940   0.492  0.5582 -0.4025  0.0238
  166MPD2    H7 2594   3.438   0.863   0.480  0.9687 -0.7378 -0.0989
  167TMC2    C1 2595   2.497   3.719  13.344  0.4686 -0.3094 -0.3706
  167TMC2    C2 2596   2.470   3.704  13.480 -0.4135  0.0345 -0.4846
  167TMC2    C3 2597   2.361   3.617  13.504  0.1358  0.0519 -0.3886
  167TMC2    C4 2598   2.432   3.643  13.245 -0.2725  0.2925  0.3981
  167TMC2    C5 2599   2.323   3.564  13.274 -0.5148  0.7194  0.0589
  167TMC2    C6 2600   2.287   3.549  13.407 -0.4111  0.1840  0.3013
  167TMC2     C 2601   2.563   3.845  13.322  0.3845  0.7373  0.4652
  167TMC2     O 2602   2.623   3.907  13.406  0.9145 -0.6129  0.1050
  167TMC2     H 2603   2.519   3.754  13.563 -2.0873  1.0415 -0.1216
  167TMC2    H1 2604   2.460   3.651  13.140  0.9101 -0.5934  0.6498
  167TMC2    H2 2605   2.206   3.489  13.444  0.2793 -1.4117 -0.7519
  167TMC2    C7 2606   2.260   3.468  13.182 -0.7325  0.1533  0.4228
  167TMC2    C8 2607   2.309   3.623  13.645  0.2825  0.6304  0.0932
  167TMC2    O1 2608   2.163   3.399  13.223  0.3251 -0.0222 -0.6085
  167TMC2    O2 2609   2.358   3.692  13.735  0.7275  0.1148 -0.1893
  167TMC2    O5 2610   2.236   3.513  13.671  0.8216  0.2182  0.7227
  167TMC2    H5 2611   2.248   3.437  13.609 -0.3447 -1.4418  2.5282
  168MPD2     C 2612   2.716   4.048  13.165  0.5807 -0.4050  0.5013
  168MPD2    C1 2613   2.605   3.984  13.124  0.0870  1.2056  0.3257
  168MPD2    C2 2614   2.554   4.009  13.002 -0.5039 -0.3428 -0.4013
  168MPD2    C3 2615   2.620   4.095  12.916  0.8514 -0.2259 -0.2113
  168MPD2    C4 2616   2.727   4.167  12.965  0.4434 -0.0176  0.3538
  168MPD2    C5 2617   2.766   4.150  13.092 -0.3727  0.8772  0.5106
  168MPD2     H 2618   2.477   3.946  12.960 -0.2005 -1.7917  1.2501
  168MPD2    H1 2619   2.770   4.243  12.901 -3.1510  1.2162 -0.6086
  168MPD2    H2 2620   2.760   4.021  13.261  0.6283  1.5791  1.0363
  168MPD2    H3 2621   2.851   4.206  13.130  1.5888 -2.5318  1.0741
  168MPD2     N 2622   2.584   4.112  12.780 -0.2897  0.5199 -0.1644
  168MPD2    H5 2623   2.637   4.179  12.725 -0.7386  1.1144  0.1239
  168MPD2    N1 2624   2.534   3.889  13.190 -0.2591 -0.2442  0.0029
  168MPD2    H7 2625   2.467   3.840  13.132  0.4113 -2.1186  0.8230
  169MPD1     C 2626   4.287   3.925   8.996  0.3146 -0.5515 -0.6418
  169MPD1    C1 2627   4.421   3.926   9.019 -0.4329 -0.3728  0.6185
  169MPD1    C2 2628   4.465   3.888   9.140 -1.4437  0.4493 -0.1985
  169MPD1    C3 2629   4.372   3.876   9.246  0.3979  0.0763  0.2786
  169MPD1    C4 2630   4.241   3.882   9.218 -0.2162 -0.6824  0.2130
  169MPD1    C5 2631   4.199   3.912   9.092 -0.3003 -0.8230 -0.0696
  169MPD1     H 2632   4.569   3.864   9.160 -2.0712 -0.9438  1.4565
  169MPD1    H1 2633   4.172   3.873   9.301 -0.7846  2.3641  0.0718
  169MPD1    H2 2634   4.247   3.933   8.895 -2.9027  0.3663  0.7226
  169MPD1    H3 2635   4.093   3.902   9.074 -0.2993  0.7465 -0.9770
  169MPD1     N 2636   4.429   3.829   9.371 -0.4624  0.3356  0.4168
  169MPD1    H5 2637   4.529   3.812   9.365 -0.9730 -2.4039 -0.3492
  169MPD1    N1 2638   4.508   3.912   8.910 -0.7863  0.7169  0.1183
  169MPD1    H6 2639   4.481   3.977   8.837  0.2438  0.7221 -0.2570
  169MPD1    H7 2640   4.598   3.945   8.944 -0.1826 -0.0316 -0.7563
  170MPD1     C 2641   4.615   1.412  13.097 -0.4725  0.4426  0.7485
  170MPD1    C1 2642   4.543   1.440  13.213 -0.0788  0.9367 -0.7181
  170MPD1    C2 2643   4.432   1.357  13.231  0.1116  0.3571 -0.2429
  170MPD1    C3 2644   4.371   1.286  13.132 -0.7561  0.0395  0.0657
  170MPD1    C4 2645   4.429   1.280  13.010 -0.3402 -0.0938 -0.1948
  170MPD1    C5 2646   4.550   1.347  12.994  0.3121 -0.3161 -0.5968
  170MPD1     H 2647   4.390   1.360  13.330 -0.5042 -1.2099 -0.4553
  170MPD1    H1 2648   4.390   1.233  12.920 -1.7776  0.7735 -0.0367
  170MPD1    H2 2649   4.711   1.459  13.076  0.5661 -2.8171 -1.7083
  170MPD1    H3 2650   4.605   1.350  12.901 -2.9832  0.3787 -2.5230
  170MPD1     N 2651   4.252   1.209  13.167  0.4323  0.3018 -0.6113
  170MPD1    H5 2652   4.206   1.224  13.256 -1.1469  0.7010 -1.4854
  170MPD1    N1 2653   4.593   1.513  13.319  0.0222  0.2516 -0.3124
  170MPD1    H6 2654   4.662   1.584  13.295  0.7722 -0.1535  0.6357
  170MPD1    H7 2655   4.521   1.559  13.373  0.2227  0.0951  0.0901
  171MPD1     C 2656   1.953   2.583  15.375  0.8755  0.2686  0.3077
  171MPD1    C1 2657   1.941   2.544  15.509 -0.1599 -0.8106  0.2207
  171MPD1    C2 2658   2.023   2.439  15.549 -0.0647 -0.5143 -0.2479
  171MPD1    C3 2659   2.130   2.388  15.465  0.2975 -0.3035 -0.0959
  171MPD1    C4 2660   2.140   2.443  15.340 -0.4042  0.4404  0.7105
  171MPD1    C5 2661   2.056   2.540  15.295  0.5870  0.2336 -0.4550
  171MPD1     H 2662   2.016   2.399  15.650 -2.0995  0.7166  0.0775
  171MPD1    H1 2663   2.214   2.403  15.271 -1.4206  0.5381 -0.4283
  171MPD1    H2 2664   1.889   2.662  15.336  0.6381  1.0101  2.2149
  171MPD1    H3 2665   2.060   2.578  15.194  3.9558  0.4351 -0.2384
  171MPD1     N 2666   2.221   2.283  15.498  0.1151 -0.3688  0.0060
  171MPD1    H5 2667   2.293   2.261  15.430 -0.8485 -0.3290 -1.0068
  171MPD1    N1 2668   1.839   2.602  15.596  0.2633  0.7315  0.1147
  171MPD1    H6 2669   1.823   2.700  15.577  2.3577  0.9808 -0.3612
  171MPD1    H7 2670   1.859   2.592  15.696 -2.5634  1.7674  0.7690
  172MPD1     C 2671   1.514   0.710  17.440  0.2645  0.0264  0.0435
  172MPD1    C1 2672   1.582   0.676  17.551 -0.0702  0.0854 -0.1170
  172MPD1    C2 2673   1.621   0.776  17.636 -0.0960  0.1627  0.5427
  172MPD1    C3 2674   1.581   0.909  17.611 -0.6048  0.1340 -0.3122
  172MPD1    C4 2675   1.499   0.937  17.503 -0.3783  0.1317  0.0253
  172MPD1    C5 2676   1.464   0.837  17.421  0.3591  0.0338  0.2336
  172MPD1     H 2677   1.674   0.745  17.725  0.4176 -0.4030  0.0445
  172MPD1    H1 2678   1.468   1.038  17.479  1.6075  1.1184  1.5390
  172MPD1    H2 2679   1.470   0.633  17.377  0.8328 -0.2513 -0.0128
  172MPD1    H3 2680   1.407   0.858  17.331  2.9108  2.1026 -0.8870
  172MPD1     N 2681   1.637   1.011  17.694  0.6922 -0.7166  0.0585
  172MPD1    H5 2682   1.714   0.984   0.012  1.7448 -0.3754 -1.1131
  172MPD1    N1 2683   1.629   0.547  17.584 -0.1014 -0.3287  0.5556
  172MPD1    H6 2684   1.579   0.472  17.536  0.5420  0.5631 -1.5130
  172MPD1    H7 2685   1.639   0.524  17.683  1.4558 -1.0260  0.2443
  173MPD1     C 2686   3.129   1.365  13.337 -0.2157  0.6512  0.1377
  173MPD1    C1 2687   3.254   1.363  13.382  0.3642  0.0121 -0.1771
  173MPD1    C2 2688   3.268   1.374  13.520 -0.1460 -0.5329  0.0427
  173MPD1    C3 2689   3.165   1.371  13.609  0.3353  0.1713 -0.3562
  173MPD1    C4 2690   3.035   1.369  13.557  0.1433 -0.3875 -0.1040
  173MPD1    C5 2691   3.016   1.372  13.420  0.1055 -0.5794 -0.1467
  173MPD1     H 2692   3.370   1.385  13.556  0.2776 -3.4763 -0.2987
  173MPD1    H1 2693   2.942   1.384  13.611 -0.0760  1.2280 -0.9349
  173MPD1    H2 2694   3.116   1.357  13.230 -1.6130 -1.0059  0.4383
  173MPD1    H3 2695   2.918   1.386  13.376 -0.5112 -4.1399  0.0993
  173MPD1     N 2696   3.197   1.394  13.741  0.3868 -0.5170 -0.0029
  173MPD1    H5 2697   3.293   1.416  13.763  0.6094 -1.8453  0.2996
  173MPD1    N1 2698   3.368   1.372  13.301  0.9639 -0.1250  0.1209
  173MPD1    H6 2699   3.455   1.345  13.346  0.5494 -0.3613  0.7759
  173MPD1    H7 2700   3.362   1.324  13.211  0.0778  2.9572 -1.4712
  174MPD1     C 2701   3.963   1.270  14.083  0.3951 -0.1543  0.1575
  174MPD1    C1 2702   3.893   1.291  14.205 -0.1849  0.0232  0.1645
  174MPD1    C2 2703   3.757   1.299  14.212  0.2355  0.2628 -0.1423
  174MPD1    C3 2704   3.683   1.276  14.090 -0.0273 -0.9494 -0.4204
  174MPD1    C4 2705   3.753   1.254  13.973  0.1812 -0.7812 -0.1740
  174MPD1    C5 2706   3.890   1.245  13.970  0.6925  0.8407  0.2826
  174MPD1     H 2707   3.707   1.312  14.307 -3.4054  0.7764 -2.1243
  174MPD1    H1 2708   3.703   1.235  13.879  2.7981 -0.9148 -1.5481
  174MPD1    H2 2709   4.071   1.262  14.083  0.3001 -1.4183  0.8653
  174MPD1    H3 2710   3.947   1.218  13.882  0.5672 -0.4253  0.5873
  174MPD1     N 2711   3.539   1.298  14.086 -0.4605 -0.3783 -0.0313
  174MPD1    H5 2712   3.490   1.292  13.998 -2.2691 -0.1332  0.9702
  174MPD1    N1 2713   3.970   1.300  14.323 -0.2984 -0.3364 -0.2997
  174MPD1    H6 2714   3.914   1.319  14.406 -2.9656  0.0386 -2.2012
  174MPD1    H7 2715   4.041   1.372  14.316  1.5101 -2.0416  0.5857
  175MPD1     C 2716   1.032   3.084  15.457  0.1869  0.6978 -0.1124
  175MPD1    C1 2717   1.148   3.015  15.450  0.3240 -0.0863  0.1838
  175MPD1    C2 2718   1.159   2.891  15.504 -1.2734  0.3846  0.1177
  175MPD1    C3 2719   1.057   2.842  15.581  0.1585  0.4893 -0.5152
  175MPD1    C4 2720   0.938   2.915  15.591  0.3910 -0.5500 -0.0783
  175MPD1    C5 2721   0.925   3.030  15.524  0.5302  0.1721  0.4528
  175MPD1     H 2722   1.252   2.837  15.493 -2.2389 -1.3964  0.7237
  175MPD1    H1 2723   0.860   2.878  15.657 -1.6269 -1.6993 -3.1059
  175MPD1    H2 2724   1.012   3.173  15.398  2.8840  1.8148  0.6246
  175MPD1    H3 2725   0.834   3.089  15.520  0.2248 -0.3839 -1.0456
  175MPD1     N 2726   1.069   2.714  15.650  0.1294 -0.0959  0.6181
  175MPD1    H5 2727   1.001   2.683  15.719  0.2634 -2.1733 -0.2144
  175MPD1    N1 2728   1.246   3.072  15.365 -0.0330 -0.1309 -0.4184
  175MPD1    H6 2729   1.342   3.039  15.373  0.0682 -0.2464 -2.0772
  175MPD1    H7 2730   1.253   3.173  15.365 -2.6212  0.0567 -1.1427
  176MPD1     C 2731   2.927   4.287  16.650 -0.0822 -1.0575  0.0676
  176MPD1    C1 2732   3.039   4.366  16.656 -0.0064  0.4989  0.3427
  176MPD1    C2 2733   3.054   4.443  16.772  0.1570 -0.2047 -0.3432
  176MPD1    C3 2734   2.980   4.422  16.886  0.0355  0.2862  0.3346
  176MPD1    C4 2735   2.872   4.334  16.879  0.5136  0.3084 -0.1956
  176MPD1    C5 2736   2.842   4.280  16.757  0.0097 -0.6686  0.0951
  176MPD1     H 2737   3.139   4.510  16.783  0.3405 -0.6769  1.1580
  176MPD1    H1 2738   2.811   4.305  16.964  1.0764  3.8173  1.3942
  176MPD1    H2 2739   2.906   4.230  16.559  0.3509  0.6918 -1.1320
  176MPD1    H3 2740   2.767   4.202  16.749 -2.2938  1.6393 -0.7878
  176MPD1     N 2741   3.021   4.476  17.008  0.6619  0.3261  0.2158
  176MPD1    H5 2742   3.084   4.555  16.998 -1.6353  1.9628 -1.2880
  176MPD1    N1 2743   3.104   4.387  16.535  0.0816 -0.0249  0.0912
  176MPD1    H6 2744   3.082   4.311  16.471  0.4146  0.5371 -0.7006
  176MPD1    H7 2745   3.205   4.393  16.543  0.0795 -0.9918  0.8015
  177MPD1     C 2746   1.066   0.284   9.693  0.7268  0.3530  0.1539
  177MPD1    C1 2747   0.966   0.345   9.627  0.2914 -0.0791 -0.7020
  177MPD1    C2 2748   0.871   0.273   9.556  0.0623 -0.9188  1.1864
  177MPD1    C3 2749   0.857   0.136   9.580 -0.9582  0.6664 -0.4968
  177MPD1    C4 2750   0.952   0.076   9.663 -0.5527 -0.8321  0.3647
  177MPD1    C5 2751   1.056   0.148   9.713  0.3826 -0.0385 -0.6287
  177MPD1     H 2752   0.797   0.317   9.491  1.7213 -2.4117 -1.6845
  177MPD1    H1 2753   0.948   4.707   9.691  1.2987 -0.9581  0.1714
  177MPD1    H2 2754   1.154   0.333   9.733  0.3038  0.6939  0.6703
  177MPD1    H3 2755   1.141   0.098   9.759 -1.5014 -1.8164  0.9371
  177MPD1     N 2756   0.750   0.066   9.524 -0.0461  0.2731  0.2361
  177MPD1    H5 2757   0.679   0.113   9.469 -1.2115 -0.5764  1.0065
  177MPD1    N1 2758   0.984   0.482   9.594  0.0993 -0.0305 -0.1117
  177MPD1    H6 2759   0.902   0.526   9.555  0.4551 -0.0858 -0.9141
  177MPD1    H7 2760   1.027   0.537   9.669  1.2308 -0.1824 -0.6442
  178MPD1     C 2761   3.761   0.046   0.386 -0.0358  0.2797 -0.0454
  178MPD1    C1 2762   3.659   4.725   0.311 -0.9762  0.5314 -0.9402
  178MPD1    C2 2763   3.680   4.694   0.174  0.9699 -0.5696  0.0183
  178MPD1    C3 2764   3.806   4.703   0.121  0.1995  0.0251 -0.5204
  178MPD1    C4 2765   3.911   0.018   0.199 -0.6045 -0.1877 -0.0703
  178MPD1    C5 2766   3.885   0.055   0.331 -0.4052  0.3267 -0.4266
  178MPD1     H 2767   3.596   4.653   0.119  0.8647 -1.6829  1.0194
  178MPD1    H1 2768   4.007   0.024   0.150 -0.2493 -0.7642  0.5656
  178MPD1    H2 2769   3.755   0.083   0.487 -0.0237  0.5187 -0.1334
  178MPD1    H3 2770   3.965   0.093   0.395 -0.9514 -0.2688  0.6050
  178MPD1     N 2771   3.839   4.672  17.730 -1.0394 -0.3279 -0.0590
  178MPD1    H5 2772   3.938   4.680  17.707 -0.5923 -0.1355  1.9716
  178MPD1    N1 2773   3.534   4.717   0.370 -0.5233  0.3168 -0.6980
  178MPD1    H6 2774   3.557   4.721   0.469 -0.0879 -1.1353 -0.7465
  178MPD1    H7 2775   3.484   4.630   0.355 -0.6822  0.1055  1.0682
  179MPD1     C 2776   3.010   3.627  15.202  0.4395 -0.5886  0.2731
  179MPD1    C1 2777   2.999   3.628  15.342  0.0815  0.6514 -0.7174
  179MPD1    C2 2778   3.003   3.509  15.408  0.1072 -0.4768 -0.2991
  179MPD1    C3 2779   3.021   3.388  15.338  0.2959 -0.3663 -0.0902
  179MPD1    C4 2780   3.026   3.391  15.205 -0.7062  1.2214 -0.7251
  179MPD1    C5 2781   3.006   3.503  15.136 -1.2731  0.2734 -0.1978
  179MPD1     H 2782   2.999   3.516  15.516 -1.9037 -1.0870 -0.3466
  179MPD1    H1 2783   3.018   3.290  15.166 -0.4812  0.6061  0.8146
  179MPD1    H2 2784   3.013   3.718  15.143  1.2953 -0.6940  0.1445
  179MPD1    H3 2785   2.987   3.509  15.029  2.0474  1.2465 -0.7313
  179MPD1     N 2786   3.047   3.259  15.398  0.2587 -0.0543 -0.6719
  179MPD1    H5 2787   3.071   3.189  15.329 -0.8500 -0.9473 -0.1635
  179MPD1    N1 2788   3.002   3.747  15.414  0.1191 -0.3970  0.5932
  179MPD1    H6 2789   2.961   3.745  15.508  0.5659  1.4787  0.8343
  179MPD1    H7 2790   2.966   3.828  15.363  2.7259  0.3675 -0.0141
  180MPD1     C 2791   3.158   4.364  15.561 -0.3620  0.0364 -0.1583
  180MPD1    C1 2792   3.205   4.494  15.552  0.6706  0.2995 -0.2180
  180MPD1    C2 2793   3.190   4.565  15.436  0.0822  0.3912  0.2041
  180MPD1    C3 2794   3.116   4.515  15.330  0.1444  0.3653 -0.4149
  180MPD1    C4 2795   3.073   4.385  15.336 -0.6597  0.1732 -0.4897
  180MPD1    C5 2796   3.092   4.314  15.452 -0.3683  0.0061  0.0364
  180MPD1     H 2797   3.237   4.661  15.416  3.1469 -0.6691  2.3816
  180MPD1    H1 2798   3.025   4.339  15.250 -1.2470  1.1524 -0.6854
  180MPD1    H2 2799   3.171   4.310  15.654  0.1405 -1.1025 -0.8809
  180MPD1    H3 2800   3.055   4.212  15.451  1.0723 -0.5119 -0.7544
  180MPD1     N 2801   3.094   4.598  15.221  0.3959  0.2722  0.1975
  180MPD1    H5 2802   3.139   4.689  15.225 -2.2028  1.5026  1.1528
  180MPD1    N1 2803   3.287   4.543  15.656 -0.0994  0.9768  0.2553
  180MPD1    H6 2804   3.264   4.641  15.670 -0.7311  1.0825 -1.5971
  180MPD1    H7 2805   3.261   4.498  15.744  2.1816  1.6174  1.2706
  181MPD1     C 2806   4.346   1.666   9.704 -0.3581 -0.7789  0.0218
  181MPD1    C1 2807   4.374   1.799   9.724 -0.7595  0.2462 -0.5569
  181MPD1    C2 2808   4.483   1.824   9.802 -0.5136  0.2320  0.2994
  181MPD1    C3 2809   4.571   1.725   9.853 -0.3226 -0.0006 -0.1645
  181MPD1    C4 2810   4.542   1.593   9.826  0.6003  0.2641  0.4042
  181MPD1    C5 2811   4.423   1.565   9.763  0.6018  0.9317  0.3880
  181MPD1     H 2812   4.493   1.925   9.841  4.5827 -0.3487  0.5214
  181MPD1    H1 2813   4.598   1.511   9.870 -1.3509 -0.5612  1.3500
  181MPD1    H2 2814   4.253   1.646   9.651  0.9131  0.0079 -2.5185
  181MPD1    H3 2815   4.386   1.464   9.772 -0.1966  1.1072 -0.9286
  181MPD1     N 2816   4.695   1.749   9.930 -0.0635 -0.0787 -0.0225
  181MPD1    H5 2817   0.008   1.666   9.962 -1.2331 -1.5608 -2.0620
  181MPD1    N1 2818   4.280   1.900   9.696  0.9573 -0.7407  0.4211
  181MPD1    H6 2819   4.325   1.991   9.705 -0.7438  0.0168  1.2081
  181MPD1    H7 2820   4.230   1.880   9.609 -0.3944 -0.1589  1.0641
  182MPD1     C 2821   1.151   0.365   0.853  0.3576  0.2852 -0.2345
  182MPD1    C1 2822   1.222   0.302   0.756  0.0508 -0.2274  0.5069
  182MPD1    C2 2823   1.154   0.259   0.641  0.2312  0.0152 -0.8871
  182MPD1    C3 2824   1.025   0.311   0.616 -0.6645  0.0726  0.2225
  182MPD1    C4 2825   0.962   0.387   0.709 -0.2173 -0.1304 -0.2022
  182MPD1    C5 2826   1.020   0.405   0.827  0.5357  0.2876  0.0881
  182MPD1     H 2827   1.188   0.205   0.554  3.0047  1.6768 -0.8389
  182MPD1    H1 2828   0.866   0.434   0.689  0.3622  0.8110 -0.7996
  182MPD1    H2 2829   1.198   0.378   0.950 -0.6032 -0.2101  0.3012
  182MPD1    H3 2830   0.957   0.451   0.903  1.1377 -2.1016  2.0340
  182MPD1     N 2831   0.956   0.294   0.495  0.1451 -0.1599  0.2326
  182MPD1    H5 2832   0.873   0.351   0.481  0.2483  0.2284  1.2290
  182MPD1    N1 2833   1.352   0.247   0.774  0.3666  0.1279  0.2539
  182MPD1    H6 2834   1.406   0.304   0.839  0.3190 -0.7666  1.0760
  182MPD1    H7 2835   1.392   0.257   0.681  0.3506  1.1772  0.3590
  183MPD1     C 2836   0.380   0.478   8.911  0.1517  0.0402 -0.0615
  183MPD1    C1 2837   0.327   0.607   8.937 -0.6508  0.7812  0.3957
  183MPD1    C2 2838   0.422   0.703   8.973  0.1587 -0.9581  0.1120
  183MPD1    C3 2839   0.558   0.673   8.982 -0.0277 -0.1083 -0.2015
  183MPD1    C4 2840   0.605   0.538   8.958 -0.1308  0.0685  0.3624
  183MPD1    C5 2841   0.516   0.446   8.916 -0.5294  0.4344 -0.0715
  183MPD1     H 2842   0.400   0.807   8.991 -2.2765 -1.5428  0.5246
  183MPD1    H1 2843   0.710   0.511   8.970 -0.4713 -0.3560  2.4117
  183MPD1    H2 2844   0.311   0.408   8.865 -0.8723  1.3057 -0.4508
  183MPD1    H3 2845   0.546   0.346   8.887 -1.7203  0.2313 -0.6249
  183MPD1     N 2846   0.645   0.772   9.032 -0.0017 -0.1038 -0.3422
  183MPD1    H5 2847   0.600   0.860   9.058 -1.1501 -0.6895 -0.3676
  183MPD1    N1 2848   0.196   0.641   8.899 -0.0422 -0.0192  0.9158
  183MPD1    H6 2849   0.148   0.719   8.942 -1.2731 -0.2882  0.0495
  183MPD1    H7 2850   0.134   0.561   8.911 -0.1746  0.1283  1.2134
  184MPD1     C 2851   0.144   3.686  10.417  0.5357 -0.0351 -0.0067
  184MPD1    C1 2852   0.063   3.657  10.310 -0.1792 -0.0698 -0.2449
  184MPD1    C2 2853   0.087   3.731  10.197 -0.0990 -0.2918  0.3753
  184MPD1    C3 2854   0.163   3.850  10.198  0.6287  0.6228  0.4941
  184MPD1    C4 2855   0.235   3.887  10.310  0.2607 -0.0082 -0.4461
  184MPD1    C5 2856   0.226   3.797  10.416 -0.0862  0.4808 -0.9008
  184MPD1     H 2857   0.035   3.696  10.108 -1.5120 -1.4397  1.6407
  184MPD1    H1 2858   0.290   3.980  10.321 -0.0702  0.0876  0.3739
  184MPD1    H2 2859   0.140   3.623  10.505 -2.2737 -1.2577 -0.9761
  184MPD1    H3 2860   0.275   3.816  10.511  0.8421 -1.6225 -0.9631
  184MPD1     N 2861   0.174   3.937  10.088  0.0819  0.0180 -0.5759
  184MPD1    H5 2862   0.224   4.024  10.100 -0.5931  0.1947  0.9676
  184MPD1    N1 2863   4.719   3.541  10.306  0.4171  0.0838  0.9609
  184MPD1    H6 2864   4.687   3.522  10.400 -0.6615  2.5249  1.0869
  184MPD1    H7 2865   4.636   3.548  10.247  2.9696  1.8989 -2.4500
  185MPD1     C 2866   4.349   4.409   9.348  0.3937  0.6178  0.5608
  185MPD1    C1 2867   4.367   4.273   9.345  0.8959 -0.6135  0.3591
  185MPD1    C2 2868   4.475   4.223   9.415 -0.1347  0.3083 -0.1775
  185MPD1    C3 2869   4.559   4.307   9.479 -0.3328 -0.9070  0.2824
  185MPD1    C4 2870   4.536   4.444   9.483 -0.4940 -0.4545  0.1188
  185MPD1    C5 2871   4.427   4.491   9.420  0.1358 -0.0450  0.2137
  185MPD1     H 2872   4.486   4.115   9.419 -0.3639  0.3052  0.2934
  185MPD1    H1 2873   4.596   4.503   9.552  0.8661 -1.2581 -0.3664
  185MPD1    H2 2874   4.258   4.454   9.311  1.7267  2.1872 -0.7980
  185MPD1    H3 2875   4.382   4.590   9.426  2.5217  1.0965 -0.7175
  185MPD1     N 2876   4.669   4.260   9.551  0.4038 -0.0589 -0.1303
  185MPD1    H5 2877   4.726   4.334   9.589  1.9829 -0.3968 -1.8213
  185MPD1    N1 2878   4.258   4.193   9.313 -0.6337 -0.1504 -0.1344
  185MPD1    H6 2879   4.282   4.103   9.272  2.4490 -0.6180  2.6585
  185MPD1    H7 2880   4.207   4.239   9.237  2.1780  1.0440 -1.3093
  186MPD1     C 2881   3.852   3.141  15.782  0.1044 -0.4631 -0.4846
  186MPD1    C1 2882   3.979   3.198  15.798  0.4752  0.4821 -0.0607
  186MPD1    C2 2883   4.002   3.280  15.913 -0.1849  0.3605  0.1733
  186MPD1    C3 2884   3.908   3.313  16.005 -0.2816 -0.0664  0.9617
  186MPD1    C4 2885   3.783   3.264  15.977  0.0859 -0.3722 -0.2873
  186MPD1    C5 2886   3.762   3.172  15.878  0.4295 -0.0736 -0.2975
  186MPD1     H 2887   4.102   3.318  15.927  0.1938 -1.1884  1.6619
  186MPD1    H1 2888   3.702   3.305  16.036 -0.9300 -2.3056 -0.3425
  186MPD1    H2 2889   3.825   3.064  15.711  1.2131 -0.6080 -0.7422
  186MPD1    H3 2890   3.668   3.118  15.886  1.3388 -1.3599  1.7004
  186MPD1     N 2891   3.922   3.402  16.113  0.0696 -0.2165  0.1974
  186MPD1    H5 2892   3.840   3.416  16.172 -0.4797  1.0484 -0.8789
  186MPD1    N1 2893   4.076   3.150  15.714 -0.1970 -0.0936 -0.0730
  186MPD1    H6 2894   4.157   3.211  15.707 -0.4595  0.2378 -0.2473
  186MPD1    H7 2895   4.029   3.145  15.624 -0.1615 -2.1729  0.0209
  187MPD1     C 2896   2.992   0.446   0.322 -0.0118 -0.0478 -0.0876
  187MPD1    C1 2897   2.914   0.562   0.318  0.3313  0.8721  0.0888
  187MPD1    C2 2898   2.944   0.658   0.221 -0.9710  0.8226  0.1378
  187MPD1    C3 2899   3.045   0.623   0.134 -0.3003  0.7093 -0.2899
  187MPD1    C4 2900   3.100   0.500   0.122  0.4309  0.4675  1.0469
  187MPD1    C5 2901   3.078   0.407   0.218  0.1091  0.4417  0.2787
  187MPD1     H 2902   2.899   0.756   0.206 -2.2918  0.6279  2.7513
  187MPD1    H1 2903   3.158   0.469   0.035 -0.7072  0.4160  0.3012
  187MPD1    H2 2904   2.977   0.365   0.393 -1.4120 -1.1575 -1.6355
  187MPD1    H3 2905   3.118   0.307   0.214 -1.0016 -0.0006  0.3100
  187MPD1     N 2906   3.084   0.718   0.034 -0.3460 -0.2787 -0.4098
  187MPD1    H5 2907   3.149   0.686  17.707 -0.3127  0.8019 -0.8747
  187MPD1    N1 2908   2.818   0.586   0.416  0.3937 -0.1701 -0.0646
  187MPD1    H6 2909   2.732   0.625   0.378  0.2963 -1.1472 -0.8588
  187MPD1    H7 2910   2.804   0.514   0.487 -0.1490  1.4236  1.4679
  188MPD1     C 2911   2.934   1.288  10.010 -0.4940 -0.2477  0.2852
  188MPD1    C1 2912   2.893   1.208   9.904 -0.0741 -0.6413  0.8766
  188MPD1    C2 2913   2.824   1.092   9.930  0.2736 -0.4065  0.7855
  188MPD1    C3 2914   2.825   1.030  10.051  0.6793  0.2610 -0.0397
  188MPD1    C4 2915   2.877   1.103  10.155  0.2691  0.1509 -0.7359
  188MPD1    C5 2916   2.914   1.233  10.130 -0.1205  0.0021 -0.1849
  188MPD1     H 2917   2.786   1.029   9.852 -1.8112  0.2454  1.2843
  188MPD1    H1 2918   2.881   1.074  10.259 -0.5677  2.4391 -0.0526
  188MPD1    H2 2919   2.965   1.391   9.994 -1.3342 -0.2010 -1.0799
  188MPD1    H3 2920   2.939   1.295  10.215 -1.2173  1.1913 -0.7389
  188MPD1     N 2921   2.795   0.899  10.079  0.3276  0.7017  0.2807
  188MPD1    H5 2922   2.816   0.857  10.169  0.9185  0.8539  0.2115
  188MPD1    N1 2923   2.884   1.279   9.784 -0.0971 -0.1539 -0.0466
  188MPD1    H6 2924   2.850   1.220   9.708 -0.1897  0.0145 -0.1361
  188MPD1    H7 2925   2.980   1.309   9.774 -0.2416 -0.3879 -2.1887
  189MPD1     C 2926   0.145   1.235  17.504  0.1049  0.1665 -0.1937
  189MPD1    C1 2927   0.025   1.174  17.544 -0.1488  1.0894 -0.0114
  189MPD1    C2 2928   4.660   1.257  17.588  0.9041  0.5096 -0.1343
  189MPD1    C3 2929   4.676   1.391  17.591  0.1693 -0.4530  0.3430
  189MPD1    C4 2930   0.057   1.445  17.541  0.8617 -0.6854 -0.7553
  189MPD1    C5 2931   0.155   1.368  17.493  0.1652 -0.8552 -0.1685
  189MPD1     H 2932   4.569   1.216  17.631  0.2479  2.2808  0.1800
  189MPD1    H1 2933   0.069   1.553  17.539  0.4851 -0.6588 -1.4672
  189MPD1    H2 2934   0.229   1.170  17.482 -1.6045 -1.9406 -0.4742
  189MPD1    H3 2935   0.256   1.400  17.470  0.3994 -2.5868 -1.5354
  189MPD1     N 2936   4.575   1.474  17.647  0.2819 -0.4646 -0.0575
  189MPD1    H5 2937   4.490   1.434  17.684 -0.3556  0.1286 -0.8863
  189MPD1    N1 2938   0.031   1.038  17.554 -0.2868  0.2160  0.0668
  189MPD1    H6 2939   4.673   0.999  17.552 -0.7683  1.5194 -2.4991
  189MPD1    H7 2940   0.078   0.991  17.477  0.4452  2.1111 -0.6337
  190MPD1     C 2941   3.564   4.644  15.095 -0.5839  0.2314  0.4468
  190MPD1    C1 2942   3.707   4.626  15.093 -0.0559 -0.4794 -0.4806
  190MPD1    C2 2943   3.765   4.635  15.217  0.6504  0.4324 -0.7055
  190MPD1    C3 2944   3.699   4.649  15.338 -0.3574  0.9535  0.3189
  190MPD1    C4 2945   3.558   4.654  15.337  0.0594 -0.6341 -0.1924
  190MPD1    C5 2946   3.489   4.644  15.215 -0.8622  0.0880 -0.1413
  190MPD1     H 2947   3.873   4.626  15.225  0.7198  1.6059 -0.2999
  190MPD1    H1 2948   3.518   4.675  15.435  2.3393  1.2811  0.3455
  190MPD1    H2 2949   3.507   4.649  15.002  1.5575 -0.1901 -0.8976
  190MPD1    H3 2950   3.384   4.670  15.219 -1.2862 -1.7647  0.9153
  190MPD1     N 2951   3.787   4.652  15.450  0.4542 -0.2019 -0.2144
  190MPD1    H5 2952   3.885   4.639  15.426  0.5413 -0.2308  0.1550
  190MPD1    N1 2953   3.781   4.626  14.977 -0.2544 -0.2999  0.0269
  190MPD1    H6 2954   3.859   4.561  14.979  0.2215  0.2568 -0.0570
  190MPD1    H7 2955   3.716   4.601  14.903 -1.0180 -3.3680  1.7501
  191MPD1     C 2956   2.622   2.032  12.751  0.6340 -0.5568  0.5587
  191MPD1    C1 2957   2.551   2.137  12.695  0.6918  0.6874 -0.2072
  191MPD1    C2 2958   2.619   2.210  12.596 -0.4568 -0.2279  1.0099
  191MPD1    C3 2959   2.746   2.177  12.548 -0.0597 -0.2717 -0.1105
  191MPD1    C4 2960   2.812   2.069  12.601  0.8822 -0.5360  0.8380
  191MPD1    C5 2961   2.744   1.994  12.696  0.2862  0.4888 -0.4033
  191MPD1     H 2962   2.560   2.295  12.562 -0.1524 -0.6775 -0.6366
  191MPD1    H1 2963   2.903   2.035  12.553  2.3239  1.5892  2.0837
  191MPD1    H2 2964   2.592   1.968  12.834 -0.0539 -1.1322 -0.1381
  191MPD1    H3 2965   2.796   1.915  12.749 -1.0327  0.8732  1.4463
  191MPD1     N 2966   2.804   2.252  12.439  0.6518 -0.0605  0.8879
  191MPD1    H5 2967   2.732   2.313  12.401 -0.2869 -2.2273 -0.7834
  191MPD1    N1 2968   2.421   2.159  12.733 -0.1009 -0.0705  0.1293
  191MPD1    H6 2969   2.387   2.246  12.693 -0.3990 -0.9132 -1.4528
  191MPD1    H7 2970   2.413   2.160  12.834 -0.1303 -0.5072  0.1308
  192MPD1     C 2971   2.660   2.821  11.625 -0.1060 -0.7587  0.0285
  192MPD1    C1 2972   2.590   2.759  11.719  0.3785  0.1707  0.3398
  192MPD1    C2 2973   2.658   2.694  11.820 -0.0450 -0.0676 -0.5671
  192MPD1    C3 2974   2.799   2.695  11.825  0.3837  0.1692 -0.1357
  192MPD1    C4 2975   2.864   2.758  11.727  0.6425  0.1512  0.4367
  192MPD1    C5 2976   2.796   2.825  11.627  0.2044  0.2702  0.4136
  192MPD1     H 2977   2.603   2.633  11.892  1.1099 -0.9740 -0.4412
  192MPD1    H1 2978   2.971   2.772  11.733  0.9031 -0.6734 -2.2301
  192MPD1    H2 2979   2.619   2.884  11.546  2.1274  0.4692 -0.1757
  192MPD1    H3 2980   2.852   2.879  11.551 -0.7552  1.9025  0.8504
  192MPD1     N 2981   2.875   2.609  11.919 -0.1603 -0.2057 -0.0072
  192MPD1    H5 2982   2.975   2.607  11.905  0.1329  1.3209  1.9370
  192MPD1    N1 2983   2.451   2.769  11.734  0.1050 -0.4591  0.2771
  192MPD1    H6 2984   2.400   2.703  11.793 -0.9448  0.0579 -0.0408
  192MPD1    H7 2985   2.399   2.769  11.646  0.1843 -0.2195  0.2308
  193MPD1     C 2986   2.112   2.120  16.505  0.2130  0.0765  0.2435
  193MPD1    C1 2987   2.220   2.045  16.463 -0.0893 -0.1128  0.9628
  193MPD1    C2 2988   2.349   2.103  16.461  0.4359  0.6097  0.2733
  193MPD1    C3 2989   2.364   2.245  16.477  0.2453 -0.1123  0.3386
  193MPD1    C4 2990   2.249   2.321  16.502 -0.3375 -0.0263  0.0783
  193MPD1    C5 2991   2.127   2.254  16.522  0.0461 -0.1783 -0.7444
  193MPD1     H 2992   2.433   2.037  16.442  0.3425  0.3871  0.6494
  193MPD1    H1 2993   2.255   2.429  16.505 -0.6913  0.0068 -0.3354
  193MPD1    H2 2994   2.016   2.074  16.522 -0.2453  0.8985 -0.1367
  193MPD1    H3 2995   2.044   2.313  16.558 -0.9230 -2.1376  0.2673
  193MPD1     N 2996   2.486   2.313  16.490 -0.4995  0.3697  0.3426
  193MPD1    H5 2997   2.480   2.395  16.549 -1.1722  1.0588 -0.6735
  193MPD1    N1 2998   2.221   1.907  16.473 -0.0715  0.3360  0.1922
  193MPD1    H6 2999   2.284   1.862  16.408 -0.3789 -0.4000  0.4033
  193MPD1    H7 3000   2.127   1.874  16.451 -0.2118  0.3532  0.7679
  194MPD1     C 3001   0.123   4.177  17.696  0.4056 -0.5042 -0.2739
  194MPD1    C1 3002   0.135   4.164  17.559 -0.2997  0.4893  0.1240
  194MPD1    C2 3003   0.214   4.061  17.510  0.0617  0.3331 -0.5883
  194MPD1    C3 3004   0.269   3.969  17.596 -0.5384  0.1625 -0.3003
  194MPD1    C4 3005   0.241   3.980  17.729  0.0183  0.2987 -0.0832
  194MPD1    C5 3006   0.169   4.085   0.043  0.6147 -0.7211 -0.5254
  194MPD1     H 3007   0.245   4.061  17.407  2.6638  0.6282  0.1931
  194MPD1    H1 3008   0.268   3.899   0.052  0.4355 -1.0675 -1.9289
  194MPD1    H2 3009   0.067   4.265  17.728  1.4576  0.1547 -0.2650
  194MPD1    H3 3010   0.160   4.095   0.151  0.3672 -2.3324 -0.4080
  194MPD1     N 3011   0.355   3.862  17.563 -0.3049  0.0214  0.3634
  194MPD1    H5 3012   0.399   3.810  17.638  0.9684  2.5038  1.3495
  194MPD1    N1 3013   0.096   4.265  17.472 -0.3163 -0.3604 -0.5705
  194MPD1    H6 3014   0.022   4.327  17.506 -0.5878  0.2523 -2.2861
  194MPD1    H7 3015   0.072   4.235  17.377 -1.5612 -0.3852 -0.2586
  195MPD1     C 3016   2.996   1.598   0.068 -0.0904  0.6873  0.4904
  195MPD1    C1 3017   2.928   1.579  17.703  0.8174 -0.3199 -0.0435
  195MPD1    C2 3018   2.856   1.458  17.691  0.0122 -0.2413  0.7689
  195MPD1    C3 3019   2.850   1.357   0.041 -0.4805 -0.3411 -0.8401
  195MPD1    C4 3020   2.917   1.382   0.155 -0.9599 -0.3135  0.1037
  195MPD1    C5 3021   2.982   1.505   0.164 -0.0644 -0.2781  0.6875
  195MPD1     H 3022   2.797   1.442  17.601  1.0117 -1.6698  0.3627
  195MPD1    H1 3023   2.909   1.323   0.246 -0.0730 -0.0440  0.3582
  195MPD1    H2 3024   3.060   1.684   0.086  0.7211  0.4557 -1.3572
  195MPD1    H3 3025   3.042   1.526   0.252 -0.0430  0.0180  0.6007
  195MPD1     N 3026   2.765   1.239   0.032 -0.7900  0.1202  0.3370
  195MPD1    H5 3027   2.770   1.171   0.106 -1.4966  2.2693  2.3423
  195MPD1    N1 3028   2.908   1.692  17.617 -0.0909 -0.1182  0.4270
  195MPD1    H6 3029   2.982   1.762  17.618  0.7285 -0.9885  0.6277
  195MPD1    H7 3030   2.896   1.668  17.519  2.2249 -1.5208  0.4887
  196MPD1     C 3031   0.874   0.617  17.491 -0.9597 -0.1274 -0.2459
  196MPD1    C1 3032   0.897   0.736  17.552  0.2084  0.3222 -0.0418
  196MPD1    C2 3033   1.023   0.759  17.600  0.5408  0.0307 -0.1189
  196MPD1    C3 3034   1.119   0.660  17.614  0.2084  0.1947 -0.1682
  196MPD1    C4 3035   1.088   0.535  17.558  0.1902  0.1665 -1.0072
  196MPD1    C5 3036   0.974   0.518  17.491 -0.9292  0.0539 -0.6385
  196MPD1     H 3037   1.032   0.852  17.654  2.3365  0.6954 -1.5800
  196MPD1    H1 3038   1.154   0.449  17.558  1.3301  1.0391 -1.3076
  196MPD1    H2 3039   0.788   0.604  17.426 -0.5277  1.5615 -1.1578
  196MPD1    H3 3040   0.968   0.418  17.449  0.7415  0.3772 -1.6560
  196MPD1     N 3041   1.231   0.672  17.698 -0.7805 -0.0618  0.5183
  196MPD1    H5 3042   1.286   0.588  17.711  1.6837  1.4568 -0.1245
  196MPD1    N1 3043   0.808   0.850  17.539  0.2258  0.1818  0.3217
  196MPD1    H6 3044   0.823   0.903  17.625 -1.9818  0.5426  0.4781
  196MPD1    H7 3045   0.711   0.824  17.524  0.8116 -1.1162 -1.1348
  197MPD1     C 3046   1.424   2.116  17.545  0.3629  0.3237  1.1917
  197MPD1    C1 3047   1.405   2.079  17.412  0.8405  0.4271  0.2955
  197MPD1    C2 3048   1.410   2.179  17.314 -1.3756  0.1036 -0.4268
  197MPD1    C3 3049   1.404   2.312  17.346  0.1528  1.3701 -0.6880
  197MPD1    C4 3050   1.411   2.347  17.483  0.6320  0.3920  0.0177
  197MPD1    C5 3051   1.431   2.250  17.581  0.1750  0.5161  1.1978
  197MPD1     H 3052   1.420   2.149  17.210 -3.3057  0.6617 -0.7691
  197MPD1    H1 3053   1.406   2.452  17.509 -2.6966  0.1231  0.4764
  197MPD1    H2 3054   1.434   2.041  17.623  0.1267 -1.1057 -0.1571
  197MPD1    H3 3055   1.449   2.270  17.687  0.4907  2.0834  0.8540
  197MPD1     N 3056   1.415   2.410  17.249  0.2775  0.0624  0.6002
  197MPD1    H5 3057   1.432   2.508  17.271  1.2721  0.7075 -3.2089
  197MPD1    N1 3058   1.422   1.947  17.373 -0.4400  0.4556  0.4001
  197MPD1    H6 3059   1.371   1.928  17.286  1.1257 -2.4107  0.0841
  197MPD1    H7 3060   1.395   1.879  17.444  0.5862  0.2862  0.6192
  198MPD1     C 3061   3.134   2.065  15.367 -0.0169 -0.6599  1.0558
  198MPD1    C1 3062   3.108   1.933  15.334  0.5918  0.0376  0.1974
  198MPD1    C2 3063   3.142   1.835  15.422 -0.1008  0.0188  0.2725
  198MPD1    C3 3064   3.244   1.852  15.510 -0.0150  0.4707  0.1247
  198MPD1    C4 3065   3.302   1.981  15.528  0.6872  0.1992  0.1885
  198MPD1    C5 3066   3.240   2.088  15.455 -0.0123  0.0308  0.1160
  198MPD1     H 3067   3.095   1.739  15.408  0.5052 -0.0113 -1.6116
  198MPD1    H1 3068   3.393   2.003  15.584  0.0468 -1.1155  1.7670
  198MPD1    H2 3069   3.085   2.143  15.309  0.0348 -0.3661  1.4009
  198MPD1    H3 3070   3.285   2.186  15.462 -0.0273 -0.0035  0.7073
  198MPD1     N 3071   3.281   1.752  15.601 -0.3308  0.4781 -0.6876
  198MPD1    H5 3072   3.344   1.785  15.673 -1.2818 -2.4210  1.4675
  198MPD1    N1 3073   3.001   1.905  15.244  0.3993 -0.1893  0.1910
  198MPD1    H6 3074   2.996   1.810  15.206 -0.6649 -0.9494  2.2437
  198MPD1    H7 3075   2.997   1.979  15.174 -2.9006 -0.1671  0.4275
  199MPD1     C 3076   0.499   2.453   9.670  0.4179  0.1021 -1.1046
  199MPD1    C1 3077   0.424   2.357   9.732 -0.3609 -0.4318  0.3625
  199MPD1    C2 3078   0.291   2.389   9.756  0.1649  0.7055  0.3497
  199MPD1    C3 3079   0.235   2.505   9.711 -0.1709  0.3454 -1.3483
  199MPD1    C4 3080   0.316   2.598   9.646 -0.4788 -0.4284  0.4462
  199MPD1    C5 3081   0.448   2.573   9.637  0.2403 -0.0669 -0.0860
  199MPD1     H 3082   0.232   2.326   9.822  1.3068  1.4389  2.0749
  199MPD1    H1 3083   0.271   2.688   9.605  0.1507 -0.8876 -1.2807
  199MPD1    H2 3084   0.603   2.425   9.655  0.1553 -0.8726 -1.1331
  199MPD1    H3 3085   0.505   2.653   9.592  2.1624 -1.5109 -0.2159
  199MPD1     N 3086   0.104   2.549   9.743 -0.5574 -0.1233  0.0178
  199MPD1    H5 3087   0.066   2.637   9.709 -0.3088  0.2980  0.8453
  199MPD1    N1 3088   0.485   2.244   9.790  0.1063 -0.5990 -0.0882
  199MPD1    H6 3089   0.411   2.175   9.795  0.2281 -0.7531 -0.4130
  199MPD1    H7 3090   0.563   2.208   9.735  0.1015 -0.0321 -0.4715
  200MPD1     C 3091   3.936   2.154  13.978  0.2203  0.3320 -0.5824
  200MPD1    C1 3092   3.949   2.189  14.112  0.1505 -0.3288  0.1064
  200MPD1    C2 3093   4.027   2.109  14.194 -0.0859 -0.3139  0.0392
  200MPD1    C3 3094   4.100   1.997  14.143  0.0260 -0.1916  0.7221
  200MPD1    C4 3095   4.089   1.973  14.010 -0.5970  0.5502  0.0085
  200MPD1    C5 3096   4.003   2.048  13.928  0.1552 -0.1802 -0.6179
  200MPD1     H 3097   4.031   2.134  14.299 -1.6040 -2.4963  0.6162
  200MPD1    H1 3098   4.141   1.890  13.963 -1.9288  0.7684 -1.8933
  200MPD1    H2 3099   3.864   2.202  13.913  0.4291 -0.5486 -1.4573
  200MPD1    H3 3100   3.996   2.013  13.826  0.6682  1.0676 -1.0841
  200MPD1     N 3101   4.192   1.925  14.219  0.0068  0.4492 -0.0682
  200MPD1    H5 3102   4.253   1.867  14.163 -1.2342 -1.7010  0.8036
  200MPD1    N1 3103   3.862   2.291  14.160 -0.3331  0.1933  0.1358
  200MPD1    H6 3104   3.908   2.332  14.241 -0.4051  1.1588 -0.3079
  200MPD1    H7 3105   3.844   2.362  14.089  0.2107 -1.1157 -1.2927
  201MPD1     C 3106   3.015   0.396  12.082  0.2589  0.3965 -0.1431
  201MPD1    C1 3107   3.085   0.289  12.117 -0.0162  0.5491  0.2392
  201MPD1    C2 3108   3.093   0.257  12.251 -1.0663  0.0379  0.3934
  201MPD1    C3 3109   3.046   0.341  12.344  0.8810  0.0068  0.2793
  201MPD1    C4 3110   3.003   0.468  12.302 -0.3060  0.6479 -0.2352
  201MPD1    C5 3111   2.984   0.494  12.168  0.4278 -0.2692  0.3222
  201MPD1     H 3112   3.138   0.166  12.290  0.9008 -0.2462 -2.4918
  201MPD1    H1 3113   2.987   0.547  12.374  0.0566  1.1275 -0.6822
  201MPD1    H2 3114   2.981   0.417  11.981  0.6334 -2.9507 -0.9714
  201MPD1    H3 3115   2.946   0.591  12.138 -0.2634 -0.7720 -0.4144
  201MPD1     N 3116   3.044   0.290  12.475  0.7107 -0.5590 -0.1831
  201MPD1    H5 3117   3.075   0.195  12.495  0.9418 -0.3684  0.3688
  201MPD1    N1 3118   3.121   0.201  12.016 -0.9851 -0.3579 -0.4079
  201MPD1    H6 3119   3.196   0.142  12.049 -0.2957 -0.4356 -2.0767
  201MPD1    H7 3120   3.157   0.251  11.934  3.2313  1.5597  2.6415
  202MPD1     C 3121   1.255   0.007   8.979  0.4870  0.0181 -1.1867
  202MPD1    C1 3122   1.337   4.675   9.062 -0.3889  0.0177 -0.4782
  202MPD1    C2 3123   1.434   0.011   9.127  0.4636 -0.0235 -0.2141
  202MPD1    C3 3124   1.466   0.141   9.082 -0.1326  0.0589  0.3979
  202MPD1    C4 3125   1.386   0.196   8.985 -0.2176 -0.4729 -0.2408
  202MPD1    C5 3126   1.284   0.129   8.930  0.4777 -0.0006  0.0232
  202MPD1     H 3127   1.484   4.704   9.213 -0.7399 -0.1422  0.4182
  202MPD1    H1 3128   1.392   0.300   8.955 -0.1635 -0.2954  0.3779
  202MPD1    H2 3129   1.182   4.691   8.918 -1.6745 -1.6548  2.7755
  202MPD1    H3 3130   1.227   0.189   8.860 -0.4231  2.1186  2.5688
  202MPD1     N 3131   1.567   0.219   9.143 -0.0007 -0.0374 -0.3002
  202MPD1    H5 3132   1.551   0.319   9.131 -2.0475 -0.4400 -0.9333
  202MPD1    N1 3133   1.286   4.570   9.139 -1.1141  0.4263  0.0900
  202MPD1    H6 3134   1.214   4.520   9.089 -0.0059  0.0815 -1.1453
  202MPD1    H7 3135   1.354   4.507   9.182 -0.7529  1.1338  0.5672
  203MPD1     C 3136   0.648   1.734  12.354  0.2341  0.1754 -0.1743
  203MPD1    C1 3137   0.686   1.642  12.255 -0.0496  0.2934 -0.4018
  203MPD1    C2 3138   0.759   1.535  12.304 -0.1248  0.0589  0.2799
  203MPD1    C3 3139   0.801   1.525  12.433 -0.2982  0.3775 -0.1407
  203MPD1    C4 3140   0.768   1.621  12.525 -0.0062  0.0126 -0.2470
  203MPD1    C5 3141   0.690   1.720  12.487  0.1937 -0.1134  1.0551
  203MPD1     H 3142   0.795   1.464  12.231 -2.0733 -0.1445 -0.4865
  203MPD1    H1 3143   0.803   1.614  12.628  0.1216 -0.8606 -0.3550
  203MPD1    H2 3144   0.584   1.821  12.339  2.1493  1.5258 -0.4578
  203MPD1    H3 3145   0.659   1.795  12.560  0.7746  1.4987 -0.3513
  203MPD1     N 3146   0.886   1.414  12.470  0.8445  0.4082 -0.3545
  203MPD1    H5 3147   0.886   1.331  12.411  0.0301 -0.5673  1.0236
  203MPD1    N1 3148   0.628   1.650  12.127 -0.3599 -0.1188 -0.4503
  203MPD1    H6 3149   0.607   1.746  12.099 -0.9885 -0.8093 -2.3820
  203MPD1    H7 3150   0.690   1.604  12.060 -1.6783 -0.8039 -1.1959
  204MPD1     C 3151   4.699   2.015  17.330 -0.3822  0.7767  0.0726
  204MPD1    C1 3152   0.015   1.891  17.295  0.0807 -0.2914 -0.7350
  204MPD1    C2 3153   0.024   1.870  17.162  0.2120  0.2063  0.3527
  204MPD1    C3 3154   4.714   1.957  17.060  0.1273  0.3052  0.1260
  204MPD1    C4 3155   4.652   2.073  17.099  0.0458  0.0325  0.7829
  204MPD1    C5 3156   4.652   2.102  17.230 -0.4475  0.2899 -0.4844
  204MPD1     H 3157   0.062   1.777  17.123 -0.7587 -0.4075  0.8700
  204MPD1    H1 3158   4.619   2.150  17.032 -0.5553 -1.4410 -0.6179
  204MPD1    H2 3159   4.707   2.050  17.432  1.7900 -2.7780  1.0947
  204MPD1    H3 3160   4.598   2.189  17.264 -0.9353 -0.0676 -0.3454
  204MPD1     N 3161   4.725   1.914  16.928  0.1310 -0.5661 -0.5181
  204MPD1    H5 3162   0.019   1.821  16.902  0.3689 -0.0126 -2.2000
  204MPD1    N1 3163   0.066   1.798  17.389 -0.5395  0.1472  0.2217
  204MPD1    H6 3164   0.050   1.700  17.368 -1.1070  0.3168 -0.1251
  204MPD1    H7 3165   0.027   1.818  17.481 -1.0127 -1.2336  0.3124
  205MPD1     C 3166   0.336   0.132  16.308 -0.5638  0.3419 -0.5523
  205MPD1    C1 3167   0.230   0.214  16.331  0.2607 -0.3104 -0.2749
  205MPD1    C2 3168   0.257   0.342  16.383  0.6946  0.9439  0.2653
  205MPD1    C3 3169   0.389   0.383  16.409 -0.3818  0.0468  0.1324
  205MPD1    C4 3170   0.496   0.303  16.371  0.5978  1.3496 -0.3298
  205MPD1    C5 3171   0.467   0.181  16.321  0.1982  0.3248  0.3422
  205MPD1     H 3172   0.174   0.406  16.408  0.2354  0.0998  0.8903
  205MPD1    H1 3173   0.598   0.337  16.385  1.0852 -0.9724  1.7153
  205MPD1    H2 3174   0.319   0.028  16.282 -1.2234  0.3412 -0.1127
  205MPD1    H3 3175   0.542   0.110  16.290  0.7824  0.7990  0.6832
  205MPD1     N 3176   0.424   0.506  16.462 -0.3703 -0.0302  0.2045
  205MPD1    H5 3177   0.523   0.525  16.472 -0.4128 -0.4565  1.4672
  205MPD1    N1 3178   0.103   0.168  16.329 -0.6740 -0.1046 -0.5560
  205MPD1    H6 3179   0.037   0.245  16.320 -1.3588 -0.9915 -3.0928
  205MPD1    H7 3180   0.085   0.092  16.264 -0.6109 -0.9731  0.4361
  206MPD1     C 3181   0.752   3.886  17.082 -0.5738 -0.2780 -0.1653
  206MPD1    C1 3182   0.815   3.812  16.980  0.1004  0.7831 -0.0761
  206MPD1    C2 3183   0.760   3.814  16.851 -1.2560 -0.3721  0.5519
  206MPD1    C3 3184   0.642   3.894  16.832  0.7588 -0.5130  0.2825
  206MPD1    C4 3185   0.572   3.948  16.941 -0.6405 -1.1595  0.2481
  206MPD1    C5 3186   0.636   3.955  17.062  0.3735  0.2559  0.4321
  206MPD1     H 3187   0.807   3.758  16.771 -0.5892  2.3647 -0.9610
  206MPD1    H1 3188   0.481   4.007  16.936  0.7743  0.9536 -0.7116
  206MPD1    H2 3189   0.793   3.879  17.182 -0.0664  1.5172 -0.2534
  206MPD1    H3 3190   0.598   4.026  17.135 -1.5284  0.5512 -0.8665
  206MPD1     N 3191   0.587   3.910  16.709  1.2827  0.8008 -0.2927
  206MPD1    H5 3192   0.494   3.950  16.710  1.1833  0.5803 -0.7996
  206MPD1    N1 3193   0.931   3.748  17.010 -0.1413  0.1138  0.0675
  206MPD1    H6 3194   0.943   3.659  16.962  0.5460  0.8239 -1.0703
  206MPD1    H7 3195   0.930   3.713  17.106  0.6547 -0.0232  0.0217
  207MPD1     C 3196   3.357   3.477  10.782 -0.0232  1.0070  0.6272
  207MPD1    C1 3197   3.326   3.404  10.897 -0.0691 -0.5336  0.5640
  207MPD1    C2 3198   3.297   3.267  10.881  0.0954 -0.1035  0.3679
  207MPD1    C3 3199   3.326   3.203  10.760 -0.1689  0.1986  0.2142
  207MPD1    C4 3200   3.358   3.274  10.645 -0.1258  0.6616 -0.5913
  207MPD1    C5 3201   3.365   3.415  10.659 -0.4241  0.1679  0.4314
  207MPD1     H 3202   3.250   3.215  10.964  0.5598 -2.3834 -0.8070
  207MPD1    H1 3203   3.369   3.221  10.551  0.6383  1.0683 -0.7303
  207MPD1    H2 3204   3.372   3.584  10.788 -0.0644  1.0875 -0.7251
  207MPD1    H3 3205   3.385   3.467  10.566 -0.6652  2.4668  1.6908
  207MPD1     N 3206   3.320   3.068  10.733 -0.1274  0.4474 -0.6840
  207MPD1    H5 3207   3.345   3.036  10.639  0.1593  1.0906 -0.8240
  207MPD1    N1 3208   3.285   3.468  11.010  0.8037  0.0713 -0.8951
  207MPD1    H6 3209   3.305   3.404  11.087  1.1927  1.1826 -0.0665
  207MPD1    H7 3210   3.339   3.553  11.019 -0.8673  0.9020  1.2860
  208MPD1     C 3211   0.893   4.705  16.278 -0.0513 -0.0393  0.2766
  208MPD1    C1 3212   1.027   4.711  16.262  0.2057  0.0183 -0.2266
  208MPD1    C2 3213   1.108   4.719  16.375  0.1272  0.0527 -0.3112
  208MPD1    C3 3214   1.059   4.703  16.503 -0.2990 -0.1984  0.2940
  208MPD1    C4 3215   0.924   4.680  16.519 -0.1122  0.0042 -0.2102
  208MPD1    C5 3216   0.846   4.687  16.406 -0.2920 -1.6858  0.2965
  208MPD1     H 3217   1.212   0.008  16.358 -0.2535 -0.0591 -2.7442
  208MPD1    H1 3218   0.873   4.696  16.613  1.3585  1.5580  0.3135
  208MPD1    H2 3219   0.827   4.716  16.193 -0.4595  3.2570  0.9919
  208MPD1    H3 3220   0.739   4.682  16.424 -0.5074  4.0573  0.5838
  208MPD1     N 3221   1.137   0.012  16.611 -0.3552  0.2211  0.2982
  208MPD1    H5 3222   1.230   0.048  16.591  0.4361 -2.4288 -0.8127
  208MPD1    N1 3223   1.089   4.717  16.139  0.2665 -0.8508 -0.3391
  208MPD1    H6 3224   1.179   4.675  16.163  0.3385 -1.0558 -0.9696
  208MPD1    H7 3225   1.046   4.651  16.074 -1.0665  0.2873 -0.6039
  209MPD1     C 3226   2.999   1.410  11.578  0.1398  0.0281 -0.1791
  209MPD1    C1 3227   2.974   1.546  11.571 -0.0641 -0.1174 -0.1907
  209MPD1    C2 3228   3.066   1.623  11.503  0.1071 -0.2909  0.4451
  209MPD1    C3 3229   3.189   1.569  11.469  0.4432 -0.0132  0.7328
  209MPD1    C4 3230   3.221   1.440  11.489 -0.4247  0.2119 -0.4206
  209MPD1    C5 3231   3.119   1.359  11.536 -0.1405  0.0382 -0.9154
  209MPD1     H 3232   3.050   1.730  11.489  0.5080 -0.4183 -0.9884
  209MPD1    H1 3233   3.310   1.396  11.446  0.9918  0.9289  1.7866
  209MPD1    H2 3234   2.938   1.334  11.626  1.5066 -0.8184  0.2476
  209MPD1    H3 3235   3.138   1.253  11.540  0.3280  0.2813  3.7344
  209MPD1     N 3236   3.289   1.664  11.420  0.5006 -0.2803  0.1180
  209MPD1    H5 3237   3.261   1.760  11.403 -1.4726 -0.6911  1.0412
  209MPD1    N1 3238   2.856   1.594  11.626  0.6694 -0.0003  0.5926
  209MPD1    H6 3239   2.888   1.663  11.693 -0.1554 -0.5284  1.5357
  209MPD1    H7 3240   2.813   1.526  11.688  0.1652 -0.0661  0.1700
  210MPD1     C 3241   4.106   1.688  10.683 -0.0850  0.6631  0.1040
  210MPD1    C1 3242   4.060   1.586  10.764  0.3286 -0.3873 -1.1115
  210MPD1    C2 3243   3.952   1.619  10.855  0.1748 -0.9956 -0.2580
  210MPD1    C3 3244   3.906   1.747  10.877 -0.1516 -0.5708 -0.3000
  210MPD1    C4 3245   3.960   1.843  10.796 -0.2350 -0.3954 -0.4034
  210MPD1    C5 3246   4.058   1.819  10.699 -0.2587  0.0605 -0.3859
  210MPD1     H 3247   3.916   1.539  10.919  0.2009 -2.0766 -1.5957
  210MPD1    H1 3248   3.923   1.945  10.809  0.0285 -0.4087  0.4502
  210MPD1    H2 3249   4.176   1.669  10.602  0.3065  1.7232  0.2002
  210MPD1    H3 3250   4.101   1.897  10.637 -0.1717 -0.0521 -0.4669
  210MPD1     N 3251   3.791   1.777  10.956  0.1750  0.0100 -0.6758
  210MPD1    H5 3252   3.756   1.872  10.948 -0.5309 -0.3198 -1.5873
  210MPD1    N1 3253   4.100   1.456  10.744  0.1070 -0.1202  0.6597
  210MPD1    H6 3254   4.197   1.456  10.715 -0.0991  0.9951 -0.0096
  210MPD1    H7 3255   4.094   1.394  10.825  0.2862 -2.7611 -1.3252
  211MPD1     C 3256   1.158   1.049  16.319  0.8530  0.1478  0.1698
  211MPD1    C1 3257   1.133   1.150  16.229  0.2127 -0.1534 -0.9759
  211MPD1    C2 3258   1.001   1.179  16.196 -0.2094  0.3722 -0.1610
  211MPD1    C3 3259   0.893   1.101  16.241  0.1418  0.1376  0.1008
  211MPD1    C4 3260   0.926   0.988  16.318  0.3051 -0.0694  0.9600
  211MPD1    C5 3261   1.057   0.971  16.357  0.4651 -0.5118  0.1892
  211MPD1     H 3262   0.984   1.249  16.115 -2.3339  0.7910  0.6359
  211MPD1    H1 3263   0.851   0.918  16.355  0.0297  0.0469  0.6129
  211MPD1    H2 3264   1.259   1.023  16.348  1.1795  1.3436  0.1032
  211MPD1    H3 3265   1.066   0.892  16.430  3.7683 -0.2015  0.1495
  211MPD1     N 3266   0.763   1.134  16.203  0.1567  0.4589  0.3012
  211MPD1    H5 3267   0.749   1.228  16.166 -1.2041  0.2977  0.4249
  211MPD1    N1 3268   1.234   1.243  16.213 -0.3112 -0.2286  0.4534
  211MPD1    H6 3269   1.222   1.299  16.128  1.6517 -1.1524 -0.4149
  211MPD1    H7 3270   1.329   1.219  16.239  0.9065  3.1316 -0.9255
  212MPD1     C 3271   4.687   4.354  16.705 -0.0674  0.4787  0.7775
  212MPD1    C1 3272   4.563   4.395  16.746  0.5369  0.3611  0.9253
  212MPD1    C2 3273   4.481   4.312  16.827 -0.1408 -0.1239 -0.0714
  212MPD1    C3 3274   4.511   4.177  16.836 -0.4804  0.1878  0.3475
  212MPD1    C4 3275   4.635   4.130  16.780  0.4733 -0.5852 -0.2329
  212MPD1    C5 3276   4.721   4.225  16.718  0.1220  0.3974  0.1019
  212MPD1     H 3277   4.399   4.353  16.885 -0.2385 -3.1219  1.8887
  212MPD1    H1 3278   4.667   4.027  16.781  0.2457 -0.6370  1.3879
  212MPD1    H2 3279   0.027   4.424  16.672  1.2545 -1.2645  0.1007
  212MPD1    H3 3280   0.085   4.196  16.686 -0.7760 -0.4974 -1.9491
  212MPD1     N 3281   4.435   4.081  16.905 -0.1715 -0.1870  0.1377
  212MPD1    H5 3282   4.475   3.988  16.901 -1.2470 -0.7222  1.6147
  212MPD1    N1 3283   4.533   4.536  16.748  0.3087 -0.7297 -0.7482
  212MPD1    H6 3284   4.434   4.556  16.764  0.7917  0.5244  0.6549
  212MPD1    H7 3285   4.566   4.579  16.662 -0.5238  0.9173 -0.2546
  213MPD1     C 3286   3.382   0.088  15.783  0.6351  0.3469 -0.1589
  213MPD1    C1 3287   3.263   0.085  15.856 -0.6535  0.0022  0.1420
  213MPD1    C2 3288   3.153   0.136  15.786  0.5644 -0.9736 -0.1638
  213MPD1    C3 3289   3.159   0.199  15.662  0.6336  0.3680 -0.5078
  213MPD1    C4 3290   3.277   0.212  15.600 -0.3279 -0.7892  0.3796
  213MPD1    C5 3291   3.387   0.157  15.664 -0.3451  0.3686  0.0921
  213MPD1     H 3292   3.054   0.134  15.829  1.9321 -0.1478  3.0777
  213MPD1    H1 3293   3.299   0.256  15.504 -1.3676  1.0268  0.9852
  213MPD1    H2 3294   3.474   0.041  15.818 -1.2315 -2.6694  0.6902
  213MPD1    H3 3295   3.480   0.160  15.609 -2.1730 -1.0949 -3.0703
  213MPD1     N 3296   3.039   0.264  15.618 -0.0198 -0.8223  0.3068
  213MPD1    H5 3297   2.952   0.243  15.665  0.5618  1.0101  2.2232
  213MPD1    N1 3298   3.240   0.000  15.968  0.3529  0.2504 -0.2916
  213MPD1    H6 3299   3.319   4.729  16.032 -0.4054 -2.9235  0.2570
  213MPD1    H7 3300   3.154   0.009  16.021 -0.7387 -0.4285 -1.9258
  214MPD1     C 3301   2.138   0.028  15.331  0.2785 -0.0504  0.3527
  214MPD1    C1 3302   2.159   0.137  15.256  0.3039 -0.0128 -0.3285
  214MPD1    C2 3303   2.266   0.217  15.287  0.3388 -0.4920 -0.2437
  214MPD1    C3 3304   2.349   0.187  15.397  0.6705 -0.0885  0.3627
  214MPD1    C4 3305   2.306   0.087  15.477 -0.0408  0.4526 -0.1118
  214MPD1    C5 3306   2.212   4.734  15.439  0.2409 -0.1736 -0.1546
  214MPD1     H 3307   2.292   0.290  15.211 -2.0000  0.0797 -0.4841
  214MPD1    H1 3308   2.352   0.073  15.574  3.4940  0.4044 -1.7852
  214MPD1    H2 3309   2.059   4.692  15.313  2.2158 -1.7063 -1.5014
  214MPD1    H3 3310   2.184   4.645  15.494  0.5291 -0.3097 -0.2253
  214MPD1     N 3311   2.461   0.274  15.412  0.3537  0.9693 -0.3862
  214MPD1    H5 3312   2.466   0.343  15.337  2.9719 -0.1975 -1.2893
  214MPD1    N1 3313   2.093   0.145  15.130  0.0692  0.5672 -0.4148
  214MPD1    H6 3314   2.084   0.239  15.092  2.0746  1.6412  1.7855
  214MPD1    H7 3315   2.001   0.101  15.138  0.3575  0.1405  0.6014
  215MPD1     C 3316   2.931   2.820  10.778  0.5037 -0.9004  0.0532
  215MPD1    C1 3317   2.907   2.697  10.719  0.2336  0.0880 -0.5007
  215MPD1    C2 3318   2.880   2.585  10.800  0.5468 -0.6542 -0.3343
  215MPD1    C3 3319   2.886   2.589  10.938  0.7984  0.2053 -0.2621
  215MPD1    C4 3320   2.913   2.712  10.994  0.1322  0.0015  0.1440
  215MPD1    C5 3321   2.943   2.817  10.917  0.1138  0.5909  0.0348
  215MPD1     H 3322   2.854   2.490  10.755  2.8447  0.7423 -4.5800
  215MPD1    H1 3323   2.918   2.724  11.102  1.5730  1.3234 -0.0615
  215MPD1    H2 3324   2.945   2.914  10.727 -1.8966 -0.2275  0.6588
  215MPD1    H3 3325   2.960   2.908  10.972  0.5782  0.3539  0.2881
  215MPD1     N 3326   2.867   2.466  11.006  0.0074 -0.0471 -0.3565
  215MPD1    H5 3327   2.849   2.383  10.951 -0.9012  1.4661 -2.3414
  215MPD1    N1 3328   2.881   2.687  10.584 -0.3283 -0.1225  0.8917
  215MPD1    H6 3329   2.934   2.753  10.526 -2.0313  1.5219  1.1947
  215MPD1    H7 3330   2.884   2.592  10.549 -0.4019  0.1120  0.2451
  216MPD1     C 3331   4.724   3.844   0.361  0.7008 -0.4610 -0.0895
  216MPD1    C1 3332   4.605   3.775   0.321 -0.3963  0.0659  0.5859
  216MPD1    C2 3333   4.617   3.656   0.258 -0.4416 -0.8094 -0.0925
  216MPD1    C3 3334   0.008   3.607   0.222 -0.7563  0.6156  0.3833
  216MPD1    C4 3335   0.124   3.671   0.262 -0.1014  0.4775 -0.9646
  216MPD1    C5 3336   0.116   3.796   0.329  0.6525  0.2191 -0.1288
  216MPD1     H 3337   4.528   3.599   0.233 -0.9517 -2.0845  4.5319
  216MPD1    H1 3338   0.220   3.630   0.232  0.6379  0.3095  1.6154
  216MPD1    H2 3339   4.726   3.941   0.411 -1.1558 -0.0554 -0.8154
  216MPD1    H3 3340   0.199   3.855   0.366  0.0979  0.5066  0.6668
  216MPD1     N 3341   0.012   3.483   0.154  0.1828 -0.0480  0.7368
  216MPD1    H5 3342   4.662   3.430   0.144 -0.5835  1.2242  0.6519
  216MPD1    N1 3343   4.476   3.809   0.373 -0.4435  0.3200 -0.1045
  216MPD1    H6 3344   4.474   3.904   0.407  0.6713 -0.7331  2.8980
  216MPD1    H7 3345   4.395   3.794   0.313 -1.0175  1.5242  0.3856
  217MPD1     C 3346   4.392   0.005   8.675  0.1327  0.4438  0.0389
  217MPD1    C1 3347   4.520   4.688   8.666 -0.1519 -0.4864 -0.3106
  217MPD1    C2 3348   4.626   4.730   8.753  0.0723 -0.1512 -0.3406
  217MPD1    C3 3349   4.604   0.101   8.843 -0.2826 -0.0814  0.2700
  217MPD1    C4 3350   4.475   0.155   8.843 -0.7433 -0.6380 -0.7026
  217MPD1    C5 3351   4.371   0.108   8.765  0.1596  0.0779  0.4742
  217MPD1     H 3352   4.721   4.678   8.738 -0.9581 -2.2695  0.5845
  217MPD1    H1 3353   4.455   0.222   8.926  0.8695 -0.3501 -0.5284
  217MPD1    H2 3354   4.302   4.706   8.626 -0.0222  1.7926 -0.6634
  217MPD1    H3 3355   4.280   0.166   8.776 -1.6751 -2.5262 -0.9872
  217MPD1     N 3356   4.701   0.142   8.936 -0.0607 -0.3181  0.0179
  217MPD1    H5 3357   4.676   0.224   8.991 -1.5407 -0.2504 -0.7569
  217MPD1    N1 3358   4.538   4.575   8.587 -0.1748  0.2987 -0.7154
  217MPD1    H6 3359   4.635   4.566   8.559  0.1389 -0.0098  0.4654
  217MPD1    H7 3360   4.481   4.584   8.504  1.3933  0.5075 -1.7613
  218MPD1     C 3361   2.248   1.259  12.930 -1.2550 -0.1973  0.6095
  218MPD1    C1 3362   2.337   1.167  12.883 -0.3444 -0.5647 -0.5907
  218MPD1    C2 3363   2.464   1.210  12.841 -0.2025  0.2010 -0.2151
  218MPD1    C3 3364   2.496   1.340  12.844  0.4105 -0.1999  0.4227
  218MPD1    C4 3365   2.406   1.428  12.893 -0.9314 -0.5676  0.0963
  218MPD1    C5 3366   2.284   1.387  12.935  0.7546 -0.4262  0.4382
  218MPD1     H 3367   2.536   1.138  12.804 -1.8186  0.1307 -3.2224
  218MPD1    H1 3368   2.425   1.534  12.903  0.5943 -0.7493 -0.9595
  218MPD1    H2 3369   2.150   1.230  12.964 -1.8151  0.2033 -0.6523
  218MPD1    H3 3370   2.211   1.462  12.963 -0.8418 -2.3206  1.3354
  218MPD1     N 3371   2.625   1.371  12.789 -0.1900 -0.2538 -0.2906
  218MPD1    H5 3372   2.670   1.293  12.742  1.9303  0.7791 -0.0016
  218MPD1    N1 3373   2.305   1.030  12.860  0.3670  0.1995 -0.2748
  218MPD1    H6 3374   2.216   1.003  12.902 -0.2726  2.1088 -0.4001
  218MPD1    H7 3375   2.376   0.965  12.891  0.6228  0.2534 -0.7471
  219MPD1     C 3376   2.757   2.077  12.107  0.5272  0.0336 -0.0303
  219MPD1    C1 3377   2.879   2.012  12.109  0.0512 -0.2019  0.5266
  219MPD1    C2 3378   2.912   1.923  12.218 -0.0488  0.4201 -0.6392
  219MPD1    C3 3379   2.815   1.899  12.317  0.4138  0.2770 -0.5279
  219MPD1    C4 3380   2.695   1.963  12.307  0.6598  0.6080  0.4046
  219MPD1    C5 3381   2.670   2.054  12.206  0.2514 -0.1965  0.0037
  219MPD1     H 3382   3.005   1.867  12.219 -0.8328 -0.8620  1.1395
  219MPD1    H1 3383   2.620   1.947  12.384  0.1996 -1.2704 -0.4323
  219MPD1    H2 3384   2.730   2.154  12.036  3.1705  1.3001  0.3595
  219MPD1    H3 3385   2.578   2.109  12.216 -0.2727 -1.2477  0.9981
  219MPD1     N 3386   2.825   1.797  12.418 -0.0299 -0.7990  0.0246
  219MPD1    H5 3387   2.737   1.768  12.461 -0.7006  2.5536  0.8819
  219MPD1    N1 3388   2.969   2.035  12.003  0.0188 -0.3998  0.0527
  219MPD1    H6 3389   2.944   2.117  11.948 -0.8609 -0.2819  0.6337
  219MPD1    H7 3390   3.067   2.029  12.032  0.0020  1.3491  0.4967
  220MPD1     C 3391   2.674   2.826  10.237  0.7688  0.2850 -0.1312
  220MPD1    C1 3392   2.723   2.709  10.268 -0.4735 -0.0725  0.6455
  220MPD1    C2 3393   2.632   2.609  10.306  0.4812 -0.1313 -0.1251
  220MPD1    C3 3394   2.498   2.640  10.333 -0.0486  0.2582 -0.0521
  220MPD1    C4 3395   2.456   2.769  10.307  0.7042  0.4492  0.6679
  220MPD1    C5 3396   2.546   2.860  10.258 -0.7590  0.0192 -0.6290
  220MPD1     H 3397   2.662   2.506  10.324  1.7161 -0.1137 -2.0537
  220MPD1    H1 3398   2.355   2.805  10.321  0.9768  0.4177  2.6612
  220MPD1    H2 3399   2.738   2.906  10.201  0.9673 -1.7036 -4.2457
  220MPD1    H3 3400   2.502   2.958  10.243 -0.5301  0.3375  0.7759
  220MPD1     N 3401   2.404   2.533  10.360  0.3925 -0.1477 -0.5305
  220MPD1    H5 3402   2.444   2.442  10.381 -0.0547 -0.2715 -0.2280
  220MPD1    N1 3403   2.856   2.679  10.231 -0.4526  0.1815 -0.3573
  220MPD1    H6 3404   2.894   2.598  10.280  0.8076  0.8061 -0.2871
  220MPD1    H7 3405   2.917   2.757  10.257  1.1318 -1.5442  1.0561
  221MPD1     C 3406   0.165   1.115  15.862  0.3365  0.9915  0.0076
  221MPD1    C1 3407   0.273   1.201  15.842 -0.3725 -0.6080 -0.0753
  221MPD1    C2 3408   0.399   1.150  15.841  0.2512  0.5532  0.7893
  221MPD1    C3 3409   0.415   1.021  15.875  0.1027  0.2419 -0.1753
  221MPD1    C4 3410   0.309   0.941  15.899  0.1703 -0.3680 -0.8335
  221MPD1    C5 3411   0.179   0.980  15.891  0.3358  0.2974 -0.2548
  221MPD1     H 3412   0.482   1.204  15.797  0.5870 -0.3846  0.2506
  221MPD1    H1 3413   0.321   0.839  15.932  1.4121  0.3226  0.8760
  221MPD1    H2 3414   0.063   1.151  15.858 -0.2631 -0.5471  1.3013
  221MPD1    H3 3415   0.098   0.914  15.919  1.9932  0.3567  4.5712
  221MPD1     N 3416   0.540   0.956  15.878 -0.1658 -0.2657  0.8523
  221MPD1    H5 3417   0.540   0.856  15.896 -2.8876 -0.5265 -0.5005
  221MPD1    N1 3418   0.253   1.333  15.803  0.8461  0.1479  0.7258
  221MPD1    H6 3419   0.334   1.389  15.831 -1.7132  2.7814  2.8793
  221MPD1    H7 3420   0.170   1.377  15.841 -0.1459 -2.3539  1.4344
  222MPD1     C 3421   4.621   3.600  17.602 -0.1841 -0.3086  0.3512
  222MPD1    C1 3422   4.492   3.556  17.598 -0.1664  0.2710 -0.3406
  222MPD1    C2 3423   4.385   3.631  17.655 -0.7999  0.4748 -1.1517
  222MPD1    C3 3424   4.414   3.753  17.713  0.3104 -0.0883  0.3131
  222MPD1    C4 3425   4.548   3.795  17.720  0.9362  0.0836 -0.9566
  222MPD1    C5 3426   4.649   3.719  17.668 -0.1445 -0.4794  0.0718
  222MPD1     H 3427   4.284   3.591  17.643 -1.6924  1.8751  1.8775
  222MPD1    H1 3428   4.589   3.884   0.022 -0.3093 -1.1632  2.6296
  222MPD1    H2 3429   4.707   3.541  17.572  0.8879  0.1076  2.6500
  222MPD1    H3 3430   0.016   3.751  17.668 -0.6080  1.0340 -1.1842
  222MPD1     N 3431   4.318   3.851   0.011  0.1607 -0.1604  0.6291
  222MPD1    H5 3432   4.346   3.939   0.055 -0.1004  0.8134 -1.1341
  222MPD1    N1 3433   4.465   3.423  17.562 -0.8520 -0.1733 -0.3843
  222MPD1    H6 3434   4.378   3.422  17.509 -1.7202 -0.3101  1.0246
  222MPD1    H7 3435   4.547   3.393  17.511 -1.3703 -2.2746  0.0175
  223MPD1     C 3436   3.533   4.190   0.680 -0.0132 -0.5174 -0.0762
  223MPD1    C1 3437   3.537   4.292   0.580 -0.0084  0.2225  0.0163
  223MPD1    C2 3438   3.633   4.276   0.472 -0.0984  0.0703 -0.1719
  223MPD1    C3 3439   3.701   4.159   0.457  0.2726 -0.1261 -0.0504
  223MPD1    C4 3440   3.685   4.057   0.543  0.2794 -0.1182  0.4565
  223MPD1    C5 3441   3.607   4.075   0.652 -0.0844  0.6214  0.0073
  223MPD1     H 3442   3.649   4.358   0.403  1.2159 -0.4716 -0.5015
  223MPD1    H1 3443   3.748   3.969   0.535  0.5224  0.3914 -3.3164
  223MPD1    H2 3444   3.479   4.206   0.773  0.7620 -1.5222  0.5400
  223MPD1    H3 3445   3.609   3.999   0.729  0.7458 -0.7139 -1.3384
  223MPD1     N 3446   3.788   4.155   0.346 -0.8395 -0.3023  0.1171
  223MPD1    H5 3447   3.822   4.244   0.311 -0.6853 -1.1930 -2.0340
  223MPD1    N1 3448   3.467   4.417   0.599 -0.4556 -0.0233  0.4316
  223MPD1    H6 3449   3.434   4.454   0.510 -2.3590 -1.8716  0.3650
  223MPD1    H7 3450   3.386   4.392   0.656  0.2375 -2.3197  0.3922
  224MPD1     C 3451   4.702   0.875   9.242 -0.4083  0.2326 -0.1430
  224MPD1    C1 3452   0.067   0.900   9.153  0.6383 -0.6393  0.5289
  224MPD1    C2 3453   0.189   0.921   9.213  0.2593  0.1525  0.5449
  224MPD1    C3 3454   0.218   0.939   9.350 -0.0709 -0.6338  0.6269
  224MPD1    C4 3455   0.105   0.935   9.430 -0.0144  0.0006 -0.0502
  224MPD1    C5 3456   4.718   0.898   9.376  0.2692  0.0629 -0.8609
  224MPD1     H 3457   0.280   0.918   9.154  0.8874 -1.4662  1.5771
  224MPD1    H1 3458   0.122   0.960   9.534  0.0950 -1.2557  0.2321
  224MPD1    H2 3459   4.601   0.857   9.208 -0.1014 -0.8979 -0.4627
  224MPD1    H3 3460   4.634   0.901   9.445  0.8073  2.4375 -0.3219
  224MPD1     N 3461   0.347   0.948   9.409  0.1581  0.3509  0.3893
  224MPD1    H5 3462   0.343   0.975   9.507 -0.4240  0.8211  0.2391
  224MPD1    N1 3463   0.056   0.862   9.021 -0.1801 -0.2892  0.2761
  224MPD1    H6 3464   4.702   0.886   8.982  0.0212  0.1234  0.0695
  224MPD1    H7 3465   0.124   0.920   8.973  0.2668  1.8638  3.5199
  225MPD1     C 3466   2.721   2.685  12.633  0.4420  0.2511 -0.6823
  225MPD1    C1 3467   2.656   2.580  12.695 -0.2905 -0.3317  0.7544
  225MPD1    C2 3468   2.526   2.547  12.679  1.1146  0.2586 -0.1993
  225MPD1    C3 3469   2.453   2.618  12.586  0.2432 -0.5183 -0.7024
  225MPD1    C4 3470   2.509   2.726  12.518  1.0032  0.4210 -1.0208
  225MPD1    C5 3471   2.642   2.757  12.543  0.0616 -1.1105 -0.4433
  225MPD1     H 3472   2.474   2.482  12.748  3.7092 -1.1435  0.4234
  225MPD1    H1 3473   2.454   2.795  12.454 -1.2402 -1.1816 -0.8304
  225MPD1    H2 3474   2.828   2.693  12.647  0.4423 -0.4391 -0.2620
  225MPD1    H3 3475   2.677   2.846  12.491  0.4925 -1.3903 -0.6263
  225MPD1     N 3476   2.325   2.591  12.549  0.1557  0.9130 -0.1225
  225MPD1    H5 3477   2.280   2.662  12.492  1.1100  2.6246  1.2311
  225MPD1    N1 3478   2.735   2.512  12.788 -0.6193 -0.0585  0.2827
  225MPD1    H6 3479   2.833   2.509  12.760 -0.5219 -0.2296  0.6359
  225MPD1    H7 3480   2.699   2.422  12.820 -0.3662 -0.0614  0.5578
  226MPD1     C 3481   4.615   0.988   9.789 -1.2902 -1.1952 -0.7941
  226MPD1    C1 3482   0.005   1.036   9.817 -0.2647 -0.4459 -0.6577
  226MPD1    C2 3483   0.036   1.162   9.761 -0.3586  0.0750  0.1527
  226MPD1    C3 3484   4.697   1.235   9.669  0.4998  0.3898  0.8337
  226MPD1    C4 3485   4.566   1.189   9.643  0.0337 -0.4666 -0.0956
  226MPD1    C5 3486   4.534   1.067   9.710  0.3673 -0.0873 -0.2418
  226MPD1     H 3487   0.134   1.204   9.782  0.0114 -0.7852  0.1365
  226MPD1    H1 3488   4.495   1.241   9.580  0.7208 -0.5519 -0.9391
  226MPD1    H2 3489   4.574   0.898   9.833 -0.5057 -1.2668 -0.2231
  226MPD1    H3 3490   4.433   1.031   9.694  0.4511 -0.6659  0.5474
  226MPD1     N 3491   0.026   1.348   9.607 -0.5909 -0.2068 -0.3885
  226MPD1    H5 3492   0.114   1.383   9.642  0.0478 -2.0343 -0.1876
  226MPD1    N1 3493   0.091   0.962   9.903 -0.0786 -0.2529  0.2004
  226MPD1    H6 3494   0.084   1.001   9.997  1.0486  2.3917 -0.8021
  226MPD1    H7 3495   0.054   0.874   9.936 -0.4686  0.1343  0.7987
  227MPD1     C 3496   4.299   2.203   9.377 -0.5379 -0.2118 -0.1718
  227MPD1    C1 3497   4.253   2.075   9.380  0.3325 -0.0627  0.0650
  227MPD1    C2 3498   4.349   1.972   9.395  0.2250  0.5095 -0.3708
  227MPD1    C3 3499   4.487   2.004   9.417 -0.3469 -0.3183  0.4396
  227MPD1    C4 3500   4.525   2.133   9.391  0.7658 -0.1867 -1.0479
  227MPD1    C5 3501   4.436   2.232   9.366 -0.1570  0.2444  0.0097
  227MPD1     H 3502   4.325   1.867   9.389 -0.3694  0.5136  1.6754
  227MPD1    H1 3503   4.628   2.166   9.389  0.4282  0.7312 -2.6438
  227MPD1    H2 3504   4.232   2.288   9.378 -0.9689 -0.5535 -0.2999
  227MPD1    H3 3505   4.468   2.333   9.345  1.4191 -0.6091 -1.7266
  227MPD1     N 3506   4.573   1.901   9.459  1.0835  0.2580 -0.2466
  227MPD1    H5 3507   4.522   1.817   9.481  2.0285  0.0835  1.3276
  227MPD1    N1 3508   4.117   2.067   9.385  0.1079 -0.0424  0.3687
  227MPD1    H6 3509   4.075   2.140   9.327  0.0434 -0.4260 -0.0759
  227MPD1    H7 3510   4.082   1.977   9.352 -0.8431  0.3110  0.4165
  228MPD1     C 3511   4.655   0.219  13.276 -1.2061  1.3263 -0.0867
  228MPD1    C1 3512   4.568   0.308  13.338  0.4548 -0.2054 -0.1112
  228MPD1    C2 3513   4.455   0.254  13.411  0.2346  0.0865  0.7838
  228MPD1    C3 3514   4.420   0.120  13.393  0.3746 -0.4768 -0.2074
  228MPD1    C4 3515   4.498   0.040  13.318 -0.2710  0.5387  0.1014
  228MPD1    C5 3516   4.611   0.089  13.258 -0.6814 -0.5652  0.1091
  228MPD1     H 3517   4.392   0.318  13.472  2.8276  1.4096  2.0808
  228MPD1    H1 3518   4.476   4.672  13.296  0.8871 -0.2326  2.6548
  228MPD1    H2 3519   0.013   0.250  13.232  0.8745 -1.2961  2.5477
  228MPD1    H3 3520   4.666   0.027  13.189 -1.7405 -0.3160 -0.9617
  228MPD1     N 3521   4.293   0.075  13.441  0.4069 -0.4635  0.1620
  228MPD1    H5 3522   4.232   0.153  13.465  0.1076 -1.0967  1.4411
  228MPD1    N1 3523   4.601   0.442  13.350  0.2855 -0.3141  0.1152
  228MPD1    H6 3524   4.524   0.508  13.337  1.5725  1.4110  1.2449
  228MPD1    H7 3525   4.676   0.468  13.286  0.2421 -2.4696 -0.8056
  229MPD1     C 3526   3.484   3.725  15.650 -0.3389  0.4057 -0.0044
  229MPD1    C1 3527   3.394   3.648  15.570 -0.2307 -0.3703  0.0990
  229MPD1    C2 3528   3.453   3.560  15.480 -0.3088  0.1171  0.2182
  229MPD1    C3 3529   3.595   3.541  15.471 -0.2848  0.0861 -0.1565
  229MPD1    C4 3530   3.671   3.624  15.542 -0.0964  0.4209 -0.9247
  229MPD1    C5 3531   3.617   3.718  15.628  0.5032 -0.0552  0.0685
  229MPD1     H 3532   3.392   3.486  15.429  1.1426 -1.6509  1.0606
  229MPD1    H1 3533   3.779   3.620  15.534  0.1012  0.4819  1.6916
  229MPD1    H2 3534   3.453   3.802  15.719 -0.0892  0.1561  0.3853
  229MPD1    H3 3535   3.689   3.783  15.675 -0.4806  2.1752 -1.5024
  229MPD1     N 3536   3.657   3.441  15.398 -1.0610 -0.4399  0.2434
  229MPD1    H5 3537   3.758   3.450  15.393 -1.2618  1.3686 -0.4829
  229MPD1    N1 3538   3.258   3.648  15.589  0.2880  0.7584 -0.1435
  229MPD1    H6 3539   3.237   3.742  15.623  1.1400 -0.0070  2.5361
  229MPD1    H7 3540   3.214   3.638  15.498  0.1457  1.1771 -0.1184
  230MPD1     C 3541   4.232   2.631  15.472 -0.1635  0.2020 -0.3621
  230MPD1    C1 3542   4.186   2.604  15.347  0.3113  0.5959 -0.5094
  230MPD1    C2 3543   4.095   2.694  15.300 -0.4285  0.2412  0.0999
  230MPD1    C3 3544   4.047   2.804  15.372  0.3655 -0.2836 -0.7042
  230MPD1    C4 3545   4.092   2.828  15.496 -0.6104  0.5914  0.3194
  230MPD1    C5 3546   4.184   2.737  15.546  0.2778 -0.1283  0.6984
  230MPD1     H 3547   4.069   2.689  15.195  1.4319  1.5897 -0.4246
  230MPD1    H1 3548   4.061   2.910  15.560 -2.9385 -1.9826  2.4938
  230MPD1    H2 3549   4.313   2.574  15.516 -0.6720  0.3220  0.7421
  230MPD1    H3 3550   4.224   2.768  15.642  0.7231  1.1542  0.0996
  230MPD1     N 3551   3.969   2.896  15.302 -0.0029 -0.0038 -0.1211
  230MPD1    H5 3552   3.934   2.857  15.215 -0.9631 -0.5241  0.4875
  230MPD1    N1 3553   4.253   2.512  15.260  0.3962  0.2958  0.1713
  230MPD1    H6 3554   4.196   2.482  15.181  0.7017  3.5816 -1.2910
  230MPD1    H7 3555   4.278   2.424  15.304 -1.2729 -0.9539 -1.3598
  231MPD1     C 3556   2.227   0.617  15.508 -0.2912 -0.1176 -0.3353
  231MPD1    C1 3557   2.162   0.596  15.386 -0.9168  0.3472  0.0446
  231MPD1    C2 3558   2.208   0.666  15.272  0.7128  0.2721 -0.1467
  231MPD1    C3 3559   2.305   0.763  15.288  0.2373  0.1540  0.2342
  231MPD1    C4 3560   2.370   0.772  15.413 -0.8376  0.2072  0.9519
  231MPD1    C5 3561   2.345   0.692  15.517  0.2529 -0.5547 -0.0649
  231MPD1     H 3562   2.148   0.648  15.183  1.6696 -2.4803 -0.2574
  231MPD1    H1 3563   2.451   0.843  15.422  0.3037 -0.7261 -1.8748
  231MPD1    H2 3564   2.197   0.569  15.600 -0.1829  0.7983  0.1835
  231MPD1    H3 3565   2.393   0.717  15.611  0.0474  0.6988 -0.2847
  231MPD1     N 3566   2.338   0.848  15.181  0.1186  0.3478 -0.0114
  231MPD1    H5 3567   2.295   0.836  15.090 -0.8491 -1.9443  0.7290
  231MPD1    N1 3568   2.049   0.512  15.377 -0.3187  0.4473 -0.7716
  231MPD1    H6 3569   2.025   0.472  15.286 -1.5556  0.3130 -0.3923
  231MPD1    H7 3570   2.052   0.437  15.446 -1.3250  1.3752  0.2977
  232MPD1     C 3571   3.686   3.585   0.707  0.0626 -0.1035 -0.5724
  232MPD1    C1 3572   3.686   3.620   0.578  0.3061 -0.0417 -0.1918
  232MPD1    C2 3573   3.594   3.556   0.495  0.1866  0.5638 -0.7417
  232MPD1    C3 3574   3.498   3.480   0.554  0.2530 -0.4803  0.7025
  232MPD1    C4 3575   3.501   3.456   0.695 -0.2572  0.6879 -0.1913
  232MPD1    C5 3576   3.601   3.506   0.772 -0.0889 -0.2763  0.0964
  232MPD1     H 3577   3.604   3.555   0.387  1.8615 -1.9527 -0.5506
  232MPD1    H1 3578   3.431   3.395   0.750 -1.2837  3.0349  1.0595
  232MPD1    H2 3579   3.759   3.620   0.780  0.9098  0.7912 -1.8520
  232MPD1    H3 3580   3.610   3.492   0.880 -0.2345  0.0572  0.1512
  232MPD1     N 3581   3.397   3.421   0.476  0.5132 -0.7716 -0.8102
  232MPD1    H5 3582   3.409   3.436   0.376 -1.2614  2.0454 -0.5898
  232MPD1    N1 3583   3.791   3.696   0.524  0.0654 -0.1463  0.0763
  232MPD1    H6 3584   3.759   3.751   0.445 -1.2178  0.4124  0.9882
  232MPD1    H7 3585   3.831   3.758   0.594 -1.2912  1.9660 -1.0459
  233MPD1     C 3586   4.139   0.761   0.446 -0.1463  0.3236  0.4016
  233MPD1    C1 3587   4.212   0.799   0.339  0.2792 -0.0493 -0.3839
  233MPD1    C2 3588   4.343   0.840   0.363 -0.4875 -0.3207  0.1083
  233MPD1    C3 3589   4.411   0.821   0.478  0.7077  0.4003 -0.3644
  233MPD1    C4 3590   4.342   0.755   0.574 -0.0841  0.2343 -0.1967
  233MPD1    C5 3591   4.206   0.739   0.563 -0.4502 -0.2883 -0.3072
  233MPD1     H 3592   4.392   0.887   0.278  1.5532 -0.6793  1.0876
  233MPD1    H1 3593   4.386   0.724   0.668 -1.1903  0.2260  0.3236
  233MPD1    H2 3594   4.031   0.752   0.453 -0.0290 -3.2361 -2.3358
  233MPD1    H3 3595   4.151   0.720   0.654  3.5565  3.7585  2.9342
  233MPD1     N 3596   4.551   0.841   0.497 -0.6477 -0.4486  0.1868
  233MPD1    H5 3597   4.588   0.820   0.589 -3.3745 -0.6647  1.2345
  233MPD1    N1 3598   4.148   0.827   0.212 -0.4052  0.3273  0.1051
  233MPD1    H6 3599   4.072   0.760   0.203  0.1533  0.0062 -2.1432
  233MPD1    H7 3600   4.220   0.818   0.141 -0.8292  4.0610 -0.7888
  234MPD1     C 3601   1.836   4.404   9.733  0.0099  0.3785  0.2635
  234MPD1    C1 3602   1.862   4.537   9.774 -0.1345  0.2261  0.3377
  234MPD1    C2 3603   1.767   4.631   9.729  0.0112  0.1488  0.1427
  234MPD1    C3 3604   1.648   4.600   9.660  0.3398  0.2190  0.5556
  234MPD1    C4 3605   1.633   4.466   9.636  0.0326  0.1395  0.0730
  234MPD1    C5 3606   1.728   4.371   9.663  0.4966 -0.8546  0.0076
  234MPD1     H 3607   1.779   4.732   9.768  1.7643 -0.8204  2.1610
  234MPD1    H1 3608   1.534   4.432   9.607  0.3314  0.9473 -1.9363
  234MPD1    H2 3609   1.896   4.318   9.760  1.8331  1.0596 -1.6494
  234MPD1    H3 3610   1.702   4.266   9.657 -1.8625 -0.4520  2.9312
  234MPD1     N 3611   1.556   4.704   9.620 -0.1778  0.6495 -0.8769
  234MPD1    H5 3612   1.576   0.060   9.659  0.4936 -0.3569  1.1133
  234MPD1    N1 3613   1.992   4.571   9.824 -0.2260  0.5019  0.6788
  234MPD1    H6 3614   2.040   4.501   9.879 -0.7749 -1.1760 -1.0165
  234MPD1    H7 3615   1.991   4.659   9.876 -0.2892  1.6844 -1.3354
  235MPD1     C 3616   3.740   2.573  10.492 -0.4670 -0.3918  0.1244
  235MPD1    C1 3617   3.800   2.624  10.379  0.3939 -0.0591  0.2702
  235MPD1    C2 3618   3.741   2.737  10.322 -0.3941 -0.1223 -1.4195
  235MPD1    C3 3619   3.651   2.817  10.391 -0.4393 -0.0404  0.2331
  235MPD1    C4 3620   3.604   2.776  10.514 -0.2545 -0.6155 -0.7340
  235MPD1    C5 3621   3.640   2.648  10.554 -0.0312  0.6209  0.0964
  235MPD1     H 3622   3.769   2.766  10.222  2.8809  0.2512 -0.3952
  235MPD1    H1 3623   3.546   2.843  10.576 -0.9242 -1.5217 -0.3803
  235MPD1    H2 3624   3.776   2.478  10.530 -0.7004 -0.0542  1.1846
  235MPD1    H3 3625   3.618   2.615  10.655  1.3797 -0.1099  0.1734
  235MPD1     N 3626   3.601   2.933  10.324  0.2864 -0.0635 -0.1873
  235MPD1    H5 3627   3.628   2.938  10.226  4.7882 -0.1586  1.0466
  235MPD1    N1 3628   3.890   2.547  10.303  0.4269  0.4256 -0.2652
  235MPD1    H6 3629   3.944   2.610  10.243 -1.0343  1.9416  0.0178
  235MPD1    H7 3630   3.961   2.490  10.347 -0.8028  0.9017  2.3340
  236MPD1     C 3631   2.605   4.136  10.789 -0.4091  0.4905  0.3831
  236MPD1    C1 3632   2.499   4.134  10.693  0.5614 -0.3688  0.0721
  236MPD1    C2 3633   2.455   4.018  10.637 -0.6496 -0.3501  0.2144
  236MPD1    C3 3634   2.534   3.903  10.656 -0.1448  0.3659 -0.4417
  236MPD1    C4 3635   2.646   3.906  10.738  0.3185 -0.5286  0.1292
  236MPD1    C5 3636   2.681   4.020  10.808 -0.1530  0.0907  0.7208
  236MPD1     H 3637   2.359   4.014  10.586 -0.9115  0.3260  0.6601
  236MPD1    H1 3638   2.704   3.816  10.758  1.0873  0.1854  1.0928
  236MPD1    H2 3639   2.635   4.230  10.833 -0.8843  0.8404 -0.0377
  236MPD1    H3 3640   2.773   4.007  10.864 -0.2884  0.4518  1.0269
  236MPD1     N 3641   2.499   3.771  10.605  0.3787  0.6108  0.2239
  236MPD1    H5 3642   2.557   3.690  10.625  0.6195  0.4102 -1.2859
  236MPD1    N1 3643   2.419   4.246  10.675  0.3095  0.0229 -0.1774
  236MPD1    H6 3644   2.466   4.336  10.676  0.5323 -0.1180  1.9913
  236MPD1    H7 3645   2.344   4.246  10.606  0.7385 -1.7263 -0.6343
  237MPD1     C 3646   2.223   1.372  13.735 -0.2390  0.2166 -0.0601
  237MPD1    C1 3647   2.316   1.404  13.831  0.1951 -0.6802 -0.7025
  237MPD1    C2 3648   2.273   1.447  13.955 -0.3913 -0.2676 -0.3219
  237MPD1    C3 3649   2.139   1.467  13.977 -0.7964 -0.2656 -0.0393
  237MPD1    C4 3650   2.051   1.437  13.878 -0.2102  0.1287  0.7374
  237MPD1    C5 3651   2.087   1.379  13.760 -0.0269 -0.5359 -0.7509
  237MPD1     H 3652   2.348   1.465  14.032 -0.8903 -1.1366  0.3666
  237MPD1    H1 3653   1.945   1.444  13.902 -0.5294 -1.9163 -0.0981
  237MPD1    H2 3654   2.254   1.352  13.634  0.7601 -0.8005  0.4481
  237MPD1    H3 3655   2.017   1.364  13.679  0.9360 -1.5049 -1.4041
  237MPD1     N 3656   2.089   1.507  14.104 -0.1922  0.8592 -0.4098
  237MPD1    H5 3657   1.987   1.507  14.110 -0.0749  0.3596  1.4661
  237MPD1    N1 3658   2.457   1.394  13.803  0.2408 -0.5639 -0.1996
  237MPD1    H6 3659   2.490   1.350  13.717  0.1122  2.6403 -1.8924
  237MPD1    H7 3660   2.525   1.452  13.851  0.4005 -0.0866 -0.9910
  238MPD1     C 3661   4.171   0.230  15.387  0.4771 -0.1204 -0.4248
  238MPD1    C1 3662   4.067   0.209  15.473 -0.8884  0.2107 -0.4422
  238MPD1    C2 3663   3.942   0.236  15.419 -0.5873  0.0645 -0.0821
  238MPD1    C3 3664   3.919   0.226  15.285 -0.4086 -0.2026  0.1926
  238MPD1    C4 3665   4.023   0.229  15.202  0.2455  0.0914  0.0106
  238MPD1    C5 3666   4.149   0.230  15.255  0.0027 -0.7997 -0.0996
  238MPD1     H 3667   3.858   0.225  15.486 -0.3227 -0.2127  0.2074
  238MPD1    H1 3668   4.003   0.217  15.096 -2.2111  1.3935  0.3265
  238MPD1    H2 3669   4.274   0.236  15.421  0.2104 -0.3493  0.4188
  238MPD1    H3 3670   4.229   0.250  15.185 -0.4230  1.9266  0.2124
  238MPD1     N 3671   3.795   0.239  15.221  0.6256 -0.0437  0.0146
  238MPD1    H5 3672   3.782   0.244  15.121  0.6925 -0.5744 -0.0200
  238MPD1    N1 3673   4.085   0.205  15.617 -0.4685  0.6244  0.2642
  238MPD1    H6 3674   4.178   0.181  15.653 -0.6483  0.4411  0.6033
  238MPD1    H7 3675   4.015   0.152  15.667  1.1390 -2.2542 -0.5352
  239MPD1     C 3676   4.154   1.578  14.559  0.2560  0.8898  0.1686
  239MPD1    C1 3677   4.186   1.586  14.427 -0.2995 -0.5733 -0.1838
  239MPD1    C2 3678   4.090   1.605  14.325  0.4461  0.7259 -0.4996
  239MPD1    C3 3679   3.962   1.623  14.367  0.6215  0.0339 -0.7257
  239MPD1    C4 3680   3.937   1.637  14.505  0.2867  0.1641 -0.2145
  239MPD1    C5 3681   4.027   1.618  14.598  0.6321 -0.2476  0.9914
  239MPD1     H 3682   4.111   1.605  14.218  0.9813  1.1269 -0.3950
  239MPD1    H1 3683   3.842   1.672  14.542  0.7881  1.3461 -0.0587
  239MPD1    H2 3684   4.232   1.570  14.634  2.0443  2.0633 -1.6029
  239MPD1    H3 3685   3.996   1.638  14.700  1.9663  1.2062  1.1200
  239MPD1     N 3686   3.845   1.646  14.284 -0.1328  0.3098 -0.9273
  239MPD1    H5 3687   3.758   1.656  14.336 -0.2465  1.0037 -1.2425
  239MPD1    N1 3688   4.320   1.556  14.388 -0.2415  0.2374  0.2867
  239MPD1    H6 3689   4.385   1.594  14.457  0.8139 -0.9714 -0.0342
  239MPD1    H7 3690   4.325   1.456  14.405 -0.9603  0.4308  1.6031
  240MPD1     C 3691   3.527   0.982  13.805  0.2718  0.6971  0.5102
  240MPD1    C1 3692   3.403   1.001  13.851  0.1393 -0.1786  0.3210
  240MPD1    C2 3693   3.376   0.989  13.987 -0.0126 -0.1196  0.5675
  240MPD1    C3 3694   3.481   0.976  14.078 -0.6418  0.2976 -0.0092
  240MPD1    C4 3695   3.608   0.957  14.024  0.1707  0.5566 -0.4896
  240MPD1    C5 3696   3.630   0.963  13.889  0.3083  0.2367  0.2351
  240MPD1     H 3697   3.273   1.000  14.019  0.1335 -0.1454  1.0553
  240MPD1    H1 3698   3.691   0.921  14.084 -0.0559 -0.1381 -0.5963
  240MPD1    H2 3699   3.528   0.960  13.699 -0.2317 -0.2622  0.7121
  240MPD1    H3 3700   3.722   0.923  13.849  2.1044  0.7545  3.8130
  240MPD1     N 3701   3.454   0.959  14.213  0.2263 -0.2348  0.1109
  240MPD1    H5 3702   3.357   0.953  14.242 -0.1188  1.3859 -0.6589
  240MPD1    N1 3703   3.298   1.005  13.759 -0.0390 -0.0133  0.0863
  240MPD1    H6 3704   3.212   1.042  13.800  0.2596 -1.9749  2.5074
  240MPD1    H7 3705   3.316   1.038  13.665 -0.0926 -0.5773 -0.1208
  241MPD1     C 3706   3.881   0.599  15.181  0.1963 -0.1340  0.6116
  241MPD1    C1 3707   3.927   0.588  15.049 -0.3452 -0.1136 -0.6586
  241MPD1    C2 3708   3.851   0.632  14.943  0.4096  0.2291  0.3816
  241MPD1    C3 3709   3.719   0.669  14.961  0.0999  0.3435 -0.1076
  241MPD1    C4 3710   3.666   0.658  15.093  0.2310 -0.9178  0.0417
  241MPD1    C5 3711   3.746   0.634  15.199 -0.0846  0.2874 -0.3454
  241MPD1     H 3712   3.896   0.646  14.846 -0.4930 -0.0427 -0.0757
  241MPD1    H1 3713   3.563   0.684  15.113 -0.5325 -0.6968 -4.0555
  241MPD1    H2 3714   3.948   0.572  15.262 -0.5643 -0.8716  0.9958
  241MPD1    H3 3715   3.701   0.623  15.297  0.1201 -1.4568 -0.4423
  241MPD1     N 3716   3.630   0.723  14.859 -0.7890 -0.2406  0.0664
  241MPD1    H5 3717   3.534   0.740  14.888 -0.4750 -0.6264  1.3527
  241MPD1    N1 3718   4.066   0.567  15.024 -0.2906 -0.1266 -0.4896
  241MPD1    H6 3719   4.095   0.561  14.927  1.1375 -0.9613 -0.0211
  241MPD1    H7 3720   4.122   0.510  15.087  0.6405  2.0810  0.7168
  242MPD1     C 3721   3.300   4.089  15.830 -0.4531  0.5303  0.6180
  242MPD1    C1 3722   3.194   4.055  15.749  0.2905 -0.2588 -0.1160
  242MPD1    C2 3723   3.217   4.024  15.612  0.2752  0.1513  0.3413
  242MPD1    C3 3724   3.348   4.035  15.551  0.0678 -0.7647  0.6331
  242MPD1    C4 3725   3.453   4.052  15.643  0.0326  0.6180  0.3293
  242MPD1    C5 3726   3.428   4.086  15.772 -0.4362 -0.7312 -0.1963
  242MPD1     H 3727   3.138   4.003  15.541  0.4198  2.7357 -0.5893
  242MPD1    H1 3728   3.556   4.049  15.607 -0.4394  1.9317 -1.1564
  242MPD1    H2 3729   3.293   4.101  15.937 -0.5422  0.3387  0.6353
  242MPD1    H3 3730   3.517   4.111  15.828 -2.2592  0.0623  2.3729
  242MPD1     N 3731   3.373   3.987  15.424 -0.1698  0.1894  0.4055
  242MPD1    H5 3732   3.469   3.976  15.393 -0.2404 -1.9607  0.9720
  242MPD1    N1 3733   3.070   4.042  15.808  0.0554 -0.6822 -0.0061
  242MPD1    H6 3734   3.003   4.028  15.734 -0.0350 -1.8503  0.3012
  242MPD1    H7 3735   3.040   4.128  15.854 -0.3458 -0.4101 -0.7902
  243MPD1     C 3736   1.189   3.301  17.413  0.1286 -0.2139  0.7211
  243MPD1    C1 3737   1.122   3.397  17.338  0.2148  0.1882 -0.4135
  243MPD1    C2 3738   1.014   3.356  17.264 -0.1322  0.0064 -0.0986
  243MPD1    C3 3739   0.974   3.222  17.262 -0.0248  0.2248  0.0605
  243MPD1    C4 3740   1.048   3.124  17.323  0.4637  0.1011 -0.3497
  243MPD1    C5 3741   1.153   3.174  17.399 -0.0514 -0.3174 -0.6258
  243MPD1     H 3742   0.954   3.431  17.214 -1.9507 -1.3825 -0.0045
  243MPD1    H1 3743   1.018   3.020  17.328 -0.5466  0.3451 -1.2176
  243MPD1    H2 3744   1.274   3.326  17.475 -0.2539  1.2997  0.6174
  243MPD1    H3 3745   1.209   3.106  17.462  2.8780  1.3475 -1.4486
  243MPD1     N 3746   0.855   3.182  17.196 -0.4131 -0.0572 -0.8724
  243MPD1    H5 3747   0.797   3.262  17.173 -0.1643  0.3554 -0.0492
  243MPD1    N1 3748   1.182   3.527  17.326  0.2103  0.1041  0.2915
  243MPD1    H6 3749   1.239   3.544  17.409  1.9453 -0.7018 -0.7461
  243MPD1    H7 3750   1.122   3.609  17.317  1.9507  1.3469  0.0463
  244MPD1     C 3751   0.150   3.595  17.355 -0.6066  0.0240 -0.3010
  244MPD1    C1 3752   0.130   3.561  17.222 -0.3512 -0.1801  0.5070
  244MPD1    C2 3753   0.193   3.451  17.170 -0.4620 -0.3656  0.3436
  244MPD1    C3 3754   0.277   3.379  17.252 -0.8088  0.3144  0.3500
  244MPD1    C4 3755   0.305   3.420  17.376  0.4898 -0.1651  0.2955
  244MPD1    C5 3756   0.230   3.518  17.427  0.1726  0.0855 -0.9689
  244MPD1     H 3757   0.164   3.425  17.069 -0.1395 -0.5902  0.3100
  244MPD1    H1 3758   0.381   3.380  17.442 -0.8814 -0.0447  1.9598
  244MPD1    H2 3759   0.114   3.688  17.400 -0.1724  1.1280 -2.2505
  244MPD1    H3 3760   0.239   3.540  17.533  0.9367  0.7815 -1.1758
  244MPD1     N 3761   0.359   3.272  17.208 -0.8373 -0.4031 -0.4117
  244MPD1    H5 3762   0.438   3.246  17.267 -0.8129 -1.6840 -0.9949
  244MPD1    N1 3763   0.032   3.625  17.147 -0.4776  0.2903 -0.4755
  244MPD1    H6 3764   0.043   3.723  17.172  2.5853 -0.6158  1.6761
  244MPD1    H7 3765   0.046   3.612  17.047 -2.1061 -1.8142 -0.4258
  245MPD1     C 3766   1.257   3.036  13.651 -0.5582  0.0916  0.8915
  245MPD1    C1 3767   1.179   3.124  13.729 -0.3669 -0.2328  0.5910
  245MPD1    C2 3768   1.217   3.260  13.740 -0.0458 -0.9246 -0.5191
  245MPD1    C3 3769   1.337   3.301  13.684  0.4299 -0.0106 -0.5958
  245MPD1    C4 3770   1.410   3.209  13.607  0.5112 -0.2303 -1.0605
  245MPD1    C5 3771   1.371   3.080  13.587 -0.4139 -0.0775 -0.1613
  245MPD1     H 3772   1.155   3.336  13.786  2.4333  0.7852 -0.0277
  245MPD1    H1 3773   1.493   3.248  13.549  0.5204 -1.6344 -1.9737
  245MPD1    H2 3774   1.215   2.943  13.616 -1.4239  0.7390  0.1947
  245MPD1    H3 3775   1.435   3.019  13.525 -1.0124 -0.3589 -0.5089
  245MPD1     N 3776   1.372   3.435  13.705  0.9724 -0.2638 -0.7365
  245MPD1    H5 3777   1.309   3.493  13.758  2.0816 -2.0150  2.4977
  245MPD1    N1 3778   1.054   3.080  13.782 -0.0814  0.2356  0.2163
  245MPD1    H6 3779   1.040   2.979  13.787  1.2205  0.0133 -0.7320
  245MPD1    H7 3780   1.031   3.124  13.871 -0.3483  0.6908 -0.0762
  246MPD1     C 3781   3.324   3.241   9.674  0.0458  0.1815 -0.0749
  246MPD1    C1 3782   3.205   3.291   9.718 -0.2908  0.1462 -1.5189
  246MPD1    C2 3783   3.115   3.208   9.763  0.0889 -0.0807  0.4194
  246MPD1    C3 3784   3.132   3.074   9.749  0.7365 -0.4634 -0.3355
  246MPD1    C4 3785   3.250   3.022   9.696  0.3307 -0.2350  0.2458
  246MPD1    C5 3786   3.344   3.108   9.652 -0.0253  0.4297 -0.7209
  246MPD1     H 3787   3.016   3.243   9.790  0.3512  1.2062 -0.2901
  246MPD1    H1 3788   3.275   2.917   9.695 -1.6993 -0.7714  2.9341
  246MPD1    H2 3789   3.408   3.303   9.644  0.0577  0.1283 -0.1510
  246MPD1    H3 3790   3.444   3.075   9.625  0.5678 -0.3821  2.4937
  246MPD1     N 3791   3.019   2.999   9.776  0.1997 -0.0825  0.1720
  246MPD1    H5 3792   2.939   3.051   9.811  1.2997  1.0345  1.0366
  246MPD1    N1 3793   3.201   3.425   9.763  0.0797 -0.5363  0.4564
  246MPD1    H6 3794   3.110   3.471   9.760 -0.5458 -1.7091  1.6010
  246MPD1    H7 3795   3.260   3.488   9.710 -1.0378  0.6076  0.5573
  247MPD1     C 3796   1.082   4.043  15.083 -0.1490 -0.2293 -0.0863
  247MPD1    C1 3797   1.093   4.104  15.207 -0.0302 -0.4654  0.7104
  247MPD1    C2 3798   1.133   4.019  15.311 -0.0500 -0.0655  0.0520
  247MPD1    C3 3799   1.157   3.884  15.287 -0.1296  0.1351 -0.1065
  247MPD1    C4 3800   1.129   3.828  15.164 -0.6805 -0.2824 -0.2568
  247MPD1    C5 3801   1.094   3.907  15.061 -0.2416 -0.2114  0.8734
  247MPD1     H 3802   1.157   4.068  15.405  0.7747 -2.1271  0.9403
  247MPD1    H1 3803   1.156   3.724  15.150  0.9936  0.1175 -0.0411
  247MPD1    H2 3804   1.067   4.107  14.996  1.4049  0.4854  0.1736
  247MPD1    H3 3805   1.085   3.853  14.967 -2.4003  0.2868  0.7941
  247MPD1     N 3806   1.220   3.806  15.388 -0.1087 -0.0151  0.1536
  247MPD1    H5 3807   1.249   3.711  15.367 -1.4009  0.2313 -2.6792
  247MPD1    N1 3808   1.098   4.246  15.225 -0.4499  0.3456  0.6819
  247MPD1    H6 3809   1.067   4.279  15.316  0.3644 -1.2083  1.5340
  247MPD1    H7 3810   1.034   4.287  15.158 -0.9744 -1.1211  0.2812
  248MPD1     C 3811   2.415   2.227  17.614  0.0303 -0.2486 -0.2369
  248MPD1    C1 3812   2.355   2.353  17.614 -0.1331  0.9389 -0.6286
  248MPD1    C2 3813   2.229   2.370  17.682 -0.2464 -0.1097 -0.0058
  248MPD1    C3 3814   2.168   2.259  17.743 -0.0211  0.2721  0.4712
  248MPD1    C4 3815   2.237   2.141   0.005  0.0826  0.1422  0.7087
  248MPD1    C5 3816   2.357   2.121  17.681  0.4221 -0.1296 -0.8546
  248MPD1     H 3817   2.185   2.468  17.693  2.0934  0.7135  1.9586
  248MPD1    H1 3818   2.201   2.052   0.056 -1.0189 -0.2271 -0.7279
  248MPD1    H2 3819   2.509   2.215  17.562  0.6836 -1.4004  1.2197
  248MPD1    H3 3820   2.404   2.023  17.677 -0.5969 -0.5892 -1.8057
  248MPD1     N 3821   2.041   2.271   0.062  0.1312 -0.4118 -0.3778
  248MPD1    H5 3822   1.994   2.361   0.056 -0.2181 -0.5745 -0.1044
  248MPD1    N1 3823   2.419   2.459  17.558  0.4517  0.3064  0.2421
  248MPD1    H6 3824   2.490   2.435  17.489 -0.8523 -2.7568 -0.0371
  248MPD1    H7 3825   2.357   2.529  17.517  2.7126  1.5919 -1.0238
  249MPD1     C 3826   4.094   2.402  10.504 -0.4353  0.3874  0.4171
  249MPD1    C1 3827   4.174   2.512  10.494 -0.3536 -0.5070 -0.1021
  249MPD1    C2 3828   4.275   2.510  10.401 -0.1370 -0.5553  0.3308
  249MPD1    C3 3829   4.311   2.398  10.328  0.1859  0.2526  0.0207
  249MPD1    C4 3830   4.222   2.291  10.335  0.0526  0.0959  0.4761
  249MPD1    C5 3831   4.111   2.296  10.424 -0.3207 -0.0221  0.7252
  249MPD1     H 3832   4.345   2.593  10.397  0.8974 -1.5227 -1.2910
  249MPD1    H1 3833   4.229   2.200  10.277 -0.8177  1.2118 -1.3858
  249MPD1    H2 3834   4.015   2.386  10.577  1.0729 -0.4930  1.8417
  249MPD1    H3 3835   4.043   2.213  10.439 -1.2285  0.4457 -0.7476
  249MPD1     N 3836   4.444   2.396  10.273  0.0903  0.0971  0.2106
  249MPD1    H5 3837   4.505   2.475  10.294  1.8108 -0.9317 -0.8798
  249MPD1    N1 3838   4.171   2.607  10.597  0.3504 -0.2025  0.0776
  249MPD1    H6 3839   4.219   2.692  10.570  2.2127 -1.5671 -0.9241
  249MPD1    H7 3840   4.081   2.631  10.638  0.8609  0.2922  0.9069
  250MPD2     C 3841   0.385   2.266  12.940 -0.0115 -0.0959  0.5641
  250MPD2    C1 3842   0.486   2.167  12.948 -0.0220  0.0109 -0.1630
  250MPD2    C2 3843   0.476   2.062  12.857 -0.5244  0.0209 -0.0208
  250MPD2    C3 3844   0.367   2.051  12.766  0.2913 -0.3548 -0.3421
  250MPD2    C4 3845   0.265   2.142  12.777  0.2607  0.7991  0.8590
  250MPD2    C5 3846   0.269   2.242  12.871  0.0313  0.3823  0.0707
  250MPD2     H 3847   0.556   1.989  12.848  0.6484  1.3878 -0.8210
  250MPD2    H1 3848   0.186   2.131  12.704 -0.8651 -0.4498  2.2723
  250MPD2    H2 3849   0.387   2.352  13.007  2.0487  1.3426 -1.3476
  250MPD2    H3 3850   0.194   2.319  12.857  0.0036 -0.0018 -1.9342
  250MPD2     N 3851   0.375   1.949  12.669 -0.4608  0.3865 -0.0683
  250MPD2    H5 3852   0.442   1.875  12.682 -1.0320 -0.3993 -1.6727
  250MPD2    N1 3853   0.598   2.194  13.032 -0.5564 -0.3252  0.1105
  250MPD2    H7 3854   0.597   2.287  13.074 -1.4636 -0.0016 -0.6139
  251TMC3    C1 3855   0.825   2.203  13.085  0.6291  0.5982 -0.0865
  251TMC3    C2 3856   0.808   2.337  13.091 -0.1833 -0.5290 -0.0434
  251TMC3    C3 3857   0.885   2.413  13.178 -0.2076 -0.4089 -0.7755
  251TMC3    C4 3858   0.925   2.135  13.155 -0.2766  0.1037  0.7080
  251TMC3    C5 3859   1.002   2.213  13.237  0.0472  0.3814 -0.0744
  251TMC3    C6 3860   0.980   2.351  13.256 -0.6241 -0.0399 -0.1745
  251TMC3     C 3861   0.713   2.123  13.035 -0.3033 -0.0491  0.0787
  251TMC3     O 3862   0.736   2.008  13.001  0.4826  0.3906  0.1033
  251TMC3     H 3863   0.738   2.389  13.027 -1.6693 -3.3152 -0.6983
  251TMC3    H1 3864   0.943   2.030  13.135 -0.0245  0.0506  1.2239
  251TMC3    H2 3865   1.045   2.405  13.323 -0.4732 -0.7366  0.2442
  251TMC3    C7 3866   1.123   2.150  13.295  0.2533  0.1267  0.1099
  251TMC3    C8 3867   0.798   2.513  13.249  0.3379 -0.4575  0.3466
  251TMC3    O1 3868   1.183   2.083  13.213  0.3350 -0.0262 -0.0001
  251TMC3    O2 3869   0.679   2.480  13.240 -0.4184  0.3633  0.1705
  252TMC3    C1 3870   4.444   3.750   9.593  0.3523  0.0811 -0.1121
  252TMC3    C2 3871   4.574   3.731   9.568  0.1503 -0.2283  0.0872
  252TMC3    C3 3872   4.648   3.650   9.656 -0.7527 -0.0790  0.6677
  252TMC3    C4 3873   4.383   3.711   9.705 -0.0724  0.1740 -0.0868
  252TMC3    C5 3874   4.460   3.638   9.791  0.3556  0.4615 -0.1829
  252TMC3    C6 3875   4.591   3.601   9.770 -0.3409 -0.2856 -0.0457
  252TMC3     C 3876   4.364   3.805   9.486 -0.6685  0.0927 -0.3307
  252TMC3     O 3877   4.243   3.823   9.508  0.4688 -0.4926 -0.4695
  252TMC3     H 3878   4.620   3.775   9.481 -0.6008 -1.2896 -0.8462
  252TMC3    H1 3879   4.275   3.715   9.717 -0.0668  1.9925 -0.5822
  252TMC3    H2 3880   4.639   3.536   9.843  1.8403  0.0959 -1.1682
  252TMC3    C7 3881   4.394   3.568   9.894 -0.5155  0.0407 -0.3061
  252TMC3    C8 3882   0.046   3.614   9.615 -0.4644 -0.2015  0.3565
  252TMC3    O1 3883   4.292   3.611   9.949  0.1854  0.7085 -0.0747
  252TMC3    O2 3884   0.075   3.633   9.499 -0.3369 -0.0915  0.5774
  253MPD2     C 3885   2.003   2.093  14.943  0.3432 -0.7162  0.0175
  253MPD2    C1 3886   1.880   2.038  14.937  0.4024 -0.3126  0.7286
  253MPD2    C2 3887   1.842   1.944  15.025 -0.1418 -0.2735  0.5924
  253MPD2    C3 3888   1.927   1.904  15.126 -0.0494 -0.2030  0.4511
  253MPD2    C4 3889   2.046   1.969  15.141 -0.2362  0.0875 -0.6681
  253MPD2    C5 3890   2.089   2.052  15.042  0.1156 -0.4881  0.0558
  253MPD2     H 3891   1.740   1.909  15.013  0.7369 -3.4710  2.3081
  253MPD2    H1 3892   2.108   1.942  15.226 -0.4104  0.7271 -0.3317
  253MPD2    H2 3893   2.048   2.168  14.878 -0.3232 -1.2329 -1.0431
  253MPD2    H3 3894   2.192   2.086  15.044  0.0269 -0.1590 -0.7169
  253MPD2     N 3895   1.882   1.813  15.228  0.0001  0.0419 -0.0924
  253MPD2    H5 3896   1.943   1.796  15.307  1.7034  1.8338 -1.0145
  253MPD2    N1 3897   1.781   2.090  14.854 -0.1393 -0.0967  0.0228
  253MPD2    H7 3898   1.687   2.056  14.871  0.4009 -1.4637  0.2902
  254TMC3    C1 3899   1.700   1.707  15.345 -0.2183 -0.1068 -0.1537
  254TMC3    C2 3900   1.568   1.731  15.366 -0.1020  0.3563  0.0099
  254TMC3    C3 3901   1.523   1.706  15.487 -0.6020  0.8434 -0.2123
  254TMC3    C4 3902   1.780   1.663  15.444  0.1032 -0.3537 -0.0467
  254TMC3    C5 3903   1.730   1.638  15.567  0.2657  0.3512  0.3060
  254TMC3    C6 3904   1.597   1.647  15.579  0.8358  0.1500 -1.0270
  254TMC3     C 3905   1.754   1.751  15.218  0.1918  0.2735  0.4198
  254TMC3     O 3906   1.676   1.740  15.122  0.0201 -0.1085 -0.2194
  254TMC3     H 3907   1.504   1.777  15.291  1.4015  1.2716 -0.6936
  254TMC3    H1 3908   1.886   1.647  15.427 -0.4516 -2.2683 -1.6291
  254TMC3    H2 3909   1.565   1.642  15.682  3.2985  0.6550 -0.2570
  254TMC3    C7 3910   1.807   1.613  15.678  0.1780  0.0582 -0.0332
  254TMC3    C8 3911   1.415   1.782  15.534  0.0740 -0.5950 -0.1402
  254TMC3    O1 3912   1.756   1.524  15.748 -0.1816 -0.5568  0.0873
  254TMC3    O2 3913   1.344   1.727  15.620 -0.3192 -0.3657 -0.0269
  255MPD2     C 3914   3.981   4.009  10.740 -0.1179  0.3433  0.2266
  255MPD2    C1 3915   4.063   4.112  10.736 -0.4913 -0.0647  0.0731
  255MPD2    C2 3916   4.200   4.093  10.731 -0.1494  0.3316 -0.3109
  255MPD2    C3 3917   4.251   3.969  10.730 -0.2042  0.3996  0.4015
  255MPD2    C4 3918   4.166   3.863  10.737 -0.1759  0.7967 -0.0107
  255MPD2    C5 3919   4.031   3.881  10.740  0.1045 -0.6868 -0.1156
  255MPD2     H 3920   4.278   4.168  10.723 -0.4705  1.0172  2.9787
  255MPD2    H1 3921   4.212   3.765  10.743  0.2169  1.0243  0.8434
  255MPD2    H2 3922   3.873   4.013  10.743 -0.1479 -0.2946  0.0235
  255MPD2    H3 3923   3.964   3.795  10.749  0.4640 -1.1392 -1.8367
  255MPD2     N 3924   4.391   3.957  10.705 -0.2916  0.0069  0.1176
  255MPD2    H5 3925   4.438   4.039  10.741 -0.0980  0.5359 -1.3281
  255MPD2    N1 3926   4.003   4.238  10.725  0.7685 -0.7529 -0.9886
  255MPD2    H7 3927   3.902   4.235  10.721  0.7467 -0.6862 -0.5203
  256TMC3    C1 3928   3.963   4.470  10.712  0.2956  0.5259 -0.5431
  256TMC3    C2 3929   4.023   4.590  10.704  0.4101  0.6730  0.0850
  256TMC3    C3 3930   3.952   4.697  10.656 -0.5166  0.1258 -0.3033
  256TMC3    C4 3931   3.829   4.450  10.673 -0.0315 -0.1447 -0.1580
  256TMC3    C5 3932   3.763   4.561  10.620 -0.4882  0.0423 -0.4324
  256TMC3    C6 3933   3.824   4.686  10.608  0.3787 -0.0566  0.0230
  256TMC3     C 3934   4.059   4.357  10.713 -0.6079 -0.3077  0.6071
  256TMC3     O 3935   4.179   4.384  10.699 -0.5409 -0.3790  0.0382
  256TMC3     H 3936   4.128   4.595  10.732  0.5845 -3.7981  0.2535
  256TMC3    H1 3937   3.786   4.351  10.675  0.2449 -0.3118 -2.0352
  256TMC3    H2 3938   3.778   0.034  10.556  0.3847 -0.2510 -0.3012
  256TMC3    C7 3939   3.642   4.543  10.545 -0.8325 -0.0748  0.2782
  256TMC3    C8 3940   4.030   0.073  10.602 -0.1964 -0.4716 -0.1827
  256TMC3    O1 3941   3.620   4.636  10.469 -0.2068  0.2570 -0.0831
  256TMC3    O2 3942   3.986   0.129  10.503 -0.2378  0.5948 -0.0618
  257MPD2     C 3943   3.524   1.593  12.876  0.0992 -0.0894  0.3892
  257MPD2    C1 3944   3.662   1.590  12.851  0.2496  0.2643 -0.4446
  257MPD2    C2 3945   3.735   1.473  12.880 -0.7841  0.7099  0.4557
  257MPD2    C3 3946   3.663   1.362  12.931 -0.7389  0.0001 -0.2798
  257MPD2    C4 3947   3.527   1.365  12.963 -0.1848 -0.2277  0.0103
  257MPD2    C5 3948   3.458   1.483  12.936 -0.0525  0.0275  0.4922
  257MPD2     H 3949   3.841   1.463  12.858 -0.8607 -0.6931  0.7667
  257MPD2    H1 3950   3.462   1.283  12.993 -0.5151  0.1824  0.4207
  257MPD2    H2 3951   3.464   1.683  12.874 -2.4411 -1.7408  1.3676
  257MPD2    H3 3952   3.354   1.495  12.964 -0.7275 -1.0377 -1.5801
  257MPD2     N 3953   3.748   1.253  12.964  0.6689  0.2418 -0.0115
  257MPD2    H5 3954   3.849   1.263  12.960  1.0167 -1.8770  2.7850
  257MPD2    N1 3955   3.719   1.702  12.785  0.2309  1.0585  0.3876
  257MPD2    H7 3956   3.655   1.777  12.760 -1.4696  0.2048  2.1549
  258TMC3    C1 3957   3.813   1.057  13.072 -0.0013  0.4027  0.8140
  258TMC3    C2 3958   3.935   1.107  13.031  0.7605  0.4051  0.4651
  258TMC3    C3 3959   4.040   1.105  13.119  0.3711  0.1117  0.1967
  258TMC3    C4 3960   3.798   1.006  13.203  0.3356 -0.0504  0.6147
  258TMC3    C5 3961   3.904   1.008  13.289 -0.2827 -0.1101 -0.2438
  258TMC3    C6 3962   4.026   1.061  13.249  0.0171 -0.4354 -0.2058
  258TMC3     C 3963   3.707   1.139  13.038 -0.3579  0.7832 -0.4599
  258TMC3     O 3964   3.596   1.104  13.072 -0.1195  0.1546 -0.3618
  258TMC3     H 3965   3.957   1.124  12.926 -0.9988 -1.9902 -0.2907
  258TMC3    H1 3966   3.703   0.965  13.238  0.3403  1.2332  2.1019
  258TMC3    H2 3967   4.120   1.044  13.300  0.9443 -1.6611 -2.3602
  258TMC3    C7 3968   3.891   0.924  13.407 -0.1272 -0.0147 -0.4192
  258TMC3    C8 3969   4.174   1.147  13.066  0.7123 -0.1250 -0.5856
  258TMC3    O1 3970   3.815   0.829  13.387 -0.1931 -0.4459  0.1613
  258TMC3    O2 3971   4.190   1.136  12.943 -0.8815  0.3650 -0.0854
  259MPD2     C 3972   2.510   3.352   0.768  0.3184  0.0438 -0.0686
  259MPD2    C1 3973   2.390   3.300   0.721  0.4449 -0.0980 -0.2232
  259MPD2    C2 3974   2.340   3.333   0.593 -0.1581  0.4797  0.2442
  259MPD2    C3 3975   2.417   3.417   0.510 -0.3526 -0.2655 -0.1981
  259MPD2    C4 3976   2.532   3.479   0.561 -0.5039 -0.9478  0.5297
  259MPD2    C5 3977   2.579   3.447   0.687 -0.5784 -0.5586  0.3011
  259MPD2     H 3978   2.247   3.294   0.554  0.3872 -0.0671 -0.5262
  259MPD2    H1 3979   2.592   3.553   0.509 -3.0616 -0.2942 -1.5006
  259MPD2    H2 3980   2.557   3.317   0.860  1.9560 -0.2924 -1.0322
  259MPD2    H3 3981   2.674   3.495   0.711 -0.3901  0.1476 -1.8738
  259MPD2     N 3982   2.359   3.441   0.380 -0.4027 -0.1659  0.6204
  259MPD2    H5 3983   2.279   3.385   0.350  1.5147 -1.6304 -1.7328
  259MPD2    N1 3984   2.338   3.199   0.805  0.0359 -0.4155  0.0896
  259MPD2    H7 3985   2.385   3.180   0.893 -1.5319 -0.5755  0.8812
  260TMC3    C1 3986   2.383   3.494   0.149 -0.0361  0.1073 -0.3155
  260TMC3    C2 3987   2.427   3.576   0.049  0.2238 -0.1153 -0.6812
  260TMC3    C3 3988   2.421   3.545  17.658  0.3664 -0.0633 -0.7176
  260TMC3    C4 3989   2.336   3.368   0.123  0.3912 -0.3504  0.1881
  260TMC3    C5 3990   2.346   3.333  17.735 -0.0626 -0.2303 -0.4218
  260TMC3    C6 3991   2.395   3.410  17.635  0.1799 -0.4820  0.0183
  260TMC3     C 3992   2.415   3.527   0.287 -0.0158  0.3526 -0.7316
  260TMC3     O 3993   2.504   3.608   0.305 -0.3964 -0.0902  0.1490
  260TMC3     H 3994   2.457   3.676   0.076 -1.5572  0.4716 -0.8275
  260TMC3    H1 3995   2.288   3.304   0.196  0.5849 -0.3052  0.3547
  260TMC3    H2 3996   2.401   3.373  17.533  0.4266 -1.3033  0.3263
  260TMC3    C7 3997   2.372   3.196  17.720 -0.5342 -0.1017 -0.2934
  260TMC3    C8 3998   2.544   3.582  17.590 -1.0034 -0.2083  0.8952
  260TMC3    O1 3999   2.466   3.174  17.643  0.0800  0.4914 -0.3581
  260TMC3    O2 4000   2.542   3.694  17.536  0.1443  0.5015  0.0323
  261MPD2     C 4001   0.040   1.706  11.898 -0.3409 -0.3185 -0.3490
  261MPD2    C1 4002   0.098   1.816  11.959 -0.3642 -0.3775  0.2231
  261MPD2    C2 4003   0.094   1.943  11.898  0.5357 -0.8438 -0.0451
  261MPD2    C3 4004   0.058   1.955  11.766 -0.3154 -0.1270 -0.8252
  261MPD2    C4 4005   0.004   1.841  11.708 -0.5880  0.7319 -0.5451
  261MPD2    C5 4006   4.725   1.723  11.771 -0.8194 -0.0877 -0.4240
  261MPD2     H 4007   0.136   2.030  11.946  2.2499 -1.7662  0.1301
  261MPD2    H1 4008   4.714   1.846  11.603 -0.1094 -0.8883 -0.7448
  261MPD2    H2 4009   0.028   1.611  11.948  0.0729 -0.2687 -0.1561
  261MPD2    H3 4010   4.688   1.651  11.699  0.1706  0.6031 -1.6218
  261MPD2     N 4011   0.069   2.076  11.697  0.1463 -0.2273 -0.2794
  261MPD2    H5 4012   0.130   2.145  11.740 -2.1837  2.1362 -0.8199
  261MPD2    N1 4013   0.158   1.815  12.088  0.0665 -0.1822  0.2622
  261MPD2    H7 4014   0.205   1.898  12.125 -0.9739  0.2394  0.6224
  262TMC3    C1 4015   0.063   2.244  11.527  0.2565 -0.5940  0.8375
  262TMC3    C2 4016   4.722   2.326  11.599 -0.7688 -0.2939  0.0877
  262TMC3    C3 4017   4.679   2.441  11.548 -0.4356  1.2536 -0.8994
  262TMC3    C4 4018   0.078   2.263  11.393  0.5173 -0.5645 -0.2363
  262TMC3    C5 4019   0.038   2.383  11.347  0.4468 -0.4633  0.3430
  262TMC3    C6 4020   4.708   2.473  11.420  0.1377  0.1604  0.3519
  262TMC3     C 4021   0.043   2.105  11.565 -0.0429  0.2827  0.5127
  262TMC3     O 4022   4.734   2.035  11.478  0.3446 -0.4245  0.2680
  262TMC3     H 4023   4.702   2.301  11.703 -0.7002 -1.1091 -0.0886
  262TMC3    H1 4024   0.140   2.194  11.337  2.0604  1.6911 -1.3041
  262TMC3    H2 4025   4.686   2.567  11.371  0.4697 -0.3891 -0.8648
  262TMC3    C7 4026   0.131   2.432  11.250 -0.7635 -0.1529 -0.1864
  262TMC3    C8 4027   4.600   2.535  11.633  0.3788  0.2159  0.1645
  262TMC3    O1 4028   0.244   2.394  11.269  0.6983 -0.0037  0.3327
  262TMC3    O2 4029   4.574   2.641  11.579 -0.1078 -0.0044 -0.6993
  263MPD2     C 4030   0.666   0.599  11.262  0.5959  0.3284  0.2121
  263MPD2    C1 4031   0.749   0.677  11.343 -0.2949  0.1429  0.4866
  263MPD2    C2 4032   0.775   0.806  11.299 -0.7882  0.1986  0.0062
  263MPD2    C3 4033   0.723   0.867  11.187  0.2497 -0.3393  0.5592
  263MPD2    C4 4034   0.655   0.784  11.107 -0.3695  0.6841  0.4036
  263MPD2    C5 4035   0.623   0.651  11.143  0.1197 -0.3914 -0.3525
  263MPD2     H 4036   0.846   0.863  11.357  1.5789 -3.2371  0.4620
  263MPD2    H1 4037   0.630   0.806  11.004 -0.7050 -1.3365  0.0518
  263MPD2    H2 4038   0.632   0.500  11.291 -1.1763 -0.0298 -3.1082
  263MPD2    H3 4039   0.561   0.585  11.083 -0.0729 -0.3612 -0.1885
  263MPD2     N 4040   0.764   1.001  11.155  0.0772 -0.0309  0.4097
  263MPD2    H5 4041   0.832   1.042  11.218 -0.1180  0.8049  0.0880
  263MPD2    N1 4042   0.800   0.623  11.461  0.0462 -0.2140 -0.1588
  263MPD2    H7 4043   0.778   0.527  11.484  1.7797 -0.6546 -0.3297
  264TMC3    C1 4044   0.773   1.206  11.047  0.3555  0.0461  0.2253
  264TMC3    C2 4045   0.818   1.265  11.159 -0.0570  0.3909 -0.6177
  264TMC3    C3 4046   0.900   1.374  11.133  0.1116  0.3674  0.3639
  264TMC3    C4 4047   0.801   1.248  10.922 -0.9340 -0.0146  0.6601
  264TMC3    C5 4048   0.876   1.363  10.898 -0.0784  0.2280 -0.4047
  264TMC3    C6 4049   0.929   1.425  11.009 -0.4502 -0.6333  0.2646
  264TMC3     C 4050   0.705   1.079  11.061 -0.6684 -0.0025 -0.1417
  264TMC3     O 4051   0.641   1.044  10.965 -0.2437  0.2061  0.7153
  264TMC3     H 4052   0.790   1.234  11.259 -0.9337 -0.3788 -1.1107
  264TMC3    H1 4053   0.755   1.188  10.844  0.8462 -1.5374  0.7699
  264TMC3    H2 4054   0.982   1.520  11.002 -1.6712  0.1440  1.5428
  264TMC3    C7 4055   0.894   1.426  10.768 -0.4668 -0.2092  0.9632
  264TMC3    C8 4056   0.954   1.459  11.241  0.2077 -0.1028  0.8299
  264TMC3    O1 4057   0.975   1.514  10.744 -0.1321 -0.1649  0.1559
  264TMC3    O2 4058   0.963   1.576  11.204 -0.0568  0.1304  0.0078
  265MPD2     C 4059   2.468   1.547  15.384 -0.1668 -0.9313 -0.2894
  265MPD2    C1 4060   2.569   1.643  15.371  0.6030 -0.5045  0.0268
  265MPD2    C2 4061   2.679   1.621  15.290  0.1832 -0.2818  0.0295
  265MPD2    C3 4062   2.684   1.509  15.210  0.6828 -0.0350  0.2333
  265MPD2    C4 4063   2.579   1.420  15.215  0.4824  0.1939 -0.1190
  265MPD2    C5 4064   2.479   1.433  15.307  0.3676  0.3656 -0.0495
  265MPD2     H 4065   2.762   1.690  15.285  0.3019 -0.5278 -1.3222
  265MPD2    H1 4066   2.594   1.333  15.151  1.2190  1.2341 -1.3658
  265MPD2    H2 4067   2.378   1.560  15.443 -2.2674 -4.1590 -2.8390
  265MPD2    H3 4068   2.402   1.358  15.301 -0.6101  1.4806 -1.3635
  265MPD2     N 4069   2.785   1.481  15.118  0.5348  0.3867 -0.3442
  265MPD2    H5 4070   2.777   1.396  15.063 -0.2185 -0.3852  0.9581
  265MPD2    N1 4071   2.567   1.772  15.439 -0.8935  0.2069 -0.0084
  265MPD2    H7 4072   2.650   1.829  15.433 -1.4657  0.7392 -2.8670
  266TMC3    C1 4073   2.473   1.958  15.542  0.2472  0.0161 -0.5382
  266TMC3    C2 4074   2.555   1.949  15.654  0.4102 -0.1632  0.2864
  266TMC3    C3 4075   2.514   2.025  15.762  0.3754  0.3278  0.6156
  266TMC3    C4 4076   2.356   2.039  15.545 -0.5473 -1.3329 -0.4081
  266TMC3    C5 4077   2.334   2.130  15.646  0.0871  0.2041 -0.7426
  266TMC3    C6 4078   2.408   2.120  15.761 -0.9214  0.4465 -0.9348
  266TMC3     C 4079   2.447   1.833  15.477 -0.0061 -0.1586 -0.0656
  266TMC3     O 4080   2.330   1.800  15.475 -0.2629 -0.1821 -0.4065
  266TMC3     H 4081   2.635   1.877  15.652 -0.3745 -0.9800 -1.4541
  266TMC3    H1 4082   2.295   2.035  15.455 -2.3316  0.0224  0.7630
  266TMC3    H2 4083   2.387   2.184  15.845  0.3480 -1.6084  0.9501
  266TMC3    C7 4084   2.226   2.230  15.625  0.8083  0.4963  0.0409
  266TMC3    C8 4085   2.615   2.032  15.862  0.0961 -0.1921 -0.2722
  266TMC3    O1 4086   2.153   2.249  15.719 -0.1698 -0.7655  0.1557
  266TMC3    O2 4087   2.680   1.933  15.880  0.9205 -0.1130 -0.2958
  267MPD2     C 4088   0.292   2.746  17.116 -0.0800 -0.2081  0.6984
  267MPD2    C1 4089   0.364   2.790  17.226 -0.1412 -0.2971 -0.5376
  267MPD2    C2 4090   0.307   2.872  17.317 -0.3111 -0.4201 -0.2204
  267MPD2    C3 4091   0.183   2.932  17.304 -0.4071  0.8220 -0.0871
  267MPD2    C4 4092   0.109   2.886  17.199 -0.0719  0.4467  0.0777
  267MPD2    C5 4093   0.162   2.800  17.104  0.0940 -0.4480 -0.5996
  267MPD2     H 4094   0.374   2.899  17.398  0.1893 -0.1038 -0.7428
  267MPD2    H1 4095   0.008   2.924  17.193 -0.5505 -0.6874  1.2260
  267MPD2    H2 4096   0.329   2.672  17.046 -1.6630  0.9041 -1.3213
  267MPD2    H3 4097   0.104   2.770  17.018 -0.8349  2.0365 -0.8418
  267MPD2     N 4098   0.125   3.014  17.407 -0.2522  0.0526 -0.1789
  267MPD2    H5 4099   0.032   3.046  17.382 -1.3974 -4.0326 -1.1009
  267MPD2    N1 4100   0.496   2.739  17.246 -0.6197 -0.2928  0.0091
  267MPD2    H7 4101   0.520   2.656  17.193 -1.6328 -0.4545 -0.1898
  268TMC3    C1 4102   0.702   2.716  17.365  0.0609 -0.3726  0.2401
  268TMC3    C2 4103   0.805   2.788  17.420 -0.0349 -0.6435  0.1370
  268TMC3    C3 4104   0.872   2.742  17.531 -0.1406  0.2238 -0.4593
  268TMC3    C4 4105   0.661   2.594  17.419 -0.1141 -0.3627  0.2941
  268TMC3    C5 4106   0.736   2.547  17.524 -0.2053  0.0720  0.2338
  268TMC3    C6 4107   0.839   2.621  17.585 -0.1929  0.4094  0.4196
  268TMC3     C 4108   0.593   2.800  17.325 -0.6944  0.2800 -0.8367
  268TMC3     O 4109   0.594   2.907  17.384 -0.0433 -0.2983  0.4138
  268TMC3     H 4110   0.828   2.872  17.355 -0.9997 -2.2452 -2.2661
  268TMC3    H1 4111   0.586   2.531  17.373 -0.4830 -1.5366  2.5036
  268TMC3    H2 4112   0.883   2.575  17.673  0.0839 -1.2275 -0.5819
  268TMC3    C7 4113   0.718   2.414  17.592 -0.1760 -0.6056  0.0120
  268TMC3    C8 4114   0.924   2.838  17.623 -0.0015  0.0931  0.2700
  268TMC3    O1 4115   0.752   2.394  17.707 -0.3546 -0.6974  0.2246
  268TMC3    O2 4116   0.957   2.797  17.733 -0.1910  0.4246 -0.2243
  269MPD2     C 4117   1.002   2.364  15.267  0.0576  0.1816  0.1632
  269MPD2    C1 4118   0.903   2.330  15.358 -0.4672  0.4957  0.2960
  269MPD2    C2 4119   0.810   2.428  15.387  0.5879  1.3464 -0.0848
  269MPD2    C3 4120   0.822   2.560  15.345  0.1290  0.6868 -0.0576
  269MPD2    C4 4121   0.928   2.591  15.265  1.1417 -0.0086  0.4629
  269MPD2    C5 4122   1.011   2.494  15.218 -0.4140 -0.1259 -0.3389
  269MPD2     H 4123   0.727   2.398  15.450  0.9783 -0.4204 -0.4039
  269MPD2    H1 4124   0.951   2.693  15.234  1.4446 -0.1734  0.1461
  269MPD2    H2 4125   1.081   2.293  15.243 -0.2557 -0.1028 -0.0162
  269MPD2    H3 4126   1.090   2.520  15.149 -1.5754  0.1832 -1.5379
  269MPD2     N 4127   0.722   2.647  15.384 -0.1409  0.1703  0.4316
  269MPD2    H5 4128   0.657   2.610  15.452  0.3628  0.4502  1.0678
  269MPD2    N1 4129   0.901   2.195  15.402 -0.0330  0.0898 -0.1534
  269MPD2    H7 4130   0.964   2.135  15.350 -0.1162 -0.5743  0.5057
  270TMC3    C1 4131   0.818   2.000  15.505  0.2960  0.3466 -0.0919
  270TMC3    C2 4132   0.703   1.933  15.545 -0.0718  0.9371  0.7658
  270TMC3    C3 4133   0.705   1.798  15.538 -0.0182 -0.2517  0.1206
  270TMC3    C4 4134   0.927   1.938  15.453  0.5895 -0.0196  0.7993
  270TMC3    C5 4135   0.919   1.803  15.440 -0.6248  0.1871  0.3020
  270TMC3    C6 4136   0.810   1.731  15.486  0.3119 -0.1152 -0.3794
  270TMC3     C 4137   0.804   2.141  15.482 -0.6275 -0.3230  0.1276
  270TMC3     O 4138   0.716   2.202  15.547 -0.5678  0.5015  0.2803
  270TMC3     H 4139   0.604   1.973  15.565  0.0799  1.2288  0.9403
  270TMC3    H1 4140   1.016   1.993  15.426 -0.2577  0.4327 -1.1083
  270TMC3    H2 4141   0.811   1.624  15.468  2.1643  0.0517 -1.2343
  270TMC3    C7 4142   1.028   1.718  15.397  0.4183  0.2546 -1.0117
  270TMC3    C8 4143   0.570   1.747  15.499 -0.4712 -0.2200  0.3109
  270TMC3    O1 4144   1.027   1.598  15.417 -0.0792  0.3026 -0.5101
  270TMC3    O2 4145   0.474   1.790  15.561  0.3186 -0.2273 -0.2911
  271MPD2     C 4146   4.538   1.438  13.804 -0.4219 -0.6258  0.5638
  271MPD2    C1 4147   4.548   1.547  13.884  0.5876 -0.1775 -0.3309
  271MPD2    C2 4148   4.486   1.657  13.839 -0.4764  0.1309 -0.5896
  271MPD2    C3 4149   4.431   1.670  13.712 -0.4412 -0.1895  0.1175
  271MPD2    C4 4150   4.425   1.558  13.628  0.5952 -0.5424 -0.7649
  271MPD2    C5 4151   4.480   1.441  13.680  0.1787 -0.8149  0.8039
  271MPD2     H 4152   4.498   1.741  13.907 -1.7834  0.7944 -1.1749
  271MPD2    H1 4153   4.393   1.559  13.524 -0.3568 -1.1331 -0.4767
  271MPD2    H2 4154   4.569   1.340  13.839  2.1724  1.0070  2.8658
  271MPD2    H3 4155   4.475   1.348  13.624 -1.5586 -0.5544  0.5416
  271MPD2     N 4156   4.374   1.792  13.664 -0.1753  0.1260  0.0584
  271MPD2    H5 4157   4.344   1.786  13.567 -0.2602  0.7385  0.0461
  271MPD2    N1 4158   4.603   1.524  14.008 -0.0982 -0.3841 -0.4072
  271MPD2    H7 4159   4.633   1.430  14.032  1.4655  0.3226  0.4610
  272TMC3    C1 4160   4.702   1.554  14.215 -1.1388  0.7032 -0.2284
  272TMC3    C2 4161   0.071   1.470  14.191  0.2726 -0.4260  0.2263
  272TMC3    C3 4162   0.125   1.419  14.305 -0.6559  0.2007  0.5143
  272TMC3    C4 4163   4.653   1.583  14.339 -0.1163 -1.0044  0.7448
  272TMC3    C5 4164   4.718   1.535  14.448 -0.0965 -0.1651  0.1972
  272TMC3    C6 4165   0.092   1.456  14.436 -0.5745  0.1117  0.7079
  272TMC3     C 4166   4.626   1.614  14.108  0.3609 -0.2845 -0.2495
  272TMC3     O 4167   4.604   1.736  14.118  0.0233  0.3610 -0.3711
  272TMC3     H 4168   0.112   1.445  14.094  1.8398 -0.2824  0.8472
  272TMC3    H1 4169   4.572   1.654  14.351 -0.6594 -1.0695 -2.4396
  272TMC3    H2 4170   0.122   1.411  14.530 -0.0930 -0.3044  0.3539
  272TMC3    C7 4171   4.655   1.563  14.568  0.5457  0.8940 -0.3620
  272TMC3    C8 4172   0.257   1.351  14.286 -0.0423  0.6941  0.0709
  272TMC3    O1 4173   4.529   1.558  14.575  0.3842  0.3447  0.3794
  272TMC3    O2 4174   0.291   1.334  14.169  0.0405  0.0547  0.5027
  273MPD2     C 4175   0.707   4.494  11.498 -0.1311  0.5151  0.4487
  273MPD2    C1 4176   0.833   4.536  11.542 -0.1385  0.4331  0.5336
  273MPD2    C2 4177   0.906   4.595  11.438  0.6845  0.3712 -0.5894
  273MPD2    C3 4178   0.869   4.591  11.309 -0.7087  0.2254  1.1355
  273MPD2    C4 4179   0.748   4.542  11.266  0.0206 -0.3803 -0.0735
  273MPD2    C5 4180   0.667   4.496  11.367 -0.1280  0.4758  0.2963
  273MPD2     H 4181   1.000   4.646  11.456 -0.2884  2.0832 -0.4405
  273MPD2    H1 4182   0.718   4.520  11.164 -0.8558 -0.9139  0.3004
  273MPD2    H2 4183   0.637   4.460  11.573  0.6358 -0.3249  0.7896
  273MPD2    H3 4184   0.571   4.452  11.343  0.4398  0.0588 -1.2091
  273MPD2     N 4185   0.948   4.639  11.205  0.2447 -0.2453 -0.2569
  273MPD2    H5 4186   0.910   4.621  11.113 -0.4980  0.6435 -0.1228
  273MPD2    N1 4187   0.870   4.526  11.677  0.7524 -0.0919 -0.3528
  273MPD2    H7 4188   0.795   4.488  11.734 -0.8016  0.3577 -2.0924
  274TMC3    C1 4189   1.110   0.000  11.085 -0.0457  0.6016  0.5470
  274TMC3    C2 4190   1.015   0.056  11.001 -0.6742  0.6182  0.3424
  274TMC3    C3 4191   1.068   0.122  10.892  0.3226  0.3821 -0.7449
  274TMC3    C4 4192   1.240   0.010  11.058 -0.9873  0.5234  0.2255
  274TMC3    C5 4193   1.285   0.081  10.949  0.2882  0.1398  0.7886
  274TMC3    C6 4194   1.200   0.136  10.862 -0.4730 -0.8597  0.1010
  274TMC3     C 4195   1.068   4.695  11.212 -0.1003 -0.0192 -0.5333
  274TMC3     O 4196   1.147   4.729  11.299 -0.2413  0.3513  0.6345
  274TMC3     H 4197   0.910   0.072  11.026 -1.1861 -0.0214 -1.3662
  274TMC3    H1 4198   1.309   4.695  11.124  1.2120  0.1797 -2.3357
  274TMC3    H2 4199   1.232   0.177  10.767 -0.4973 -1.3542 -0.1192
  274TMC3    C7 4200   1.361   0.194  11.002 -0.0935 -0.5000  0.4771
  274TMC3    C8 4201   0.975   0.198  10.813  0.4269 -0.0146 -0.1853
  274TMC3    O1 4202   1.405   0.277  10.919  0.1406  0.1839 -0.6980
  274TMC3    O2 4203   1.020   0.280  10.734 -0.4325 -0.2298  0.9813
  275MPD2     C 4204   1.357   2.807  14.314  0.5526  0.1381 -0.2610
  275MPD2    C1 4205   1.284   2.873  14.409  0.2506 -0.2157 -0.1077
  275MPD2    C2 4206   1.180   2.804  14.467 -0.3241 -0.1854  0.1996
  275MPD2    C3 4207   1.143   2.673  14.428 -1.1374 -0.4612 -0.5064
  275MPD2    C4 4208   1.234   2.602  14.349  0.2778 -0.0652 -0.1540
  275MPD2    C5 4209   1.333   2.676  14.291  0.1278 -0.0908  0.6612
  275MPD2     H 4210   1.116   2.855  14.538  0.4941 -0.8187  1.3910
  275MPD2    H1 4211   1.229   2.496  14.330 -0.1161 -0.3003  1.2288
  275MPD2    H2 4212   1.445   2.847  14.265 -0.3016  0.4682 -1.5041
  275MPD2    H3 4213   1.400   2.625  14.223  1.3542  2.8409 -0.3367
  275MPD2     N 4214   1.025   2.597  14.472 -0.1744  0.2744  0.0414
  275MPD2    H5 4215   1.014   2.499  14.448  1.3654 -0.1730  1.1549
  275MPD2    N1 4216   1.319   3.001  14.453  0.7894 -0.2776  0.0464
  275MPD2    H7 4217   1.257   3.038  14.525 -0.3386 -1.1165 -0.5003
  276TMC3    C1 4218   1.471   3.170  14.532  0.0700  0.1362 -0.1634
  276TMC3    C2 4219   1.366   3.223  14.600 -0.1991  0.2127 -0.6566
  276TMC3    C3 4220   1.366   3.250  14.735  0.2129 -0.2243 -0.0328
  276TMC3    C4 4221   1.592   3.159  14.600 -0.0283 -0.0312  0.4852
  276TMC3    C5 4222   1.595   3.202  14.728 -0.1481  0.3303 -0.1097
  276TMC3    C6 4223   1.486   3.235  14.803  0.0935  0.0995 -0.2041
  276TMC3     C 4224   1.439   3.066  14.432 -0.6043 -0.3651 -0.2309
  276TMC3     O 4225   1.533   3.029  14.360  0.1644  0.0794 -0.3439
  276TMC3     H 4226   1.266   3.236  14.559 -0.8659  0.7054  1.0824
  276TMC3    H1 4227   1.679   3.116  14.551 -0.1331 -0.1445  0.3999
  276TMC3    H2 4228   1.503   3.279  14.901  2.8865  2.4283 -1.7815
  276TMC3    C7 4229   1.702   3.153  14.814 -0.3620 -0.3872 -0.0758
  276TMC3    C8 4230   1.269   3.162  14.789 -0.1114  0.2998 -0.7838
  276TMC3    O1 4231   1.662   3.109  14.924  0.6279  0.3212  0.2247
  276TMC3    O2 4232   1.152   3.177  14.750 -0.2889  0.2206 -0.0324
  277MPD2     C 4233   3.133   1.753  12.817  0.9659  0.3997 -0.3926
  277MPD2    C1 4234   3.031   1.799  12.891 -1.0222 -0.1867  0.3822
  277MPD2    C2 4235   2.958   1.715  12.965  0.8352  0.1956  0.1449
  277MPD2    C3 4236   2.975   1.577  12.956  0.1212 -0.5988  0.9340
  277MPD2    C4 4237   3.087   1.531  12.889 -0.1131  0.3728 -0.3565
  277MPD2    C5 4238   3.159   1.618  12.817  0.0088 -0.4086 -0.8031
  277MPD2     H 4239   2.876   1.751  13.026  0.0378 -0.8681 -0.2947
  277MPD2    H1 4240   3.122   1.428  12.888 -0.5528  0.2038  1.1833
  277MPD2    H2 4241   3.201   1.823  12.769 -1.0412  1.3421 -1.8793
  277MPD2    H3 4242   3.252   1.590  12.769 -0.5965 -1.0615 -1.5916
  277MPD2     N 4243   2.892   1.498  13.040  0.4906  0.8280  0.3248
  277MPD2    H5 4244   2.827   1.554  13.093  0.1252  1.2569 -0.5712
  277MPD2    N1 4245   3.008   1.944  12.901 -0.2365  0.4963  0.2561
  277MPD2    H7 4246   3.076   1.995  12.845  0.6838  0.0620  0.9695
  278TMC3    C1 4247   2.754   1.315  13.077 -0.2185 -0.0419  0.3161
  278TMC3    C2 4248   2.746   1.185  13.114 -0.4932  1.2270  0.1082
  278TMC3    C3 4249   2.639   1.147  13.192  0.6726  0.3741 -0.7588
  278TMC3    C4 4250   2.658   1.406  13.115  0.7993  0.0263 -0.7294
  278TMC3    C5 4251   2.546   1.363  13.185  0.0109  0.3007  0.0983
  278TMC3    C6 4252   2.538   1.237  13.224 -0.1191  0.1881 -1.0083
  278TMC3     C 4253   2.875   1.366  13.012  0.2836  0.6648  1.2029
  278TMC3     O 4254   2.939   1.282  12.956  0.4723 -0.3391  0.3774
  278TMC3     H 4255   2.832   1.121  13.103 -0.5407  1.4197 -1.3552
  278TMC3    H1 4256   2.653   1.502  13.066  0.0790 -0.4579 -1.5999
  278TMC3    H2 4257   2.462   1.202  13.293  0.8000 -0.7395 -0.4685
  278TMC3    C7 4258   2.462   1.462  13.248  1.2178 -0.5582  0.4123
  278TMC3    C8 4259   2.645   1.017  13.249  0.3903 -0.0409  0.2915
  278TMC3    O1 4260   2.499   1.577  13.232 -0.5527 -0.5625  0.0212
  278TMC3    O2 4261   2.581   0.998  13.351  0.2100 -0.3538 -0.1754
  279MPD2     C 4262   2.289   1.356   0.103 -0.9600 -0.2339  0.1581
  279MPD2    C1 4263   2.176   1.430   0.082  0.2359  0.6537  0.1298
  279MPD2    C2 4264   2.185   1.544   0.005  0.7273  0.1929 -0.6023
  279MPD2    C3 4265   2.302   1.598  17.699  0.0064  0.0954 -0.1244
  279MPD2    C4 4266   2.420   1.528  17.733 -0.0945  0.7684  0.3282
  279MPD2    C5 4267   2.405   1.404   0.059 -0.0502  0.5665  0.7684
  279MPD2     H 4268   2.092   1.594  17.724  0.5432 -0.7607 -1.8602
  279MPD2    H1 4269   2.518   1.549  17.693 -0.2978  1.8157  0.3735
  279MPD2    H2 4270   2.296   1.261   0.153 -0.3758 -1.8500 -2.9465
  279MPD2    H3 4271   2.502   1.358   0.074 -0.1241  0.3481  0.5579
  279MPD2     N 4272   2.313   1.701  17.603  0.0717  0.4525  0.0350
  279MPD2    H5 4273   2.405   1.725  17.567  0.3423  0.6624  0.8487
  279MPD2    N1 4274   2.048   1.405   0.129 -0.2049  0.4612 -0.3161
  279MPD2    H7 4275   1.986   1.485   0.116 -0.8962 -0.1052 -0.4675
  280TMC3    C1 4276   1.855   1.291   0.160  0.7191  0.3551 -0.0436
  280TMC3    C2 4277   1.795   1.200   0.076  0.5440  0.2792  0.3248
  280TMC3    C3 4278   1.675   1.236   0.017  0.1422 -0.3592 -0.4497
  280TMC3    C4 4279   1.789   1.402   0.205 -0.0435  0.8006 -0.6693
  280TMC3    C5 4280   1.675   1.447   0.136 -0.4841  0.1856 -0.3534
  280TMC3    C6 4281   1.616   1.361   0.044  0.4930  0.2129  0.2329
  280TMC3     C 4282   2.005   1.284   0.168 -0.2107  0.0043 -0.0863
  280TMC3     O 4283   2.056   1.175   0.164 -0.5495 -0.1801 -0.0430
  280TMC3     H 4284   1.841   1.105   0.057 -0.6278  0.1694 -1.9686
  280TMC3    H1 4285   1.832   1.473   0.274 -0.7610  2.6436 -2.1292
  280TMC3    H2 4286   1.512   1.374   0.013  0.6493 -0.5774 -0.6162
  280TMC3    C7 4287   1.597   1.547   0.210 -0.7367 -0.7306 -0.4871
  280TMC3    C8 4288   1.601   1.144  17.684 -0.2461  0.0324  0.4490
  280TMC3    O1 4289   1.627   1.576   0.326 -0.4605  0.1263 -0.1358
  280TMC3    O2 4290   1.513   1.195  17.617  0.1728 -0.0870  0.3486
  281TMC3    C1 4291   0.327   2.347  13.585  0.5005  0.3128  0.2415
  281TMC3    C2 4292   0.459   2.337  13.570  0.1490  0.2459  0.3913
  281TMC3    C3 4293   0.506   2.222  13.520  0.3964  0.3122 -0.2910
  281TMC3    C4 4294   0.249   2.244  13.558  0.5313 -0.6500  0.5804
  281TMC3    C5 4295   0.300   2.128  13.512 -0.2602  0.3125 -0.6335
  281TMC3    C6 4296   0.434   2.110  13.494  0.8116 -0.4947 -0.1309
  281TMC3     C 4297   0.260   2.465  13.629  0.0680  0.4249  0.3625
  281TMC3     O 4298   0.143   2.476  13.600 -0.5913  0.5975 -0.2430
  281TMC3     H 4299   0.524   2.423  13.557 -0.7503  0.9318  0.4501
  281TMC3    H1 4300   0.141   2.254  13.565  0.6082  0.3435  0.3133
  281TMC3    H2 4301   0.469   2.022  13.442  1.4316 -0.7485  0.7179
  281TMC3    C7 4302   0.220   2.011  13.527  0.3726  0.3096 -0.3242
  281TMC3    C8 4303   0.653   2.222  13.502  0.1028 -0.2811 -0.2772
  281TMC3    O1 4304   0.098   2.026  13.525 -0.4084  0.7864  0.1567
  281TMC3    O2 4305   0.690   2.133  13.427  0.2784  0.3972  0.2633
  282MPD2     C 4306   2.688   3.376  14.907 -0.2335 -0.5170 -0.3879
  282MPD2    C1 4307   2.589   3.406  14.998 -0.6477  0.1374  0.2055
  282MPD2    C2 4308   2.469   3.440  14.944  0.1094 -0.3234  0.2488
  282MPD2    C3 4309   2.439   3.422  14.811  0.8043 -0.3660 -0.1918
  282MPD2    C4 4310   2.538   3.388  14.717  0.8769 -0.2417  0.0803
  282MPD2    C5 4311   2.667   3.368  14.770 -0.3289 -0.0157 -0.1026
  282MPD2     H 4312   2.389   3.475  15.009  1.7327  1.1272  1.4651
  282MPD2    H1 4313   2.521   3.380  14.610 -1.4871 -1.0841  0.5209
  282MPD2    H2 4314   2.789   3.347  14.935 -0.2221 -0.9180 -0.8431
  282MPD2    H3 4315   2.748   3.343  14.703  0.1195  0.8003  0.1361
  282MPD2     N 4316   2.311   3.450  14.756 -0.5277  0.5951  0.6480
  282MPD2    H5 4317   2.310   3.430  14.656  0.8167  1.4153  0.4706
  282MPD2    N1 4318   2.602   3.391  15.139  0.0954 -0.1638 -0.4409
  282MPD2    H7 4319   2.543   3.452  15.195  0.2290  0.0760 -0.5599
  283TMC3    C1 4320   2.682   3.333  15.355  0.5529  0.3849 -0.3627
  283TMC3    C2 4321   2.674   3.457  15.414 -1.0277 -0.0526 -0.1624
  283TMC3    C3 4322   2.665   3.456  15.550 -0.5034  0.0980 -0.5775
  283TMC3    C4 4323   2.670   3.214  15.421  0.2906 -0.3252 -0.4734
  283TMC3    C5 4324   2.664   3.215  15.560 -0.4084  0.4835 -0.6347
  283TMC3    C6 4325   2.663   3.338  15.627 -0.1671 -0.3945  0.2898
  283TMC3     C 4326   2.695   3.321  15.205  1.4138  0.4686  0.5620
  283TMC3     O 4327   2.773   3.236  15.169 -0.0338 -0.0152 -0.1756
  283TMC3     H 4328   2.691   3.549  15.360 -3.1071  0.9092  0.8293
  283TMC3    H1 4329   2.669   3.117  15.372 -0.4854 -0.8476  0.5534
  283TMC3    H2 4330   2.636   3.342  15.732 -1.0910  0.6484  0.0167
  283TMC3    C7 4331   2.589   3.111  15.631 -0.7096  0.2247  0.4615
  283TMC3    C8 4332   2.676   3.578  15.630 -0.4703 -0.0485  0.0192
  283TMC3    O1 4333   2.549   3.135  15.746 -1.0960  0.5627  0.1981
  283TMC3    O2 4334   2.697   3.563  15.748 -0.1497  0.6616 -0.0871
  284MPD2     C 4335   0.307   2.690  12.420  0.1125 -0.0400  0.4994
  284MPD2    C1 4336   0.427   2.642  12.376 -0.7771 -0.2916  0.1778
  284MPD2    C2 4337   0.515   2.586  12.471 -0.9067  0.0923 -0.8406
  284MPD2    C3 4338   0.494   2.593  12.606 -0.3051 -0.5341  0.1860
  284MPD2    C4 4339   0.375   2.647  12.652 -0.1617  0.4040 -0.5899
  284MPD2    C5 4340   0.282   2.687  12.560 -0.6026  0.1991  0.3443
  284MPD2     H 4341   0.602   2.534  12.432 -1.9569 -0.6478 -2.1641
  284MPD2    H1 4342   0.351   2.659  12.757  0.5169 -1.5040 -0.2135
  284MPD2    H2 4343   0.222   2.709  12.357  1.7884  2.6492 -0.9397
  284MPD2    H3 4344   0.179   2.708  12.587 -1.0818 -2.4279  0.5253
  284MPD2     N 4345   0.584   2.549  12.707 -1.0812  0.1365 -0.1415
  284MPD2    H5 4346   0.552   2.561  12.803  3.3151  0.2243  1.3031
  284MPD2    N1 4347   0.467   2.660  12.245  0.2378 -0.0966  0.8162
  284MPD2    H7 4348   0.562   2.640  12.216  0.0893 -1.2463  1.1466
  285TMC3    C1 4349   0.484   2.798  12.049 -0.3931  0.3348 -0.2530
  285TMC3    C2 4350   0.618   2.767  12.043  0.4079 -0.5314 -0.6887
  285TMC3    C3 4351   0.692   2.834  11.944  0.2054 -0.3116 -1.0330
  285TMC3    C4 4352   0.416   2.891  11.965  0.2840  0.7190  0.0086
  285TMC3    C5 4353   0.502   2.948  11.878  0.1844 -0.4142  0.2519
  285TMC3    C6 4354   0.635   2.932  11.873  0.0066 -0.3304 -0.3417
  285TMC3     C 4355   0.401   2.750  12.159 -0.4689 -0.4347  0.0052
  285TMC3     O 4356   0.285   2.782  12.141  0.4604 -0.2412  0.1701
  285TMC3     H 4357   0.671   2.687  12.094 -2.4788 -3.3527 -2.0885
  285TMC3    H1 4358   0.312   2.922  11.973  0.3573  1.0292 -0.2397
  285TMC3    H2 4359   0.677   2.963  11.777 -0.4202  0.5387 -0.2471
  285TMC3    C7 4360   0.461   3.066  11.810  0.8809  0.3808  0.2894
  285TMC3    C8 4361   0.820   2.780  11.895  0.2466  0.3478 -0.6528
  285TMC3    O1 4362   0.529   3.165  11.834 -0.4027 -0.1217 -0.0445
  285TMC3    O2 4363   0.840   2.665  11.928 -0.0747 -0.2825  0.4589
  286MPD2     C 4364   0.791   0.880   1.445  0.6958 -0.0714  0.6423
  286MPD2    C1 4365   0.779   0.896   1.309 -0.2405  0.2620 -0.2065
  286MPD2    C2 4366   0.873   0.849   1.223  0.0069  0.0113 -0.1337
  286MPD2    C3 4367   1.000   0.824   1.269  0.2983  0.1839 -0.5183
  286MPD2    C4 4368   1.025   0.825   1.406 -0.0997  0.1095  0.6121
  286MPD2    C5 4369   0.915   0.838   1.488  0.1556 -0.1609  1.0054
  286MPD2     H 4370   0.847   0.841   1.118 -3.3965  0.9934  0.6513
  286MPD2    H1 4371   1.128   0.818   1.438  0.4540 -0.8768 -1.3662
  286MPD2    H2 4372   0.715   0.889   1.522 -0.3577  0.5335 -0.4620
  286MPD2    H3 4373   0.934   0.823   1.594 -0.0524 -1.9682  0.7933
  286MPD2     N 4374   1.104   0.796   1.178  0.1802 -0.1936 -0.1582
  286MPD2    H5 4375   1.196   0.779   1.217  1.0606  0.7478 -1.7985
  286MPD2    N1 4376   0.665   0.945   1.239  0.1521  0.4922  0.3596
  286MPD2    H7 4377   0.671   0.944   1.137  1.7168  2.4139  0.4422
  287TMC3    C1 4378   1.225   0.767   0.980 -0.0333  0.5988 -0.0532
  287TMC3    C2 4379   1.217   0.737   0.849 -0.4287  0.2466 -0.5492
  287TMC3    C3 4380   1.322   0.678   0.793 -0.4547 -0.1249 -0.1260
  287TMC3    C4 4381   1.342   0.763   1.055 -0.6760 -0.0558  0.0156
  287TMC3    C5 4382   1.450   0.717   0.987 -0.2236 -0.6146  0.2738
  287TMC3    C6 4383   1.448   0.672   0.859  0.2321  0.1578 -0.3146
  287TMC3     C 4384   1.102   0.818   1.042 -0.0366  0.1483 -0.5343
  287TMC3     O 4385   1.004   0.835   0.968  0.5706 -0.5698  0.4076
  287TMC3     H 4386   1.120   0.730   0.802 -0.7760 -2.6147  0.5849
  287TMC3    H1 4387   1.355   0.781   1.161 -0.5235 -1.5177  0.2453
  287TMC3    H2 4388   1.524   0.609   0.814  1.7042 -0.0268  2.4377
  287TMC3    C7 4389   1.579   0.729   1.053  0.6202 -0.0689 -0.2468
  287TMC3    C8 4390   1.304   0.626   0.660 -0.4295  0.1331 -0.9706
  287TMC3    O1 4391   1.592   0.783   1.165  0.3247 -0.0214  0.2851
  287TMC3    O2 4392   1.406   0.571   0.619  0.2590  0.0506 -0.2253
  288TMC3    C1 4393   3.321   1.356  14.145  0.2689 -0.4787  0.1017
  288TMC3    C2 4394   3.240   1.407  14.241 -0.3673 -0.0526 -0.2662
  288TMC3    C3 4395   3.128   1.465  14.194 -0.1797 -0.6580 -0.0767
  288TMC3    C4 4396   3.289   1.359  14.012 -0.1751 -0.0816  0.1666
  288TMC3    C5 4397   3.167   1.422  13.977 -0.0700 -0.8281  0.9143
  288TMC3    C6 4398   3.091   1.481  14.067  0.4872  0.9363  0.0457
  288TMC3     C 4399   3.457   1.337  14.188  0.2822 -0.5101 -0.4617
  288TMC3     O 4400   3.483   1.363  14.308 -0.7126 -0.5905  0.1928
  288TMC3     H 4401   3.269   1.413  14.345  1.1971  0.9070 -0.7582
  288TMC3    H1 4402   3.343   1.311  13.932 -0.2838  0.0715  0.0020
  288TMC3    H2 4403   2.990   1.512  14.041  1.2542  3.2849 -0.1065
  288TMC3    C7 4404   3.110   1.410  13.840  0.2852 -0.7695 -0.1955
  288TMC3    C8 4405   3.026   1.494  14.299  0.3702 -0.2312 -0.3963
  288TMC3    O1 4406   2.989   1.400  13.840  0.2376  0.7602 -0.5012
  288TMC3    O2 4407   2.946   1.583  14.273  0.6038 -0.4705 -0.0652
  289MPD2     C 4408   3.072   0.441  14.765 -1.0531  0.4494 -0.3226
  289MPD2    C1 4409   3.100   0.524  14.653 -0.7027  0.0867  0.5266
  289MPD2    C2 4410   3.033   0.503  14.537  0.3758  0.3979  0.1753
  289MPD2    C3 4411   2.957   0.390  14.516  0.2426 -0.4213 -0.5484
  289MPD2    C4 4412   2.931   0.306  14.622 -0.5600  0.5507 -0.3870
  289MPD2    C5 4413   3.003   0.326  14.739  0.2939 -0.6503  0.0959
  289MPD2     H 4414   3.061   0.556  14.446  1.9839  1.2477  1.1631
  289MPD2    H1 4415   2.872   0.216  14.618  0.6269 -0.1743 -1.8428
  289MPD2    H2 4416   3.133   0.445  14.854  0.2951  1.3942 -1.3017
  289MPD2    H3 4417   3.001   0.245  14.810 -0.5021 -1.1481 -0.4911
  289MPD2     N 4418   2.890   0.354  14.397 -0.1476  0.0194  0.3879
  289MPD2    H5 4419   2.823   0.282  14.418 -2.2795  1.8412 -0.1681
  289MPD2    N1 4420   3.199   0.617  14.664  0.0713 -0.0598 -0.0326
  289MPD2    H7 4421   3.269   0.592  14.733  1.4207  0.3505 -1.2469
  290TMC3    C1 4422   2.809   0.379  14.172  0.6232  0.1041 -0.1954
  290TMC3    C2 4423   2.761   0.473  14.092 -0.0484 -0.0760 -0.1985
  290TMC3    C3 4424   2.671   0.429  13.996  0.7190 -0.9503  0.2244
  290TMC3    C4 4425   2.779   0.246  14.164 -0.3887  0.0017  0.3280
  290TMC3    C5 4426   2.688   0.206  14.071  0.3500  0.1884  1.0904
  290TMC3    C6 4427   2.636   0.297  13.983  0.1278  0.5563 -0.1465
  290TMC3     C 4428   2.899   0.424  14.275  0.0355  0.4784 -0.1883
  290TMC3     O 4429   2.956   0.527  14.247  0.0991  0.0107 -0.6194
  290TMC3     H 4430   2.802   0.573  14.090  1.1817 -0.6170 -2.0991
  290TMC3    H1 4431   2.838   0.168  14.212 -0.8288 -0.2950  0.3841
  290TMC3    H2 4432   2.552   0.267  13.920  2.5693 -0.8448 -2.7440
  290TMC3    C7 4433   2.634   0.076  14.084  0.7681  0.4697  0.0160
  290TMC3    C8 4434   2.628   0.533  13.899  0.2516  0.0970  0.0414
  290TMC3    O1 4435   2.663   0.032  14.196 -0.0013  0.6866  0.2821
  290TMC3    O2 4436   2.568   0.495  13.799  0.1101  0.1727 -0.2732
  291MPD2     C 4437   2.152   0.688   0.415 -1.1370  0.5653  0.1000
  291MPD2    C1 4438   2.263   0.613   0.378 -0.1900 -0.1459  0.0894
  291MPD2    C2 4439   2.379   0.669   0.342 -0.0128  0.2030 -0.1154
  291MPD2    C3 4440   2.387   0.804   0.324  0.5717 -0.3804  0.6567
  291MPD2    C4 4441   2.273   0.883   0.350  0.8586 -0.5141  0.0507
  291MPD2    C5 4442   2.155   0.822   0.389  1.0407 -0.0837  0.1765
  291MPD2     H 4443   2.458   0.599   0.315 -1.6392 -1.9630  0.7113
  291MPD2    H1 4444   2.285   0.989   0.329  2.3682 -1.1030 -2.0655
  291MPD2    H2 4445   2.057   0.648   0.450  0.0835 -0.0646  2.6570
  291MPD2    H3 4446   2.075   0.887   0.420  0.4534  0.2947 -2.1673
  291MPD2     N 4447   2.485   0.869   0.247 -0.3670  0.2629 -0.8715
  291MPD2    H5 4448   2.464   0.962   0.210 -0.8962  0.5849  0.2549
  291MPD2    N1 4449   2.264   0.471   0.393 -0.1022  0.0430  0.3719
  291MPD2    H7 4450   2.353   0.423   0.405  0.5440  0.9436 -0.8557
  292TMC3    C1 4451   2.199   0.255   0.346  1.1421 -0.2757  0.1014
  292TMC3    C2 4452   2.254   0.193   0.456  0.2191  0.4130  0.0091
  292TMC3    C3 4453   2.289   0.059   0.448  0.3909  0.2286 -0.1622
  292TMC3    C4 4454   2.174   0.185   0.236 -0.2863  0.5480 -0.2438
  292TMC3    C5 4455   2.209   0.052   0.230  0.1018 -0.4230 -0.4897
  292TMC3    C6 4456   2.271   4.724   0.329 -0.4085 -0.3476  0.0537
  292TMC3     C 4457   2.156   0.398   0.352  0.0057 -0.4544 -0.1712
  292TMC3     O 4458   2.057   0.431   0.287  0.1226  0.3786  0.0843
  292TMC3     H 4459   2.258   0.260   0.542 -0.3919  0.0232  0.3382
  292TMC3    H1 4460   2.138   0.237   0.149  0.5371  0.6010 -0.5576
  292TMC3    H2 4461   2.291   4.619   0.313 -1.9419 -0.1290 -3.2818
  292TMC3    C7 4462   2.223   4.719   0.104 -0.6748  0.4179 -0.9322
  292TMC3    C8 4463   2.300   4.731   0.577  0.2127 -0.1129 -0.1689
  292TMC3    O1 4464   2.310   4.641   0.099 -0.2726  0.6209 -0.3790
  292TMC3    O2 4465   2.239   0.054   0.666 -0.0718  0.2754 -0.0300
  293MPD2     C 4466   4.215   1.688  12.343  0.0980  0.9082 -0.1585
  293MPD2    C1 4467   4.094   1.651  12.401 -0.2706 -0.0983 -0.0999
  293MPD2    C2 4468   4.097   1.603  12.533 -0.6463  0.1264 -0.6013
  293MPD2    C3 4469   4.213   1.604  12.612 -0.5401 -0.0824 -0.1262
  293MPD2    C4 4470   4.330   1.634  12.547  0.0514  0.0377 -0.6297
  293MPD2    C5 4471   4.330   1.678  12.420  0.4027 -0.1666 -0.1034
  293MPD2     H 4472   4.005   1.581  12.587 -0.3123  0.4560  0.1092
  293MPD2    H1 4473   4.430   1.626  12.589  0.1298 -1.3058 -1.0588
  293MPD2    H2 4474   4.217   1.717  12.239  1.2621  1.0866 -0.0892
  293MPD2    H3 4475   4.424   1.711  12.377  0.4908 -0.3351 -0.0375
  293MPD2     N 4476   4.198   1.564  12.751  0.4300 -0.1026  0.2686
  293MPD2    H5 4477   4.106   1.560  12.794  0.3666  1.9431  0.3330
  293MPD2    N1 4478   3.972   1.662  12.326 -0.4333 -0.5809  0.1653
  293MPD2    H7 4479   3.984   1.712  12.239  1.7295 -2.4046 -0.5754
  294TMC3    C1 4480   3.746   1.632  12.261  0.0537  0.4062  0.2368
  294TMC3    C2 4481   3.641   1.540  12.267  0.5465  0.4758  0.1088
  294TMC3    C3 4482   3.515   1.581  12.236  0.4392 -0.1828 -0.1256
  294TMC3    C4 4483   3.723   1.750  12.197 -0.7679 -0.3995 -0.3785
  294TMC3    C5 4484   3.596   1.787  12.153  1.0003  0.3724 -0.0015
  294TMC3    C6 4485   3.491   1.704  12.179  0.1740  0.3555 -1.0099
  294TMC3     C 4486   3.846   1.614  12.369  0.1252 -0.5020  0.0849
  294TMC3     O 4487   3.822   1.535  12.458  0.0576 -0.6822 -0.0514
  294TMC3     H 4488   3.653   1.440  12.306  1.4893  1.2312  1.7502
  294TMC3    H1 4489   3.794   1.831  12.207 -0.5383 -0.7287  0.6082
  294TMC3    H2 4490   3.389   1.732  12.155  0.1892  2.0263  0.8932
  294TMC3    C7 4491   3.580   1.888  12.049 -0.1880 -0.3049 -0.3452
  294TMC3    C8 4492   3.406   1.485  12.243 -0.2201 -0.2512 -0.1570
  294TMC3    O1 4493   3.472   1.946  12.055 -0.0312  0.2010 -0.0623
  294TMC3    O2 4494   3.310   1.513  12.312  0.5373  0.0044 -0.1796
  295MPD2     C 4495   3.845   0.554   0.321 -0.4578  0.5730  0.2891
  295MPD2    C1 4496   3.941   0.461   0.329 -0.0890 -0.5191  0.1826
  295MPD2    C2 4497   3.962   0.387   0.441  0.1649  0.0882  0.4108
  295MPD2    C3 4498   3.898   0.419   0.556  0.4209  0.5181 -0.3887
  295MPD2    C4 4499   3.796   0.513   0.551 -0.7184 -0.3420 -0.1712
  295MPD2    C5 4500   3.768   0.574   0.433  0.3094 -0.4548  0.1590
  295MPD2     H 4501   4.049   0.321   0.444  0.8775  0.9575 -0.7359
  295MPD2    H1 4502   3.748   0.544   0.643 -1.7559  0.0267 -0.8335
  295MPD2    H2 4503   3.832   0.617   0.234  1.2054 -2.8030 -2.4158
  295MPD2    H3 4504   3.693   0.652   0.426  0.9272  0.0034 -1.2841
  295MPD2     N 4505   3.915   0.339   0.674 -0.0556 -0.3719 -0.5282
  295MPD2    H5 4506   3.867   0.379   0.754  0.3294 -2.5366  0.7598
  295MPD2    N1 4507   4.023   0.423   0.218  0.4508  0.1621 -0.0035
  295MPD2    H7 4508   4.086   0.344   0.227  0.3604  0.1914  0.9367
  296TMC3    C1 4509   3.945   0.155   0.813 -0.0347 -0.0631 -0.0665
  296TMC3    C2 4510   3.825   0.187   0.875 -0.3450 -0.7659  0.3190
  296TMC3    C3 4511   3.782   0.105   0.973 -0.0895 -0.8681 -0.8331
  296TMC3    C4 4512   4.010   0.043   0.850  0.1808 -0.3564 -1.1763
  296TMC3    C5 4513   3.969   4.702   0.954 -0.6312 -0.5542  0.3077
  296TMC3    C6 4514   3.855   4.731   1.027  0.0083 -0.2807 -0.2955
  296TMC3     C 4515   3.975   0.213   0.687  1.3947  0.6921 -0.2597
  296TMC3     O 4516   4.058   0.150   0.615  0.1601  0.4360 -0.3019
  296TMC3     H 4517   3.755   0.253   0.824  0.7928  1.4045  1.5294
  296TMC3    H1 4518   4.110   0.021   0.816 -0.6118 -4.4466 -0.8677
  296TMC3    H2 4519   3.825   4.689   1.122  1.4791 -0.2036  0.1902
  296TMC3    C7 4520   4.038   4.574   0.968 -0.2340 -0.0276  0.3633
  296TMC3    C8 4521   3.645   0.119   1.021 -0.1193  0.8325  0.1332
  296TMC3    O1 4522   4.153   4.552   0.917  0.1677  0.5245  0.5171
  296TMC3    O2 4523   3.581   0.026   1.063  0.1317  0.2648 -0.0621
  297MPD2     C 4524   1.661   2.135  15.930 -0.3059 -0.7040  0.9547
  297MPD2    C1 4525   1.651   2.272  15.904  0.0263 -0.2657 -1.2269
  297MPD2    C2 4526   1.768   2.346  15.898 -0.7148 -0.2134 -0.3575
  297MPD2    C3 4527   1.875   2.288  15.966  0.0818  0.7918  0.8724
  297MPD2    C4 4528   1.887   2.154  16.005 -0.4605 -0.2285  0.0513
  297MPD2    C5 4529   1.776   2.073  15.980 -0.5798  1.3747  0.6244
  297MPD2     H 4530   1.762   2.450  15.867  1.6283  0.0157 -0.0872
  297MPD2    H1 4531   1.969   2.114  16.063 -1.9552 -1.9471  0.9951
  297MPD2    H2 4532   1.573   2.076  15.903 -1.2217  0.7621  0.7300
  297MPD2    H3 4533   1.776   1.965  15.993 -0.8908  1.2026 -0.8080
  297MPD2     N 4534   1.982   2.371  16.004 -0.0348 -0.0220 -0.2760
  297MPD2    H5 4535   2.057   2.330  16.057 -2.8423 -0.9444  2.9993
  297MPD2    N1 4536   1.525   2.335  15.860 -0.2665 -0.2386  0.4877
  297MPD2    H7 4537   1.532   2.434  15.836 -0.8325 -0.0057  1.2807
  298TMC3    C1 4538   1.300   2.384  15.871 -0.1478  0.1516 -0.8198
  298TMC3    C2 4539   1.284   2.456  15.758 -0.6476  0.6539 -0.4191
  298TMC3    C3 4540   1.181   2.538  15.753  0.7209 -0.4036 -0.4087
  298TMC3    C4 4541   1.208   2.390  15.979  0.4807  0.0053  0.0472
  298TMC3    C5 4542   1.093   2.464  15.960  0.5781  0.3579  0.8415
  298TMC3    C6 4543   1.087   2.557  15.856 -0.1777  0.3270  0.0386
  298TMC3     C 4544   1.399   2.279  15.888  0.3926 -0.8761 -0.6087
  298TMC3     O 4545   1.373   2.182  15.952  0.1151 -0.1094  0.4982
  298TMC3     H 4546   1.364   2.461  15.685 -0.3297  0.3633 -0.0918
  298TMC3    H1 4547   1.214   2.320  16.062  0.8401 -0.0940 -0.0632
  298TMC3    H2 4548   1.019   2.640  15.865 -1.4736 -0.7197 -0.0802
  298TMC3    C7 4549   1.020   2.493  16.076  0.4985 -0.0347  0.7583
  298TMC3    C8 4550   1.172   2.623  15.637 -0.7273  0.0232 -0.2083
  298TMC3    O1 4551   1.072   2.468  16.185 -0.3973  0.5236 -0.2788
  298TMC3    O2 4552   1.247   2.604  15.547  0.2731  0.3893  0.0559
  299MPD2     C 4553   1.984   2.223  10.646  0.0249  0.1737  0.1835
  299MPD2    C1 4554   1.928   2.343  10.601  0.1049  0.7221  0.9424
  299MPD2    C2 4555   1.795   2.344  10.551  0.2568  0.0075 -0.5970
  299MPD2    C3 4556   1.722   2.231  10.536 -0.2627 -0.3295  0.1013
  299MPD2    C4 4557   1.790   2.114  10.556  0.8168  0.6152  0.1467
  299MPD2    C5 4558   1.913   2.108  10.620 -0.2696  0.5927 -0.1071
  299MPD2     H 4559   1.744   2.440  10.552  1.1310  0.4770 -4.2011
  299MPD2    H1 4560   1.754   2.013  10.541  1.9289  0.3463 -0.7021
  299MPD2    H2 4561   2.085   2.213  10.682 -0.1901  0.4076  0.8543
  299MPD2    H3 4562   1.963   2.017  10.653  0.6450  1.0114 -0.3253
  299MPD2     N 4563   1.580   2.238  10.505 -0.3789 -0.1028 -0.1333
  299MPD2    H5 4564   1.539   2.147  10.489 -0.4480 -0.1423  0.2816
  299MPD2    N1 4565   2.018   2.456  10.616 -0.0252  0.9344 -0.4775
  299MPD2    H7 4566   2.109   2.434  10.654  0.5456  3.5778 -0.2651
  300TMC3    C1 4567   1.367   2.304  10.457  0.0230 -0.3190 -0.3625
  300TMC3    C2 4568   1.293   2.397  10.388  0.1134 -0.0689  0.4865
  300TMC3    C3 4569   1.163   2.357  10.351 -0.1774 -0.1077  0.1008
  300TMC3    C4 4570   1.311   2.193  10.517  0.5223  0.0579 -0.9711
  300TMC3    C5 4571   1.179   2.166  10.490  0.4112  0.8152  0.5601
  300TMC3    C6 4572   1.108   2.245  10.405 -0.1526  0.1722  0.2739
  300TMC3     C 4573   1.500   2.348  10.491  0.2140 -0.4118 -0.0705
  300TMC3     O 4574   1.525   2.467  10.502  0.7679  0.5592 -0.0180
  300TMC3     H 4575   1.338   2.493  10.365  0.5833 -0.7371 -1.4269
  300TMC3    H1 4576   1.377   2.137  10.582 -2.5261 -1.0251  1.1902
  300TMC3    H2 4577   1.006   2.219  10.380  0.5381 -0.7780 -1.6092
  300TMC3    C7 4578   1.105   2.095  10.590  0.4680  0.1404  0.5574
  300TMC3    C8 4579   1.064   2.462  10.341  0.7074  0.5406  0.1911
  300TMC3    O1 4580   0.996   2.056  10.557  0.3914 -0.3153 -0.1960
  300TMC3    O2 4581   0.969   2.441  10.263  0.2024 -0.2862  0.2169
  301MPD2     C 4582   3.808   2.846   1.353  0.2577 -0.3269 -0.1957
  301MPD2    C1 4583   3.687   2.832   1.293 -0.4415 -0.5417  0.2816
  301MPD2    C2 4584   3.627   2.705   1.280  0.2796 -0.3568 -0.0160
  301MPD2    C3 4585   3.689   2.591   1.316  0.2329 -0.2123  0.2012
  301MPD2    C4 4586   3.815   2.605   1.371 -0.8700  0.0054 -0.2382
  301MPD2    C5 4587   3.872   2.732   1.389 -0.2689  0.3067 -0.7056
  301MPD2     H 4588   3.525   2.703   1.243  0.6022 -3.5755 -0.7606
  301MPD2    H1 4589   3.864   2.516   1.408 -1.5611 -0.8859 -1.4503
  301MPD2    H2 4590   3.854   2.943   1.369  1.0387 -0.9170  1.1419
  301MPD2    H3 4591   3.963   2.737   1.447 -1.5897 -1.0982  1.4655
  301MPD2     N 4592   3.634   2.460   1.308 -0.0715 -0.3328  0.6880
  301MPD2    H5 4593   3.702   2.385   1.316  1.2046  0.8327  0.7432
  301MPD2    N1 4594   3.612   2.940   1.253  0.1445 -0.5271 -0.5130
  301MPD2    H7 4595   3.522   2.919   1.210 -0.9228 -1.6637  2.2402
  302TMC3    C1 4596   3.473   2.285   1.272 -0.2172  0.0722 -0.3618
  302TMC3    C2 4597   3.568   2.189   1.245 -0.0613 -0.2153  0.0809
  302TMC3    C3 4598   3.524   2.064   1.201 -0.0541 -0.0011 -0.4644
  302TMC3    C4 4599   3.337   2.260   1.258  0.1235 -0.2393  0.6722
  302TMC3    C5 4600   3.296   2.144   1.209  0.8293  0.1530 -0.2935
  302TMC3    C6 4601   3.388   2.047   1.175 -0.8603  0.5454  0.1609
  302TMC3     C 4602   3.510   2.431   1.288  0.1280 -0.4346  0.3400
  302TMC3     O 4603   3.418   2.510   1.280  0.3430 -0.3538  0.1817
  302TMC3     H 4604   3.672   2.217   1.258 -0.3550  1.7659 -1.8065
  302TMC3    H1 4605   3.265   2.326   1.303 -1.2070 -0.2929 -1.3933
  302TMC3    H2 4606   3.350   1.963   1.118 -0.2863  1.3615 -1.4219
  302TMC3    C7 4607   3.161   2.110   1.158 -0.3178  0.1983 -0.2892
  302TMC3    C8 4608   3.626   1.987   1.131 -0.2095  0.4144 -0.7262
  302TMC3    O1 4609   3.121   1.994   1.164 -0.0032  0.0401 -0.1453
  302TMC3    O2 4610   3.732   2.041   1.110 -0.1839 -0.0109 -0.4732
  303MPD2     C 4611   0.073   1.674  10.477 -0.1326  1.2165 -0.1633
  303MPD2    C1 4612   4.731   1.556  10.486  0.2334 -0.9905 -0.0868
  303MPD2    C2 4613   4.634   1.530  10.389 -0.0198 -0.0028 -0.3084
  303MPD2    C3 4614   4.611   1.633  10.295 -0.2888  0.2192  0.0033
  303MPD2    C4 4615   4.686   1.752  10.286  0.3853 -0.2211  0.4602
  303MPD2    C5 4616   0.055   1.765  10.372 -0.6230  0.1393  0.3439
  303MPD2     H 4617   4.567   1.445  10.391  0.5102 -0.3566  1.7213
  303MPD2    H1 4618   4.670   1.829  10.212  2.8479 -1.3521 -1.2719
  303MPD2    H2 4619   0.155   1.690  10.545 -0.4086  1.8481  0.0231
  303MPD2    H3 4620   0.120   1.852  10.366  1.0423 -1.0872  0.6033
  303MPD2     N 4621   4.505   1.634  10.202 -0.3147 -0.1122  0.2925
  303MPD2    H5 4622   4.491   1.721  10.150  0.0788 -0.3551 -0.2240
  303MPD2    N1 4623   0.031   1.458  10.583 -0.7642  0.7944  0.8912
  303MPD2    H7 4624   0.112   1.475  10.642 -0.6007 -0.5752  1.0684
  304TMC3    C1 4625   0.022   1.253  10.702 -0.2991  0.3135 -0.9070
  304TMC3    C2 4626   4.683   1.160  10.768 -0.4752 -0.0640 -0.3897
  304TMC3    C3 4627   0.016   1.062  10.850  0.7748 -0.5040 -0.1480
  304TMC3    C4 4628   0.158   1.260  10.724  0.4375  0.3495  0.4391
  304TMC3    C5 4629   0.222   1.156  10.785 -0.3053  0.1740 -0.3980
  304TMC3    C6 4630   0.151   1.064  10.861  0.3797  0.5168 -0.6011
  304TMC3     C 4631   4.692   1.345  10.608  0.1952  0.3713 -0.2914
  304TMC3     O 4632   4.580   1.325  10.584  0.4556 -0.0614 -0.5400
  304TMC3     H 4633   4.575   1.162  10.763 -0.5471 -1.3166  0.5643
  304TMC3    H1 4634   0.222   1.326  10.668 -0.3391  1.2210  0.5860
  304TMC3    H2 4635   0.197   0.993  10.928  0.5198 -0.6626 -1.9466
  304TMC3    C7 4636   0.368   1.155  10.780 -0.0358 -0.0626  0.2069
  304TMC3    C8 4637   4.679   0.933  10.834 -0.9014 -0.4199  0.6204
  304TMC3    O1 4638   0.419   1.265  10.773  0.0006 -0.3147 -0.2797
  304TMC3    O2 4639   4.590   0.926  10.752 -0.1055  0.2233  0.3567
  305MPD2     C 4640   2.311   3.345  14.068 -0.0869 -0.2990  0.1953
  305MPD2    C1 4641   2.446   3.369  14.037 -0.1902 -0.2759 -0.0056
  305MPD2    C2 4642   2.493   3.336  13.910 -0.2857 -0.4615 -0.1157
  305MPD2    C3 4643   2.410   3.269  13.818  0.2183  0.3089 -0.5503
  305MPD2    C4 4644   2.280   3.240  13.856  0.3567 -0.1883  0.5390
  305MPD2    C5 4645   2.231   3.283  13.973 -0.4693 -0.3386  0.2051
  305MPD2     H 4646   2.596   3.350  13.880 -1.2319  0.0166 -3.1326
  305MPD2    H1 4647   2.208   3.192  13.791  0.9887  2.5315 -2.1661
  305MPD2    H2 4648   2.264   3.380  14.160 -2.4052 -1.1390 -0.6444
  305MPD2    H3 4649   2.128   3.274  14.005 -0.3886  2.1624  1.1678
  305MPD2     N 4650   2.441   3.230  13.688 -0.0379  0.3286 -0.2457
  305MPD2    H5 4651   2.366   3.193  13.630  0.3936 -1.3490  0.2562
  305MPD2    N1 4652   2.533   3.434  14.129 -0.6551 -0.2520 -0.0001
  305MPD2    H7 4653   2.493   3.483  14.209 -2.1213 -1.4688  0.0047
  306TMC3    C1 4654   2.733   3.502  14.236 -0.2857 -0.1946  0.0673
  306TMC3    C2 4655   2.807   3.419  14.312  0.4196 -0.1248  0.5303
  306TMC3    C3 4656   2.831   3.443  14.439 -0.1395 -0.5391 -0.5586
  306TMC3    C4 4657   2.677   3.617  14.285 -0.1851 -1.0018  0.1340
  306TMC3    C5 4658   2.693   3.632  14.423 -0.5302  0.1900  0.0516
  306TMC3    C6 4659   2.764   3.541  14.499  0.1304 -0.1146  0.1614
  306TMC3     C 4660   2.673   3.434  14.118  0.0467  0.4082 -0.0422
  306TMC3     O 4661   2.746   3.363  14.050 -0.8737 -0.2404 -0.0909
  306TMC3     H 4662   2.845   3.330  14.262  1.5061  0.6666 -0.0560
  306TMC3    H1 4663   2.617   3.684  14.223 -0.0415  1.4124  2.5679
  306TMC3    H2 4664   2.774   3.545  14.607  0.1333 -1.1457  0.1982
  306TMC3    C7 4665   2.712   3.769  14.467 -0.5506 -0.5202  0.1393
  306TMC3    C8 4666   2.962   3.422  14.498  0.3133  0.3081  0.1090
  306TMC3    O1 4667   2.665   3.861  14.395 -0.3909 -0.0659  0.3070
  306TMC3    O2 4668   2.979   3.475  14.606  0.6614 -0.1265  0.0501
  307MPD2     C 4669   0.589   1.206  17.584 -0.5980  0.2411 -0.0171
  307MPD2    C1 4670   0.549   1.329  17.536  0.7816  0.9992  0.4222
  307MPD2    C2 4671   0.462   1.411  17.609 -0.4432 -0.3371 -0.5403
  307MPD2    C3 4672   0.410   1.357  17.730  0.0864 -0.3959  0.0420
  307MPD2    C4 4673   0.446   1.229   0.026 -0.9607  0.3969 -0.0631
  307MPD2    C5 4674   0.536   1.159  17.696 -0.4902  0.2851 -0.2219
  307MPD2     H 4675   0.451   1.515  17.583 -1.6880 -0.6047 -1.0590
  307MPD2    H1 4676   0.415   1.174   0.114 -0.1086  0.7935  0.4750
  307MPD2    H2 4677   0.664   1.146  17.533  0.6487  0.1439  1.9458
  307MPD2    H3 4678   0.565   1.063  17.737  0.0623  0.1513 -0.9307
  307MPD2     N 4679   0.334   1.451   0.054  0.0955 -0.6175  0.0593
  307MPD2    H5 4680   0.309   1.537   0.005 -2.5420 -1.5449 -0.2461
  307MPD2    N1 4681   0.590   1.381  17.410  0.2394  0.2232 -0.1000
  307MPD2    H7 4682   0.559   1.475  17.390 -0.3727  0.0612  0.1079
  308TMC3    C1 4683   4.730   1.568   0.349 -0.0246 -0.3117 -0.3730
  308TMC3    C2 4684   0.035   1.696   0.361  0.3343  0.5529 -0.7278
  308TMC3    C3 4685   0.141   1.738   0.287 -0.0238  0.3526 -0.6254
  308TMC3    C4 4686   0.055   1.478   0.269 -0.0734 -0.3459  0.1681
  308TMC3    C5 4687   0.163   1.519   0.203  1.0119 -0.0082 -0.3182
  308TMC3    C6 4688   0.201   1.651   0.200 -1.1204  0.3214 -0.0739
  308TMC3     C 4689   4.593   1.533   0.359  0.6317 -0.4150 -0.2079
  308TMC3     O 4690   4.559   1.414   0.358 -0.7216  0.1626 -0.5263
  308TMC3     H 4691   4.728   1.767   0.430  1.2845  0.3948  0.0276
  308TMC3    H1 4692   0.034   1.373   0.253 -1.2872 -0.1141  0.2626
  308TMC3    H2 4693   0.281   1.688   0.138 -0.3179  2.7018  2.3983
  308TMC3    C7 4694   0.253   1.411   0.161 -1.2679  0.8785 -0.0725
  308TMC3    C8 4695   0.200   1.862   0.322  0.3599  0.0808 -0.0038
  308TMC3    O1 4696   0.239   1.303   0.220  0.1069 -0.0079 -0.4741
  308TMC3    O2 4697   0.189   1.904   0.437  0.7857  0.6134 -0.1929
  309MPD2     C 4698   4.152   1.808  16.946  0.2738 -0.3597 -0.2993
  309MPD2    C1 4699   4.096   1.885  16.844  0.2969 -0.3147 -0.3978
  309MPD2    C2 4700   3.982   1.955  16.858  0.6288  0.4097 -0.0337
  309MPD2    C3 4701   3.931   1.968  16.982  0.9408  0.3694  0.4813
  309MPD2    C4 4702   3.978   1.892  17.084 -0.6878 -0.6416  0.2099
  309MPD2    C5 4703   4.086   1.806  17.068 -0.0093  0.5918 -0.4923
  309MPD2     H 4704   3.936   1.999  16.770  0.2898 -4.0154 -2.0999
  309MPD2    H1 4705   3.935   1.893  17.184  0.7397 -0.5796  0.8369
  309MPD2    H2 4706   4.248   1.758  16.941 -0.4316 -1.6442 -1.2060
  309MPD2    H3 4707   4.117   1.741  17.149  0.9120  0.1946 -1.1545
  309MPD2     N 4708   3.819   2.054  17.013  0.3670 -0.4971 -0.6546
  309MPD2    H5 4709   3.762   2.037  17.095 -2.3745 -0.6870 -2.5893
  309MPD2    N1 4710   4.156   1.890  16.716  0.5013 -0.8628 -0.2543
  309MPD2    H7 4711   4.100   1.951  16.656  0.8045 -0.0008  0.3385
  310TMC3    C1 4712   4.290   1.859  16.525  0.0981  0.1120  0.3623
  310TMC3    C2 4713   4.250   1.977  16.470 -0.9042  0.7210  0.1477
  310TMC3    C3 4714   4.307   2.004  16.345  0.4724  0.6326  0.2935
  310TMC3    C4 4715   4.381   1.778  16.467  0.2017  0.5578  0.6313
  310TMC3    C5 4716   4.446   1.818  16.346 -0.4213 -0.2318  0.4563
  310TMC3    C6 4717   4.400   1.927  16.283 -0.0464 -0.6705  0.2871
  310TMC3     C 4718   4.258   1.819  16.663 -0.3372 -0.5180 -0.7878
  310TMC3     O 4719   4.329   1.730  16.715 -0.0351  0.0539  0.3859
  310TMC3     H 4720   4.159   2.028  16.497 -0.4304  1.0898  1.0263
  310TMC3    H1 4721   4.425   1.689  16.511 -1.4785 -0.4684  0.2234
  310TMC3    H2 4722   4.437   1.946  16.183  3.3826  2.0889  2.0553
  310TMC3    C7 4723   4.561   1.745  16.290 -1.0753  0.6503 -0.4322
  310TMC3    C8 4724   4.272   2.133  16.277 -0.0920  0.0727  0.2424
  310TMC3    O1 4725   4.586   1.637  16.341 -0.1503 -0.2351 -0.0085
  310TMC3    O2 4726   4.326   2.150  16.168 -0.0539  0.4923 -0.5840
  311MPD2     C 4727   1.635   2.963  13.060 -0.0722 -0.6458  0.1137
  311MPD2    C1 4728   1.600   3.092  13.055  0.2888 -0.1837  0.4462
  311MPD2    C2 4729   1.477   3.127  13.103 -0.3765 -0.4343  0.0950
  311MPD2    C3 4730   1.394   3.029  13.145  0.0221 -0.4061 -0.1208
  311MPD2    C4 4731   1.419   2.900  13.128 -0.4409  0.4253 -0.5861
  311MPD2    C5 4732   1.550   2.865  13.096  0.4838 -0.7936  0.1472
  311MPD2     H 4733   1.458   3.233  13.112  0.6516 -0.2599  0.2494
  311MPD2    H1 4734   1.356   2.817  13.159 -1.4825  1.6461  0.5391
  311MPD2    H2 4735   1.738   2.933  13.048 -0.0772 -0.8117  0.4778
  311MPD2    H3 4736   1.584   2.762  13.100 -1.7452 -1.5889 -0.8286
  311MPD2     N 4737   1.274   3.074  13.200 -0.8690  0.2010  0.2073
  311MPD2    H5 4738   1.271   3.174  13.218 -0.6151  0.5663 -1.7628
  311MPD2    N1 4739   1.683   3.197  13.021  0.3757 -0.1873 -0.4258
  311MPD2    H7 4740   1.648   3.292  13.028  0.9183 -0.0959  1.1090
  312TMC3    C1 4741   1.062   3.105  13.283  0.9990 -0.2338  0.8085
  312TMC3    C2 4742   0.932   3.076  13.253  0.1248  0.2020  0.0747
  312TMC3    C3 4743   0.841   3.177  13.291 -0.5094  0.2548  0.2886
  312TMC3    C4 4744   1.107   3.231  13.318 -0.2318 -0.7545 -0.0478
  312TMC3    C5 4745   1.010   3.322  13.340  0.6724 -0.4405  0.8148
  312TMC3    C6 4746   0.875   3.298  13.338 -0.1198 -0.1820 -0.5688
  312TMC3     C 4747   1.158   3.010  13.228  0.2147 -0.3160 -0.2849
  312TMC3     O 4748   1.133   2.895  13.211  0.2968 -0.2115 -0.3973
  312TMC3     H 4749   0.906   2.974  13.226 -0.2183  0.0928  0.8220
  312TMC3    H1 4750   1.209   3.264  13.330 -0.3868 -1.0131  1.9361
  312TMC3    H2 4751   0.809   3.383  13.353 -1.6702 -1.1915 -1.7225
  312TMC3    C7 4752   1.057   3.456  13.366  0.4158  0.7659 -0.0360
  312TMC3    C8 4753   0.698   3.144  13.268  0.6210  0.5041 -0.2623
  312TMC3    O1 4754   1.139   3.508  13.294  0.5211  0.0225  0.1326
  312TMC3    O2 4755   0.680   3.039  13.211 -0.3118  0.2358  0.3525
  313MPD2     C 4756   0.738   2.589  11.491  0.0682 -0.3618  0.0590
  313MPD2    C1 4757   0.683   2.636  11.373 -0.6020 -0.1008  0.2146
  313MPD2    C2 4758   0.705   2.570  11.259 -0.0358 -0.3255  0.7498
  313MPD2    C3 4759   0.763   2.447  11.272  0.1639 -0.0831 -0.7343
  313MPD2    C4 4760   0.811   2.395  11.389 -0.7476  0.1612  0.4728
  313MPD2    C5 4761   0.801   2.472  11.500 -0.1776  0.5789  0.4999
  313MPD2     H 4762   0.667   2.611  11.166  1.5217  0.5835  0.5134
  313MPD2    H1 4763   0.848   2.293  11.397 -0.9805  0.1308  1.1372
  313MPD2    H2 4764   0.747   2.642  11.586  1.0243 -0.7445  0.1873
  313MPD2    H3 4765   0.832   2.442  11.600 -3.3139 -2.0698  0.6713
  313MPD2     N 4766   0.780   2.369  11.159 -0.1267  0.3951  0.0975
  313MPD2    H5 4767   0.735   2.404  11.074 -0.6109  0.0087  0.1952
  313MPD2    N1 4768   0.602   2.752  11.360 -0.1167 -0.3744  0.0929
  313MPD2    H7 4769   0.597   2.792  11.267 -1.8552 -3.0246 -0.9665
  314TMC3    C1 4770   0.530   2.962  11.416 -0.0797 -0.3507 -0.2762
  314TMC3    C2 4771   0.595   3.064  11.471 -0.4884 -0.1729 -0.0247
  314TMC3    C3 4772   0.660   3.152  11.387 -0.1088  0.3784  0.1993
  314TMC3    C4 4773   0.495   2.960  11.279 -0.2267 -0.0583 -0.5529
  314TMC3    C5 4774   0.557   3.050  11.197 -0.3400 -0.0132 -0.3812
  314TMC3    C6 4775   0.643   3.140  11.255 -0.2177 -0.3710  0.0231
  314TMC3     C 4776   0.572   2.832  11.464  0.6581 -1.0747 -0.4573
  314TMC3     O 4777   0.611   2.826  11.581 -0.3105  0.3526  0.4258
  314TMC3     H 4778   0.631   3.059  11.573 -0.9218 -0.5585  0.1080
  314TMC3    H1 4779   0.436   2.883  11.232  0.4785 -1.4102  0.7983
  314TMC3    H2 4780   0.694   3.208  11.187  1.1509  0.1532  1.5823
  314TMC3    C7 4781   0.588   3.001  11.066 -0.2543  0.7129  0.5387
  314TMC3    C8 4782   0.767   3.240  11.442 -0.0806  0.2561 -0.0771
  314TMC3    O1 4783   0.575   2.881  11.059  0.0987 -0.0293 -0.3838
  314TMC3    O2 4784   0.839   3.284  11.351  0.0363  0.0812  0.6882
  315MPD2     C 4785   0.938   1.545  17.062 -0.0249  0.1297 -0.3453
  315MPD2    C1 4786   0.950   1.525  17.197  0.1432 -0.6873 -0.0158
  315MPD2    C2 4787   0.938   1.635  17.282  0.1998 -0.8966 -0.1932
  315MPD2    C3 4788   0.926   1.761  17.235 -0.0297 -0.5662  0.2533
  315MPD2    C4 4789   0.909   1.779  17.101  0.4310 -0.3214  0.8004
  315MPD2    C5 4790   0.911   1.675  17.016 -0.1497  0.1919 -0.4158
  315MPD2     H 4791   0.963   1.611  17.385 -1.0609  1.1622  0.5813
  315MPD2    H1 4792   0.892   1.873  17.051  2.2689 -0.1095  0.5782
  315MPD2    H2 4793   0.942   1.456  17.001 -0.8170  0.5642 -1.0344
  315MPD2    H3 4794   0.882   1.690  16.913 -0.0499  3.0546 -0.0054
  315MPD2     N 4795   0.944   1.865  17.324  0.4400  0.8104  0.1203
  315MPD2    H5 4796   0.963   1.840  17.420  0.6070  0.3047 -0.0419
  315MPD2    N1 4797   0.965   1.399  17.255 -0.3131  0.3565  0.0414
  315MPD2    H7 4798   0.951   1.396  17.355  0.8905  2.9451  0.2832
  316TMC3    C1 4799   0.977   2.084  17.414  0.1193  0.2649  0.0904
  316TMC3    C2 4800   0.994   2.029  17.535 -0.4029  0.6103 -0.1092
  316TMC3    C3 4801   1.040   2.105  17.639  0.0762  0.2838 -0.3293
  316TMC3    C4 4802   0.991   2.216  17.392  0.0216 -0.2641  0.5537
  316TMC3    C5 4803   1.033   2.292  17.500  0.2007 -0.2434 -0.0309
  316TMC3    C6 4804   1.061   2.240  17.620 -0.4035  0.3859  0.0574
  316TMC3     C 4805   0.955   2.000  17.295 -0.4722 -0.0920 -0.5941
  316TMC3     O 4806   0.947   2.059  17.183 -0.1038 -0.5877  0.2168
  316TMC3     H 4807   0.986   1.923  17.557 -0.0012  0.1940 -1.9218
  316TMC3    H1 4808   0.970   2.262  17.297  0.2492 -0.7458  0.2694
  316TMC3    H2 4809   1.091   2.304  17.702  0.4837  1.0049 -0.7522
  316TMC3    C7 4810   1.084   2.427  17.482  0.0525  0.2377 -0.3092
  316TMC3    C8 4811   1.102   2.042   0.015 -0.3498 -0.1764 -0.4057
  316TMC3    O1 4812   1.141   2.479  17.581 -0.9581 -0.0558  0.3527
  316TMC3    O2 4813   1.129   2.123   0.102  0.1131 -0.2587 -0.1560
  317MPD2     C 4814   3.234   0.549  12.861 -0.2885 -0.1847  0.4021
  317MPD2    C1 4815   3.281   0.416  12.862 -0.1529  0.3416 -0.0169
  317MPD2    C2 4816   3.276   0.345  12.978 -0.5627 -0.5260  0.4573
  317MPD2    C3 4817   3.230   0.404  13.092  0.1001 -0.4041  1.2095
  317MPD2    C4 4818   3.171   0.527  13.091  0.0216 -0.0690  0.2781
  317MPD2    C5 4819   3.181   0.597  12.977 -0.3698 -0.2501 -0.2563
  317MPD2     H 4820   3.313   0.243  12.977  1.8372  0.3168  2.5552
  317MPD2    H1 4821   3.101   0.556  13.169  0.5988  2.3394 -0.0846
  317MPD2    H2 4822   3.249   0.624  12.784 -3.3116  0.8126  0.7949
  317MPD2    H3 4823   3.132   0.694  12.975  1.0269  0.5095  1.7237
  317MPD2     N 4824   3.216   0.320  13.202  0.3785  0.8549 -0.1174
  317MPD2    H5 4825   3.241   0.223  13.183  2.0099  1.3207 -0.3508
  317MPD2    N1 4826   3.343   0.357  12.754  0.1596  0.3198  0.1349
  317MPD2    H7 4827   3.378   0.265  12.778  0.5491  0.6452  0.8047
  318TMC3    C1 4828   3.235   0.267  13.439 -0.3938  0.0467  0.1332
  318TMC3    C2 4829   3.210   0.138  13.410  0.2326 -0.7656 -0.2850
  318TMC3    C3 4830   3.282   0.049  13.484  1.1257  0.1876  0.3273
  318TMC3    C4 4831   3.320   0.310  13.538  0.3957 -1.0094  0.1785
  318TMC3    C5 4832   3.394   0.214  13.600 -0.2814 -0.0287  0.8135
  318TMC3    C6 4833   3.368   0.081  13.585 -0.2088 -0.1398  0.1078
  318TMC3     C 4834   3.198   0.362  13.336  0.0096  0.3351 -0.7758
  318TMC3     O 4835   3.197   0.481  13.372 -0.3070  0.1040 -0.4254
  318TMC3     H 4836   3.144   0.120  13.325 -0.4812  2.2940 -0.3683
  318TMC3    H1 4837   3.340   0.414  13.563 -1.0547 -0.5150 -0.7027
  318TMC3    H2 4838   3.413   0.002  13.645  0.2070  0.0431  0.0329
  318TMC3    C7 4839   3.439   0.241  13.732 -0.0418 -0.4904 -0.3218
  318TMC3    C8 4840   3.238   4.644  13.478 -0.1941 -0.1097  0.0230
  318TMC3    O1 4841   3.368   0.326  13.786  0.3006 -0.3889  0.0432
  318TMC3    O2 4842   3.292   4.573  13.563  0.3550 -0.1802  0.3063
  319MPD2     C 4843   3.425   1.884  16.952 -0.0719 -0.0575  0.6031
  319MPD2    C1 4844   3.457   1.752  16.989 -0.0806  0.4248  0.0568
  319MPD2    C2 4845   3.390   1.646  16.926 -0.5876 -0.3817 -0.3879
  319MPD2    C3 4846   3.305   1.673  16.816  0.5223  0.2551  0.3815
  319MPD2    C4 4847   3.288   1.804  16.772 -0.2703 -0.0224 -0.1039
  319MPD2    C5 4848   3.344   1.908  16.842  0.9021  0.2752  0.1224
  319MPD2     H 4849   3.420   1.543  16.945  1.3160  0.0632 -0.9570
  319MPD2    H1 4850   3.231   1.819  16.681  0.7926  1.7885 -0.4822
  319MPD2    H2 4851   3.466   1.972  17.000  0.2315  0.2121 -0.1540
  319MPD2    H3 4852   3.328   2.012  16.813  2.0088  0.0601 -1.2452
  319MPD2     N 4853   3.252   1.576  16.731  0.2550 -0.5452 -0.3703
  319MPD2    H5 4854   3.204   1.606  16.647 -3.0413  1.6044  2.2988
  319MPD2    N1 4855   3.543   1.706  17.088  0.1435 -0.5702  0.3752
  319MPD2    H7 4856   3.558   1.606  17.095 -0.0311 -0.7330 -1.7084
  320TMC3    C1 4857   3.171   1.364  16.655  0.0928 -0.1975  0.5632
  320TMC3    C2 4858   3.116   1.427  16.545 -0.2371 -0.2907  0.1244
  320TMC3    C3 4859   3.091   1.362  16.426  0.5955 -0.0924 -0.2120
  320TMC3    C4 4860   3.204   1.231  16.640 -1.1160  0.3083  0.5054
  320TMC3    C5 4861   3.200   1.174  16.513 -0.3098  0.7663 -0.6985
  320TMC3    C6 4862   3.145   1.236  16.405 -0.6341  0.7261 -0.0288
  320TMC3     C 4863   3.245   1.442  16.752 -0.5901  0.2693 -0.3932
  320TMC3     O 4864   3.287   1.379  16.846 -0.0475  0.1587 -0.0976
  320TMC3     H 4865   3.082   1.529  16.559  0.2313 -0.0776 -0.2953
  320TMC3    H1 4866   3.237   1.179  16.730  1.9944  0.4887 -0.5205
  320TMC3    H2 4867   3.121   1.178  16.317  0.4551 -0.0926  0.2233
  320TMC3    C7 4868   3.251   1.037  16.489 -0.1851 -0.6266  0.4531
  320TMC3    C8 4869   3.073   1.447  16.313 -0.2006  0.0220 -0.1902
  320TMC3    O1 4870   3.198   0.991  16.388  0.3030  0.2157  0.1375
  320TMC3    O2 4871   3.096   1.566  16.331 -0.2266  0.5663  0.9905
  321TMC3    C1 4872   3.692   1.709  17.275  0.8618 -0.8936 -0.2630
  321TMC3    C2 4873   3.685   1.572  17.292  0.5944  0.3179 -0.1667
  321TMC3    C3 4874   3.771   1.511  17.382  0.9059 -0.0871  0.4813
  321TMC3    C4 4875   3.773   1.778  17.358 -0.0065  0.1759 -0.7991
  321TMC3    C5 4876   3.849   1.711  17.447  0.0740 -0.6136 -0.1984
  321TMC3    C6 4877   3.844   1.582  17.468 -0.0030 -0.2191  0.1940
  321TMC3     C 4878   3.613   1.784  17.180  0.8866  1.8421  0.5086
  321TMC3     O 4879   3.628   1.903  17.179  0.0806  0.3241  0.1532
  321TMC3     H 4880   3.614   1.515  17.232  0.3732 -0.8091  1.1677
  321TMC3    H1 4881   3.794   1.883  17.341 -0.0285  0.4786  1.0713
  321TMC3    H2 4882   3.897   1.526  17.544 -1.0839  1.6224  2.3176
  321TMC3    C7 4883   3.979   1.768  17.466 -0.6407  0.7800 -0.3981
  321TMC3    C8 4884   3.856   1.408  17.326 -0.3129 -0.3469  0.0552
  321TMC3    O1 4885   4.003   1.888  17.452  0.3460 -0.3818 -0.1636
  321TMC3    O2 4886   3.974   1.419  17.361 -0.2024  1.1747 -1.2158
  322MPD2     C 4887   2.980   3.065  13.262  0.4131 -0.0944  0.5162
  322MPD2    C1 4888   2.987   3.010  13.387  0.5585 -0.3376 -0.1525
  322MPD2    C2 4889   3.024   2.879  13.389 -0.0747  0.1158 -0.0882
  322MPD2    C3 4890   3.064   2.804  13.277  0.1243  0.2252  0.2484
  322MPD2    C4 4891   3.067   2.860  13.155 -0.0165  0.0907 -0.2050
  322MPD2    C5 4892   3.011   2.988  13.148 -0.3657 -0.5252 -0.0075
  322MPD2     H 4893   3.029   2.824  13.482 -0.2356 -1.6106 -1.1189
  322MPD2    H1 4894   3.086   2.801  13.067 -1.1660 -0.4360 -0.1042
  322MPD2    H2 4895   2.951   3.169  13.253  0.0430 -0.0407  2.3632
  322MPD2    H3 4896   3.010   3.051  13.060  0.7305 -0.2496  0.1793
  322MPD2     N 4897   3.086   2.665  13.303 -0.5631  0.3924  0.5314
  322MPD2    H5 4898   3.061   2.635  13.396 -3.1390  2.2405  0.4392
  322MPD2    N1 4899   2.973   3.084  13.506  0.2875  0.6553  0.1405
  322MPD2    H7 4900   2.996   3.039  13.594 -1.5145  0.7550  0.6644
  323TMC3    C1 4901   3.022   3.264  13.636  0.1639 -0.4202 -0.5361
  323TMC3    C2 4902   3.129   3.350  13.635  0.2437 -0.1008 -0.3111
  323TMC3    C3 4903   3.235   3.336  13.724 -0.0346 -0.3141 -0.6293
  323TMC3    C4 4904   3.021   3.173  13.734  0.3447  0.0037 -0.9135
  323TMC3    C5 4905   3.126   3.156  13.819  0.2926 -0.6521  0.8193
  323TMC3    C6 4906   3.237   3.233  13.809 -0.3602  0.3767  1.0062
  323TMC3     C 4907   2.961   3.217  13.513  0.2210  0.2323  0.0849
  323TMC3     O 4908   2.954   3.295  13.422 -0.5984 -0.0378 -0.2069
  323TMC3     H 4909   3.132   3.435  13.568 -0.5790  0.6780  0.6523
  323TMC3    H1 4910   2.937   3.108  13.752 -0.5598  1.6099  0.7427
  323TMC3    H2 4911   3.321   3.221  13.877  0.6034 -1.3196 -0.4764
  323TMC3    C7 4912   3.127   3.037  13.894 -0.5363  0.0569  0.5097
  323TMC3    C8 4913   3.372   3.377  13.690  0.3065  0.6666  0.0396
  323TMC3    O1 4914   3.068   2.941  13.843 -0.0150  0.3939  0.2606
  323TMC3    O2 4915   3.462   3.352  13.764 -0.1411 -0.0418 -0.0166
  324MPD2     C 4916   4.404   3.728  14.928 -0.2680  0.5244  0.2108
  324MPD2    C1 4917   4.383   3.844  14.856  0.0506  0.7098  0.1651
  324MPD2    C2 4918   4.252   3.858  14.809 -0.3253  0.1562  0.0661
  324MPD2    C3 4919   4.150   3.769  14.841  0.0899  0.4763 -0.1658
  324MPD2    C4 4920   4.187   3.645  14.890  0.6077  0.4883  0.3535
  324MPD2    C5 4921   4.316   3.623  14.932 -0.8424  0.1746  0.2548
  324MPD2     H 4922   4.232   3.953  14.760  1.0375 -0.2964 -1.3653
  324MPD2    H1 4923   4.115   3.566  14.907 -0.3023  1.3555  0.5672
  324MPD2    H2 4924   4.498   3.718  14.982  0.2867  1.6107 -0.5479
  324MPD2    H3 4925   4.339   3.532  14.985 -1.3186 -0.5855 -0.8350
  324MPD2     N 4926   4.017   3.795  14.819  0.4986  0.0327  0.4430
  324MPD2    H5 4927   3.950   3.719  14.822  1.7279 -1.0690  0.1485
  324MPD2    N1 4928   4.470   3.956  14.847 -0.1132 -0.1114 -0.0117
  324MPD2    H7 4929   4.435   4.037  14.796  1.1841  0.6145  0.2719
  325TMC3    C1 4930   3.825   3.923  14.757  0.2658  0.1529  0.2389
  325TMC3    C2 4931   3.758   3.813  14.708 -0.7061  0.6860  0.2355
  325TMC3    C3 4932   3.622   3.825  14.688  0.0154  0.4473 -0.2010
  325TMC3    C4 4933   3.764   4.042  14.778  0.4877  0.3764  0.5458
  325TMC3    C5 4934   3.627   4.058  14.750  0.1467 -0.1240 -0.0061
  325TMC3    C6 4935   3.560   3.946  14.708 -0.3710  0.0729 -0.1517
  325TMC3     C 4936   3.964   3.918  14.782  0.6856  0.2768 -0.4903
  325TMC3     O 4937   4.013   4.029  14.782 -0.1086 -0.6629 -0.3358
  325TMC3     H 4938   3.803   3.717  14.689 -0.9657  0.2876  1.6002
  325TMC3    H1 4939   3.813   4.126  14.827 -2.1384  1.3339  1.5434
  325TMC3    H2 4940   3.456   3.971  14.690 -1.0133 -2.1242  0.5733
  325TMC3    C7 4941   3.566   4.190  14.744 -0.2988  0.2302 -0.8549
  325TMC3    C8 4942   3.580   3.760  14.567 -0.3502 -0.2203  0.1691
  325TMC3    O1 4943   3.443   4.192  14.754  0.0192 -0.0650  0.2664
  325TMC3    O2 4944   3.671   3.727  14.491  0.5471  0.3110 -0.4267
  326MPD2     C 4945   0.925   0.908  10.829 -0.0630 -0.3587  0.3235
  326MPD2    C1 4946   0.974   0.903  10.699  0.3669  0.3425  0.9411
  326MPD2    C2 4947   1.110   0.905  10.683 -0.0099 -0.1617  0.1853
  326MPD2    C3 4948   1.197   0.910  10.793  0.2079  0.0306 -0.0515
  326MPD2    C4 4949   1.153   0.911  10.922  0.0229 -0.9836 -0.2887
  326MPD2    C5 4950   1.015   0.908  10.938 -0.1037 -0.4852  0.2100
  326MPD2     H 4951   1.144   0.897  10.581  1.9970  0.8900  0.7693
  326MPD2    H1 4952   1.218   0.931  11.007  0.9123 -0.9408 -0.9766
  326MPD2    H2 4953   0.821   0.881  10.837 -0.1997  0.3690  0.9418
  326MPD2    H3 4954   0.975   0.908  11.039  1.7421 -0.3812  0.9447
  326MPD2     N 4955   1.337   0.937  10.783  0.2881 -0.4759  0.0067
  326MPD2    H5 4956   1.382   0.947  10.872 -1.7586  0.9673  0.8724
  326MPD2    N1 4957   0.901   0.898  10.583  0.1665 -0.2259  0.1960
  326MPD2    H7 4958   0.942   0.864  10.497  3.7397  0.5278  1.6109
  327TMC3    C1 4959   0.709   0.865  10.467  0.7420  0.6709 -0.6372
  327TMC3    C2 4960   0.603   0.934  10.419 -0.1625 -0.1694  1.0932
  327TMC3    C3 4961   0.503   0.869  10.354  0.2938 -0.5761  0.3280
  327TMC3    C4 4962   0.704   0.728  10.461 -0.7140  0.8536 -0.1551
  327TMC3    C5 4963   0.593   0.665  10.410 -0.0777 -1.0961 -0.0244
  327TMC3    C6 4964   0.492   0.731  10.355 -0.3042 -0.7283 -0.5442
  327TMC3     C 4965   0.769   0.917  10.585  0.5319  0.1430 -0.0360
  327TMC3     O 4966   0.698   0.981  10.659 -0.2041  0.2568 -0.5322
  327TMC3     H 4967   0.601   1.042  10.430  0.5335 -0.0139 -0.3712
  327TMC3    H1 4968   0.791   0.676  10.500 -1.6737 -1.1033 -0.6018
  327TMC3    H2 4969   0.410   0.675  10.310  1.3636 -3.0407 -0.7444
  327TMC3    C7 4970   0.567   0.520  10.425  0.0857  0.2112 -0.9624
  327TMC3    C8 4971   0.395   0.959  10.313 -0.4768 -0.2222 -0.0405
  327TMC3    O1 4972   0.449   0.485  10.398  0.6361 -0.4065 -0.2455
  327TMC3    O2 4973   0.414   1.078  10.324  0.1908 -0.1769 -0.4526
  328MPD2     C 4974   3.366   0.415  17.273 -0.7683  0.3494  0.0565
  328MPD2    C1 4975   3.278   0.337  17.199 -0.0320 -0.5988  0.1702
  328MPD2    C2 4976   3.227   0.390  17.084  0.1351 -0.8306 -0.2315
  328MPD2    C3 4977   3.244   0.525  17.044  0.2684  0.8390  0.6141
  328MPD2    C4 4978   3.324   0.602  17.129  0.1524  0.0971  0.0018
  328MPD2    C5 4979   3.381   0.545  17.236  0.3198  0.2540 -0.1465
  328MPD2     H 4980   3.147   0.333  17.038 -1.2161 -0.2660  1.4217
  328MPD2    H1 4981   3.349   0.702  17.097 -2.6027  0.5057 -0.8777
  328MPD2    H2 4982   3.418   0.379  17.360 -0.1889  2.6124  0.6470
  328MPD2    H3 4983   3.448   0.598  17.304 -0.7711 -0.3372  1.3987
  328MPD2     N 4984   3.180   0.581  16.928  0.1906 -0.4498 -0.1565
  328MPD2    H5 4985   3.172   0.682  16.927  1.8529 -0.3428 -2.3428
  328MPD2    N1 4986   3.252   0.203  17.249  0.0371 -0.1446 -0.6131
  328MPD2    H7 4987   3.294   0.178  17.337 -4.2807 -1.3876  1.1012
  329TMC3    C1 4988   3.141   4.733  17.257 -0.1184 -0.0935 -0.1732
  329TMC3    C2 4989   3.054   0.047  17.348 -0.2531  0.2394 -0.1885
  329TMC3    C3 4990   2.946   4.713  17.379  0.3380  0.0183 -0.6664
  329TMC3    C4 4991   3.132   4.615  17.191  0.3250  0.7164  0.2746
  329TMC3    C5 4992   3.024   4.542  17.226 -0.6867  0.4541 -0.2416
  329TMC3    C6 4993   2.931   4.592  17.318 -0.0942 -0.2428 -0.0923
  329TMC3     C 4994   3.194   0.098  17.176  0.8967 -0.2322 -0.4918
  329TMC3     O 4995   3.156   0.089  17.061 -0.0351 -0.0069 -0.0941
  329TMC3     H 4996   3.070   0.152  17.368  1.8615 -0.5512  2.2375
  329TMC3    H1 4997   3.217   4.571  17.141  0.4138  0.3778  0.7276
  329TMC3    H2 4998   2.847   4.527  17.333 -0.6425  0.7195  1.0186
  329TMC3    C7 4999   2.975   4.443  17.135 -0.2751  0.2339  0.0435
  329TMC3    C8 5000   2.821   0.048  17.386 -0.3802  0.0414 -0.2473
  329TMC3    O1 5001   2.893   4.362  17.170 -0.1294  0.4861  0.3125
  329TMC3    O2 5002   2.716   4.721  17.370 -0.4907 -0.0747 -0.0692
  330TMC3    C1 5003   0.392   4.631   9.429  0.3115 -0.5506 -0.2538
  330TMC3    C2 5004   0.379   4.494   9.417  0.0426  0.5675 -0.4835
  330TMC3    C3 5005   0.486   4.414   9.444 -0.0745 -0.4302  0.7337
  330TMC3    C4 5006   0.505   4.692   9.475  0.1677 -0.5033  0.1083
  330TMC3    C5 5007   0.612   4.612   9.491  0.4253 -0.3661 -0.4952
  330TMC3    C6 5008   0.605   4.476   9.471  0.5463  0.2621 -0.3188
  330TMC3     C 5009   0.274   4.717   9.428 -0.3364 -0.2686  0.1756
  330TMC3     O 5010   0.252   0.058   9.520 -0.2927  0.0708 -0.3908
  330TMC3     H 5011   0.287   4.452   9.379 -0.6487 -0.2693  2.1166
  330TMC3    H1 5012   0.498   0.061   9.500  0.4282 -0.4110 -0.2113
  330TMC3    H2 5013   0.695   4.417   9.479 -0.2116 -1.1607 -2.1737
  330TMC3    C7 5014   0.739   4.665   9.536 -0.6544  0.3365 -0.1952
  330TMC3    C8 5015   0.461   4.272   9.466 -0.2951 -0.2851 -0.2339
  330TMC3    O1 5016   0.822   4.583   9.565  0.0458  0.3770 -0.6968
  330TMC3    O2 5017   0.357   4.222   9.425  0.2652  1.1046 -0.1454
  331MPD2     C 5018   2.948   3.427  12.803 -0.7143  0.0106  0.7146
  331MPD2    C1 5019   3.067   3.480  12.775  0.1725  0.6565  0.2025
  331MPD2    C2 5020   3.183   3.394  12.771  0.5041  0.2305  0.6522
  331MPD2    C3 5021   3.177   3.261  12.787  0.3243 -0.1909  0.0604
  331MPD2    C4 5022   3.053   3.205  12.808  0.2168  0.0487 -0.5140
  331MPD2    C5 5023   2.942   3.291  12.822 -0.3484 -0.5183 -0.0881
  331MPD2     H 5024   3.278   3.438  12.744 -0.3778  1.2689 -0.7153
  331MPD2    H1 5025   3.034   3.098  12.819 -0.2978  0.1566 -0.3698
  331MPD2    H2 5026   2.855   3.483  12.798 -0.9340 -0.5475 -1.4063
  331MPD2    H3 5027   2.843   3.254  12.846 -0.8006  0.8211  0.1180
  331MPD2     N 5028   3.299   3.197  12.771 -0.3631  0.4963  0.2785
  331MPD2    H5 5029   3.378   3.260  12.759  0.8703 -1.1707 -0.4828
  331MPD2    N1 5030   3.075   3.622  12.751  0.4106 -0.3993 -0.2459
  331MPD2    H7 5031   2.985   3.669  12.740  0.7557  0.5495  0.9764
  332TMC3    C1 5032   3.469   3.031  12.756  1.0396 -0.0724  0.0625
  332TMC3    C2 5033   3.524   3.081  12.646 -0.2575 -1.1531  0.7702
  332TMC3    C3 5034   3.649   3.047  12.604  0.1376 -0.0595  0.4586
  332TMC3    C4 5035   3.543   2.950  12.837 -0.3653  0.5923  0.7056
  332TMC3    C5 5036   3.673   2.914  12.798 -0.6003  0.5310  0.5290
  332TMC3    C6 5037   3.723   2.958  12.681 -0.2547  0.2291  0.1798
  332TMC3     C 5038   3.327   3.059  12.779 -0.2263 -0.1701  0.2014
  332TMC3     O 5039   3.240   2.974  12.810  0.1624 -0.8276  0.7146
  332TMC3     H 5040   3.468   3.150  12.585 -1.1995 -1.5879  1.1433
  332TMC3    H1 5041   3.494   2.919  12.929 -0.2156  1.6798  1.1512
  332TMC3    H2 5042   3.813   2.914  12.641 -0.5066 -0.8929  0.8474
  332TMC3    C7 5043   3.755   2.811  12.871 -0.0051 -0.2481  0.3253
  332TMC3    C8 5044   3.708   3.123  12.499  0.0753 -0.1429 -0.5198
  332TMC3    O1 5045   3.687   2.742  12.952  0.2738 -0.1769  0.5394
  332TMC3    O2 5046   3.640   3.222  12.474 -1.0027  0.0387  0.4189
  333MPD2     C 5047   3.642   3.897  11.589 -0.2316 -0.5810  0.7239
  333MPD2    C1 5048   3.749   3.818  11.541  0.1086  0.0222  0.5249
  333MPD2    C2 5049   3.777   3.700  11.605  0.3782  0.4460 -0.1582
  333MPD2    C3 5050   3.701   3.658  11.715 -0.2179  0.0772  0.1763
  333MPD2    C4 5051   3.600   3.739  11.770 -0.1266 -0.0531 -0.0196
  333MPD2    C5 5052   3.576   3.857  11.706 -0.2514 -0.4691 -0.4209
  333MPD2     H 5053   3.858   3.638  11.570 -0.0913  0.7129 -1.7097
  333MPD2    H1 5054   3.547   3.720  11.863 -1.2853  2.4047 -0.1915
  333MPD2    H2 5055   3.601   3.991  11.555 -0.3223 -0.7584  0.3461
  333MPD2    H3 5056   3.499   3.921  11.746 -0.3543  1.3214 -3.4468
  333MPD2     N 5057   3.739   3.540  11.773  0.1704 -0.0505 -0.1811
  333MPD2    H5 5058   3.813   3.499  11.718 -0.8223 -2.5469  0.3024
  333MPD2    N1 5059   3.823   3.867  11.428  0.9960  0.4159  0.2932
  333MPD2    H7 5060   3.787   3.949  11.380 -1.7565  0.1936  1.9670
  334TMC3    C1 5061   4.016   3.897  11.289 -0.1721  0.0434 -0.0942
  334TMC3    C2 5062   4.142   3.848  11.260 -0.4610  0.5112 -0.2994
  334TMC3    C3 5063   4.220   3.911  11.168  0.3914  0.4945  0.0606
  334TMC3    C4 5064   3.965   4.007  11.231 -0.0855 -0.2910  0.3369
  334TMC3    C5 5065   4.052   4.066  11.149 -0.3557 -0.0229  1.2531
  334TMC3    C6 5066   4.175   4.024  11.108 -0.7988 -0.4400  0.8825
  334TMC3     C 5067   3.953   3.830  11.397  0.8194  0.0425  0.1553
  334TMC3     O 5068   4.019   3.755  11.462  0.0745 -0.5359  0.3858
  334TMC3     H 5069   4.179   3.754  11.299 -0.8982  0.5778  0.2843
  334TMC3    H1 5070   3.876   4.065  11.251 -1.0700 -1.4753 -0.5672
  334TMC3    H2 5071   4.230   4.086  11.037 -0.4942 -0.5964  0.9819
  334TMC3    C7 5072   4.034   4.211  11.119  0.7672 -0.0710  0.7983
  334TMC3    C8 5073   4.320   3.817  11.103  0.2020  0.0369 -0.0721
  334TMC3    O1 5074   4.134   4.282  11.117  0.3027 -0.5670  0.6721
  334TMC3    O2 5075   4.312   3.701  11.136  0.0764 -0.2655  1.0167
  335TMC3    C1 5076   3.809   4.621  17.499 -0.0163 -0.4467 -0.3472
  335TMC3    C2 5077   3.732   4.656  17.389 -0.4501  0.3435 -0.5746
  335TMC3    C3 5078   3.791   4.640  17.267 -0.4907 -0.9376 -0.0531
  335TMC3    C4 5079   3.935   4.574  17.497  0.1458  0.8490  0.3712
  335TMC3    C5 5080   3.993   4.580  17.372 -0.4457  0.3968  0.2725
  335TMC3    C6 5081   3.924   4.615  17.258 -0.0068  0.0800 -0.2189
  335TMC3     C 5082   3.749   4.634  17.631 -0.8715 -0.1926 -1.4833
  335TMC3     O 5083   3.631   4.615  17.641  0.0471 -0.0858 -0.4464
  335TMC3     H 5084   3.631   4.692  17.400 -0.1153  1.1336 -0.1408
  335TMC3    H1 5085   3.992   4.561  17.588 -1.2261 -2.9310  0.6953
  335TMC3    H2 5086   3.983   4.613  17.167  0.3583  0.5792  0.0048
  335TMC3    C7 5087   4.137   4.560  17.358  0.3046 -0.0142 -0.7373
  335TMC3    C8 5088   3.709   4.603  17.162 -0.4474 -0.2133  0.7297
  335TMC3    O1 5089   4.199   4.627  17.277  0.1482  0.3532  0.5872
  335TMC3    O2 5090   3.749   4.605  17.048 -0.1514 -0.1609 -0.2328
  336MPD2     C 5091   3.499   2.949  16.056  0.4488  0.2340  0.4383
  336MPD2    C1 5092   3.474   2.851  15.963 -0.1150 -0.2463 -0.0799
  336MPD2    C2 5093   3.525   2.730  15.982 -0.2034  0.7127 -0.1053
  336MPD2    C3 5094   3.606   2.699  16.089 -0.0607  0.0341 -0.8390
  336MPD2    C4 5095   3.634   2.797  16.183  0.2006  0.0354 -0.8193
  336MPD2    C5 5096   3.573   2.922  16.165 -0.0481 -1.2674 -0.5646
  336MPD2     H 5097   3.484   2.649  15.922 -2.1591  0.7990  1.1385
  336MPD2    H1 5098   3.685   2.782  16.277  0.3457  1.9252 -0.5802
  336MPD2    H2 5099   3.463   3.051  16.053 -2.5399 -0.8838 -1.0860
  336MPD2    H3 5100   3.600   2.998  16.237 -2.6330 -0.4037 -0.5016
  336MPD2     N 5101   3.635   2.561  16.122 -0.2791  0.0241  0.0742
  336MPD2    H5 5102   3.671   2.547  16.216  3.0100  2.5015 -0.8226
  336MPD2    N1 5103   3.397   2.876  15.847 -0.4981  0.0116  0.0087
  336MPD2    H7 5104   3.372   2.798  15.788 -1.3512 -1.3192  2.1432
  337TMC3    C1 5105   3.255   2.991  15.694  0.7225  0.0731 -0.2225
  337TMC3    C2 5106   3.260   2.891  15.599  0.1953 -0.3273 -0.0795
  337TMC3    C3 5107   3.164   2.893  15.499  1.1642 -0.4488  0.8337
  337TMC3    C4 5108   3.177   3.106  15.674  0.3788 -0.0137 -0.2536
  337TMC3    C5 5109   3.097   3.108  15.569  0.6386  0.3527 -0.0616
  337TMC3    C6 5110   3.083   3.003  15.482 -0.1469 -0.8477 -0.6108
  337TMC3     C 5111   3.350   3.001  15.807  0.9608 -0.1999  0.3936
  337TMC3     O 5112   3.360   3.113  15.867 -0.3134  0.0195 -0.2463
  337TMC3     H 5113   3.323   2.804  15.614  1.1193  0.3804  0.1587
  337TMC3    H1 5114   3.182   3.190  15.742 -0.7656 -0.5626  0.4986
  337TMC3    H2 5115   3.009   3.004  15.403 -0.2219 -1.1153 -0.5424
  337TMC3    C7 5116   3.042   3.234  15.534 -0.6706  0.6013 -0.5340
  337TMC3    C8 5117   3.152   2.776  15.404 -0.5424  0.2205  0.8414
  337TMC3    O1 5118   3.023   3.314  15.623 -0.0901  0.3854  0.2336
  337TMC3    O2 5119   3.197   2.669  15.441  0.2669 -0.8536 -0.1617
  338MPD2     C 5120   3.743   2.246   0.724  0.0835  0.0302 -0.1990
  338MPD2    C1 5121   3.684   2.271   0.608  0.2404 -0.2886 -0.0130
  338MPD2    C2 5122   3.550   2.259   0.595  0.3466 -0.3825 -0.2624
  338MPD2    C3 5123   3.472   2.207   0.697 -0.2578  0.4419 -0.0714
  338MPD2    C4 5124   3.534   2.176   0.818  0.3388  0.1541  0.1981
  338MPD2    C5 5125   3.668   2.192   0.825  0.5399  0.4369 -0.3744
  338MPD2     H 5126   3.497   2.291   0.507 -1.9362  0.5739  1.4483
  338MPD2    H1 5127   3.484   2.141   0.908  1.9787 -0.2307  0.9621
  338MPD2    H2 5128   3.846   2.258   0.753  0.2417  1.2616 -1.3059
  338MPD2    H3 5129   3.721   2.161   0.914  1.2284 -0.3847 -1.0721
  338MPD2     N 5130   3.332   2.193   0.680 -0.2180 -0.5560 -0.3608
  338MPD2    H5 5131   3.303   2.226   0.589 -0.4076  1.0043  0.2550
  338MPD2    N1 5132   3.751   2.319   0.495 -0.3135  0.0330  0.1177
  338MPD2    H7 5133   3.699   2.318   0.408 -2.2526  0.0283  1.2857
  339TMC3    C1 5134   3.106   2.153   0.699 -0.2166 -0.1037  0.1985
  339TMC3    C2 5135   3.010   2.055   0.699 -0.3944  0.3622 -0.9003
  339TMC3    C3 5136   2.881   2.089   0.666  0.2378 -0.7956 -0.7661
  339TMC3    C4 5137   3.076   2.283   0.687 -0.0062 -0.5273  0.3423
  339TMC3    C5 5138   2.949   2.311   0.650  0.0033  0.1105  0.0717
  339TMC3    C6 5139   2.852   2.216   0.634  0.1367  1.0071  0.2963
  339TMC3     C 5140   3.235   2.128   0.759 -0.1936 -0.3930 -1.0579
  339TMC3     O 5141   3.247   2.062   0.858  0.6701  0.5265  0.3697
  339TMC3     H 5142   3.038   1.954   0.725  1.1139  1.3586  1.2782
  339TMC3    H1 5143   3.151   2.362   0.689 -1.3482  0.7687 -0.3243
  339TMC3    H2 5144   2.746   2.237   0.639 -0.5695 -2.4056 -0.0650
  339TMC3    C7 5145   2.923   2.454   0.623  0.1012  0.1312 -0.5777
  339TMC3    C8 5146   2.761   1.996   0.661 -0.3526 -0.1196  0.0561
  339TMC3    O1 5147   3.009   2.531   0.662  0.1534  0.0993 -0.1451
  339TMC3    O2 5148   2.650   2.032   0.625 -0.1861 -0.1288 -0.2867
  340MPD2     C 5149   3.314   4.222  10.305 -0.5544  0.0300  0.0736
  340MPD2    C1 5150   3.376   4.341  10.266 -1.0817 -0.6088  0.4376
  340MPD2    C2 5151   3.459   4.416  10.355 -0.4693 -0.0274 -0.1763
  340MPD2    C3 5152   3.490   4.351  10.474 -0.0904 -0.0971  0.7882
  340MPD2    C4 5153   3.435   4.233  10.511  0.6202  0.1762  0.4026
  340MPD2    C5 5154   3.344   4.170  10.426 -0.0783 -0.0767  0.5768
  340MPD2     H 5155   3.511   4.505  10.321  0.7931 -0.6396  0.1271
  340MPD2    H1 5156   3.460   4.184  10.605  0.5925 -1.0211 -0.2190
  340MPD2    H2 5157   3.250   4.168  10.237  1.1034  0.1604 -1.5624
  340MPD2    H3 5158   3.301   4.072  10.442  1.9853 -1.1016 -0.1241
  340MPD2     N 5159   3.580   4.415  10.558 -0.2620 -0.6317  0.4213
  340MPD2    H5 5160   3.600   4.349  10.633  2.3242 -1.9396 -1.3799
  340MPD2    N1 5161   3.345   4.387  10.136  0.1030 -0.0842  0.1529
  340MPD2    H7 5162   3.304   4.320  10.071 -2.1402  0.5427  0.9311
  341TMC3    C1 5163   3.375   4.508   9.931  0.5162 -0.1289 -0.3242
  341TMC3    C2 5164   3.284   4.442   9.854  0.3159  0.3680 -0.5306
  341TMC3    C3 5165   3.310   4.429   9.715 -0.1892 -0.3381 -0.4069
  341TMC3    C4 5166   3.488   4.552   9.872 -0.0499 -0.4713  0.1395
  341TMC3    C5 5167   3.503   4.555   9.735 -0.1666 -0.5002  0.0762
  341TMC3    C6 5168   3.408   4.497   9.654  0.9757 -0.4002  0.4027
  341TMC3     C 5169   3.379   4.507  10.081  0.4072 -0.3546  0.2093
  341TMC3     O 5170   3.437   4.605  10.128  0.0920  0.5139  0.5042
  341TMC3     H 5171   3.207   4.383   9.902  0.5600 -1.8030 -2.7847
  341TMC3    H1 5172   3.556   4.598   9.944  1.3246  0.2851 -1.6333
  341TMC3    H2 5173   3.431   4.480   9.549  0.1582  1.3989 -0.0551
  341TMC3    C7 5174   3.630   4.608   9.681  0.0054  0.3265 -0.4958
  341TMC3    C8 5175   3.263   4.299   9.660  0.8851 -0.2994 -0.0096
  341TMC3    O1 5176   3.700   4.656   9.769  0.3087 -0.0225  0.3539
  341TMC3    O2 5177   3.222   4.219   9.739 -0.5635 -0.0147  0.5332
  342MPD2     C 5178   1.743   3.384  17.328 -0.2895 -0.0161  0.4453
  342MPD2    C1 5179   1.871   3.386  17.278  0.6248  0.4832  0.4035
  342MPD2    C2 5180   1.941   3.506  17.273  0.2857  0.0417  0.1777
  342MPD2    C3 5181   1.893   3.619  17.337 -0.4280  1.0895  0.5550
  342MPD2    C4 5182   1.762   3.612  17.387  0.0333  0.2107 -0.1725
  342MPD2    C5 5183   1.693   3.502  17.374  0.1150  0.2200  0.4156
  342MPD2     H 5184   2.043   3.506  17.235  0.5307  1.9563  0.8149
  342MPD2    H1 5185   1.720   3.696  17.441 -1.8540 -0.9205  0.1192
  342MPD2    H2 5186   1.675   3.300  17.328 -2.1535  1.4842 -3.4582
  342MPD2    H3 5187   1.590   3.498  17.408 -0.4279  2.3157 -0.9765
  342MPD2     N 5188   1.966   3.739  17.362 -0.1910  0.0792 -0.2640
  342MPD2    H5 5189   1.912   3.810  17.411  1.1207  1.6907 -1.1517
  342MPD2    N1 5190   1.929   3.267  17.231 -0.1760 -0.0810  0.0789
  342MPD2    H7 5191   2.010   3.278  17.171  0.2625  2.0234  1.0771
  343TMC3    C1 5192   1.938   3.034  17.175  0.2187  0.2149  0.9132
  343TMC3    C2 5193   2.063   3.067  17.137  0.6087 -0.5348  0.1449
  343TMC3    C3 5194   2.151   2.966  17.120 -0.5280  0.1800  0.4195
  343TMC3    C4 5195   1.900   2.912  17.211  0.0281 -0.0028  0.4848
  343TMC3    C5 5196   1.993   2.807  17.210 -0.7931 -0.3475  0.0992
  343TMC3    C6 5197   2.113   2.832  17.148 -0.2218 -0.4812 -1.0543
  343TMC3     C 5198   1.877   3.138  17.257  0.2930  0.3535 -0.2780
  343TMC3     O 5199   1.804   3.106  17.345 -0.0177  0.1201 -0.4586
  343TMC3     H 5200   2.076   3.150  17.068 -0.8390  0.6280  1.2780
  343TMC3    H1 5201   1.800   2.901  17.252  0.4731  0.4634  1.6943
  343TMC3    H2 5202   2.187   2.757  17.122  1.7877  1.0536  0.2536
  343TMC3    C7 5203   1.942   2.674  17.205 -0.1775 -0.0448 -0.3210
  343TMC3    C8 5204   2.279   3.000  17.072 -0.5370  0.6887 -0.6636
  343TMC3    O1 5205   1.833   2.656  17.155  0.3747  0.3440  0.0981
  343TMC3    O2 5206   2.311   3.117  17.081  0.0712 -0.6289 -0.4678
  344MPD2     C 5207   2.400   3.194  10.361  0.1749 -0.4142 -0.4881
  344MPD2    C1 5208   2.444   3.120  10.472 -0.2710 -0.0619  0.4122
  344MPD2    C2 5209   2.575   3.144  10.503 -0.0839  0.0558 -0.6001
  344MPD2    C3 5210   2.650   3.253  10.450  0.8825  0.6333 -0.6979
  344MPD2    C4 5211   2.587   3.345  10.371  0.0695 -0.0501 -0.7778
  344MPD2    C5 5212   2.469   3.308  10.320  0.0517  0.6975 -0.7632
  344MPD2     H 5213   2.625   3.080  10.574  2.3133  0.9067 -1.5089
  344MPD2    H1 5214   2.635   3.435  10.332 -1.2696  1.9108  2.1234
  344MPD2    H2 5215   2.303   3.173  10.318 -1.2553 -0.3848  2.7032
  344MPD2    H3 5216   2.427   3.375  10.246  2.1512  0.9097 -1.7697
  344MPD2     N 5217   2.779   3.286  10.488  0.5465  0.4393  0.8991
  344MPD2    H5 5218   2.813   3.377  10.459 -1.6316  1.9763  3.1467
  344MPD2    N1 5219   2.364   3.023  10.543 -0.1785  0.1071 -0.1150
  344MPD2    H7 5220   2.403   2.972  10.621  0.7622  1.0029 -0.0161
  345TMC3    C1 5221   2.974   3.281  10.621  0.9519 -0.6560  0.9266
  345TMC3    C2 5222   2.989   3.266  10.755 -0.2615 -0.3814 -0.5739
  345TMC3    C3 5223   2.987   3.380  10.829 -0.1823 -0.2358  0.6227
  345TMC3    C4 5224   3.000   3.398  10.560  0.1039 -0.5828  0.2630
  345TMC3    C5 5225   3.006   3.511  10.633 -0.6483 -0.7898 -0.9443
  345TMC3    C6 5226   2.987   3.505  10.766 -0.7938 -0.3854 -0.3969
  345TMC3     C 5227   2.868   3.208  10.558 -0.0801 -0.5138  0.0551
  345TMC3     O 5228   2.856   3.088  10.583 -0.1095  0.3105  0.4235
  345TMC3     H 5229   2.964   3.174  10.807 -0.6143  0.7190  1.2319
  345TMC3    H1 5230   3.018   3.397  10.453  2.1636  0.4912  0.5980
  345TMC3    H2 5231   2.973   3.593  10.827  2.2724 -0.5665  0.5574
  345TMC3    C7 5232   2.977   3.639  10.574  0.0687 -0.8318 -0.9194
  345TMC3    C8 5233   2.958   3.365  10.973  0.2229 -0.1018  0.0192
  345TMC3    O1 5234   2.941   3.732  10.646 -0.1050 -0.2682  0.3799
  345TMC3    O2 5235   2.924   3.250  11.004 -0.1428  0.6880  0.0900
  346MPD2     C 5236   2.714   4.300  14.277  0.1823  0.4419  0.0796
  346MPD2    C1 5237   2.820   4.383  14.242  0.0115 -0.4042 -0.5457
  346MPD2    C2 5238   2.876   4.459  14.337 -0.5196  0.9133  0.6242
  346MPD2    C3 5239   2.840   4.456  14.471  0.1567 -0.3491 -0.2651
  346MPD2    C4 5240   2.732   4.374  14.502 -0.2853  0.1074  0.1924
  346MPD2    C5 5241   2.672   4.300  14.406  0.3470  0.4220  0.6280
  346MPD2     H 5242   2.965   4.512  14.306 -0.6442  1.0784  0.5456
  346MPD2    H1 5243   2.698   4.362  14.605 -2.2969  2.3848 -0.2009
  346MPD2    H2 5244   2.656   4.240  14.207 -0.0105 -0.0804  0.6928
  346MPD2    H3 5245   2.588   4.239  14.434 -1.1379  1.9677 -0.4516
  346MPD2     N 5246   2.911   4.533  14.570  0.2550 -0.1953 -0.8372
  346MPD2    H5 5247   2.999   4.570  14.537  0.4485  1.1923  1.2381
  346MPD2    N1 5248   2.862   4.391  14.112  0.1862 -0.5993  0.1102
  346MPD2    H7 5249   2.913   4.477  14.090  1.1654 -1.0867  0.4535
  347TMC3    C1 5250   2.970   4.633  14.779  0.3311 -0.2689  0.0996
  347TMC3    C2 5251   3.094   4.669  14.744 -0.4245  1.1646  0.3972
  347TMC3    C3 5252   3.185   4.704  14.837  0.5548  0.0829  0.5450
  347TMC3    C4 5253   2.931   4.636  14.910 -0.3635  0.1836  0.0192
  347TMC3    C5 5254   3.026   4.666  15.004  0.5834 -0.0420  0.5450
  347TMC3    C6 5255   3.148   4.714  14.972  0.1630 -0.1122  0.5819
  347TMC3     C 5256   2.884   4.541  14.702 -0.7492  0.1723  0.6868
  347TMC3     O 5257   2.768   4.522  14.739  0.6572 -0.5970  0.2775
  347TMC3     H 5258   3.150   4.646  14.654 -0.2122 -0.3287  0.9139
  347TMC3    H1 5259   2.829   4.612  14.939 -0.0611 -0.9171  0.1873
  347TMC3    H2 5260   3.225   4.709  15.048 -0.0858  0.3177  0.8593
  347TMC3    C7 5261   3.015   4.568  15.112  0.0166  0.6292 -0.5268
  347TMC3    C8 5262   3.305   4.626  14.831 -0.5474 -0.2740  0.6919
  347TMC3    O1 5263   2.942   4.469  15.093 -0.1957  0.1054  0.4089
  347TMC3    O2 5264   3.315   4.536  14.914 -0.0644  0.3286 -0.3857
  348MPD2     C 5265   1.524   4.321  12.216  0.4588 -0.3548  0.2189
  348MPD2    C1 5266   1.430   4.250  12.152  0.1752 -0.0113 -0.5573
  348MPD2    C2 5267   1.408   4.270  12.024  0.3395  1.4333  0.1870
  348MPD2    C3 5268   1.471   4.369  11.954 -0.9886  0.1433 -0.4533
  348MPD2    C4 5269   1.563   4.451  12.019 -0.7733 -0.5650 -0.7548
  348MPD2    C5 5270   1.589   4.425  12.152 -0.0549 -0.0734  0.3144
  348MPD2     H 5271   1.344   4.209  11.961  0.2382  1.9577 -0.2199
  348MPD2    H1 5272   1.623   4.526  11.968  0.5697 -1.6167 -0.7267
  348MPD2    H2 5273   1.526   4.300  12.323  0.7476 -0.0305  0.2754
  348MPD2    H3 5274   1.665   4.493  12.189 -0.0164 -0.1372  0.3532
  348MPD2     N 5275   1.435   4.378  11.813  0.4603 -0.0268 -0.4084
  348MPD2    H5 5276   1.345   4.339  11.786  0.3331 -1.5243  2.2593
  348MPD2    N1 5277   1.355   4.145  12.204  0.4708  0.1244 -0.2575
  348MPD2    H7 5278   1.277   4.107  12.151 -0.3460  1.3223  0.0877
  349TMC3    C1 5279   1.264   4.002  12.359 -0.0222 -0.6982 -0.0667
  349TMC3    C2 5280   1.323   3.878  12.385  0.2247 -0.7572 -1.0265
  349TMC3    C3 5281   1.282   3.771  12.313  0.1936 -0.4927  0.2937
  349TMC3    C4 5282   1.169   4.016  12.262 -0.1448  0.0060  0.0525
  349TMC3    C5 5283   1.152   3.907  12.185 -0.1077  0.3244 -0.0194
  349TMC3    C6 5284   1.202   3.784  12.203 -0.3457 -1.0743 -0.3256
  349TMC3     C 5285   1.371   4.095  12.333  0.1251 -0.5317  0.1763
  349TMC3     O 5286   1.464   4.093  12.410  0.2941 -0.1337  0.0267
  349TMC3     H 5287   1.404   3.854  12.453 -0.5703  1.2221  0.6174
  349TMC3    H1 5288   1.128   4.116  12.251 -0.2742  0.1314  1.7487
  349TMC3    H2 5289   1.186   3.704  12.132  0.4550  0.2313 -1.9642
  349TMC3    C7 5290   1.142   3.948  12.048  0.2205  0.0845  0.1120
  349TMC3    C8 5291   1.349   3.643  12.329  0.2866 -0.0187 -0.6037
  349TMC3    O1 5292   1.183   4.059  12.025  0.4828 -0.6170 -0.2271
  349TMC3    O2 5293   1.275   3.545  12.337  0.8380  0.2347  0.5331
  350MPD2     C 5294   0.541   2.347  10.221 -0.4934  0.3570  0.4878
  350MPD2    C1 5295   0.539   2.212  10.249  0.7328  0.1841 -0.0130
  350MPD2    C2 5296   0.605   2.173  10.367 -0.0060  0.0771 -0.3170
  350MPD2    C3 5297   0.665   2.267  10.455 -0.5671  0.3251 -0.0858
  350MPD2    C4 5298   0.666   2.402  10.422  0.0297  0.2379 -0.5112
  350MPD2    C5 5299   0.606   2.437  10.303 -0.1004 -0.8004  0.0705
  350MPD2     H 5300   0.625   2.069  10.393  1.5645  0.1370 -1.2933
  350MPD2    H1 5301   0.700   2.479  10.491  0.6438 -1.1117  0.6981
  350MPD2    H2 5302   0.501   2.380  10.125  2.5196  1.0147 -0.5396
  350MPD2    H3 5303   0.609   2.542  10.276  0.9398 -0.9296 -0.3379
  350MPD2     N 5304   0.724   2.209  10.573 -0.3572  0.6807  0.3834
  350MPD2    H5 5305   0.743   2.109  10.573 -2.5851  0.2523  0.9352
  350MPD2    N1 5306   0.483   2.118  10.169  0.5740  0.0482 -0.1093
  350MPD2    H7 5307   0.489   2.021  10.196  0.5583  0.1539  0.2676
  351TMC3    C1 5308   0.337   2.019  10.026 -0.4416  0.4247  0.2807
  351TMC3    C2 5309   0.424   1.915   9.992 -0.5883 -0.0017 -0.4242
  351TMC3    C3 5310   0.364   1.805   9.940 -0.0918  0.0262  0.2142
  351TMC3    C4 5311   0.206   1.996  10.034  0.0790 -0.5534  0.5718
  351TMC3    C5 5312   0.154   1.877   9.991  0.1358 -0.2905  0.1452
  351TMC3    C6 5313   0.229   1.782   9.928  0.6263 -0.1211 -0.4115
  351TMC3     C 5314   0.389   2.144  10.075 -0.1531 -0.3470 -0.5597
  351TMC3     O 5315   0.316   2.242  10.074  0.1586  0.1145 -0.2662
  351TMC3     H 5316   0.526   1.939   9.967  0.2024 -1.4672  1.4947
  351TMC3    H1 5317   0.150   2.084  10.062 -1.4803 -0.5938 -2.3064
  351TMC3    H2 5318   0.193   1.701   9.865 -1.4105  1.2840 -1.0540
  351TMC3    C7 5319   0.013   1.868   9.957 -0.6055 -1.0989  0.3404
  351TMC3    C8 5320   0.450   1.700   9.885  0.7555 -0.4122  0.1644
  351TMC3    O1 5321   4.700   1.982   9.943 -0.1048 -0.6435  0.3491
  351TMC3    O2 5322   0.396   1.600   9.845  0.0417 -0.0014  0.6052
  352MPD2     C 5323   3.669   3.943   1.064  0.0847 -0.3093 -0.5107
  352MPD2    C1 5324   3.565   3.931   1.154 -0.6302 -0.6642 -0.3202
  352MPD2    C2 5325   3.519   3.804   1.194 -0.0338 -0.2972 -0.3088
  352MPD2    C3 5326   3.589   3.694   1.148 -0.1241 -0.2352 -0.2160
  352MPD2    C4 5327   3.711   3.712   1.081  0.0995 -0.1333 -0.1066
  352MPD2    C5 5328   3.735   3.838   1.027 -0.6656  0.1681  0.0670
  352MPD2     H 5329   3.438   3.790   1.263  0.3094 -1.8498 -0.2319
  352MPD2    H1 5330   3.774   3.632   1.043 -0.9252 -0.2470 -1.5412
  352MPD2    H2 5331   3.707   4.036   1.025 -2.0637  0.1366 -1.5626
  352MPD2    H3 5332   3.817   3.842   0.957 -0.5603  2.6060  0.3193
  352MPD2     N 5333   3.545   3.563   1.167  0.1982 -0.2458 -0.2349
  352MPD2    H5 5334   3.609   3.494   1.132  1.3916  0.1617  1.1397
  352MPD2    N1 5335   3.498   4.042   1.194 -0.2732 -0.6130 -0.0708
  352MPD2    H7 5336   3.521   4.135   1.158 -0.9812 -0.1667  0.6174
  353TMC3    C1 5337   3.434   3.381   1.271 -0.0711 -0.0348  0.6339
  353TMC3    C2 5338   3.543   3.298   1.248  0.0888 -0.0094 -0.6021
  353TMC3    C3 5339   3.524   3.160   1.260 -0.3037 -0.4494 -0.2099
  353TMC3    C4 5340   3.314   3.331   1.287  0.3696 -0.6681 -0.2635
  353TMC3    C5 5341   3.299   3.194   1.298 -0.0504 -0.3709 -0.3586
  353TMC3    C6 5342   3.401   3.104   1.283  0.2841  0.4436 -0.4103
  353TMC3     C 5343   3.434   3.524   1.243  0.3790  0.0342  0.4741
  353TMC3     O 5344   3.355   3.603   1.299 -0.4656  0.0233  0.5422
  353TMC3     H 5345   3.645   3.336   1.249  0.8210 -1.9639 -0.9718
  353TMC3    H1 5346   3.227   3.394   1.299 -0.4436 -2.6298  4.2116
  353TMC3    H2 5347   3.379   2.998   1.297 -2.3018  0.9046 -0.9814
  353TMC3    C7 5348   3.165   3.144   1.277 -0.6882  0.4447  0.3985
  353TMC3    C8 5349   3.638   3.073   1.282  0.3782  0.1232  0.9626
  353TMC3    O1 5350   3.153   3.065   1.192  0.5636 -0.2287 -0.1998
  353TMC3    O2 5351   3.746   3.125   1.292 -0.1153 -0.1528 -0.0050
  354TMC3    C1 5352   0.749   0.291  13.416  0.5865 -0.2596  0.4675
  354TMC3    C2 5353   0.734   0.427  13.419  0.2432  0.3598  0.3426
  354TMC3    C3 5354   0.783   0.508  13.316  0.2510  0.9012 -0.4307
  354TMC3    C4 5355   0.825   0.235  13.319  0.2393 -0.3646 -0.3285
  354TMC3    C5 5356   0.867   0.319  13.215  0.0032 -0.0750  0.3048
  354TMC3    C6 5357   0.850   0.454  13.218 -0.0107  0.5946 -0.5805
  354TMC3     C 5358   0.701   0.212  13.528 -0.1669  0.5737 -0.7456
  354TMC3     O 5359   0.641   0.276  13.615  0.4183  0.0464 -0.0158
  354TMC3     H 5360   0.667   0.473  13.491 -0.2446 -2.1651  1.5029
  354TMC3    H1 5361   0.826   0.129  13.296  1.5327 -0.0233 -1.8245
  354TMC3    H2 5362   0.872   0.514  13.130 -1.2017  0.5078 -0.9385
  354TMC3    C7 5363   0.968   0.265  13.130  0.0176  0.0608 -0.1207
  354TMC3    C8 5364   0.763   0.655  13.327  0.7394  0.8818 -0.3037
  354TMC3    O1 5365   0.974   0.144  13.108  0.1127 -0.0566 -0.5586
  354TMC3    O2 5366   0.724   0.696  13.435 -0.0260 -0.3608  0.4348
  355MPD2     C 5367   1.551   1.256  11.510 -0.1510 -0.2830 -0.0300
  355MPD2    C1 5368   1.546   1.340  11.615  0.2989 -0.4302  0.5388
  355MPD2    C2 5369   1.581   1.303  11.747  0.2130  0.5620  0.3212
  355MPD2    C3 5370   1.641   1.176  11.746 -0.1947 -0.1682 -0.3725
  355MPD2    C4 5371   1.650   1.091  11.637  0.4392  0.4005 -0.1337
  355MPD2    C5 5372   1.597   1.126  11.519  0.4412 -0.5332  0.1055
  355MPD2     H 5373   1.578   1.367  11.835 -0.3467 -1.3801  1.6961
  355MPD2    H1 5374   1.699   0.994  11.640  0.2954  0.3405  0.3097
  355MPD2    H2 5375   1.524   1.298  11.414 -1.1403  2.0925  1.3011
  355MPD2    H3 5376   1.598   1.063  11.430  0.7625  0.3491 -0.5123
  355MPD2     N 5377   1.720   1.132  11.857 -0.1313 -0.4866 -0.0233
  355MPD2    H5 5378   1.739   1.032  11.860  1.1109 -0.2368  0.3754
  355MPD2    N1 5379   1.511   1.473  11.581  0.2036  0.3359  0.5474
  355MPD2    H7 5380   1.474   1.488  11.488  0.7202  0.9405  0.4343
  356TMC3    C1 5381   1.796   1.355  11.926  0.8542 -0.2053  0.0863
  356TMC3    C2 5382   1.829   1.421  11.813  0.9507 -0.4192 -0.0672
  356TMC3    C3 5383   1.840   1.556  11.822  0.4728 -0.1382 -0.3829
  356TMC3    C4 5384   1.767   1.417  12.042 -0.0851 -0.8124  0.0361
  356TMC3    C5 5385   1.775   1.555  12.048 -0.1164  0.0183 -0.4026
  356TMC3    C6 5386   1.807   1.633  11.939 -0.0354 -0.8978 -0.4682
  356TMC3     C 5387   1.790   1.209  11.946 -0.8782  0.0436  0.8498
  356TMC3     O 5388   1.856   1.166  12.043  0.5540  0.4816 -0.0747
  356TMC3     H 5389   1.869   1.367  11.727 -1.0625 -0.8440 -0.7343
  356TMC3    H1 5390   1.746   1.356  12.129  0.4944 -1.7536 -0.4827
  356TMC3    H2 5391   1.813   1.741  11.946 -0.9957 -1.0387  2.5076
  356TMC3    C7 5392   1.742   1.622  12.176  0.1255  0.2112  0.7937
  356TMC3    C8 5393   1.865   1.622  11.694  0.2271 -0.0308  0.6781
  356TMC3    O1 5394   1.705   1.536  12.256  0.2439 -0.4285  0.4710
  356TMC3    O2 5395   1.844   1.563  11.589 -0.5545 -0.0822  0.3428
  357MPD2     C 5396   0.505   0.661  17.609 -0.3640 -0.0546  0.4073
  357MPD2    C1 5397   0.546   0.632  17.741  0.4340 -0.1040 -0.5740
  357MPD2    C2 5398   0.491   0.706   0.094  0.5978  0.2424 -0.0157
  357MPD2    C3 5399   0.399   0.809   0.065  0.3826 -0.0751  0.2127
  357MPD2    C4 5400   0.359   0.832  17.673 -0.2553  0.2016  0.1842
  357MPD2    C5 5401   0.413   0.757  17.577 -0.4833  0.8644  0.2247
  357MPD2     H 5402   0.523   0.690   0.197  0.1365 -2.0312 -0.2253
  357MPD2    H1 5403   0.287   0.912  17.656  2.4442  2.7159  0.5339
  357MPD2    H2 5404   0.541   0.606  17.523 -1.3670 -1.4938  0.9079
  357MPD2    H3 5405   0.388   0.779  17.474  0.0562  0.5563  0.0248
  357MPD2     N 5406   0.332   0.877   0.166  0.0859 -0.2289  0.2774
  357MPD2    H5 5407   0.265   0.949   0.141  0.5088  0.4948  1.2426
  357MPD2    N1 5408   0.644   0.534   0.022 -0.4414 -0.1557  0.5575
  357MPD2    H7 5409   0.685   0.484  17.686 -2.1245  0.7249 -0.8728
  358TMC3    C1 5410   0.774   0.372   0.144 -0.0399  0.0681 -0.2801
  358TMC3    C2 5411   0.795   0.307   0.028  0.6536 -0.0921  0.2622
  358TMC3    C3 5412   0.878   0.198   0.039 -0.2340  0.2509 -1.0310
  358TMC3    C4 5413   0.809   0.328   0.267 -0.0952  0.7495 -0.0895
  358TMC3    C5 5414   0.889   0.219   0.278 -0.0943  0.5452  0.8075
  358TMC3    C6 5415   0.921   0.155   0.160  0.3992  0.9416  0.6961
  358TMC3     C 5416   0.699   0.502   0.144  0.2828 -0.1885  0.6749
  358TMC3     O 5417   0.692   0.560   0.250 -0.8210  0.5106 -0.2172
  358TMC3     H 5418   0.753   0.329  17.673 -2.6954  0.1153  1.7446
  358TMC3    H1 5419   0.769   0.380   0.353 -3.6365 -0.5465 -0.9503
  358TMC3    H2 5420   1.005   0.088   0.167 -0.9848 -1.0182 -1.3620
  358TMC3    C7 5421   0.986   0.210   0.387  0.0481  0.1606 -0.1530
  358TMC3    C8 5422   0.932   0.144  17.658 -0.6499 -0.3162  0.4119
  358TMC3    O1 5423   1.075   0.130   0.372  0.2971  0.0881 -0.9141
  358TMC3    O2 5424   0.922   0.212  17.557  0.4086 -0.1577 -0.0736
  359MPD2     C 5425   0.770   4.053  12.221  0.0414  0.0364  0.0874
  359MPD2    C1 5426   0.732   4.121  12.109 -0.4399 -0.3052 -0.2017
  359MPD2    C2 5427   0.606   4.085  12.049  0.1639  0.6239 -0.6103
  359MPD2    C3 5428   0.531   3.973  12.098 -0.2408  0.3184  0.4468
  359MPD2    C4 5429   0.574   3.910  12.214  0.9987  0.1825  0.2893
  359MPD2    C5 5430   0.695   3.944  12.265  0.1863  0.2343  0.8284
  359MPD2     H 5431   0.583   4.136  11.956 -0.7344  0.7992 -0.2841
  359MPD2    H1 5432   0.523   3.824  12.255  0.9551 -0.4153 -0.9936
  359MPD2    H2 5433   0.864   4.069  12.273  0.2932 -1.0352 -0.0471
  359MPD2    H3 5434   0.733   3.891  12.351 -1.1853 -2.6198 -0.3379
  359MPD2     N 5435   0.400   3.947  12.061  0.1457 -0.7246 -0.1302
  359MPD2    H5 5436   0.366   3.866  12.110 -0.1779  0.7580  2.1068
  359MPD2    N1 5437   0.797   4.235  12.069 -0.3979  0.4945  0.1500
  359MPD2    H7 5438   0.772   4.262  11.975  0.8350 -2.1502 -0.9241
  360TMC3    C1 5439   0.965   4.407  12.061 -0.4620  0.5607 -0.1543
  360TMC3    C2 5440   1.072   4.469  12.123  0.5523 -0.3623  0.3027
  360TMC3    C3 5441   1.143   4.568  12.063  0.2715  0.1440  0.6595
  360TMC3    C4 5442   0.927   4.440  11.933  0.2115  0.8061  0.0832
  360TMC3    C5 5443   0.998   4.542  11.875 -0.2308  0.2284  0.4488
  360TMC3    C6 5444   1.101   4.605  11.939 -0.0539  0.9392  0.3478
  360TMC3     C 5445   0.902   4.302  12.136 -0.1238  0.4025  0.2824
  360TMC3     O 5446   0.951   4.274  12.244  0.0775 -0.2714  0.7439
  360TMC3     H 5447   1.080   4.474  12.231 -1.2203  1.3409  0.3585
  360TMC3    H1 5448   0.846   4.385  11.885  0.3665  1.3882 -0.8444
  360TMC3    H2 5449   1.149   4.691  11.896  3.0144 -0.2090  1.4843
  360TMC3    C7 5450   0.987   4.563  11.730  0.0856 -0.5389  0.1110
  360TMC3    C8 5451   1.219   4.663  12.139  0.7711  0.0416  0.1959
  360TMC3    O1 5452   1.081   4.615  11.674  0.4158  0.2486 -0.0925
  360TMC3    O2 5453   1.196   4.666  12.260  0.1130  0.6351 -0.0122
  361MPD2     C 5454   3.015   3.910  16.600 -0.8796  0.9196  0.1874
  361MPD2    C1 5455   2.950   3.835  16.701 -0.0545 -0.3174 -0.0439
  361MPD2    C2 5456   3.038   3.752  16.779 -0.0835  0.6655  0.2842
  361MPD2    C3 5457   3.169   3.730  16.740  0.3229 -0.5455 -0.0083
  361MPD2    C4 5458   3.222   3.799  16.631  0.4744  0.1371 -0.5616
  361MPD2    C5 5459   3.148   3.893  16.565 -0.1062  0.6130  0.5567
  361MPD2     H 5460   2.998   3.696  16.862  0.1944 -0.2902 -0.2263
  361MPD2    H1 5461   3.325   3.804  16.598  0.7060 -0.5693  0.0665
  361MPD2    H2 5462   2.957   3.984  16.545  0.0867  2.1470  0.8159
  361MPD2    H3 5463   3.198   3.945  16.485  0.0365 -0.7078 -0.1925
  361MPD2     N 5464   3.245   3.628  16.800  0.0435  0.3194 -0.6001
  361MPD2    H5 5465   3.317   3.593  16.739 -0.0901 -2.0257  0.5504
  361MPD2    N1 5466   2.810   3.848  16.719  0.5857  0.5745  0.3369
  361MPD2    H7 5467   2.772   3.921  16.660  1.4350  2.0069  1.5910
  362TMC3    C1 5468   2.596   3.788  16.740  0.5037  0.4207  0.2279
  362TMC3    C2 5469   2.496   3.780  16.830  0.3989 -0.3439 -0.5517
  362TMC3    C3 5470   2.374   3.754  16.777  0.4237 -0.0861 -0.3250
  362TMC3    C4 5471   2.584   3.762  16.610  0.1639  0.8647  0.7097
  362TMC3    C5 5472   2.458   3.735  16.565  0.1459 -0.0083 -0.4387
  362TMC3    C6 5473   2.351   3.726  16.643  0.0936 -0.7546  0.4386
  362TMC3     C 5474   2.730   3.766  16.792 -0.4988 -0.0645  0.0340
  362TMC3     O 5475   2.750   3.661  16.853  0.5546 -0.4257 -0.1319
  362TMC3     H 5476   2.511   3.787  16.937 -1.6587 -0.6970 -0.2306
  362TMC3    H1 5477   2.667   3.782  16.543 -0.5708  1.0809 -0.1383
  362TMC3    H2 5478   2.251   3.706  16.606  1.0093 -0.8695 -2.0150
  362TMC3    C7 5479   2.429   3.771  16.428 -0.0281  1.0144 -0.7917
  362TMC3    C8 5480   2.256   3.775  16.859  0.2483  0.7427  0.2309
  362TMC3    O1 5481   2.517   3.839  16.378  0.2661  0.0079 -0.0793
  362TMC3    O2 5482   2.162   3.704  16.824 -0.3230 -0.3972 -0.1443
  363TMC3    C1 5483   0.842   0.900   9.082  0.3934  0.5050  0.3070
  363TMC3    C2 5484   0.977   0.903   9.089 -0.4281  0.1394 -0.0412
  363TMC3    C3 5485   1.032   1.030   9.114 -0.4932  0.2516 -0.3214
  363TMC3    C4 5486   0.766   1.014   9.072  0.4027 -0.2224  0.5092
  363TMC3    C5 5487   0.826   1.140   9.091  0.5775 -0.0566  0.1927
  363TMC3    C6 5488   0.961   1.149   9.114 -0.1124 -0.7999  0.0054
  363TMC3     C 5489   0.784   0.769   9.043  0.4292 -0.1471  0.2534
  363TMC3     O 5490   0.857   0.688   8.993 -0.1795 -0.3586 -0.0008
  363TMC3     H 5491   1.034   0.812   9.096  1.4739  1.4155  1.2843
  363TMC3    H1 5492   0.659   1.025   9.062  0.8003  0.7471 -2.5811
  363TMC3    H2 5493   1.013   1.244   9.116 -0.5967 -0.4811 -2.9248
  363TMC3    C7 5494   0.741   1.251   9.129  0.4303  0.0645  0.3626
  363TMC3    C8 5495   1.173   1.060   9.140  0.7020 -0.0979  0.5288
  363TMC3    O1 5496   0.625   1.248   9.094 -0.0710 -0.5187  0.3464
  363TMC3    O2 5497   1.200   1.170   9.185  0.4111 -0.6641  0.3266
  364MPD2     C 5498   4.650   1.084  10.158  0.4580 -0.0905 -1.0568
  364MPD2    C1 5499   0.030   1.162  10.180 -0.2223 -0.7206  0.7779
  364MPD2    C2 5500   0.139   1.100  10.233 -0.5549  0.0732  0.9418
  364MPD2    C3 5501   0.151   0.968  10.251  0.1013  0.0079  0.3724
  364MPD2    C4 5502   0.030   0.893  10.223 -0.1049  0.1273  0.3365
  364MPD2    C5 5503   4.652   0.953  10.189 -0.5905 -0.0222  0.4386
  364MPD2     H 5504   0.216   1.166  10.270 -0.5007  0.4361  0.1848
  364MPD2    H1 5505   0.035   0.787  10.245 -0.2854  0.5169  2.2546
  364MPD2    H2 5506   4.561   1.125  10.113  1.0202 -0.1571 -2.2363
  364MPD2    H3 5507   4.570   0.884  10.168 -2.5986  1.3811  3.6704
  364MPD2     N 5508   0.271   0.896  10.288 -0.5594 -0.0213 -0.4504
  364MPD2    H5 5509   0.265   0.795  10.291 -3.5246  0.0803 -3.2079
  364MPD2    N1 5510   0.008   1.298  10.156  0.0617  0.7212 -0.3231
  364MPD2    H7 5511   4.651   1.335  10.143 -0.5987 -1.3575 -1.5233
  365TMC3    C1 5512   0.243   1.365  10.142 -0.0800  0.8259  0.0384
  365TMC3    C2 5513   0.299   1.280  10.055  0.6087 -0.5551 -0.6636
  365TMC3    C3 5514   0.439   1.279  10.040  0.7748 -0.3859  0.4503
  365TMC3    C4 5515   0.310   1.471  10.189 -0.0583 -0.1224  0.1285
  365TMC3    C5 5516   0.440   1.485  10.162 -0.7653  0.1855 -0.3319
  365TMC3    C6 5517   0.508   1.391  10.091 -0.5081 -0.6481  0.0306
  365TMC3     C 5518   0.105   1.396  10.123 -0.2048  0.1136  0.3098
  365TMC3     O 5519   0.072   1.499  10.066 -0.0013  0.8431  0.4309
  365TMC3     H 5520   0.230   1.204  10.022  1.1319 -2.1040  1.8581
  365TMC3    H1 5521   0.251   1.542  10.246  1.8694  0.4055  1.4823
  365TMC3    H2 5522   0.615   1.401  10.080 -1.0493  2.9697 -1.7117
  365TMC3    C7 5523   0.522   1.562  10.253  0.4032  0.0689 -0.8696
  365TMC3    C8 5524   0.513   1.156  10.025 -0.7288 -0.4311 -0.3008
  365TMC3    O1 5525   0.608   1.632  10.207  0.0282 -0.3524  0.2250
  365TMC3    O2 5526   0.635   1.166  10.035 -0.3979  0.1099  0.2802
  366MPD2     C 5527   3.216   2.285  14.710  0.1574  0.0354  0.0066
  366MPD2    C1 5528   3.279   2.339  14.819  0.2076 -0.0979 -0.3079
  366MPD2    C2 5529   3.328   2.259  14.920  0.4377 -0.0016 -0.5706
  366MPD2    C3 5530   3.314   2.121  14.918 -0.3284  0.0799  0.4823
  366MPD2    C4 5531   3.251   2.069  14.800 -0.5390 -0.4473 -0.0619
  366MPD2    C5 5532   3.201   2.148  14.707 -0.6424 -0.1670  0.2957
  366MPD2     H 5533   3.376   2.306  15.004 -1.0603 -1.2139  0.9622
  366MPD2    H1 5534   3.240   1.963  14.777 -0.2036  0.1868 -3.0831
  366MPD2    H2 5535   3.170   2.341  14.629  0.0599  1.9673  1.4016
  366MPD2    H3 5536   3.161   2.100  14.619 -0.0022  0.4198 -0.3195
  366MPD2     N 5537   3.373   2.043  15.022  0.1786 -0.3482 -0.3798
  366MPD2    H5 5538   3.423   2.093  15.095  3.2311 -3.5871 -0.2916
  366MPD2    N1 5539   3.293   2.479  14.834 -0.2652 -0.4166 -0.0650
  366MPD2    H7 5540   3.359   2.498  14.909 -1.0961  1.1311  0.2544
  367TMC3    C1 5541   3.280   2.718  14.814 -0.8455 -0.1694 -0.1403
  367TMC3    C2 5542   3.325   2.726  14.944  0.2342  0.0970 -0.0509
  367TMC3    C3 5543   3.346   2.848  15.007  0.0707  0.3633 -0.1256
  367TMC3    C4 5544   3.238   2.828  14.747 -0.1148 -0.1053 -0.4139
  367TMC3    C5 5545   3.253   2.946  14.817  0.3208  0.3088  0.5756
  367TMC3    C6 5546   3.309   2.959  14.941  0.0192  0.4613 -0.5553
  367TMC3     C 5547   3.245   2.582  14.756  0.7123  0.2721 -0.4433
  367TMC3     O 5548   3.187   2.578  14.647 -0.0773  0.1288  0.1218
  367TMC3     H 5549   3.351   2.644  15.011 -1.4297  0.6044  1.2258
  367TMC3    H1 5550   3.195   2.822  14.648  0.8056 -1.3944 -0.7402
  367TMC3    H2 5551   3.310   3.050  15.000  0.2951 -0.1043  0.3173
  367TMC3    C7 5552   3.134   3.029  14.800  0.9297  0.3420 -0.1134
  367TMC3    C8 5553   3.432   2.843  15.126  0.1273  0.1594  0.1902
  367TMC3    O1 5554   3.071   3.061  14.901  0.2292  0.2992  0.2802
  367TMC3    O2 5555   3.486   2.736  15.146 -0.3453 -0.6638 -0.0943
  368MPD2     C 5556   0.196   4.060  13.555 -0.2628  0.1199  0.2040
  368MPD2    C1 5557   0.163   4.118  13.434 -0.2158 -0.5638  0.6418
  368MPD2    C2 5558   0.259   4.129  13.338 -0.0272 -0.1304 -0.3111
  368MPD2    C3 5559   0.380   4.062  13.353 -0.0908 -0.1496  0.2370
  368MPD2    C4 5560   0.402   3.996  13.471 -0.0657  0.4008 -0.8096
  368MPD2    C5 5561   0.315   3.998  13.570  0.0098  0.0162  0.1091
  368MPD2     H 5562   0.238   4.180  13.245 -0.0240 -1.8682 -1.2607
  368MPD2    H1 5563   0.491   3.935  13.482 -1.1532 -1.2525 -1.1973
  368MPD2    H2 5564   0.123   4.052  13.634 -1.4026  0.9605 -0.7715
  368MPD2    H3 5565   0.325   3.938  13.659  2.0503 -2.0553 -1.5306
  368MPD2     N 5566   0.473   4.055  13.256  0.2365 -0.5255  0.1816
  368MPD2    H5 5567   0.556   3.997  13.268  0.4297 -0.0624  1.0910
  368MPD2    N1 5568   0.030   4.157  13.401 -0.4479 -0.1558  0.1608
  368MPD2    H7 5569   0.011   4.198  13.310 -2.1002 -0.5094  0.3468
  369TMC3    C1 5570   4.528   4.201  13.418  0.3035  0.1874  0.3419
  369TMC3    C2 5571   4.539   4.251  13.291  0.4842  0.1319  0.2272
  369TMC3    C3 5572   4.421   4.270  13.223  0.0633 -0.0835  0.0290
  369TMC3    C4 5573   4.410   4.170  13.478  0.3936  0.2378  0.2205
  369TMC3    C5 5574   4.297   4.197  13.405 -0.0400  0.1054  0.3192
  369TMC3    C6 5575   4.300   4.235  13.271  0.6921  0.0350 -0.4293
  369TMC3     C 5576   4.651   4.143  13.477  0.2644  0.2758  0.0685
  369TMC3     O 5577   4.632   4.076  13.572  0.0990  0.4230  0.0439
  369TMC3     H 5578   4.635   4.270  13.244 -0.1034 -1.1647 -1.4861
  369TMC3    H1 5579   4.407   4.117  13.573  0.3129  0.3547  0.2829
  369TMC3    H2 5580   4.215   4.253  13.207  0.1440 -0.6390  0.1071
  369TMC3    C7 5581   4.176   4.135  13.444  0.5553  1.2071 -0.5529
  369TMC3    C8 5582   4.419   4.304  13.072 -0.0174 -0.1420 -0.3734
  369TMC3    O1 5583   4.159   4.117  13.566  0.1528 -0.2136 -0.7079
  369TMC3    O2 5584   4.320   4.354  13.022 -0.0139  0.0941 -1.0933
  370TMC3    C1 5585   4.050   4.464  16.339  0.0413  0.2628  0.4090
  370TMC3    C2 5586   3.965   4.392  16.418  0.4907  0.3547  0.3737
  370TMC3    C3 5587   3.946   4.257  16.388 -0.1013  0.2945  0.5397
  370TMC3    C4 5588   4.093   4.422  16.221 -0.3894  0.2871  0.3726
  370TMC3    C5 5589   4.073   4.285  16.196  0.5120  0.3526  0.1550
  370TMC3    C6 5590   3.999   4.199  16.271  0.1109 -0.9256  0.6855
  370TMC3     C 5591   4.116   4.578  16.403 -0.1646  0.1156 -0.8710
  370TMC3     O 5592   4.120   4.562  16.526 -0.2391 -0.9233  0.6437
  370TMC3     H 5593   3.940   4.428  16.517  0.3047  0.9405  0.1163
  370TMC3    H1 5594   4.154   4.483  16.156  0.2633 -1.5413 -0.7576
  370TMC3    H2 5595   3.977   4.096  16.246  0.7500 -0.8469 -0.2118
  370TMC3    C7 5596   4.165   4.231  16.096 -0.2609  0.1946  0.1940
  370TMC3    C8 5597   3.910   4.165  16.495 -0.1150  0.5975  0.1402
  370TMC3    O1 5598   4.221   4.311  16.024 -0.2663 -0.5463 -0.1113
  370TMC3    O2 5599   3.945   4.048  16.491  0.3369  0.7996 -0.7521
  371TMC3    C1 5600   0.616   2.856  15.410  0.2156 -0.4180 -0.6872
  371TMC3    C2 5601   0.582   2.834  15.542 -0.2499 -1.2072  0.5440
  371TMC3    C3 5602   0.540   2.938  15.623  0.1323 -0.2203 -0.1564
  371TMC3    C4 5603   0.606   2.984  15.361 -0.2496 -0.9930  0.8783
  371TMC3    C5 5604   0.568   3.094  15.438  0.6244  0.9407  0.3715
  371TMC3    C6 5605   0.543   3.069  15.574 -0.2633  0.6575 -0.5699
  371TMC3     C 5606   0.706   2.774  15.337  0.6564  0.5093 -0.3657
  371TMC3     O 5607   0.769   2.825  15.242 -0.2622 -0.3287  0.1260
  371TMC3     H 5608   0.594   2.731  15.575 -1.3853 -1.0963  1.2947
  371TMC3    H1 5609   0.621   3.000  15.255  1.3770  2.4394  1.6126
  371TMC3    H2 5610   0.524   3.153  15.640  1.6497  2.1338 -1.9185
  371TMC3    C7 5611   0.624   3.229  15.405 -0.3216 -0.0861  0.0851
  371TMC3    C8 5612   0.523   2.922  15.763 -0.0489  1.0409 -0.2223
  371TMC3    O1 5613   0.588   3.314  15.486  0.2692  0.1310 -0.0711
  371TMC3    O2 5614   0.602   2.842  15.816  0.1214 -0.2149 -0.7363
  372MPD2     C 5615   4.639   4.531  13.562 -0.0985 -0.3948  0.5297
  372MPD2    C1 5616   0.005   4.452  13.613 -0.3810 -0.0406  0.3613
  372MPD2    C2 5617   4.710   4.364  13.707  0.5227 -0.0229 -0.1062
  372MPD2    C3 5618   4.579   4.341  13.747  0.5765  0.2896  0.5631
  372MPD2    C4 5619   4.476   4.420  13.694 -0.0981 -0.8554 -0.9432
  372MPD2    C5 5620   4.512   4.515  13.604 -0.2300 -0.3454 -0.2126
  372MPD2     H 5621   0.054   4.298  13.738 -0.1902 -1.5531 -1.5340
  372MPD2    H1 5622   4.372   4.398  13.716 -0.0414  1.0802  1.2567
  372MPD2    H2 5623   4.656   4.608  13.487 -0.4328  0.1412  1.0008
  372MPD2    H3 5624   4.434   4.583  13.574 -1.0296 -0.3492  1.8163
  372MPD2     N 5625   4.562   4.221  13.825 -0.4601  0.3773  0.1370
  372MPD2    H5 5626   4.650   4.178  13.852  0.5836  1.2561 -1.9111
  372MPD2    N1 5627   0.135   4.452  13.564  0.1404  0.2280  0.5179
  372MPD2    H7 5628   0.203   4.403  13.620 -2.6754 -2.8483  1.2480
  373TMC3    C1 5629   4.463   4.044  13.935 -0.2013 -0.4352  0.5935
  373TMC3    C2 5630   4.373   4.021  14.037 -0.3065 -0.0077 -0.0708
  373TMC3    C3 5631   4.363   3.901  14.095 -0.6303 -0.7679 -0.3785
  373TMC3    C4 5632   4.552   3.945  13.899 -0.6816  0.1570 -0.1226
  373TMC3    C5 5633   4.535   3.822  13.951 -0.8868 -0.0404  1.1198
  373TMC3    C6 5634   4.453   3.798  14.059  0.1438 -0.0296 -0.5036
  373TMC3     C 5635   4.441   4.165  13.857  0.4505  0.8846  0.7577
  373TMC3     O 5636   4.329   4.216  13.853 -0.1308 -0.1569 -0.3937
  373TMC3     H 5637   4.306   4.104  14.057  1.5011  0.9774  1.9280
  373TMC3    H1 5638   4.626   3.966  13.822 -0.1385  0.0631  0.3799
  373TMC3    H2 5639   4.431   3.698  14.092 -0.7401 -0.2117 -1.6368
  373TMC3    C7 5640   4.648   3.735  13.957 -0.0717 -0.3583 -0.1907
  373TMC3    C8 5641   4.371   3.935  14.241  0.2124 -0.3925  0.5193
  373TMC3    O1 5642   4.729   3.716  13.865  0.0355  0.0465  0.0456
  373TMC3    O2 5643   4.367   4.056  14.268  0.0073 -0.0419 -0.4055
  374TMC3    C1 5644   0.159   4.011   9.860  0.9315  0.4352  0.4742
  374TMC3    C2 5645   0.239   4.118   9.893 -0.2863  0.6547  0.1447
  374TMC3    C3 5646   0.230   4.223   9.808 -0.8448 -0.7868  0.0319
  374TMC3    C4 5647   0.067   4.006   9.757 -1.1384  0.2462 -0.2549
  374TMC3    C5 5648   0.073   4.116   9.671  0.5302  0.0636  0.5126
  374TMC3    C6 5649   0.154   4.226   9.695  0.0321 -0.3821 -0.1420
  374TMC3     C 5650   0.126   3.910   9.962 -0.0433 -0.6180 -1.1377
  374TMC3     O 5651   0.076   3.806   9.918  0.0172 -0.1168  0.1043
  374TMC3     H 5652   0.304   4.114   9.979 -1.3844 -0.6783  0.9061
  374TMC3    H1 5653   0.007   3.918   9.737  0.7378 -0.5800 -2.3019
  374TMC3    H2 5654   0.164   4.306   9.623  0.6371 -0.4519 -0.1318
  374TMC3    C7 5655   4.709   4.124   9.565 -0.1912  0.5769 -0.1833
  374TMC3    C8 5656   0.328   4.327   9.804 -0.5929  0.5170 -0.1084
  374TMC3    O1 5657   4.656   4.019   9.533  0.5569  0.1267 -0.0727
  374TMC3    O2 5658   0.288   4.428   9.748  0.1030 -0.5207  1.0763
  375MPD2     C 5659   0.678   4.261  16.871 -0.0122 -0.2822 -0.3465
  375MPD2    C1 5660   0.584   4.301  16.777 -0.4025 -0.7418  1.0111
  375MPD2    C2 5661   0.638   4.329  16.649  0.0331 -0.2947  0.2979
  375MPD2    C3 5662   0.774   4.299  16.620  0.2135  0.0525  0.9143
  375MPD2    C4 5663   0.859   4.236  16.710  0.4476  0.1762 -0.1972
  375MPD2    C5 5664   0.803   4.218  16.837  0.7377 -0.4031 -0.6202
  375MPD2     H 5665   0.576   4.361  16.566 -0.4064 -1.5938  0.1280
  375MPD2    H1 5666   0.958   4.204  16.682 -0.1264 -2.1137  0.4340
  375MPD2    H2 5667   0.662   4.250  16.978 -0.1269 -1.5459 -0.4931
  375MPD2    H3 5668   0.870   4.164  16.903 -0.6222 -1.1516  0.1260
  375MPD2     N 5669   0.838   4.309  16.499 -0.0320 -0.1095  0.4155
  375MPD2    H5 5670   0.938   4.290  16.497  0.1803  1.0159 -0.0985
  375MPD2    N1 5671   0.457   4.337  16.815  0.1123 -0.1342  0.3177
  375MPD2    H7 5672   0.405   4.393  16.747  1.4691 -0.9894 -1.4277
  376TMC3    C1 5673   0.893   4.342  16.279  0.0162  1.0819 -0.5884
  376TMC3    C2 5674   1.028   4.352  16.314  0.0306  0.3416 -0.1535
  376TMC3    C3 5675   1.123   4.369  16.215 -0.2552 -0.2078 -0.2014
  376TMC3    C4 5676   0.862   4.366  16.145 -0.0767  0.1165  0.2673
  376TMC3    C5 5677   0.957   4.373  16.052  0.0860  0.6839 -0.1868
  376TMC3    C6 5678   1.087   4.385  16.086  0.5863 -0.1669  0.5584
  376TMC3     C 5679   0.796   4.356  16.380  0.8424  0.8149 -0.1766
  376TMC3     O 5680   0.677   4.381  16.351 -0.0499 -0.2054  0.6153
  376TMC3     H 5681   1.059   4.363  16.417  0.0705  1.7602 -0.3271
  376TMC3    H1 5682   0.763   4.382  16.104 -0.5693  0.3878  1.5681
  376TMC3    H2 5683   1.157   4.395  16.003  0.0023  1.5274  0.2749
  376TMC3    C7 5684   0.922   4.465  15.956  0.6265 -0.0021  0.0205
  376TMC3    C8 5685   1.257   4.420  16.260  0.4951 -0.2693  0.0850
  376TMC3    O1 5686   1.000   4.552  15.935 -0.3116  0.0918 -0.0731
  376TMC3    O2 5687   1.308   4.507  16.185 -0.0224 -0.1559  0.5266
  377MPD2     C 5688   3.878   4.401  13.203  0.4292  0.7650  0.7137
  377MPD2    C1 5689   3.754   4.376  13.137  0.5867 -1.1322 -0.2809
  377MPD2    C2 5690   3.653   4.302  13.202  0.0819  0.3135 -0.1420
  377MPD2    C3 5691   3.671   4.262  13.336 -0.2777 -0.0681 -0.7341
  377MPD2    C4 5692   3.789   4.292  13.400 -0.4339  0.0068  0.4878
  377MPD2    C5 5693   3.891   4.364  13.335  0.1489 -1.2415 -0.3551
  377MPD2     H 5694   3.562   4.274  13.150  0.7316 -0.9581 -0.5902
  377MPD2    H1 5695   3.814   4.260  13.501  1.1851 -0.5645 -0.0990
  377MPD2    H2 5696   3.961   4.446  13.149  0.3980 -0.1859 -0.1418
  377MPD2    H3 5697   3.983   4.374  13.391 -1.7009 -0.8685  2.6426
  377MPD2     N 5698   3.574   4.190  13.406 -0.6856 -0.0119  0.5874
  377MPD2    H5 5699   3.600   4.157  13.498  0.1757 -0.0605  0.3299
  377MPD2    N1 5700   3.751   4.408  13.001 -1.2211 -0.3399 -0.0516
  377MPD2    H7 5701   3.836   4.429  12.950 -0.7953 -0.2447  0.7097
  378TMC3    C1 5702   3.602   4.418  12.564  0.1654 -0.3033 -0.2606
  378TMC3    C2 5703   3.576   4.425  12.694 -0.8751  0.4254  0.4498
  378TMC3    C3 5704   3.671   4.391  12.783  0.0135 -0.2454 -0.0811
  378TMC3    C4 5705   3.720   4.367  12.516  0.2527  0.1926  0.7008
  378TMC3    C5 5706   3.818   4.331  12.609  0.7005 -0.5092 -0.3348
  378TMC3    C6 5707   3.801   4.357  12.743  0.0971 -0.2759  0.2102
  378TMC3     C 5708   3.499   4.474  12.472  0.0084  0.1659  0.5815
  378TMC3     O 5709   3.397   4.520  12.522 -0.7081  0.1063 -0.5087
  378TMC3     H 5710   3.476   4.452  12.726  0.0482  0.0093  3.6966
  378TMC3    H1 5711   3.731   4.348  12.410  2.6972 -0.8852  1.1485
  378TMC3    H2 5712   3.887   4.352  12.809 -0.0475  2.5289  0.5977
  378TMC3    C7 5713   3.953   4.283  12.571  0.1679  0.1115  0.3293
  378TMC3    C8 5714   3.640   4.392  12.924 -0.2108 -0.4483  0.8236
  378TMC3    O1 5715   4.029   4.242  12.662 -0.4949  0.4033  0.1306
  378TMC3    O2 5716   3.521   4.404  12.954 -0.1994 -0.2153  0.6762
  379MPD2     C 5717   4.065   2.586  16.241 -0.1224 -0.1940 -0.0487
  379MPD2    C1 5718   4.079   2.491  16.147 -0.1030 -0.8010  0.1029
  379MPD2    C2 5719   4.141   2.379  16.181  0.1632  0.1326 -0.2885
  379MPD2    C3 5720   4.167   2.347  16.315  0.1677  0.2446 -0.1753
  379MPD2    C4 5721   4.145   2.445  16.413  0.4702 -0.9064  0.2224
  379MPD2    C5 5722   4.103   2.568  16.368  0.1098 -0.3482 -0.9309
  379MPD2     H 5723   4.156   2.297  16.111  1.2409  1.3800 -1.5149
  379MPD2    H1 5724   4.173   2.418  16.514 -1.5186 -0.7655  0.8158
  379MPD2    H2 5725   4.015   2.680  16.223  0.3726  0.3798  1.5880
  379MPD2    H3 5726   4.089   2.647  16.441  1.0026  1.5717 -2.8513
  379MPD2     N 5727   4.208   2.220  16.359 -0.3283  0.3372 -0.0723
  379MPD2    H5 5728   4.187   2.186  16.452  1.4636 -0.9856 -0.1671
  379MPD2    N1 5729   4.029   2.514  16.009 -0.0177 -0.1614 -0.3668
  379MPD2    H7 5730   3.977   2.599  15.992 -0.7534 -0.5227  0.0946
  380TMC3    C1 5731   3.976   2.478  15.791  0.2414  0.7530  0.4436
  380TMC3    C2 5732   3.981   2.397  15.681  0.2897 -0.6004 -0.0276
  380TMC3    C3 5733   3.922   2.441  15.558 -0.3029  0.3732 -0.0737
  380TMC3    C4 5734   3.900   2.594  15.792 -0.3472 -0.0778 -0.3012
  380TMC3    C5 5735   3.844   2.630  15.672  0.8484  0.2729  0.1623
  380TMC3    C6 5736   3.857   2.561  15.556  0.2275 -0.4178  0.1492
  380TMC3     C 5737   4.041   2.428  15.903  0.7483 -0.1150 -0.3861
  380TMC3     O 5738   4.124   2.340  15.892 -0.1603  0.2657 -0.1383
  380TMC3     H 5739   4.020   2.296  15.694  0.7689 -0.4628 -0.3820
  380TMC3    H1 5740   3.885   2.654  15.881  0.4701 -1.9161  1.0875
  380TMC3    H2 5741   3.810   2.590  15.462  1.2236 -1.4396 -0.6632
  380TMC3    C7 5742   3.773   2.752  15.667  0.4529  0.3129 -0.0997
  380TMC3    C8 5743   3.920   2.358  15.436 -0.3811 -0.1742  0.0772
  380TMC3    O1 5744   3.777   2.822  15.768 -0.7130  0.2631  0.7062
  380TMC3    O2 5745   3.839   2.383  15.349  0.2273  0.1282 -0.0133
  381TMC3    C1 5746   4.034   3.523  16.274  1.1295  0.1102  0.5591
  381TMC3    C2 5747   4.138   3.609  16.302 -0.0767 -0.4593  0.0537
  381TMC3    C3 5748   4.134   3.671  16.421 -1.1991 -0.2918 -0.6618
  381TMC3    C4 5749   3.935   3.493  16.359 -0.1686 -0.1221 -0.1655
  381TMC3    C5 5750   3.937   3.558  16.486  0.2800  0.0066 -0.4806
  381TMC3    C6 5751   4.037   3.655  16.514 -0.0534 -0.4724  0.0941
  381TMC3     C 5752   4.032   3.467  16.142  0.1184 -0.4577  1.0809
  381TMC3     O 5753   4.133   3.485  16.079  0.4585  0.8258 -0.0014
  381TMC3     H 5754   4.227   3.602  16.240  0.3277 -0.3758  0.6293
  381TMC3    H1 5755   3.871   3.407  16.343  0.7064 -0.6774 -0.6855
  381TMC3    H2 5756   4.046   3.700  16.612 -0.1914  0.0345 -0.1252
  381TMC3    C7 5757   3.894   3.478  16.600 -0.4133  0.0201 -0.5783
  381TMC3    C8 5758   4.247   3.753  16.447 -1.0263 -1.1060 -0.2290
  381TMC3    O1 5759   3.933   3.361  16.617 -0.6813  0.3121 -0.5682
  381TMC3    O2 5760   4.351   3.718  16.397  0.0562 -0.0160  0.7603
  382MPD2     C 5761   3.343   1.724  17.409 -0.3123 -0.3427  0.0586
  382MPD2    C1 5762   3.350   1.672  17.534  0.3000 -0.2264 -0.7236
  382MPD2    C2 5763   3.307   1.545  17.547 -0.2060 -0.0272 -0.1758
  382MPD2    C3 5764   3.260   1.464  17.445  0.1370  0.0433 -0.3192
  382MPD2    C4 5765   3.260   1.520  17.320 -0.0345  0.0474  0.4765
  382MPD2    C5 5766   3.305   1.649  17.304 -0.0160 -0.2156  0.3085
  382MPD2     H 5767   3.292   1.507  17.647  1.6954 -2.7395 -0.9062
  382MPD2    H1 5768   3.225   1.464  17.233 -1.3499 -0.5254  1.3683
  382MPD2    H2 5769   3.353   1.831  17.399  0.5925 -0.5657 -1.5694
  382MPD2    H3 5770   3.296   1.701  17.209 -3.0457 -1.3337 -0.0161
  382MPD2     N 5771   3.196   1.337  17.462 -0.3508  0.1732 -0.0573
  382MPD2    H5 5772   3.132   1.293  17.396 -1.4287  0.7848  0.5924
  382MPD2    N1 5773   3.381   1.739  17.652 -0.2559  0.0178 -0.5972
  382MPD2    H7 5774   3.382   1.684  17.738  2.1263 -0.5443 -1.0009
  383TMC3    C1 5775   3.162   1.128  17.567 -0.2789  0.3595  0.4861
  383TMC3    C2 5776   3.143   1.064  17.445  0.3221 -0.2218  0.2268
  383TMC3    C3 5777   3.114   0.936  17.438  0.5234 -0.4986 -0.0007
  383TMC3    C4 5778   3.146   1.060  17.685 -0.4450 -0.6841 -0.6194
  383TMC3    C5 5779   3.118   0.927  17.671  0.1138  0.0322 -0.6010
  383TMC3    C6 5780   3.091   0.870  17.552  0.3558  0.7300 -0.2699
  383TMC3     C 5781   3.216   1.261  17.581  0.2627 -0.3206  0.0449
  383TMC3     O 5782   3.283   1.283  17.683 -0.1272  0.9299 -0.2467
  383TMC3     H 5783   3.136   1.111  17.348 -0.6200 -2.9806 -1.0460
  383TMC3    H1 5784   3.147   1.114   0.036  2.6931 -2.0444  0.1536
  383TMC3    H2 5785   3.037   0.776  17.554 -2.2844  2.2460  0.3061
  383TMC3    C7 5786   3.067   0.853   0.046 -0.2248 -0.0291  0.2220
  383TMC3    C8 5787   3.047   0.883  17.319  0.9111  0.2329 -0.0945
  383TMC3    O1 5788   3.039   0.921   0.142  0.0856 -0.1049 -0.0824
  383TMC3    O2 5789   3.006   0.965  17.238  0.2751  0.3481  0.1870
  384MPD2     C 5790   0.313   2.385  11.738  0.5038  0.4616  0.6181
  384MPD2    C1 5791   0.353   2.345  11.862  0.3135 -0.2997 -0.5360
  384MPD2    C2 5792   0.474   2.276  11.880 -0.6383  0.5458 -0.2034
  384MPD2    C3 5793   0.551   2.248  11.773 -0.0699 -0.0856 -0.4618
  384MPD2    C4 5794   0.510   2.288  11.650  0.1552 -0.0171 -0.2860
  384MPD2    C5 5795   0.392   2.354  11.627 -0.2467 -0.8143 -0.1301
  384MPD2     H 5796   0.493   2.256  11.985  0.3201 -0.0788 -0.5007
  384MPD2    H1 5797   0.570   2.271  11.561 -0.1779  0.9206 -0.6882
  384MPD2    H2 5798   0.224   2.445  11.721  0.4380 -0.3225 -1.8330
  384MPD2    H3 5799   0.367   2.393  11.529  0.3302 -0.8501 -0.2930
  384MPD2     N 5800   0.669   2.177  11.797  0.2761 -0.3405 -0.2321
  384MPD2    H5 5801   0.681   2.150  11.894  0.5082  0.7671  0.0496
  384MPD2    N1 5802   0.284   2.374  11.976 -0.3832 -0.0717 -0.8942
  384MPD2    H7 5803   0.331   2.355  12.064 -0.0608 -1.8753 -1.4584
  385TMC3    C1 5804   0.859   2.054  11.786  0.4127 -0.0213  0.7226
  385TMC3    C2 5805   0.857   1.918  11.764  0.1420 -0.8554 -0.4779
  385TMC3    C3 5806   0.885   1.833  11.868 -0.7528 -0.5868 -0.5273
  385TMC3    C4 5807   0.870   2.095  11.918  0.2323 -0.1623  0.1273
  385TMC3    C5 5808   0.888   2.014  12.024 -0.8690 -0.7626  0.3189
  385TMC3    C6 5809   0.893   1.883  11.994  0.1184  0.1408  0.1410
  385TMC3     C 5810   0.763   2.132  11.707  0.0870  0.6087  1.0616
  385TMC3     O 5811   0.756   2.124  11.586  0.1058 -0.6018 -0.2605
  385TMC3     H 5812   0.843   1.877  11.664  2.7143  0.5061 -1.3795
  385TMC3    H1 5813   0.884   2.200  11.940 -1.6522  0.0271  0.4422
  385TMC3    H2 5814   0.886   1.810  12.073  0.4033 -0.3398 -0.2845
  385TMC3    C7 5815   0.795   2.047  12.129 -0.0562 -0.1225 -0.4264
  385TMC3    C8 5816   0.858   1.688  11.863  0.1375 -0.5826  0.3402
  385TMC3    O1 5817   0.722   2.128  12.083  0.5436  0.2155  0.5152
  385TMC3    O2 5818   0.890   1.620  11.956  0.1128  0.1303  1.0191
  386TMC3    C1 5819   0.263   4.285  11.571  0.0414 -0.2279  0.0564
  386TMC3    C2 5820   0.280   4.381  11.472 -0.1425  0.7158  0.3450
  386TMC3    C3 5821   0.180   4.466  11.441 -0.0772 -0.0889 -0.3469
  386TMC3    C4 5822   0.144   4.273  11.645  0.3493  0.5118 -0.5512
  386TMC3    C5 5823   0.048   4.369  11.612  0.7446 -0.5926  0.2070
  386TMC3    C6 5824   0.060   4.471  11.517 -0.2798 -0.0653 -0.8828
  386TMC3     C 5825   0.363   4.182  11.586 -0.0922 -0.3303  0.0996
  386TMC3     O 5826   0.480   4.211  11.581 -0.2571 -0.0771 -0.1676
  386TMC3     H 5827   0.370   4.374  11.412  0.2023 -0.9368  1.0485
  386TMC3    H1 5828   0.118   4.195  11.715 -2.0970  0.9629 -0.9624
  386TMC3    H2 5829   4.722   4.549  11.512  1.2097  1.4139  0.3533
  386TMC3    C7 5830   4.668   4.374  11.698 -0.4004 -0.2634 -0.4978
  386TMC3    C8 5831   0.184   4.546  11.327  0.4571  0.9488 -0.0328
  386TMC3    O1 5832   4.674   4.336  11.814  0.5889 -0.2857  0.0338
  386TMC3    O2 5833   0.270   4.521  11.242 -0.0159  0.9029 -0.0407
  387MPD2     C 5834   2.340   0.165   9.857 -0.3637 -0.4809 -0.2621
  387MPD2    C1 5835   2.363   0.196   9.989  0.4728 -0.9477  0.4055
  387MPD2    C2 5836   2.350   0.101  10.086 -0.4149  0.3221 -0.1018
  387MPD2    C3 5837   2.317   4.709  10.055  0.7378 -0.5317  0.8476
  387MPD2    C4 5838   2.288   4.681   9.926  0.1013 -1.2544  0.1682
  387MPD2    C5 5839   2.294   0.036   9.820 -0.2406  0.0655  0.7318
  387MPD2     H 5840   2.381   0.115  10.189 -0.8093 -1.8873  0.3000
  387MPD2    H1 5841   2.258   4.582   9.891 -0.9212 -1.3523  1.3083
  387MPD2    H2 5842   2.337   0.243   9.783  1.0103  0.8623  1.1135
  387MPD2    H3 5843   2.259   0.020   9.719 -0.8791  3.8838  0.3401
  387MPD2     N 5844   2.347   4.611  10.152  0.1844  0.1971 -0.3651
  387MPD2    H5 5845   2.406   4.639  10.230  1.0537  1.8305 -1.6164
  387MPD2    N1 5846   2.421   0.313  10.040  0.9608 -0.3215  0.6132
  387MPD2    H7 5847   2.444   0.316  10.139  1.2934  0.8231  0.5081
  388TMC3    C1 5848   2.557   0.507  10.039 -0.0527  0.0280  0.2563
  388TMC3    C2 5849   2.606   0.621   9.985 -0.6152  0.0871  0.0405
  388TMC3    C3 5850   2.707   0.694  10.048  0.1308  0.0884 -0.0095
  388TMC3    C4 5851   2.612   0.468  10.156 -0.3574  0.1314  0.3980
  388TMC3    C5 5852   2.724   0.535  10.208  0.5975 -0.1202  0.4619
  388TMC3    C6 5853   2.771   0.651  10.156  0.2172  0.2080 -0.1755
  388TMC3     C 5854   2.467   0.419   9.960  0.5235  0.6083  0.1573
  388TMC3     O 5855   2.469   0.431   9.840 -0.5494 -0.6324  0.4032
  388TMC3     H 5856   2.563   0.653   9.891 -0.4572 -0.6388 -0.2734
  388TMC3    H1 5857   2.577   0.380  10.210 -0.5616  0.1363  0.2767
  388TMC3    H2 5858   2.869   0.686  10.185 -0.2069  1.7944 -0.6442
  388TMC3    C7 5859   2.796   0.464  10.314  0.0027  0.0708  0.8880
  388TMC3    C8 5860   2.734   0.820   9.990  0.0162 -0.0261 -0.0059
  388TMC3    O1 5861   2.812   0.515  10.421 -0.1831  0.8219  0.6426
  388TMC3    O2 5862   2.677   0.854   9.886 -0.1196  0.6105  0.2809
  389MPD2     C 5863   1.496   3.539  11.092  0.3847  0.6681  1.1342
  389MPD2    C1 5864   1.434   3.419  11.072  0.1420 -0.0676  0.4091
  389MPD2    C2 5865   1.421   3.318  11.171 -0.3003  0.2611 -0.1729
  389MPD2    C3 5866   1.486   3.331  11.290  0.6407 -0.2814  0.0823
  389MPD2    C4 5867   1.546   3.454  11.311 -0.3672  0.5637  0.2168
  389MPD2    C5 5868   1.540   3.559  11.223 -0.2911  0.1163 -0.2118
  389MPD2     H 5869   1.358   3.233  11.146 -0.2444 -0.3845  1.9096
  389MPD2    H1 5870   1.583   3.467  11.411  1.0508  1.2549 -0.3980
  389MPD2    H2 5871   1.504   3.609  11.010 -1.5640  1.0907  1.3093
  389MPD2    H3 5872   1.577   3.657  11.250  1.9123 -0.8376  0.2509
  389MPD2     N 5873   1.508   3.231  11.389  0.0347  0.3391 -0.4524
  389MPD2    H5 5874   1.536   3.270  11.479 -2.2540  2.3782 -0.5885
  389MPD2    N1 5875   1.369   3.409  10.950  0.2033  0.2809  0.5897
  389MPD2    H7 5876   1.387   3.497  10.903 -0.1807  1.1086  2.0039
  390TMC3    C1 5877   1.478   3.027  11.504 -0.0702 -0.0047  0.0304
  390TMC3    C2 5878   1.513   2.897  11.517  0.0189 -0.4340  0.3171
  390TMC3    C3 5879   1.496   2.830  11.632  0.3691  1.0236 -0.8134
  390TMC3    C4 5880   1.416   3.095  11.610 -0.3726 -0.9079 -0.0550
  390TMC3    C5 5881   1.396   3.027  11.728  0.1412 -1.4755 -0.2890
  390TMC3    C6 5882   1.427   2.890  11.736 -0.2135 -0.0224 -0.3073
  390TMC3     C 5883   1.479   3.094  11.375  0.5533 -0.1881  0.4355
  390TMC3     O 5884   1.449   3.027  11.277  0.4430 -0.2486 -0.3108
  390TMC3     H 5885   1.575   2.853  11.440  0.0814  0.1879  0.0072
  390TMC3    H1 5886   1.380   3.197  11.600  1.3636 -0.1137  1.7524
  390TMC3    H2 5887   1.388   2.824  11.813  0.5499 -1.4528 -1.1425
  390TMC3    C7 5888   1.273   3.077  11.789  0.1241 -0.3342 -0.6031
  390TMC3    C8 5889   1.528   2.691  11.632 -0.2696  0.5068 -0.0946
  390TMC3    O1 5890   1.239   3.191  11.762 -0.0067 -0.7492 -0.7887
  390TMC3    O2 5891   1.535   2.636  11.518 -0.0142 -0.1271  0.1495
  391MPD2     C 5892   0.989   4.240  11.185  0.9719 -0.2483  0.0813
  391MPD2    C1 5893   1.111   4.275  11.136 -0.4220  1.2248  0.2615
  391MPD2    C2 5894   1.121   4.290  10.994 -0.7880 -0.0734 -0.8616
  391MPD2    C3 5895   1.007   4.284  10.914  0.0918  0.3320  0.8705
  391MPD2    C4 5896   0.886   4.261  10.971  0.2527  0.0158 -0.1318
  391MPD2    C5 5897   0.880   4.226  11.106 -0.4736  0.2311 -0.8040
  391MPD2     H 5898   1.215   4.320  10.950 -0.3461  1.1024  0.9005
  391MPD2    H1 5899   0.791   4.261  10.920  0.7670 -1.5331 -1.0957
  391MPD2    H2 5900   0.981   4.220  11.291  0.3907  3.2758  0.6974
  391MPD2    H3 5901   0.782   4.201  11.144  1.3890 -2.5270  2.1447
  391MPD2     N 5902   1.028   4.306  10.783 -0.0930 -0.4950  0.2037
  391MPD2    H5 5903   1.124   4.303  10.749  0.5333  3.6645  1.5787
  391MPD2    N1 5904   1.225   4.296  11.216 -0.2967 -0.7437  0.2780
  391MPD2    H7 5905   1.301   4.335  11.162 -0.6928  0.1999  0.4157
  392TMC3    C1 5906   0.985   4.315  10.549  0.4366  0.0720  0.4838
  392TMC3    C2 5907   0.891   4.298  10.449 -0.0617  0.4026 -0.3217
  392TMC3    C3 5908   0.930   4.352  10.331 -0.1713  0.4706 -0.3164
  392TMC3    C4 5909   1.118   4.355  10.526 -0.1616  0.6587 -0.2755
  392TMC3    C5 5910   1.143   4.395  10.408 -0.3965  0.1440  0.6552
  392TMC3    C6 5911   1.055   4.395  10.307  0.3547 -0.0393  0.5807
  392TMC3     C 5912   0.933   4.304  10.684 -0.1034  0.3465 -0.2942
  392TMC3     O 5913   0.810   4.298  10.700 -0.6312  0.2495 -0.0642
  392TMC3     H 5914   0.789   4.269  10.469  0.0058  0.0216 -0.5281
  392TMC3    H1 5915   1.197   4.366  10.599  1.4158 -0.4740 -1.8225
  392TMC3    H2 5916   1.072   4.430  10.206 -0.1247  0.6283  0.7299
  392TMC3    C7 5917   1.260   4.484  10.396 -0.2262  0.1007 -0.7378
  392TMC3    C8 5918   0.834   4.342  10.227  0.3257  0.3798  0.0143
  392TMC3    O1 5919   1.311   4.525  10.503 -0.0404 -0.4164 -0.5245
  392TMC3    O2 5920   0.745   4.259  10.245  0.1862  0.0531  0.3921
  393TMC3    C1 5921   4.578   2.454  10.703 -0.4916 -0.3189 -0.2303
  393TMC3    C2 5922   4.461   2.514  10.738  0.4354  0.1457 -0.8190
  393TMC3    C3 5923   4.392   2.470  10.849  0.1098  0.5620  0.5357
  393TMC3    C4 5924   4.630   2.352  10.772  0.2693  0.5010 -0.4035
  393TMC3    C5 5925   4.568   2.311  10.888  0.2141  0.8863 -0.8736
  393TMC3    C6 5926   4.448   2.366  10.924 -0.3648  0.0530  0.7726
  393TMC3     C 5927   4.651   2.538  10.601 -0.6765 -0.1052  0.2754
  393TMC3     O 5928   4.594   2.616  10.531  0.3535 -0.6063 -0.2010
  393TMC3     H 5929   4.413   2.582  10.669 -0.5927  1.3841  1.1031
  393TMC3    H1 5930   4.702   2.286  10.724  1.8458 -0.8001  3.6496
  393TMC3    H2 5931   4.395   2.349  11.017 -1.8887 -2.0028 -0.4638
  393TMC3    C7 5932   4.626   2.217  10.982 -0.7205 -0.2501  0.1398
  393TMC3    C8 5933   4.291   2.552  10.909 -0.1982  0.4168 -0.0668
  393TMC3    O1 5934   4.559   2.185  11.079  0.1983 -0.0140  0.4475
  393TMC3    O2 5935   4.214   2.492  10.982 -0.9006  0.3960 -0.2705
  394TMC3    C1 5936   1.295   3.317  10.740  1.0717  0.4858 -0.1284
  394TMC3    C2 5937   1.203   3.241  10.670 -0.3871  0.8838  0.1989
  394TMC3    C3 5938   1.187   3.265  10.538 -0.0346 -0.2614 -0.5765
  394TMC3    C4 5939   1.382   3.399  10.672  0.4900  0.2558 -0.2413
  394TMC3    C5 5940   1.382   3.395  10.536 -0.1162  0.1797 -0.3398
  394TMC3    C6 5941   1.275   3.340  10.465  0.7278  0.4307  0.0807
  394TMC3     C 5942   1.303   3.302  10.888  0.2074  0.4016  0.2058
  394TMC3     O 5943   1.273   3.193  10.933 -0.3286 -0.3973  0.1162
  394TMC3     H 5944   1.123   3.185  10.718 -0.1810  0.0527 -0.4279
  394TMC3    H1 5945   1.462   3.438  10.733  1.4043 -0.0243 -1.2541
  394TMC3    H2 5946   1.263   3.345  10.358 -0.2925 -0.9916  0.1263
  394TMC3    C7 5947   1.519   3.391  10.486  0.0633  0.1041  0.9124
  394TMC3    C8 5948   1.103   3.180  10.454 -0.4247  0.1635  0.0712
  394TMC3    O1 5949   1.614   3.386  10.565  0.2027  0.1030 -0.2060
  394TMC3    O2 5950   1.050   3.225  10.354  0.0607 -0.2472 -0.9373
  395TMC3    C1 5951   1.909   0.010  14.845  0.1983  1.0669 -0.1855
  395TMC3    C2 5952   1.787   0.060  14.820 -0.1722  0.6272  0.6349
  395TMC3    C3 5953   1.774   0.184  14.757 -0.6222 -0.4928  0.3408
  395TMC3    C4 5954   2.020   0.067  14.790 -0.4476 -0.0325 -0.1737
  395TMC3    C5 5955   2.005   0.190  14.735  0.0025  0.3916  0.3179
  395TMC3    C6 5956   1.883   0.251  14.711 -1.0477 -0.9298  0.2144
  395TMC3     C 5957   1.905   4.602  14.874 -0.2653 -0.2828 -0.3953
  395TMC3     O 5958   1.800   4.538  14.875  0.9668 -0.2304 -0.2554
  395TMC3     H 5959   1.700   0.007  14.856 -0.0773  0.3055  0.3931
  395TMC3    H1 5960   2.116   0.041  14.835 -0.1970 -1.0214 -1.3010
  395TMC3    H2 5961   1.870   0.350  14.667 -1.4699 -0.3837  1.5466
  395TMC3    C7 5962   2.113   0.284  14.747  0.3187 -0.1582  1.0944
  395TMC3    C8 5963   1.637   0.231  14.730  0.4780  0.0517 -0.3695
  395TMC3    O1 5964   2.090   0.401  14.757 -0.6760  0.4147 -0.5039
  395TMC3    O2 5965   1.631   0.351  14.693  0.7620  0.2401 -0.1505
  396MPD2     C 5966   1.480   0.802  16.668  0.0076  0.4094  0.2821
  396MPD2    C1 5967   1.531   0.877  16.775 -0.2953  0.0922  0.0652
  396MPD2    C2 5968   1.560   1.008  16.761  0.7026 -0.3957 -0.0994
  396MPD2    C3 5969   1.545   1.075  16.644  0.1712 -0.2377  0.4407
  396MPD2    C4 5970   1.491   1.001  16.540 -0.1115 -0.7558 -0.2769
  396MPD2    C5 5971   1.455   0.872  16.553 -0.5268 -0.1108 -0.2190
  396MPD2     H 5972   1.608   1.075  16.833 -0.8728 -0.4086  0.9594
  396MPD2    H1 5973   1.472   1.034  16.438  0.8637 -2.5104 -1.0261
  396MPD2    H2 5974   1.452   0.698  16.677  1.6665  0.0503  1.1510
  396MPD2    H3 5975   1.413   0.825  16.465 -0.7770  0.0061 -0.1622
  396MPD2     N 5976   1.565   1.217  16.627 -0.7942  0.2881 -0.5324
  396MPD2    H5 5977   1.602   1.268  16.706 -0.8522  0.1929 -0.4439
  396MPD2    N1 5978   1.547   0.801  16.894  0.2400 -0.7726  0.2660
  396MPD2    H7 5979   1.531   0.701  16.886  1.1050 -0.7859 -1.1671
  397TMC3    C1 5980   1.664   0.735  17.075  0.4126 -0.1141 -0.2161
  397TMC3    C2 5981   1.794   0.769  17.053  0.2847 -0.2973 -0.0823
  397TMC3    C3 5982   1.870   0.701  16.968 -0.9037 -0.6832 -0.3793
  397TMC3    C4 5983   1.621   0.613  17.024 -0.1174 -0.6538  0.6347
  397TMC3    C5 5984   1.705   0.538  16.941  0.8488  0.1003  0.0362
  397TMC3    C6 5985   1.829   0.584  16.911 -0.0842 -0.3588  0.1250
  397TMC3     C 5986   1.586   0.844  17.017 -0.3751 -0.1930  0.0998
  397TMC3     O 5987   1.620   0.959  17.043  0.0980  0.4001  0.4973
  397TMC3     H 5988   1.821   0.873  17.070 -1.4680  0.2396 -0.5662
  397TMC3    H1 5989   1.522   0.577  17.051  0.1436 -1.8771 -0.0391
  397TMC3    H2 5990   1.903   0.530  16.853 -0.0197 -1.2752  1.0629
  397TMC3    C7 5991   1.683   0.394  16.959  0.1762 -0.0984 -0.6063
  397TMC3    C8 5992   1.958   0.789  16.885 -0.2043  0.2831  0.3859
  397TMC3    O1 5993   1.725   0.325  16.865 -0.1656 -0.0333 -0.4137
  397TMC3    O2 5994   1.954   0.763  16.763 -0.3976 -0.1079  0.4173
  398MPD2     C 5995   4.276   2.225  17.514  0.6180  0.8764 -0.5619
  398MPD2    C1 5996   4.389   2.164  17.565  0.2650  0.7403 -0.3637
  398MPD2    C2 5997   4.509   2.226  17.553  0.6111 -0.0456 -0.6185
  398MPD2    C3 5998   4.525   2.345  17.478  0.5239  0.0060 -0.3270
  398MPD2    C4 5999   4.414   2.414  17.438  1.0540 -0.0378  0.2477
  398MPD2    C5 6000   4.293   2.348  17.452 -0.6935  0.2045  0.8107
  398MPD2     H 6001   4.599   2.182  17.593  1.9456  1.3839 -2.0542
  398MPD2    H1 6002   4.412   2.503  17.377  2.7921  0.1919  0.5265
  398MPD2    H2 6003   4.176   2.184  17.508  0.2789  1.6001  0.1979
  398MPD2    H3 6004   4.212   2.410  17.415 -1.5243 -1.4344 -0.0914
  398MPD2     N 6005   4.659   2.379  17.454 -0.4783 -0.0406 -0.1929
  398MPD2    H5 6006   4.731   2.318  17.492  0.1016  1.2227  0.7201
  398MPD2    N1 6007   4.385   2.054  17.649  0.0980 -0.6429  0.3226
  398MPD2    H7 6008   4.471   2.011  17.681  0.8003  0.1007 -0.5508
  399TMC3    C1 6009   4.296   1.841  17.721 -0.4228 -0.4316 -0.2592
  399TMC3    C2 6010   4.422   1.794  17.716  0.1173  0.2253 -0.1442
  399TMC3    C3 6011   4.447   1.654  17.727  0.0888  0.4574 -1.3928
  399TMC3    C4 6012   4.194   1.757   0.007 -0.6820 -0.1526  0.2326
  399TMC3    C5 6013   4.221   1.620   0.016  0.7698 -0.4299  0.4554
  399TMC3    C6 6014   4.344   1.564   0.004 -0.0938  0.5669 -0.0234
  399TMC3     C 6015   4.271   1.979  17.677 -0.1354 -0.3256  1.0744
  399TMC3     O 6016   4.157   2.016  17.661 -0.0897 -0.3254 -0.0949
  399TMC3     H 6017   4.504   1.860  17.687  1.3549 -1.1528  0.2216
  399TMC3    H1 6018   4.092   1.795   0.010 -1.4128 -2.1180  0.3812
  399TMC3    H2 6019   4.357   1.456   0.011 -2.4217  0.2120 -1.4270
  399TMC3    C7 6020   4.106   1.529   0.001 -0.2659 -0.0112  0.2308
  399TMC3    C8 6021   4.576   1.610  17.674  0.1690  0.1310  0.0219
  399TMC3    O1 6022   4.134   1.425  17.691  0.2369 -0.7482  0.0696
  399TMC3    O2 6023   4.656   1.695  17.641  0.3242  0.7096  0.0481
  400TMC3    C1 6024   3.033   0.580  16.735 -0.0186  0.5975  0.3677
  400TMC3    C2 6025   2.924   0.509  16.697  0.3457  0.4710 -0.3074
  400TMC3    C3 6026   2.808   0.581  16.667  0.5391  0.9269  0.1721
  400TMC3    C4 6027   3.029   0.718  16.742 -0.6201  0.2762 -0.5428
  400TMC3    C5 6028   2.911   0.779  16.705  0.1788  0.7503 -0.1994
  400TMC3    C6 6029   2.799   0.714  16.669 -0.0666  0.3405 -0.1783
  400TMC3     C 6030   3.123   0.506  16.822 -0.0448  0.0298 -0.3371
  400TMC3     O 6031   3.139   0.391  16.786  0.3662 -0.4391 -0.3241
  400TMC3     H 6032   2.917   0.401  16.712 -0.8066  0.2228 -2.6647
  400TMC3    H1 6033   3.119   0.775  16.761 -0.2760  0.3461 -2.3652
  400TMC3    H2 6034   2.716   0.774  16.635  1.0081  1.8342 -0.1810
  400TMC3    C7 6035   2.891   0.923  16.696 -0.4043  0.4972 -0.0516
  400TMC3    C8 6036   2.681   0.516  16.673  0.2748  0.7611  0.2536
  400TMC3    O1 6037   2.811   0.952  16.606 -0.1771 -0.5597 -0.1271
  400TMC3    O2 6038   2.593   0.574  16.738  0.6077  0.1510  0.4575
  401MPD2     C 6039   2.109   3.677   0.012  0.1986  0.7047 -0.3578
  401MPD2    C1 6040   2.043   3.678   0.128 -0.1760  0.1338 -0.0129
  401MPD2    C2 6041   1.927   3.606   0.130 -0.2215  0.2546  0.2620
  401MPD2    C3 6042   1.884   3.522   0.026  0.2555 -0.1298  0.4345
  401MPD2    C4 6043   1.958   3.523  17.657  0.5522  0.2950  0.6137
  401MPD2    C5 6044   2.066   3.608  17.642 -0.2956 -0.5076 -0.0440
  401MPD2     H 6045   1.888   3.590   0.230 -3.1320  3.5812 -0.3324
  401MPD2    H1 6046   1.921   3.463  17.575 -0.1871  2.3591 -0.5440
  401MPD2    H2 6047   2.197   3.737  17.735  0.7964 -0.6166 -1.6778
  401MPD2    H3 6048   2.133   3.614  17.557  0.5959 -1.3533  0.6066
  401MPD2     N 6049   1.778   3.429   0.037  0.2827 -0.5069 -0.2148
  401MPD2    H5 6050   1.761   3.369  17.700  1.0956 -1.1118  0.0565
  401MPD2    N1 6051   2.091   3.725   0.252 -0.3705 -0.3448 -0.0704
  401MPD2    H7 6052   2.035   3.711   0.335  1.6183  0.7000  1.4502
  402TMC3    C1 6053   1.592   3.316   0.132 -1.0925  0.0476 -0.6607
  402TMC3    C2 6054   1.544   3.264   0.247  0.2818 -0.2718 -0.2192
  402TMC3    C3 6055   1.429   3.192   0.240 -1.1330  0.2375  0.1252
  402TMC3    C4 6056   1.541   3.290   0.007  0.5557  0.4175 -0.5023
  402TMC3    C5 6057   1.447   3.193   0.005 -0.0341 -0.3815 -0.3606
  402TMC3    C6 6058   1.385   3.151   0.122  0.2172  0.5317  0.0193
  402TMC3     C 6059   1.683   3.427   0.142  0.7902  0.0878 -0.2393
  402TMC3     O 6060   1.702   3.473   0.257 -0.1357 -0.0620 -0.4583
  402TMC3     H 6061   1.586   3.292   0.343 -0.7581  0.0967  0.1265
  402TMC3    H1 6062   1.576   3.334  17.658 -0.1746 -0.3277 -1.1487
  402TMC3    H2 6063   1.297   3.089   0.109 -1.0470  3.0435 -3.4384
  402TMC3    C7 6064   1.467   3.098  17.637  0.7970 -0.4953 -0.0814
  402TMC3    C8 6065   1.381   3.131   0.360 -0.7451  0.1143 -0.3557
  402TMC3    O1 6066   1.503   3.138  17.527  0.1061  0.1454  0.2066
  402TMC3    O2 6067   1.465   3.079   0.437 -0.1417  0.1633 -0.0265
  403MPD2     C 6068   4.388   2.144  13.168 -0.6298  0.6991  0.2339
  403MPD2    C1 6069   4.412   2.032  13.244  0.6653 -0.0543 -0.3857
  403MPD2    C2 6070   4.462   2.047  13.368  0.8447 -0.0608  0.4245
  403MPD2    C3 6071   4.479   2.172  13.427  0.0277  0.0151  0.1949
  403MPD2    C4 6072   4.447   2.283  13.353 -0.5819 -0.4337 -0.2350
  403MPD2    C5 6073   4.397   2.266  13.227 -0.7736 -0.3807  0.1293
  403MPD2     H 6074   4.480   1.963  13.434  2.1125  0.8831  1.2741
  403MPD2    H1 6075   4.484   2.380  13.387  0.2770  0.0183 -2.5041
  403MPD2    H2 6076   4.356   2.143  13.064 -3.5758  1.1811  1.1393
  403MPD2    H3 6077   4.375   2.356  13.171  0.6775  0.7641  1.3831
  403MPD2     N 6078   4.536   2.181  13.558  0.1987  0.1122 -0.1822
  403MPD2    H5 6079   4.598   2.105  13.586 -0.6164 -0.4724  0.0345
  403MPD2    N1 6080   4.375   1.905  13.185 -0.1604 -0.3297  0.2044
  403MPD2    H7 6081   4.371   1.897  13.084  0.9846 -2.1636  0.3236
  404TMC3    C1 6082   4.290   1.681  13.177  0.0622  0.7418  0.2609
  404TMC3    C2 6083   4.190   1.605  13.232  0.9818 -0.3243 -0.9578
  404TMC3    C3 6084   4.111   1.536  13.143 -0.3965 -0.3886 -0.4116
  404TMC3    C4 6085   4.332   1.670  13.048  0.7614  0.3574  0.0861
  404TMC3    C5 6086   4.265   1.571  12.979 -0.1523  0.6001 -0.7213
  404TMC3    C6 6087   4.144   1.517  13.019 -0.4636 -0.8249 -0.1462
  404TMC3     C 6088   4.349   1.793  13.258 -0.6576 -0.2890 -0.7902
  404TMC3     O 6089   4.351   1.775  13.381  0.0726  0.6104  0.8222
  404TMC3     H 6090   4.169   1.612  13.338 -3.7046 -1.4911 -1.8021
  404TMC3    H1 6091   4.418   1.713  12.998 -0.8002  1.8407 -1.3138
  404TMC3    H2 6092   4.079   1.459  12.955 -2.6528  1.2376  0.1931
  404TMC3    C7 6093   4.301   1.567  12.844 -0.4743 -0.6535  0.5097
  404TMC3    C8 6094   3.995   1.470  13.195 -0.5931 -0.5085  0.2293
  404TMC3    O1 6095   4.422   1.576  12.826  0.2839  0.6385 -0.4479
  404TMC3    O2 6096   3.963   1.370  13.138 -0.2805 -0.3321  0.2672
  405MPD2     C 6097   4.492   2.166  14.924  0.0028 -0.1031  0.6457
  405MPD2    C1 6098   4.534   2.188  14.797 -0.1707  0.8179 -0.3465
  405MPD2    C2 6099   4.554   2.318  14.754 -0.0934 -0.2049  0.2095
  405MPD2    C3 6100   4.532   2.420  14.842 -0.4133 -0.0548  0.9738
  405MPD2    C4 6101   4.493   2.394  14.972  0.3254 -0.4806 -0.0060
  405MPD2    C5 6102   4.472   2.270  15.011 -0.0219  1.1632 -0.2572
  405MPD2     H 6103   4.578   2.339  14.651  0.7144 -0.7474  0.2859
  405MPD2    H1 6104   4.466   2.480  15.032 -1.9236  0.3461 -2.1723
  405MPD2    H2 6105   4.477   2.067  14.965 -1.3733 -0.3476 -0.4555
  405MPD2    H3 6106   4.452   2.246  15.114  2.5357 -2.0151 -0.4746
  405MPD2     N 6107   4.519   2.546  14.783  0.7970 -0.0906  0.2856
  405MPD2    H5 6108   4.551   2.558  14.687  2.4057  2.8406  1.2104
  405MPD2    N1 6109   4.543   2.089  14.693  0.4602  0.4764 -0.0441
  405MPD2    H7 6110   4.565   2.117  14.598 -1.2351  0.6464 -0.3862
  406TMC3    C1 6111   4.438   2.949  14.611  0.0412  0.0262 -0.9326
  406TMC3    C2 6112   4.401   2.892  14.492 -0.1143  0.1613  0.2514
  406TMC3    C3 6113   4.388   2.757  14.487  0.3987  0.5766  0.7035
  406TMC3    C4 6114   4.456   2.877  14.720  0.2932 -0.7667  0.7151
  406TMC3    C5 6115   4.433   2.740  14.712  0.5066 -0.9232  0.7653
  406TMC3    C6 6116   4.403   2.676  14.593 -0.3047  0.6009 -0.5096
  406TMC3     C 6117   4.415   3.095  14.633  0.9608 -0.1083  0.3577
  406TMC3     O 6118   4.430   3.146  14.748 -0.3530 -0.1045  0.6980
  406TMC3     H 6119   4.398   2.929  14.391  2.0796  1.3699  0.6255
  406TMC3    H1 6120   4.477   2.926  14.814  4.3809 -1.6177  0.2208
  406TMC3    H2 6121   4.371   2.573  14.590 -2.0342  1.1769 -1.8266
  406TMC3    C7 6122   4.459   2.660  14.831 -0.2453  0.2393 -0.2418
  406TMC3    C8 6123   4.366   2.700  14.353 -0.0930  0.0904  0.1292
  406TMC3    O1 6124   4.435   2.712  14.942 -0.3829 -0.1112 -0.8374
  406TMC3    O2 6125   4.276   2.734  14.275  0.0270  0.1874  0.4556
  407MPD2     C 6126   1.802   4.016   9.929 -0.4262 -0.8570  0.0475
  407MPD2    C1 6127   1.918   4.022  10.001 -0.2956 -0.5848 -0.6211
  407MPD2    C2 6128   1.949   4.138  10.067  0.3701  0.4405 -0.0711
  407MPD2    C3 6129   1.864   4.249  10.067 -0.2051 -0.2945 -0.3610
  407MPD2    C4 6130   1.743   4.232  10.008  0.4263  0.4492  0.3219
  407MPD2    C5 6131   1.713   4.119   9.935 -0.2088 -0.8373  0.8142
  407MPD2     H 6132   2.048   4.144  10.109  1.0747  1.5400 -1.8648
  407MPD2    H1 6133   1.666   4.308  10.015 -2.2454 -2.0312 -2.1225
  407MPD2    H2 6134   1.760   3.928   9.881  0.6917 -0.6247 -1.3407
  407MPD2    H3 6135   1.619   4.111   9.882  0.6877  3.9617 -1.5547
  407MPD2     N 6136   1.882   4.365  10.140  0.0216  0.1749 -0.3918
  407MPD2    H5 6137   1.816   4.439  10.121 -1.9467 -1.6339 -0.5200
  407MPD2    N1 6138   2.021   3.926   9.989 -0.0311  0.3950  0.2623
  407MPD2    H7 6139   2.113   3.952  10.023 -0.5125 -1.0022  2.6456
  408TMC3    C1 6140   2.162   3.747   9.910  0.5714 -0.4536 -0.4413
  408TMC3    C2 6141   2.271   3.834   9.900  0.3250  0.1885  0.6589
  408TMC3    C3 6142   2.400   3.780   9.873 -0.6113  0.2104  0.3936
  408TMC3    C4 6143   2.173   3.611   9.877 -0.1095 -0.5852  0.9175
  408TMC3    C5 6144   2.303   3.561   9.850 -0.6930 -0.8295 -0.2222
  408TMC3    C6 6145   2.406   3.645   9.849  0.4993  0.3717 -0.8423
  408TMC3     C 6146   2.025   3.808   9.927  0.3893  0.3232  0.7168
  408TMC3     O 6147   1.930   3.743   9.886  0.2319 -0.1571  0.3482
  408TMC3     H 6148   2.259   3.941   9.917  0.5131  0.3203 -0.0481
  408TMC3    H1 6149   2.085   3.548   9.866  0.4598 -0.8092 -2.2451
  408TMC3    H2 6150   2.505   3.612   9.821  0.2984 -1.2485  0.3583
  408TMC3    C7 6151   2.330   3.418   9.849  0.5586  0.0130 -0.6925
  408TMC3    C8 6152   2.520   3.862   9.869  0.0021  0.7387 -0.7139
  408TMC3    O1 6153   2.430   3.379   9.788 -0.2272  0.0682 -0.0029
  408TMC3    O2 6154   2.629   3.808   9.859  0.0830 -0.4894 -0.5442
  409MPD2     C 6155   2.014   0.216  16.624  0.7324 -0.1666  0.1554
  409MPD2    C1 6156   2.062   0.235  16.753  0.2421  1.0319  0.6828
  409MPD2    C2 6157   2.119   0.358  16.791  0.7309 -0.3240  0.4220
  409MPD2    C3 6158   2.140   0.459  16.699  0.9551  0.1751  0.1863
  409MPD2    C4 6159   2.096   0.440  16.569  0.0758 -0.4650  0.6096
  409MPD2    C5 6160   2.031   0.315  16.534  0.4503  0.3785 -0.6032
  409MPD2     H 6161   2.156   0.376  16.892  1.4940 -0.3939  0.1533
  409MPD2    H1 6162   2.110   0.513  16.491  1.1136 -1.5663 -0.2253
  409MPD2    H2 6163   1.960   0.125  16.600  1.4210 -1.1521  2.4389
  409MPD2    H3 6164   1.994   0.298  16.433 -0.1331  1.6216 -0.6113
  409MPD2     N 6165   2.204   0.585  16.729  0.5448  0.4295  0.2548
  409MPD2    H5 6166   2.211   0.655  16.655 -3.3402  0.0709 -0.4289
  409MPD2    N1 6167   2.053   0.143  16.864 -0.4855 -0.3895  0.6375
  409MPD2    H7 6168   2.101   0.175  16.948  0.4105  0.8308 -0.3162
  410TMC3    C1 6169   2.310   0.752  16.845  0.3644  0.4561 -0.2373
  410TMC3    C2 6170   2.420   0.768  16.919  0.5707 -0.2125  0.0791
  410TMC3    C3 6171   2.514   0.852  16.869  0.4346  0.1296 -0.0592
  410TMC3    C4 6172   2.278   0.818  16.730  0.5410  0.7181  1.0443
  410TMC3    C5 6173   2.368   0.918  16.703 -0.5304 -0.5182  0.5069
  410TMC3    C6 6174   2.488   0.946  16.769  0.6276 -0.1394  0.6650
  410TMC3     C 6175   2.254   0.619  16.855  0.2828  0.4324  0.5823
  410TMC3     O 6176   2.259   0.554  16.964 -0.2597  0.0290  0.1724
  410TMC3     H 6177   2.436   0.708  17.008 -2.0959 -1.5227 -0.3196
  410TMC3    H1 6178   2.177   0.832  16.695  1.4826 -0.2645 -2.0403
  410TMC3    H2 6179   2.569   1.012  16.738  0.6272 -0.4440  0.0167
  410TMC3    C7 6180   2.341   0.971  16.567 -0.7644 -0.1980  0.3780
  410TMC3    C8 6181   2.646   0.847  16.935 -0.4260 -0.5357 -0.0653
  410TMC3    O1 6182   2.269   0.903  16.500 -0.0524  0.1541 -0.0777
  410TMC3    O2 6183   2.696   0.950  16.979 -0.1557  0.1903 -0.5107
  411MPD2     C 6184   2.546   0.531  14.395 -0.6191  0.6085  1.1689
  411MPD2    C1 6185   2.458   0.582  14.304  0.3771  0.0488 -0.3777
  411MPD2    C2 6186   2.386   0.497  14.223  0.3285  0.2569  0.1227
  411MPD2    C3 6187   2.377   0.362  14.249  0.3993 -0.2953 -0.1704
  411MPD2    C4 6188   2.459   0.306  14.346  0.6241 -0.4226 -0.1423
  411MPD2    C5 6189   2.548   0.396  14.409  0.6829 -0.0167  0.0245
  411MPD2     H 6190   2.308   0.531  14.155 -0.4231 -1.6832  0.0102
  411MPD2    H1 6191   2.472   0.199  14.356 -0.4261 -0.7089 -2.0847
  411MPD2    H2 6192   2.616   0.592  14.451 -1.0974  1.3299  0.9885
  411MPD2    H3 6193   2.609   0.352  14.486  1.0941 -0.0181 -0.3021
  411MPD2     N 6194   2.288   0.275  14.178 -0.0580 -0.3055  0.0968
  411MPD2    H5 6195   2.280   0.189  14.230 -0.0989 -0.4015 -0.0670
  411MPD2    N1 6196   2.458   0.721  14.293  0.8735  0.1550 -0.0576
  411MPD2    H7 6197   2.514   0.779  14.354 -1.4373  1.5145  0.7841
  412TMC3    C1 6198   2.100   0.230  14.043 -0.0797  0.1774 -0.0804
  412TMC3    C2 6199   2.023   0.207  14.151  0.1461 -0.1495  0.2917
  412TMC3    C3 6200   1.907   0.136  14.138 -0.4811  0.7509 -0.3069
  412TMC3    C4 6201   2.050   0.211  13.912 -0.2819 -0.1767  0.2987
  412TMC3    C5 6202   1.934   0.139  13.909 -0.5611 -0.4594 -0.3423
  412TMC3    C6 6203   1.880   0.080  14.019  0.4738 -0.3109 -0.5785
  412TMC3     C 6204   2.220   0.307  14.064  0.2531  0.1849 -0.4519
  412TMC3     O 6205   2.249   0.395  13.986  0.0424  0.7311 -0.0466
  412TMC3     H 6206   2.059   0.245  14.246  0.3268 -1.5274  0.7707
  412TMC3    H1 6207   2.097   0.244  13.820 -1.4244  1.6631  0.3744
  412TMC3    H2 6208   1.791   0.018  14.010  1.6222 -2.1359  0.8464
  412TMC3    C7 6209   1.836   0.165  13.806  0.0476 -0.2241  0.0355
  412TMC3    C8 6210   1.798   0.212  14.204 -0.5021  0.0248  0.1065
  412TMC3    O1 6211   1.722   0.150  13.853  0.0446 -0.1415 -0.1855
  412TMC3    O2 6212   1.813   0.264  14.312  0.0036 -0.3333 -0.6276
  413MPD2     C 6213   3.919   3.789  15.268 -0.4081 -0.0730 -0.2134
  413MPD2    C1 6214   3.835   3.711  15.203 -0.5390 -0.7370  0.2792
  413MPD2    C2 6215   3.880   3.581  15.169  0.1093 -0.0565  0.8646
  413MPD2    C3 6216   4.012   3.544  15.192 -0.0604 -0.3008 -0.6775
  413MPD2    C4 6217   4.092   3.637  15.253  0.0850 -0.2944 -0.2965
  413MPD2    C5 6218   4.049   3.762  15.289  0.2470  0.8478  0.2486
  413MPD2     H 6219   3.808   3.508  15.135  0.7580  0.0566 -0.7159
  413MPD2    H1 6220   4.196   3.610  15.270 -0.3816 -0.8168  1.8004
  413MPD2    H2 6221   3.879   3.885  15.297  0.0072  0.1404 -0.3464
  413MPD2    H3 6222   4.117   3.834  15.333  1.5840  0.2207 -0.7618
  413MPD2     N 6223   4.067   3.414  15.180  0.4629  0.5969 -0.0538
  413MPD2    H5 6224   4.152   3.397  15.233  0.2517 -1.4846 -0.3856
  413MPD2    N1 6225   3.697   3.754  15.199 -0.3468 -0.3886 -0.8216
  413MPD2    H7 6226   3.676   3.842  15.246 -1.2900 -1.7223  1.2953
  414TMC3    C1 6227   4.120   3.216  15.063 -0.0302  0.5633 -0.1343
  414TMC3    C2 6228   4.073   3.111  14.985 -0.4543  0.3776 -0.0085
  414TMC3    C3 6229   4.160   3.011  14.968  0.1022 -0.9513 -0.4861
  414TMC3    C4 6230   4.247   3.215  15.125  0.2016  0.7625 -0.1031
  414TMC3    C5 6231   4.322   3.103  15.120  0.0670 -0.0499 -0.0025
  414TMC3    C6 6232   4.272   2.996  15.047  0.0740  0.2435  0.0953
  414TMC3     C 6233   4.031   3.332  15.076  0.6957 -0.4114 -0.0872
  414TMC3     O 6234   3.927   3.336  15.007  0.4647 -0.0742 -0.7548
  414TMC3     H 6235   3.980   3.132  14.933  0.1806  4.1995  0.4218
  414TMC3    H1 6236   4.299   3.305  15.155  0.8742  1.6208 -3.8295
  414TMC3    H2 6237   4.317   2.897  15.055 -2.0108 -0.6644  0.6522
  414TMC3    C7 6238   4.467   3.115  15.123  0.2179  0.3539 -0.5866
  414TMC3    C8 6239   4.112   2.898  14.887  0.2644  0.1012  0.0445
  414TMC3    O1 6240   4.508   3.230  15.139 -0.1739  0.1374  0.5284
  414TMC3    O2 6241   4.125   2.783  14.930  0.4393  0.2458 -0.0537
  415TMC3    C1 6242   4.329   1.540  10.077  0.0776 -0.0198  0.0323
  415TMC3    C2 6243   4.258   1.654  10.092 -0.4531 -1.0133  0.0450
  415TMC3    C3 6244   4.125   1.662  10.058 -0.2212 -0.3862  0.8857
  415TMC3    C4 6245   4.268   1.429  10.029 -0.1749 -0.2687 -0.6228
  415TMC3    C5 6246   4.138   1.441  10.007 -0.8689  0.3857  0.0017
  415TMC3    C6 6247   4.061   1.553  10.012 -0.3673  0.0232  0.5850
  415TMC3     C 6248   4.439   1.515  10.163 -0.2910 -0.6239 -0.1689
  415TMC3     O 6249   4.465   1.400  10.187  0.1910  0.5438 -0.2090
  415TMC3     H 6250   4.292   1.724  10.167 -0.3786 -0.0910 -0.8489
  415TMC3    H1 6251   4.331   1.342  10.012  0.8471  0.1260  1.0478
  415TMC3    H2 6252   3.961   1.562   9.972  0.1939 -0.8289 -1.0062
  415TMC3    C7 6253   4.062   1.319  10.041 -0.3102 -0.0456 -0.0127
  415TMC3    C8 6254   4.051   1.787  10.053  0.4563 -0.6316 -0.1285
  415TMC3    O1 6255   3.941   1.309  10.018 -0.0632 -0.3205 -0.0713
  415TMC3    O2 6256   3.940   1.791  10.006  0.7900  0.6046  0.3094
  416MPD2     C 6257   1.420   0.548  11.375 -0.2884 -0.8788  0.5033
  416MPD2    C1 6258   1.345   0.443  11.426 -0.0354  0.3658 -0.0207
  416MPD2    C2 6259   1.336   0.325  11.349  0.3914  0.4243  0.5911
  416MPD2    C3 6260   1.381   0.316  11.219  0.4397  0.1687  0.1768
  416MPD2    C4 6261   1.459   0.421  11.175 -0.2381  0.4699  0.2614
  416MPD2    C5 6262   1.482   0.531  11.256 -0.5173  0.4990 -0.2656
  416MPD2     H 6263   1.277   0.247  11.396 -0.1038 -0.7318 -1.9593
  416MPD2    H1 6264   1.509   0.408  11.079  0.2750 -0.7206  0.6890
  416MPD2    H2 6265   1.442   0.634  11.436 -1.3499  0.7970 -1.4749
  416MPD2    H3 6266   1.546   0.609  11.216 -0.7776  0.7915 -0.1087
  416MPD2     N 6267   1.354   0.203  11.143 -0.2169  0.3451 -0.6169
  416MPD2    H5 6268   1.291   0.136  11.187 -0.4525 -0.0410 -1.5238
  416MPD2    N1 6269   1.285   0.463  11.548  0.0141  0.3414  0.0934
  416MPD2    H7 6270   1.303   0.557  11.581  1.1475 -0.3448  1.4305
  417TMC3    C1 6271   1.097   0.471  11.672  0.3045  0.1981  0.2466
  417TMC3    C2 6272   1.142   0.535  11.784 -0.0428 -0.3147 -0.1010
  417TMC3    C3 6273   1.055   0.629  11.833 -0.2944  0.0445 -1.0727
  417TMC3    C4 6274   0.976   0.500  11.615 -0.5609 -0.8403 -0.0378
  417TMC3    C5 6275   0.905   0.600  11.663  0.4610  1.1345  0.4117
  417TMC3    C6 6276   0.948   0.676  11.773  0.1494  0.1921 -0.1114
  417TMC3     C 6277   1.182   0.382  11.589  0.0890  0.4012  0.1815
  417TMC3     O 6278   1.109   0.308  11.526  0.1099 -0.2818 -0.5288
  417TMC3     H 6279   1.244   0.518  11.819  0.4671 -0.7807 -1.8167
  417TMC3    H1 6280   0.959   0.457  11.517  0.0034 -0.4524 -0.3051
  417TMC3    H2 6281   0.885   0.754  11.815  0.8202  0.4839  0.3490
  417TMC3    C7 6282   0.854   0.692  11.562  0.7123 -0.6659  0.2360
  417TMC3    C8 6283   1.089   0.698  11.956 -0.3196  0.7365 -0.2203
  417TMC3    O1 6284   0.867   0.811  11.577 -0.5316 -0.0468 -0.2780
  417TMC3    O2 6285   1.031   0.801  11.983 -1.0736 -0.0150  0.1042
  418TMC3    C1 6286   0.237   2.356  17.218  0.4460  0.5722  0.0693
  418TMC3    C2 6287   0.141   2.447  17.227 -0.8190 -0.1615 -0.6065
  418TMC3    C3 6288   0.095   2.473  17.350  0.0187 -0.0521 -0.2521
  418TMC3    C4 6289   0.306   2.310  17.325 -0.5980  0.4049 -0.8134
  418TMC3    C5 6290   0.274   2.354  17.447  0.1731  0.1154 -0.9989
  418TMC3    C6 6291   0.162   2.434  17.459 -0.4423 -0.5587 -0.0859
  418TMC3     C 6292   0.244   2.292  17.091 -0.3583 -0.7617  0.0495
  418TMC3     O 6293   0.207   2.364  16.997  0.0247  0.2594 -0.3590
  418TMC3     H 6294   0.071   2.467  17.147 -1.0265  0.4785 -0.2691
  418TMC3    H1 6295   0.394   2.248  17.315 -1.0771 -0.5013  0.6508
  418TMC3    H2 6296   0.119   2.457  17.555 -2.1784  2.3767 -1.5552
  418TMC3    C7 6297   0.275   2.262  17.552  0.5037 -0.6038  0.4864
  418TMC3    C8 6298   4.693   2.471  17.363  0.2328 -0.0896  0.5834
  418TMC3    O1 6299   0.214   2.161  17.533 -0.5548 -0.1405 -0.7361
  418TMC3    O2 6300   4.629   2.547  17.291  0.3078  0.1501 -0.2889
  419MPD2     C 6301   3.828   0.397  12.347  0.3712  0.4058 -0.2117
  419MPD2    C1 6302   3.772   0.523  12.338  0.0062  0.0103 -0.2247
  419MPD2    C2 6303   3.743   0.589  12.449  0.1249 -0.3477  0.0435
  419MPD2    C3 6304   3.765   0.530  12.571 -0.5893 -0.2093  0.9852
  419MPD2    C4 6305   3.833   0.410  12.577 -0.6455 -1.0466  0.5214
  419MPD2    C5 6306   3.867   0.349  12.467  0.4263  0.0124 -0.2924
  419MPD2     H 6307   3.689   0.683  12.440  2.2378  0.9559  1.0724
  419MPD2    H1 6308   3.865   0.370  12.672  0.6940 -3.0911 -0.8135
  419MPD2    H2 6309   3.843   0.326  12.267  0.5179  1.7842 -1.4008
  419MPD2    H3 6310   3.911   0.250  12.474  0.2859 -0.0615 -0.4479
  419MPD2     N 6311   3.728   0.598  12.687 -0.3436  0.4649  0.0288
  419MPD2    H5 6312   3.710   0.697  12.672  1.0146  1.0719  2.3383
  419MPD2    N1 6313   3.747   0.588  12.217 -0.6226 -0.3362  0.3542
  419MPD2    H7 6314   3.730   0.688  12.216  0.8053 -0.0404  4.1998
  420TMC3    C1 6315   3.609   0.622  12.889  0.1841  0.4175 -0.4933
  420TMC3    C2 6316   3.558   0.739  12.837  0.3972 -0.4681 -0.0886
  420TMC3    C3 6317   3.469   0.799  12.914  0.9013  0.5791  0.9368
  420TMC3    C4 6318   3.585   0.573  13.016 -0.3007  0.5838  0.3839
  420TMC3    C5 6319   3.505   0.651  13.094 -0.4248 -0.5487  0.4444
  420TMC3    C6 6320   3.442   0.764  13.045  0.1248  0.3580  0.8855
  420TMC3     C 6321   3.680   0.525  12.801  0.0318  0.3838  0.0284
  420TMC3     O 6322   3.676   0.405  12.824 -0.1893 -0.0793 -0.1912
  420TMC3     H 6323   3.549   0.764  12.732 -0.4479 -1.0828 -0.1672
  420TMC3    H1 6324   3.625   0.479  13.051 -0.0457  0.0072 -1.4430
  420TMC3    H2 6325   3.363   0.811  13.103 -1.4902 -0.7021 -0.4575
  420TMC3    C7 6326   3.511   0.644  13.239 -0.1223  0.7550 -0.3061
  420TMC3    C8 6327   3.400   0.910  12.842 -0.0658  0.2944  0.3277
  420TMC3    O1 6328   3.431   0.713  13.302  0.4056 -0.1727  0.5085
  420TMC3    O2 6329   3.281   0.923  12.867 -0.1941 -0.0258 -0.3092
  421TMC3    C1 6330   4.618   2.292  13.752 -0.6761  0.2324 -0.0146
  421TMC3    C2 6331   4.627   2.415  13.821 -0.7779 -0.9592  0.0304
  421TMC3    C3 6332   4.726   2.434  13.921  1.1240  0.3169 -0.5429
  421TMC3    C4 6333   4.707   2.197  13.774 -0.0465  0.8825  0.0411
  421TMC3    C5 6334   0.061   2.221  13.874  0.0625 -0.2788 -0.6632
  421TMC3    C6 6335   0.078   2.339  13.942  0.3897 -0.3534  0.2143
  421TMC3     C 6336   4.530   2.293  13.640 -0.0353  0.4115 -0.7362
  421TMC3     O 6337   4.454   2.389  13.634  0.7501 -0.2272  0.4260
  421TMC3     H 6338   4.552   2.493  13.810  1.0311  0.9631  1.1356
  421TMC3    H1 6339   4.701   2.093  13.743 -2.5187  1.3741 -1.1779
  421TMC3    H2 6340   0.157   2.361  14.013  0.8903  1.4884 -0.9079
  421TMC3    C7 6341   0.169   2.133  13.886  0.3345 -0.7845  0.0299
  421TMC3    C8 6342   4.726   2.550  14.011  0.5096  0.4676  0.3773
  421TMC3    O1 6343   0.278   2.184  13.885 -0.2713 -0.4674 -0.3708
  421TMC3    O2 6344   0.082   2.557  14.092  0.1220 -0.3279 -0.4167
  422TMC3    C1 6345   1.889   3.483  12.772 -0.7711 -0.0164 -0.4901
  422TMC3    C2 6346   1.877   3.574  12.875  0.5910  0.4426  0.1506
  422TMC3    C3 6347   1.852   3.534  13.005  0.0617  0.5481 -0.3342
  422TMC3    C4 6348   1.876   3.347  12.801 -0.1586  0.5063  0.5348
  422TMC3    C5 6349   1.854   3.318  12.935  0.5550 -0.0959 -0.1769
  422TMC3    C6 6350   1.834   3.407  13.036 -0.1437 -0.3923 -0.1734
  422TMC3     C 6351   1.965   3.534  12.662 -0.2015  0.0026 -0.0565
  422TMC3     O 6352   1.987   3.653  12.664  0.0337 -0.1973  0.4237
  422TMC3     H 6353   1.878   3.679  12.851  0.0054  0.7339  1.4189
  422TMC3    H1 6354   1.886   3.264  12.733 -1.2285  0.9686 -0.1868
  422TMC3    H2 6355   1.841   3.358  13.133 -0.5652  4.4928  2.2891
  422TMC3    C7 6356   1.805   3.184  12.963  0.3342 -0.7728  0.3794
  422TMC3    C8 6357   1.905   3.626  13.098 -0.1918  0.2243  0.1024
  422TMC3    O1 6358   1.859   3.087  12.907  0.0038  0.3234 -0.1694
  422TMC3    O2 6359   1.985   3.703  13.052 -0.2231 -0.1949  0.2870
  423MPD2     C 6360   3.070   4.272   0.695  0.6952  0.3117 -0.8046
  423MPD2    C1 6361   3.139   4.173   0.755  0.6827  0.1631  0.2171
  423MPD2    C2 6362   3.204   4.080   0.670 -0.7800 -0.9690 -0.0736
  423MPD2    C3 6363   3.215   4.097   0.533  0.3119 -0.1540  0.1190
  423MPD2    C4 6364   3.156   4.217   0.482 -0.1601  0.4336 -0.0697
  423MPD2    C5 6365   3.083   4.295   0.565  0.7938 -0.9628 -0.7018
  423MPD2     H 6366   3.262   4.005   0.723 -0.4700  1.4117  2.9531
  423MPD2    H1 6367   3.181   4.252   0.382 -0.2069 -0.8937 -0.5426
  423MPD2    H2 6368   3.012   4.344   0.752  0.7824 -0.9264  0.8705
  423MPD2    H3 6369   3.056   4.395   0.532  1.8761 -0.8621 -1.2822
  423MPD2     N 6370   3.297   4.027   0.441 -0.2221  0.5471  0.4216
  423MPD2    H5 6371   3.303   4.071   0.350 -1.0689  1.3552  0.7543
  423MPD2    N1 6372   3.156   4.155   0.898  0.2096  0.1495  0.1892
  423MPD2    H7 6373   3.231   4.097   0.933  0.4222  0.9543  1.0598
  424TMC3    C1 6374   3.136   4.235   1.122 -0.3424 -0.2734  0.3901
  424TMC3    C2 6375   3.268   4.190   1.139  0.4410 -0.4151  0.6450
  424TMC3    C3 6376   3.301   4.156   1.271  0.2907  0.2384  1.2814
  424TMC3    C4 6377   3.047   4.256   1.219  0.0230 -0.0759  0.2062
  424TMC3    C5 6378   3.097   4.232   1.346  0.1392  0.6594  0.1875
  424TMC3    C6 6379   3.218   4.173   1.379  0.0331  0.1740 -0.8202
  424TMC3     C 6380   3.087   4.232   0.988  0.0924  0.4530  0.3411
  424TMC3     O 6381   2.982   4.290   0.974 -0.0692  0.0711  0.0313
  424TMC3     H 6382   3.338   4.177   1.058  0.3763 -2.0431  0.8584
  424TMC3    H1 6383   2.946   4.290   1.199  1.0607  1.4001 -2.4489
  424TMC3    H2 6384   3.239   4.146   1.482  2.3608  1.6570 -0.9371
  424TMC3    C7 6385   3.005   4.237   1.457 -0.1346  0.1139  0.3496
  424TMC3    C8 6386   3.399   4.046   1.289  0.0084  0.2671  0.4060
  424TMC3    O1 6387   3.021   4.155   1.543 -0.2452 -0.3717  0.2952
  424TMC3    O2 6388   3.369   3.963   1.373 -0.2488  0.1631 -0.4863
  425MPD2     C 6389   2.898   3.872  17.097 -0.1802 -0.3999 -0.8068
  425MPD2    C1 6390   2.831   3.768  17.159  1.2986  0.8270  0.2752
  425MPD2    C2 6391   2.715   3.792  17.230 -0.6042  0.3127 -0.7279
  425MPD2    C3 6392   2.673   3.916  17.246 -0.3291  0.8083  0.5638
  425MPD2    C4 6393   2.739   4.022  17.189  0.0781  0.6370  0.1305
  425MPD2    C5 6394   2.857   4.007  17.119 -0.0451 -0.1136  0.1866
  425MPD2     H 6395   2.653   3.710  17.265  1.9022 -0.9037  0.8845
  425MPD2    H1 6396   2.708   4.126  17.194  0.3608  0.7897 -1.6477
  425MPD2    H2 6397   2.994   3.847  17.055  0.9665 -0.5344  1.9093
  425MPD2    H3 6398   2.905   4.095  17.079 -0.8103  0.2884  0.1616
  425MPD2     N 6399   2.546   3.932  17.300  0.3411  0.7395 -0.2464
  425MPD2    H5 6400   2.506   3.846  17.337 -0.2668  1.2239  0.2080
  425MPD2    N1 6401   2.883   3.642  17.133  0.5070 -0.0763  0.1305
  425MPD2    H7 6402   2.968   3.632  17.078 -0.2101 -0.9025 -0.8516
  426TMC3    C1 6403   2.884   3.395  17.131  0.2553  0.0327  0.7585
  426TMC3    C2 6404   2.898   3.391  16.998 -0.9706  0.0808  0.2016
  426TMC3    C3 6405   2.940   3.272  16.947 -0.0753 -0.3170  0.1943
  426TMC3    C4 6406   2.882   3.283  17.212  0.4068 -0.9773  0.3367
  426TMC3    C5 6407   2.925   3.168  17.157  0.2274  0.0475 -0.0022
  426TMC3    C6 6408   2.970   3.165  17.030 -0.1402  0.0933  0.1534
  426TMC3     C 6409   2.837   3.518  17.192  0.2418 -0.1264 -0.1072
  426TMC3     O 6410   2.750   3.508  17.275  0.6468 -0.4284 -0.6328
  426TMC3     H 6411   2.897   3.486  16.946 -2.2734  0.3495  0.7086
  426TMC3    H1 6412   2.862   3.286  17.318 -0.8681  0.2867  0.0676
  426TMC3    H2 6413   3.016   3.075  16.991  0.4777  0.7002 -0.5270
  426TMC3    C7 6414   2.876   3.042  17.206  0.7051  1.0150 -0.6933
  426TMC3    C8 6415   2.933   3.248  16.799 -0.6639  0.6328  0.0012
  426TMC3    O1 6416   2.932   2.942  17.169  0.8575  0.2144  0.4909
  426TMC3    O2 6417   2.988   3.148  16.753  0.8576 -0.6872  0.3597
  427MPD2     C 6418   0.720   0.525  15.295  0.0042 -0.4932  0.4566
  427MPD2    C1 6419   0.844   0.563  15.259  0.0113  0.7232 -0.3308
  427MPD2    C2 6420   0.860   0.684  15.202  0.0735 -0.6265 -0.0677
  427MPD2    C3 6421   0.755   0.772  15.179 -0.5712  1.1966  0.2682
  427MPD2    C4 6422   0.631   0.738  15.228 -0.6269 -0.3938  0.0021
  427MPD2    C5 6423   0.616   0.613  15.282  0.0203  0.2536 -0.0027
  427MPD2     H 6424   0.950   0.697  15.142 -0.6516  0.2716 -0.9583
  427MPD2    H1 6425   0.547   0.804  15.212 -0.5883 -0.4202 -0.3086
  427MPD2    H2 6426   0.707   0.435  15.354 -2.5661 -1.3620 -1.4012
  427MPD2    H3 6427   0.514   0.591  15.309  0.2671  0.2956  0.9582
  427MPD2     N 6428   0.768   0.882  15.097 -0.0954  0.0674  0.4401
  427MPD2    H5 6429   0.683   0.928  15.067 -1.4761 -1.0963  2.5521
  427MPD2    N1 6430   0.953   0.479  15.276 -0.1076  0.2593  0.4439
  427MPD2    H7 6431   1.040   0.519  15.242 -1.0034  0.4011 -1.6649
  428TMC3    C1 6432   1.077   0.292  15.340  0.0267  0.5385 -0.6365
  428TMC3    C2 6433   1.091   0.154  15.345  0.0904  0.1587 -1.0365
  428TMC3    C3 6434   1.225   0.103  15.328  0.3479  0.2129  0.7818
  428TMC3    C4 6435   1.178   0.379  15.320 -0.0711 -0.2211 -0.2147
  428TMC3    C5 6436   1.304   0.327  15.312  0.3786  0.3491  0.1804
  428TMC3    C6 6437   1.329   0.194  15.313 -0.0188 -0.2939 -0.2444
  428TMC3     C 6438   0.949   0.355  15.329 -0.8537 -0.5463  0.0602
  428TMC3     O 6439   0.862   0.274  15.320 -0.2720 -0.0413 -0.5678
  428TMC3     H 6440   1.005   0.088  15.341 -0.4393  0.7883  0.2038
  428TMC3    H1 6441   1.170   0.486  15.334 -1.6272 -0.4054  0.2880
  428TMC3    H2 6442   1.429   0.153  15.315  0.2202  0.1803 -2.5460
  428TMC3    C7 6443   1.410   0.420  15.286 -0.9163 -0.2725 -0.2585
  428TMC3    C8 6444   1.256   4.698  15.348  0.0975 -0.3519 -0.0951
  428TMC3    O1 6445   1.403   0.533  15.341 -0.3373 -0.1202  0.2307
  428TMC3    O2 6446   1.362   4.654  15.306  0.0158 -0.1248  0.4733
  429MPD2     C 6447   2.094   1.217  17.417  0.5094 -0.0815  0.2479
  429MPD2    C1 6448   2.189   1.159  17.488  0.3601  0.3440  0.0767
  429MPD2    C2 6449   2.314   1.228  17.489 -0.3338 -0.1805 -0.0000
  429MPD2    C3 6450   2.337   1.341  17.410  0.4917  0.9130  0.4871
  429MPD2    C4 6451   2.233   1.401  17.347 -0.0170 -0.4246 -0.8137
  429MPD2    C5 6452   2.115   1.339  17.351  0.8306 -1.2083 -0.6760
  429MPD2     H 6453   2.402   1.186  17.537 -0.6434 -0.6001  0.1930
  429MPD2    H1 6454   2.235   1.497  17.295 -1.9664 -1.2512 -2.4063
  429MPD2    H2 6455   1.992   1.182  17.425  0.3310  0.6210  0.9809
  429MPD2    H3 6456   2.032   1.397  17.311  0.9107  0.9075  2.2202
  429MPD2     N 6457   2.467   1.405  17.416 -0.0072 -0.2826  0.1921
  429MPD2    H5 6458   2.539   1.371  17.479 -0.6371 -1.1581  0.4370
  429MPD2    N1 6459   2.165   1.038  17.557 -0.2467  0.4033  0.1691
  429MPD2    H7 6460   2.073   0.997  17.547 -0.4240  0.5793  1.1116
  430TMC3    C1 6461   2.652   1.535  17.353  0.9043 -0.4942  0.6586
  430TMC3    C2 6462   2.692   1.663  17.315 -0.1503  0.1428 -0.1728
  430TMC3    C3 6463   2.818   1.681  17.262  0.2297  0.8366 -0.7945
  430TMC3    C4 6464   2.741   1.431  17.326  0.1428 -0.7335 -0.3479
  430TMC3    C5 6465   2.868   1.450  17.286  0.1747  0.1697 -0.8224
  430TMC3    C6 6466   2.904   1.581  17.264  0.0628  0.1335 -0.1287
  430TMC3     C 6467   2.514   1.509  17.337 -1.2169  0.1323  0.6072
  430TMC3     O 6468   2.455   1.591  17.269  0.5677 -0.0283 -0.1129
  430TMC3     H 6469   2.622   1.744  17.331 -0.9438 -0.6007  0.1769
  430TMC3    H1 6470   2.708   1.329  17.341  0.1763 -0.5935  0.6840
  430TMC3    H2 6471   3.001   1.585  17.216 -0.1747  0.6794 -0.5700
  430TMC3    C7 6472   2.922   1.352  17.188  0.0313  0.1121  0.1645
  430TMC3    C8 6473   2.799   1.717  17.126 -0.2782  0.3160  0.6164
  430TMC3    O1 6474   2.964   1.244  17.227  0.0587 -0.4107 -0.3387
  430TMC3    O2 6475   2.729   1.640  17.059 -0.0782 -0.2861  0.5562
  431MPD2     C 6476   3.276   1.208  12.264 -0.1876 -0.7180 -0.2759
  431MPD2    C1 6477   3.379   1.245  12.179 -0.5463  0.4235  0.4088
  431MPD2    C2 6478   3.436   1.155  12.094 -0.5413  0.1979 -0.3714
  431MPD2    C3 6479   3.393   1.020  12.099  0.5460 -0.2890  0.4102
  431MPD2    C4 6480   3.292   0.983  12.189  0.7913 -0.3876 -0.9467
  431MPD2    C5 6481   3.234   1.078  12.270  0.1004 -0.5030 -0.0835
  431MPD2     H 6482   3.521   1.179  12.032 -0.1122 -1.3369 -0.3520
  431MPD2    H1 6483   3.274   0.876  12.197 -0.5682 -0.0893  0.1081
  431MPD2    H2 6484   3.238   1.280  12.335 -0.4993 -0.8505 -0.3109
  431MPD2    H3 6485   3.163   1.046  12.345 -1.2808  1.4749 -0.5480
  431MPD2     N 6486   3.452   0.916  12.021 -0.4583  0.4731 -0.2738
  431MPD2    H5 6487   3.414   0.824  12.041 -2.4465  1.8894  2.4307
  431MPD2    N1 6488   3.443   1.368  12.187 -0.5751  0.2401  0.0938
  431MPD2    H7 6489   3.527   1.371  12.130 -1.4125  0.7454 -1.1147
  432TMC3    C1 6490   3.609   0.796  11.907 -0.9895  0.5161 -0.0578
  432TMC3    C2 6491   3.632   0.769  11.780  0.0824 -0.1910 -0.5451
  432TMC3    C3 6492   3.720   0.664  11.763  0.3768 -0.6310 -0.2977
  432TMC3    C4 6493   3.633   0.719  12.019  0.1281  0.0830 -0.3290
  432TMC3    C5 6494   3.713   0.611  11.990 -0.3139 -0.3652  0.1938
  432TMC3    C6 6495   3.757   0.583  11.866  0.1237  0.5073 -0.0285
  432TMC3     C 6496   3.563   0.927  11.947  0.7096  1.1572  0.8886
  432TMC3     O 6497   3.633   1.023  11.919  0.1188  0.1562  0.0539
  432TMC3     H 6498   3.610   0.832  11.694  1.6455  2.2520  0.8329
  432TMC3    H1 6499   3.597   0.748  12.117 -0.0120 -1.4105  0.0644
  432TMC3    H2 6500   3.838   0.513  11.852 -0.0872  0.1425  0.5904
  432TMC3    C7 6501   3.750   0.522  12.098 -0.2247  0.0215 -0.4451
  432TMC3    C8 6502   3.802   0.669  11.652  0.2219 -0.9387  0.2311
  432TMC3    O1 6503   3.770   0.404  12.074  0.2053  0.2611  0.3353
  432TMC3    O2 6504   3.754   0.648  11.544 -0.2958 -0.4046  0.4299
  433MPD2     C 6505   2.204   0.169  11.261 -0.1784  0.3414  0.1028
  433MPD2    C1 6506   2.127   0.067  11.323  0.5762 -0.1890 -0.6465
  433MPD2    C2 6507   2.116   0.069  11.459  0.0761  0.2819 -0.0971
  433MPD2    C3 6508   2.196   0.151  11.533 -0.2332 -0.3467  0.4466
  433MPD2    C4 6509   2.283   0.236  11.476  0.0566 -0.7302  0.0723
  433MPD2    C5 6510   2.288   0.245  11.339  0.2474  0.2786  0.3602
  433MPD2     H 6511   2.070   4.727  11.518  0.2968 -0.9650 -1.5712
  433MPD2    H1 6512   2.335   0.308  11.538 -0.4506 -0.9025  0.6932
  433MPD2    H2 6513   2.208   0.182  11.153  0.4100 -0.3349  0.0473
  433MPD2    H3 6514   2.332   0.334  11.296 -1.0970  0.7128 -0.1021
  433MPD2     N 6515   2.187   0.132  11.674 -0.0307  0.0979  0.2793
  433MPD2    H5 6516   2.128   0.055  11.702  1.4142 -0.6229  1.3327
  433MPD2    N1 6517   2.037   4.722  11.242  0.5424  0.0417  0.1529
  433MPD2    H7 6518   2.035   4.731  11.141  1.7766 -1.0690  0.0230
  434TMC3    C1 6519   1.884   4.551  11.184 -0.2500 -0.3154 -0.4346
  434TMC3    C2 6520   1.857   4.419  11.212  0.2112  0.0515  0.2890
  434TMC3    C3 6521   1.889   4.328  11.112  0.5410  0.2010  0.0688
  434TMC3    C4 6522   1.910   4.595  11.063  0.7130 -0.1053  0.3529
  434TMC3    C5 6523   1.927   4.505  10.958 -0.7530 -0.6916 -0.0752
  434TMC3    C6 6524   1.930   4.365  10.989  0.3002 -0.5981 -0.1708
  434TMC3     C 6525   1.942   4.628  11.291  0.3830  0.3071  0.6999
  434TMC3     O 6526   1.916   4.589  11.404  0.0601 -0.3389  0.3902
  434TMC3     H 6527   1.829   4.384  11.311 -0.7919 -2.7877 -1.0207
  434TMC3    H1 6528   1.917   4.700  11.039 -1.6697 -0.2931 -1.1298
  434TMC3    H2 6529   1.947   4.286  10.917  0.4728 -0.4327 -0.3125
  434TMC3    C7 6530   1.917   4.562  10.827 -0.5753  0.3553  0.5417
  434TMC3    C8 6531   1.945   4.202  11.161  0.3414 -0.1689 -0.1611
  434TMC3    O1 6532   1.881   4.679  10.805 -0.2040  0.3840 -0.0673
  434TMC3    O2 6533   1.903   4.150  11.263 -0.1672 -0.1984  0.4698
  435MPD2     C 6534   4.479   4.424  15.555 -0.6093 -0.3781  0.7133
  435MPD2    C1 6535   4.426   4.416  15.678 -0.0077 -0.2774 -0.0875
  435MPD2    C2 6536   4.501   4.374  15.784 -0.6195 -0.9809  0.4352
  435MPD2    C3 6537   4.632   4.334  15.769  0.2891 -0.3753 -0.3932
  435MPD2    C4 6538   4.685   4.337  15.641  0.6113 -0.6809 -0.5395
  435MPD2    C5 6539   4.610   4.392  15.540  0.1051 -0.0276  0.0476
  435MPD2     H 6540   4.461   4.380  15.885 -0.7962 -2.3636  0.4450
  435MPD2    H1 6541   0.043   4.290  15.613  1.4113 -0.8123  2.3699
  435MPD2    H2 6542   4.430   4.467  15.467  0.3397 -1.2034 -0.2167
  435MPD2    H3 6543   4.652   4.418  15.444 -0.4251 -0.4522 -0.3001
  435MPD2     N 6544   4.698   4.273  15.885 -0.1491 -0.0176  0.6293
  435MPD2    H5 6545   4.636   4.266  15.965 -1.8834  0.5568 -0.6360
  435MPD2    N1 6546   4.299   4.471  15.711 -0.2986  0.6212 -0.0883
  435MPD2    H7 6547   4.275   4.472  15.810 -0.2792 -1.3473 -0.0616
  436TMC3    C1 6548   3.955   4.625  15.869  0.6316 -0.2412  0.0868
  436TMC3    C2 6549   4.082   4.591  15.820  0.2279 -0.0365  0.4267
  436TMC3    C3 6550   4.104   4.594  15.687  0.3505  0.5528 -0.0252
  436TMC3    C4 6551   3.846   4.658  15.789  0.1570 -0.2609 -0.1494
  436TMC3    C5 6552   3.880   4.665  15.663 -0.6163 -0.6500 -0.5203
  436TMC3    C6 6553   4.000   4.632  15.607 -0.3287 -0.5657 -0.4489
  436TMC3     C 6554   3.953   4.669  16.010  0.2924 -0.1448  0.8546
  436TMC3     O 6555   4.062   4.683  16.060  0.4319 -0.4133 -0.3956
  436TMC3     H 6556   4.157   4.548  15.885  0.7989  0.5813  0.1690
  436TMC3    H1 6557   3.752   4.683  15.835  0.3450  2.5643 -1.2583
  436TMC3    H2 6558   4.008   4.619  15.499  2.5773 -0.1792 -0.2825
  436TMC3    C7 6559   3.762   4.676  15.580  0.7067  0.1723 -0.0034
  436TMC3    C8 6560   4.210   4.521  15.620 -0.2309  0.1103  0.1193
  436TMC3    O1 6561   3.654   4.698  15.635  0.2264 -0.2737  0.7981
  436TMC3    O2 6562   4.208   4.497  15.504  0.1215 -0.3259  0.5605
  437TMC3    C1 6563   2.960   2.316  12.273 -0.6177  0.2764  0.0722
  437TMC3    C2 6564   2.863   2.381  12.199 -0.2422 -0.5143  0.2972
  437TMC3    C3 6565   2.910   2.439  12.083  0.6487 -0.0397 -0.2751
  437TMC3    C4 6566   3.091   2.305  12.232 -0.2919 -0.6182  0.0168
  437TMC3    C5 6567   3.126   2.344  12.104  0.2480  0.0121 -0.0952
  437TMC3    C6 6568   3.034   2.420  12.031  0.8713  0.6694  0.2125
  437TMC3     C 6569   2.933   2.251  12.394  0.2143  0.1355  0.4836
  437TMC3     O 6570   3.027   2.191  12.440 -0.1396  0.1164 -0.0391
  437TMC3     H 6571   2.769   2.417  12.239  1.0832  2.5311  0.6534
  437TMC3    H1 6572   3.166   2.274  12.303  0.6110  1.1271 -0.1673
  437TMC3    H2 6573   3.062   2.451  11.931 -1.4797  0.4129 -0.5307
  437TMC3    C7 6574   3.261   2.389  12.093  0.2269 -0.1456 -0.2945
  437TMC3    C8 6575   2.815   2.525  12.014  0.4349  0.9363 -0.4188
  437TMC3    O1 6576   3.266   2.504  12.058 -0.1212 -0.3843 -0.1314
  437TMC3    O2 6577   2.706   2.528  12.066 -0.0104 -0.7944  0.6089
  438MPD2     C 6578   0.414   2.343  16.108 -0.0533 -0.3337  0.2557
  438MPD2    C1 6579   0.478   2.244  16.181 -0.3413 -0.0143 -0.1791
  438MPD2    C2 6580   0.406   2.172  16.277  0.2758  0.6159  0.5519
  438MPD2    C3 6581   0.277   2.194  16.313 -0.6833  0.0213 -0.2774
  438MPD2    C4 6582   0.219   2.292  16.240  0.3042  0.1030 -0.3851
  438MPD2    C5 6583   0.283   2.368  16.143 -0.6539 -0.0289 -0.8209
  438MPD2     H 6584   0.467   2.107  16.339 -0.1341  1.6770  2.0513
  438MPD2    H1 6585   0.118   2.321  16.267  0.4086  1.1203 -1.0922
  438MPD2    H2 6586   0.469   2.404  16.038 -1.3715 -1.2141 -1.5342
  438MPD2    H3 6587   0.228   2.459  16.118 -1.1364  0.8329  3.4253
  438MPD2     N 6588   0.196   2.113  16.394  0.0742 -0.8732 -0.4231
  438MPD2    H5 6589   0.097   2.134  16.395  0.2526 -0.0990  1.0380
  438MPD2    N1 6590   0.610   2.206  16.153  0.1384  0.3346 -0.6286
  438MPD2    H7 6591   0.641   2.130  16.212 -2.2915 -0.2644 -0.1409
  439TMC3    C1 6592   0.835   2.203  16.062  0.3672 -0.3327 -0.0810
  439TMC3    C2 6593   0.882   2.133  15.954  0.2519 -0.1646  0.0713
  439TMC3    C3 6594   0.983   2.044  15.982 -0.1549  0.3292 -0.0024
  439TMC3    C4 6595   0.887   2.203  16.184  0.7741 -0.0300 -0.2799
  439TMC3    C5 6596   0.992   2.115  16.196 -0.4320 -0.1795 -0.2726
  439TMC3    C6 6597   1.045   2.034  16.101  0.2745 -0.3364  0.0296
  439TMC3     C 6598   0.695   2.240  16.049 -0.3929  0.9677  0.1298
  439TMC3     O 6599   0.669   2.303  15.945  0.2604  0.1565 -0.7037
  439TMC3     H 6600   0.817   2.121  15.869 -1.7724  0.5020  1.5334
  439TMC3    H1 6601   0.858   2.272  16.262 -1.0702 -1.0107 -0.1244
  439TMC3    H2 6602   1.127   1.966  16.123  0.9590  0.7938  0.9711
  439TMC3    C7 6603   1.060   2.119  16.320 -0.0226  0.1692  0.2134
  439TMC3    C8 6604   1.072   2.012  15.872  0.6063 -0.0793 -0.8105
  439TMC3    O1 6605   1.175   2.081  16.329  0.0802  0.0462  0.0833
  439TMC3    O2 6606   1.158   1.927  15.893 -0.0452  0.3511 -0.2050
  440MPD2     C 6607   3.626   2.970  14.657 -0.3767 -0.1629 -0.0461
  440MPD2    C1 6608   3.652   2.894  14.774 -0.4194  0.7726 -0.0405
  440MPD2    C2 6609   3.658   2.755  14.768  0.2670 -0.2520  0.4190
  440MPD2    C3 6610   3.625   2.703  14.644  0.1457  0.1410  0.0647
  440MPD2    C4 6611   3.597   2.778  14.527  0.6967  0.0886 -0.3570
  440MPD2    C5 6612   3.603   2.913  14.533  0.6157  0.1454  0.0076
  440MPD2     H 6613   3.685   2.690  14.850 -0.9506  0.1811  1.1592
  440MPD2    H1 6614   3.570   2.728  14.434 -2.3087  0.9636  0.0458
  440MPD2    H2 6615   3.622   3.078  14.667 -3.2723 -0.3481  1.0345
  440MPD2    H3 6616   3.573   2.977  14.452  2.7824 -0.4935 -1.3178
  440MPD2     N 6617   3.612   2.566  14.625 -0.7539 -0.1071 -0.3530
  440MPD2    H5 6618   3.611   2.535  14.528  0.2622 -1.2699  0.0146
  440MPD2    N1 6619   3.687   2.946  14.903 -0.6694  0.2619 -0.5536
  440MPD2    H7 6620   3.714   2.878  14.973 -0.1055  1.0593 -0.0081
  441TMC3    C1 6621   3.627   2.342  14.671 -0.3813  0.1069 -0.1277
  441TMC3    C2 6622   3.709   2.351  14.564 -0.6186 -0.5593  0.3754
  441TMC3    C3 6623   3.841   2.309  14.580 -0.1668 -0.3685  0.1666
  441TMC3    C4 6624   3.665   2.268  14.778 -0.3979 -0.7523 -0.3324
  441TMC3    C5 6625   3.796   2.237  14.793  0.0320  0.5280  0.2933
  441TMC3    C6 6626   3.886   2.254  14.695  0.2066 -0.0987  0.1622
  441TMC3     C 6627   3.598   2.478  14.723 -0.0607 -0.2906 -0.2758
  441TMC3     O 6628   3.585   2.493  14.844  0.0789 -0.0472 -0.0636
  441TMC3     H 6629   3.677   2.394  14.469  1.2542 -0.8783 -0.4002
  441TMC3    H1 6630   3.598   2.252  14.862 -1.4336 -0.8302 -1.1780
  441TMC3    H2 6631   3.991   2.241  14.717  1.1898  1.0571 -3.7437
  441TMC3    C7 6632   3.836   2.211  14.929 -0.1564  0.2851  0.4654
  441TMC3    C8 6633   3.927   2.405  14.515  0.5972  0.4506  0.0470
  441TMC3    O1 6634   3.750   2.234  15.011 -0.4925 -0.0412 -0.2146
  441TMC3    O2 6635   3.895   2.426  14.396 -0.6552  0.3724 -0.8781
  442MPD2     C 6636   2.334   3.330  16.288  0.3313 -0.3238 -0.0508
  442MPD2    C1 6637   2.241   3.247  16.348  0.2009  0.3357 -0.3620
  442MPD2    C2 6638   2.238   3.111  16.302  0.6326  0.0180  0.3155
  442MPD2    C3 6639   2.325   3.062  16.203 -0.1865 -0.1255 -0.0535
  442MPD2    C4 6640   2.418   3.150  16.153  0.0930  0.7053  0.9183
  442MPD2    C5 6641   2.419   3.281  16.189  0.7182 -0.0980 -0.1335
  442MPD2     H 6642   2.152   3.052  16.332  0.8366 -0.7775 -0.6500
  442MPD2    H1 6643   2.490   3.130  16.075  1.6934 -0.5610  2.7360
  442MPD2    H2 6644   2.337   3.436  16.311 -1.1052 -0.7966  2.2608
  442MPD2    H3 6645   2.493   3.345  16.143 -0.1040  1.1213  0.2338
  442MPD2     N 6646   2.322   2.930  16.151 -0.2231 -0.0668  1.0293
  442MPD2    H5 6647   2.395   2.909  16.083 -1.9523  1.1569 -1.2343
  442MPD2    N1 6648   2.145   3.294  16.440 -0.8351 -0.9280 -0.3100
  442MPD2    H7 6649   2.098   3.217  16.486  1.0118 -1.1914  1.1586
  443TMC3    C1 6650   2.024   3.450  16.557 -0.0311  0.0125 -0.0193
  443TMC3    C2 6651   1.933   3.550  16.518  0.0892  0.2348 -0.4679
  443TMC3    C3 6652   1.808   3.537  16.561  0.6186  0.8349  0.9274
  443TMC3    C4 6653   1.979   3.345  16.645  0.5608  0.4743 -0.1109
  443TMC3    C5 6654   1.853   3.352  16.698 -0.8267 -0.0065 -0.3211
  443TMC3    C6 6655   1.764   3.442  16.650 -0.4672 -0.1054 -0.5027
  443TMC3     C 6656   2.135   3.426  16.470 -0.0119  0.0649 -0.1992
  443TMC3     O 6657   2.186   3.531  16.425 -0.9009  0.6634  0.2906
  443TMC3     H 6658   1.968   3.630  16.454 -0.6199 -1.0923 -2.5007
  443TMC3    H1 6659   2.042   3.264  16.679 -1.2334 -1.8330 -2.2354
  443TMC3    H2 6660   1.664   3.446  16.692  0.4705 -0.9952  1.8438
  443TMC3    C7 6661   1.804   3.264  16.803  0.5088 -0.1719 -0.0063
  443TMC3    C8 6662   1.719   3.633  16.508  0.0067  0.0164 -0.3491
  443TMC3    O1 6663   1.869   3.167  16.825  0.9177  0.2382 -0.3513
  443TMC3    O2 6664   1.643   3.679  16.589  0.0209 -0.0858 -0.3806
  444MPD2     C 6665   2.538   3.034  16.924  0.2888 -0.0604 -0.5570
  444MPD2    C1 6666   2.474   2.914  16.939  0.1923 -0.1492  0.1360
  444MPD2    C2 6667   2.523   2.804  16.871 -0.5950  0.4821  0.3700
  444MPD2    C3 6668   2.639   2.810  16.796 -0.2086 -0.2345 -0.3694
  444MPD2    C4 6669   2.705   2.931  16.780  0.4485 -0.6974  0.7002
  444MPD2    C5 6670   2.651   3.042  16.846 -0.2875 -0.4764  1.0384
  444MPD2     H 6671   2.485   2.705  16.891  0.4461 -0.0198 -0.0948
  444MPD2    H1 6672   2.800   2.948  16.731  0.1533  0.2539  0.4615
  444MPD2    H2 6673   2.527   3.117  16.993 -0.2420 -0.2962 -0.3574
  444MPD2    H3 6674   2.693   3.138  16.817 -0.5610 -1.5526 -2.9882
  444MPD2     N 6675   2.681   2.685  16.733  0.0098  0.0555  0.0910
  444MPD2    H5 6676   2.622   2.605  16.751 -0.7669  0.7019  0.3854
  444MPD2    N1 6677   2.356   2.899  17.013 -0.0220 -0.3478  0.2246
  444MPD2    H7 6678   2.315   2.806  17.010 -0.6794 -0.1141  1.9408
  445TMC3    C1 6679   2.813   2.545  16.590 -0.4241 -0.0902  0.8533
  445TMC3    C2 6680   2.706   2.477  16.537 -0.6154 -0.1737  0.7699
  445TMC3    C3 6681   2.722   2.346  16.499 -0.1375 -0.2281 -0.3436
  445TMC3    C4 6682   2.939   2.498  16.572 -0.5847 -0.1610  0.9877
  445TMC3    C5 6683   2.952   2.372  16.534 -0.1423  0.0037  0.1972
  445TMC3    C6 6684   2.847   2.293  16.489  0.4513  0.1825  0.5273
  445TMC3     C 6685   2.798   2.668  16.671 -0.0399 -0.8131 -0.7198
  445TMC3     O 6686   2.887   2.750  16.654  0.7698  0.2083  0.1880
  445TMC3     H 6687   2.610   2.528  16.531 -1.0374 -0.9464  0.8555
  445TMC3    H1 6688   3.024   2.558  16.602  0.2017 -0.5508 -0.5157
  445TMC3    H2 6689   2.859   2.191  16.453  0.2981  0.4091 -0.1542
  445TMC3    C7 6690   3.087   2.311  16.542  0.1963  0.0097  0.1780
  445TMC3    C8 6691   2.611   2.270  16.447 -0.3868 -0.4841 -0.0997
  445TMC3    O1 6692   3.173   2.385  16.590  0.3608 -0.9748  0.0120
  445TMC3    O2 6693   2.630   2.173  16.371 -0.2258  0.3467 -1.0410
  446MPD2     C 6694   1.682   4.096  11.755  0.7400 -0.1869 -0.0727
  446MPD2    C1 6695   1.703   4.050  11.628 -0.0045  0.1336  0.0685
  446MPD2    C2 6696   1.812   4.090  11.551  0.0053 -0.3655 -0.6666
  446MPD2    C3 6697   1.897   4.185  11.601  0.1743 -0.0392  0.2562
  446MPD2    C4 6698   1.888   4.222  11.736  0.4788 -0.0675 -0.0365
  446MPD2    C5 6699   1.778   4.183  11.804  0.7268  0.3582 -0.6133
  446MPD2     H 6700   1.823   4.052  11.451  1.8032 -0.4351 -0.4317
  446MPD2    H1 6701   1.954   4.291  11.786 -2.5070  3.8832 -1.5803
  446MPD2    H2 6702   1.603   4.066  11.822  0.6753 -1.0393 -0.5389
  446MPD2    H3 6703   1.772   4.225  11.904  1.2856 -1.3670  0.1499
  446MPD2     N 6704   2.005   4.234  11.515  0.3551  0.2442 -0.7208
  446MPD2    H5 6705   1.992   4.207  11.418  2.3307 -1.8830 -0.3853
  446MPD2    N1 6706   1.621   3.962  11.565  0.0334  1.0013 -0.3469
  446MPD2    H7 6707   1.643   3.948  11.467  0.9493  1.5773 -0.2207
  447TMC3    C1 6708   2.217   4.319  11.443  0.5985 -0.0716  0.0877
  447TMC3    C2 6709   2.210   4.394  11.328  0.1988  0.0155  0.8469
  447TMC3    C3 6710   2.327   4.416  11.255 -0.1148 -0.9292 -0.0836
  447TMC3    C4 6711   2.340   4.281  11.493 -1.0199  0.5187 -0.0751
  447TMC3    C5 6712   2.452   4.302  11.425  0.2128 -0.2701 -0.2001
  447TMC3    C6 6713   2.445   4.363  11.299 -0.2382 -0.2657 -0.1031
  447TMC3     C 6714   2.113   4.317  11.546  0.0499  0.0176 -0.3429
  447TMC3     O 6715   2.144   4.382  11.646  0.4948  0.8333 -0.1849
  447TMC3     H 6716   2.114   4.425  11.290  0.1169  0.1045  1.1230
  447TMC3    H1 6717   2.345   4.218  11.582  1.7128  4.0913  2.2679
  447TMC3    H2 6718   2.542   4.394  11.260 -0.2423  1.7463  1.4742
  447TMC3    C7 6719   2.586   4.255  11.467 -0.2582 -0.0889  0.4258
  447TMC3    C8 6720   2.307   4.478  11.124  0.2040  0.9653 -0.2884
  447TMC3    O1 6721   2.669   4.244  11.377  0.8055 -0.4580  0.2234
  447TMC3    O2 6722   2.195   4.508  11.083 -0.3092  0.3893 -0.0677
  448TMC3    C1 6723   0.502   3.742  17.417  0.4544  0.3638  0.0132
  448TMC3    C2 6724   0.523   3.687  17.295 -0.7768 -0.1839 -0.5396
  448TMC3    C3 6725   0.632   3.609  17.278 -0.0588  0.1937  0.6039
  448TMC3    C4 6726   0.585   3.714  17.521  0.4074 -0.7277 -0.0624
  448TMC3    C5 6727   0.693   3.626  17.498 -0.5079 -0.2465  0.6884
  448TMC3    C6 6728   0.725   3.578  17.375 -0.2686 -0.3159 -0.1898
  448TMC3     C 6729   0.394   3.837  17.429  0.2342 -0.8260 -0.7181
  448TMC3     O 6730   0.338   3.866  17.324  0.2040 -0.4955  0.5074
  448TMC3     H 6731   0.453   3.696  17.212 -1.6322  0.0392  0.2089
  448TMC3    H1 6732   0.572   3.755  17.620  0.6326  0.6742 -0.5997
  448TMC3    H2 6733   0.810   3.514  17.353 -0.1358  0.3142 -1.5278
  448TMC3    C7 6734   0.734   3.542  17.608  0.1130  0.4224 -0.2311
  448TMC3    C8 6735   0.647   3.523  17.159 -0.5706 -0.0106  0.1385
  448TMC3    O1 6736   0.696   3.579  17.715  0.3262 -0.2256  0.6260
  448TMC3    O2 6737   0.730   3.431  17.158 -0.7037 -0.0612  0.9542
  449MPD2     C 6738   1.955   1.917  13.620  0.3709 -0.6360  0.7796
  449MPD2    C1 6739   1.885   2.037  13.620  0.1235  0.4989 -0.1962
  449MPD2    C2 6740   1.777   2.047  13.708  0.0826  0.6186 -0.3870
  449MPD2    C3 6741   1.739   1.941  13.790 -0.1859 -0.0257  0.5663
  449MPD2    C4 6742   1.814   1.824  13.794 -0.4883 -0.4085 -0.0910
  449MPD2    C5 6743   1.928   1.824  13.715  0.2037  0.5138  0.0912
  449MPD2     H 6744   1.730   2.142  13.732  1.4555  0.7150  1.8579
  449MPD2    H1 6745   1.800   1.744  13.866  0.3180  0.4807  1.0698
  449MPD2    H2 6746   2.045   1.903  13.561 -2.0383 -0.7301 -2.8684
  449MPD2    H3 6747   1.992   1.736  13.717 -0.1345  0.2852  0.9718
  449MPD2     N 6748   1.612   1.961  13.852 -0.2488  0.2356  0.1465
  449MPD2    H5 6749   1.576   2.055  13.835 -0.7816  0.4255  2.3880
  449MPD2    N1 6750   1.924   2.150  13.542  0.3301  0.0470  0.7826
  449MPD2    H7 6751   1.868   2.234  13.543 -0.1824 -0.2903  0.2546
  450TMC3    C1 6752   2.049   2.304  13.427 -0.4399 -1.5879 -0.0731
  450TMC3    C2 6753   2.147   2.388  13.473 -0.2072 -0.1018  0.4398
  450TMC3    C3 6754   2.111   2.518  13.503  0.0770 -0.2412  0.0967
  450TMC3    C4 6755   1.924   2.354  13.400  0.3618  0.0127 -0.1221
  450TMC3    C5 6756   1.895   2.477  13.446 -0.1461  0.0321 -1.2421
  450TMC3    C6 6757   1.982   2.568  13.494  0.5526 -0.5282 -0.2402
  450TMC3     C 6758   2.047   2.174  13.481 -0.1762  0.1410 -0.4910
  450TMC3     O 6759   2.154   2.110  13.469  0.0483 -0.0345  0.4068
  450TMC3     H 6760   2.237   2.345  13.517  1.2454 -0.1214 -2.5798
  450TMC3    H1 6761   1.851   2.293  13.347  0.6487  0.4284 -1.0005
  450TMC3    H2 6762   1.955   2.668  13.526  1.7011 -0.3963  0.3302
  450TMC3    C7 6763   1.765   2.468  13.506  0.4338  0.0697  0.5437
  450TMC3    C8 6764   2.224   2.606  13.484 -0.3136 -0.5378 -0.4160
  450TMC3    O1 6765   1.716   2.355  13.509 -0.7330  0.5227  0.9991
  450TMC3    O2 6766   2.202   2.724  13.510 -0.3484 -0.0426  0.1527
  451MPD2     C 6767   2.685   0.364   0.987  0.4119  0.4193 -0.1220
  451MPD2    C1 6768   2.707   0.464   0.900 -0.4641  0.1600 -0.3427
  451MPD2    C2 6769   2.820   0.458   0.818  0.1593 -0.8068  0.2349
  451MPD2    C3 6770   2.903   0.348   0.829  0.2298  0.3649  0.4517
  451MPD2    C4 6771   2.873   0.240   0.913 -0.6240 -0.6082 -0.3166
  451MPD2    C5 6772   2.764   0.246   0.996  0.2223  0.3341  0.9647
  451MPD2     H 6773   2.855   0.544   0.763  1.9058 -2.5843 -1.4094
  451MPD2    H1 6774   2.945   0.160   0.926  0.7227  0.6807  0.0684
  451MPD2    H2 6775   2.601   0.373   1.055 -1.0426  1.4626 -2.0541
  451MPD2    H3 6776   2.740   0.174   1.074 -1.3302 -2.8467 -2.4248
  451MPD2     N 6777   3.028   0.324   0.757  0.3529  0.1143  0.2742
  451MPD2    H5 6778   3.072   0.236   0.783  1.6420 -0.3788 -3.5844
  451MPD2    N1 6779   2.618   0.565   0.898 -0.2454  0.1069 -0.2467
  451MPD2    H7 6780   2.552   0.569   0.975 -0.6729 -0.4108 -0.5928
  452TMC3    C1 6781   3.233   0.375   0.644  0.1827 -0.4377 -0.3085
  452TMC3    C2 6782   3.289   0.269   0.695  0.5639  0.6559 -0.5547
  452TMC3    C3 6783   3.400   0.219   0.627 -0.4534 -0.3120 -0.0668
  452TMC3    C4 6784   3.284   0.440   0.538  0.4560  0.0369 -0.0222
  452TMC3    C5 6785   3.395   0.391   0.479  0.7846 -0.5283 -0.4430
  452TMC3    C6 6786   3.458   0.273   0.517 -0.0184 -0.2321  0.7715
  452TMC3     C 6787   3.103   0.418   0.689 -0.5254  0.0661 -0.2294
  452TMC3     O 6788   3.075   0.537   0.674  0.3390 -0.7530 -0.0843
  452TMC3     H 6789   3.259   0.237   0.794  0.3692 -0.3270 -0.9235
  452TMC3    H1 6790   3.235   0.531   0.506  2.8562  0.8119 -1.4629
  452TMC3    H2 6791   3.556   0.238   0.488 -0.7130 -0.4061 -1.3732
  452TMC3    C7 6792   3.426   0.448   0.350  0.1190  0.1577 -0.2644
  452TMC3    C8 6793   3.479   0.121   0.695 -0.2090  0.4245  0.2126
  452TMC3    O1 6794   3.386   0.561   0.328 -0.3566  0.2268 -0.4057
  452TMC3    O2 6795   3.601   0.141   0.679  0.7644 -0.0989 -0.7182
  453TMC3    C1 6796   4.424   3.203  12.206 -0.1442 -0.1597 -0.3244
  453TMC3    C2 6797   4.394   3.082  12.147 -1.6290  0.4939  0.0717
  453TMC3    C3 6798   4.374   3.079  12.010 -0.6067  0.2504 -0.1420
  453TMC3    C4 6799   4.444   3.313  12.136 -0.8245 -0.4867 -0.5800
  453TMC3    C5 6800   4.404   3.314  12.008 -0.4222  0.0196 -0.3154
  453TMC3    C6 6801   4.372   3.198  11.941 -0.0529  0.4844 -0.4125
  453TMC3     C 6802   4.495   3.195  12.337 -0.4873 -0.2375 -0.0380
  453TMC3     O 6803   4.524   3.301  12.394 -0.2462 -0.3538 -0.4065
  453TMC3     H 6804   4.379   2.992  12.207  1.3549  0.1286  0.2710
  453TMC3    H1 6805   4.481   3.403  12.183  1.6036 -1.5192 -0.4889
  453TMC3    H2 6806   4.361   3.202  11.833 -1.7088  1.4618 -0.2005
  453TMC3    C7 6807   4.415   3.434  11.921 -0.1218  0.5455 -0.2703
  453TMC3    C8 6808   4.404   2.956  11.942 -0.3549 -0.0676 -0.3503
  453TMC3    O1 6809   4.417   3.408  11.801  0.0090 -0.5079 -0.5467
  453TMC3    O2 6810   4.465   2.963  11.836  0.2873 -0.7528 -0.0957
  454MPD2     C 6811   3.307   2.372  16.168  0.4109  0.0013 -0.3609
  454MPD2    C1 6812   3.262   2.416  16.046 -0.1613 -0.5257 -0.0733
  454MPD2    C2 6813   3.217   2.547  16.037 -0.2457 -0.6996 -0.3045
  454MPD2    C3 6814   3.202   2.630  16.148 -0.1061  0.2163 -0.0014
  454MPD2    C4 6815   3.256   2.585  16.264 -0.0971  0.0217 -0.6163
  454MPD2    C5 6816   3.303   2.460  16.268 -0.3106  0.3511 -0.1839
  454MPD2     H 6817   3.189   2.579  15.937  0.1648 -1.9292 -0.8055
  454MPD2    H1 6818   3.251   2.649  16.352 -0.7681  0.5123 -1.0083
  454MPD2    H2 6819   3.347   2.273  16.189 -2.1929 -0.8138  0.7351
  454MPD2    H3 6820   3.348   2.427  16.361 -1.0992  0.4225  0.2221
  454MPD2     N 6821   3.135   2.757  16.146  0.2526  0.1919 -0.4660
  454MPD2    H5 6822   3.100   2.785  16.238  2.7768  0.2928  0.4659
  454MPD2    N1 6823   3.241   2.326  15.941 -0.0307  0.0292  0.1194
  454MPD2    H7 6824   3.197   2.361  15.856 -2.6027 -1.6691  0.7560
  455TMC3    C1 6825   2.946   2.854  16.065  0.5004 -0.2184  1.0549
  455TMC3    C2 6826   2.916   2.955  16.144  0.6606  0.1498 -0.4773
  455TMC3    C3 6827   2.804   2.939  16.229 -0.5274 -1.3552 -0.5683
  455TMC3    C4 6828   2.873   2.741  16.069  0.5819  0.0717  0.7858
  455TMC3    C5 6829   2.774   2.723  16.159 -0.0430 -0.5225  0.3223
  455TMC3    C6 6830   2.725   2.828  16.232 -0.8466 -0.7331 -0.0354
  455TMC3     C 6831   3.086   2.822  16.036 -0.0254 -0.0472 -0.1378
  455TMC3     O 6832   3.116   2.788  15.922 -0.0004 -0.0850  0.1620
  455TMC3     H 6833   2.969   3.049  16.154 -0.0701  0.6109 -1.0038
  455TMC3    H1 6834   2.906   2.654  16.015 -0.8502 -1.0753  1.7739
  455TMC3    H2 6835   2.638   2.825  16.296  0.6718  0.6080  2.0511
  455TMC3    C7 6836   2.729   2.593  16.179 -0.2909 -0.5699 -0.1379
  455TMC3    C8 6837   2.780   3.036  16.329 -0.4804 -0.5772 -0.4976
  455TMC3    O1 6838   2.615   2.569  16.215  0.2947 -0.3014  0.5586
  455TMC3    O2 6839   2.743   2.996  16.438 -0.3162  0.1138 -0.4308
  456MPD2     C 6840   0.669   2.609  16.075  0.1812 -0.2052  0.6406
  456MPD2    C1 6841   0.788   2.568  16.130  0.1653  0.3183  0.0077
  456MPD2    C2 6842   0.809   2.593  16.258 -0.4575 -0.2450 -1.1319
  456MPD2    C3 6843   0.716   2.659  16.335  0.0961 -0.4586  1.0759
  456MPD2    C4 6844   0.595   2.681  16.286  0.4875 -0.1209  0.7167
  456MPD2    C5 6845   0.573   2.657  16.159  0.1706  0.6536  0.2510
  456MPD2     H 6846   0.904   2.563  16.302 -0.1311  2.2808 -0.1223
  456MPD2    H1 6847   0.517   2.733  16.340  0.9573 -1.4093  2.5983
  456MPD2    H2 6848   0.633   2.597  15.973 -0.8300 -0.3003  1.0081
  456MPD2    H3 6849   0.480   2.689  16.114 -0.5077 -0.9219  0.5673
  456MPD2     N 6850   0.770   2.695  16.464  0.1931  0.1706  0.0567
  456MPD2    H5 6851   0.863   2.668  16.493 -0.1583 -1.1917 -0.0908
  456MPD2    N1 6852   0.889   2.527  16.038  0.4157  0.1263 -0.0766
  456MPD2    H7 6853   0.864   2.517  15.940 -0.9662  1.8664  0.0981
  457TMC3    C1 6854   0.813   2.842  16.636 -0.6398 -0.6176 -0.8278
  457TMC3    C2 6855   0.808   2.977  16.650  0.5923 -0.0639 -0.6357
  457TMC3    C3 6856   0.893   3.039  16.735 -0.2021 -0.1470 -0.6763
  457TMC3    C4 6857   0.901   2.765  16.702  0.1307  0.0926  0.7448
  457TMC3    C5 6858   0.979   2.821  16.795 -0.0561 -0.5304  0.8362
  457TMC3    C6 6859   0.981   2.958  16.809  0.1339  0.0436 -0.6428
  457TMC3     C 6860   0.714   2.795  16.537  0.3278  0.1877 -0.6143
  457TMC3     O 6861   0.616   2.863  16.504  0.8177 -0.1041  0.5215
  457TMC3     H 6862   0.745   3.034  16.583  0.5704  1.9329  1.0813
  457TMC3    H1 6863   0.910   2.658  16.687 -0.3443 -0.1698  2.3428
  457TMC3    H2 6864   1.039   3.006  16.887  1.2131  0.5113 -1.7379
  457TMC3    C7 6865   1.018   2.727  16.901 -0.0901 -0.3100  0.0632
  457TMC3    C8 6866   0.852   3.170  16.790  0.0551 -0.4281  0.0458
  457TMC3    O1 6867   0.973   2.611  16.909  0.6695  0.5637 -0.2502
  457TMC3    O2 6868   0.917   3.216  16.882  0.1499 -0.3813 -0.6482
  458MPD2     C 6869   3.741   2.367  12.249  0.6734  0.2620  0.2215
  458MPD2    C1 6870   3.676   2.259  12.302 -0.2395  0.3932  0.3577
  458MPD2    C2 6871   3.553   2.225  12.239  0.2821 -0.3309  0.0911
  458MPD2    C3 6872   3.492   2.316  12.152 -0.6456  0.7032  0.0011
  458MPD2    C4 6873   3.549   2.428  12.107  0.4241  0.5007  0.7383
  458MPD2    C5 6874   3.679   2.453  12.154 -0.8881 -0.6674  0.3926
  458MPD2     H 6875   3.501   2.137  12.277 -1.0986  0.3688 -0.2022
  458MPD2    H1 6876   3.499   2.495  12.038 -0.9091 -0.2859  0.9496
  458MPD2    H2 6877   3.842   2.396  12.276  0.4238  0.3282  1.1078
  458MPD2    H3 6878   3.725   2.545  12.119  1.9014 -2.9588 -2.0634
  458MPD2     N 6879   3.356   2.296  12.124 -0.3490  0.5992  0.1314
  458MPD2    H5 6880   3.315   2.205  12.141  2.2349 -0.7257 -0.6728
  458MPD2    N1 6881   3.755   2.181  12.390 -0.4380  0.0821  0.2262
  458MPD2    H7 6882   3.848   2.219  12.404  0.3467 -1.6979 -0.1656
  459TMC3    C1 6883   3.824   1.997  12.509  0.2485  0.1069  0.4496
  459TMC3    C2 6884   3.948   2.035  12.491 -0.3747  0.2999 -0.5639
  459TMC3    C3 6885   4.041   1.969  12.564  0.2214  0.2054 -0.4122
  459TMC3    C4 6886   3.785   1.893  12.592  0.4814 -0.4837 -0.2651
  459TMC3    C5 6887   3.881   1.841  12.682  0.5354  1.2593  0.2025
  459TMC3    C6 6888   4.015   1.882  12.670  0.0548  0.4572 -0.6558
  459TMC3     C 6889   3.717   2.064  12.439 -0.5731 -0.7739 -1.1046
  459TMC3     O 6890   3.616   2.005  12.422  0.3264  0.0264  0.4453
  459TMC3     H 6891   3.978   2.099  12.410 -1.2929 -1.4903 -2.3099
  459TMC3    H1 6892   3.682   1.860  12.592  0.2366  0.3018 -0.3144
  459TMC3    H2 6893   4.087   1.832  12.734  1.8062 -0.1387 -3.1091
  459TMC3    C7 6894   3.852   1.722  12.764 -0.2510  0.9020 -0.0740
  459TMC3    C8 6895   4.180   2.001  12.536 -0.1417 -0.5190  0.6366
  459TMC3    O1 6896   3.942   1.658  12.811  0.2229 -0.3526  0.0829
  459TMC3    O2 6897   4.195   2.079  12.444 -0.0995 -0.5006  0.5036
  460MPD2     C 6898   2.551   4.573  10.873  0.0686 -0.4640 -0.7593
  460MPD2    C1 6899   2.426   4.541  10.916 -0.1283  0.3534 -0.2259
  460MPD2    C2 6900   2.322   4.550  10.825 -0.3546  0.2412 -0.1492
  460MPD2    C3 6901   2.340   4.596  10.703 -0.6575  0.3111 -0.1176
  460MPD2    C4 6902   2.466   4.640  10.667 -0.3837  0.0667  0.7851
  460MPD2    C5 6903   2.576   4.628  10.752 -0.8866  0.3064 -0.3710
  460MPD2     H 6904   2.220   4.526  10.854  0.0066 -0.0860  0.8462
  460MPD2    H1 6905   2.486   4.690  10.573 -3.5763  2.9504  1.6261
  460MPD2    H2 6906   2.631   4.579  10.946  0.8692 -0.6265 -1.6275
  460MPD2    H3 6907   2.673   4.670  10.726 -0.1154  1.0025  3.7354
  460MPD2     N 6908   2.236   4.609  10.611 -0.1035  0.9242 -0.3663
  460MPD2    H5 6909   2.145   4.581  10.648 -0.5679 -1.0280 -2.9724
  460MPD2    N1 6910   2.420   4.497  11.049  0.2593 -0.1530  0.4075
  460MPD2    H7 6911   2.503   4.489  11.107 -0.0882 -2.2009  0.6139
  461TMC3    C1 6912   2.102   4.666  10.421  0.0328  0.1141  0.3387
  461TMC3    C2 6913   2.046   4.548  10.402 -0.0911  0.2262  0.0218
  461TMC3    C3 6914   1.985   4.526  10.284 -0.5425  0.0631  0.2503
  461TMC3    C4 6915   2.083   0.039  10.339  0.5106  0.0942 -0.0617
  461TMC3    C5 6916   2.002   0.017  10.231 -0.9197  0.6889 -0.7254
  461TMC3    C6 6917   1.949   4.630  10.206  0.3443  0.2250 -0.6051
  461TMC3     C 6918   2.237   4.672  10.484  0.2160  1.0328  0.5245
  461TMC3     O 6919   2.322   4.733  10.424 -0.7190  0.0042 -0.0044
  461TMC3     H 6920   2.071   4.465  10.466 -1.0677 -0.1511 -0.0802
  461TMC3    H1 6921   2.140   0.131  10.342 -0.4647  0.6237  1.8896
  461TMC3    H2 6922   1.899   4.604  10.113  0.3910 -3.5420  0.4258
  461TMC3    C7 6923   1.988   0.107  10.112 -0.1179 -0.0974 -0.0957
  461TMC3    C8 6924   1.987   4.389  10.223  0.3483  0.2278  0.0259
  461TMC3    O1 6925   1.946   0.050  10.014  0.9772 -0.1552 -0.1852
  461TMC3    O2 6926   2.066   4.310  10.273 -0.3987  0.3423  0.3959
  462TMC3    C1 6927   2.645   1.058  17.690  0.3288  0.5275 -0.1416
  462TMC3    C2 6928   2.659   0.973  17.586  0.1166 -0.8045  0.4544
  462TMC3    C3 6929   2.692   0.841  17.601 -0.4646  0.0205  0.1570
  462TMC3    C4 6930   2.648   1.011   0.073  0.0319 -0.0313  0.0121
  462TMC3    C5 6931   2.677   0.878   0.088 -0.6386 -0.8063  0.5498
  462TMC3    C6 6932   2.711   0.791  17.729  0.1067 -0.7340  0.5795
  462TMC3     C 6933   2.692   1.189  17.668  0.4842  0.2321 -0.1381
  462TMC3     O 6934   2.673   1.235  17.554 -0.6008 -0.0793  0.1484
  462TMC3     H 6935   2.649   1.016  17.487  1.4812  0.6859  0.9629
  462TMC3    H1 6936   2.643   1.066   0.166  0.5421  0.9782 -0.5651
  462TMC3    H2 6937   2.713   0.684   0.005 -0.7929 -0.7458  0.6084
  462TMC3    C7 6938   2.595   0.809   0.190  0.3852  0.2830  0.5172
  462TMC3    C8 6939   2.649   0.748  17.495 -0.3596 -0.3457  0.3878
  462TMC3    O1 6940   2.639   0.701   0.228 -0.5562  0.0012 -0.0247
  462TMC3    O2 6941   2.575   0.800  17.414 -0.2749 -0.0492 -0.7936
  463MPD2     C 6942   3.545   3.180   1.622  0.7993 -0.0657 -0.2740
  463MPD2    C1 6943   3.443   3.270   1.631  0.1718 -0.4795 -0.0561
  463MPD2    C2 6944   3.469   3.405   1.617  0.1647  0.0781 -0.2050
  463MPD2    C3 6945   3.598   3.451   1.599 -0.4219 -0.2362 -0.0893
  463MPD2    C4 6946   3.697   3.362   1.589  0.7326 -0.1881  0.1283
  463MPD2    C5 6947   3.680   3.229   1.618  0.1216  0.0805 -0.5904
  463MPD2     H 6948   3.380   3.468   1.620 -1.1074 -1.7163 -0.8649
  463MPD2    H1 6949   3.800   3.390   1.568  1.1977 -0.9917  1.2811
  463MPD2    H2 6950   3.525   3.073   1.613 -0.7293  0.2051 -0.0927
  463MPD2    H3 6951   3.758   3.154   1.612 -1.0846 -1.2363  0.2826
  463MPD2     N 6952   3.633   3.591   1.574 -0.2016  0.2628  0.5183
  463MPD2    H5 6953   3.732   3.602   1.552 -0.9842  1.6607 -2.2767
  463MPD2    N1 6954   3.309   3.232   1.651  0.2994 -0.7409 -0.3373
  463MPD2    H7 6955   3.240   3.306   1.649  1.0263 -0.0629 -0.5034
  464TMC3    C1 6956   3.116   3.105   1.681  0.3108  0.7093  0.2767
  464TMC3    C2 6957   3.043   3.221   1.713  0.1696  0.1985  0.1439
  464TMC3    C3 6958   2.904   3.209   1.697 -0.0321 -0.0122  0.3976
  464TMC3    C4 6959   3.053   2.994   1.630  0.1303 -0.4508  0.1681
  464TMC3    C5 6960   2.915   2.994   1.615 -0.2881 -0.5401 -0.4728
  464TMC3    C6 6961   2.834   3.105   1.647 -0.5760 -0.0097  0.3011
  464TMC3     C 6962   3.259   3.107   1.663 -0.5698 -0.1618  0.1074
  464TMC3     O 6963   3.319   3.003   1.651 -0.1119 -0.6148 -0.3411
  464TMC3     H 6964   3.081   3.320   1.736  1.5761 -0.4565  0.6700
  464TMC3    H1 6965   3.115   2.913   1.593  0.4301 -1.6919  3.4129
  464TMC3    H2 6966   2.726   3.109   1.644 -0.5076  0.2784 -1.4584
  464TMC3    C7 6967   2.849   2.878   1.556  0.4992 -0.1904  0.6551
  464TMC3    C8 6968   2.833   3.334   1.710 -0.0294 -0.5473 -0.6342
  464TMC3    O1 6969   2.920   2.783   1.533  0.3264  0.2319 -0.3650
  464TMC3    O2 6970   2.889   3.445   1.693 -0.1513 -0.0228  1.0303
  465MPD2     C 6971   0.423   2.603  16.681 -0.0636 -0.0892 -0.2203
  465MPD2    C1 6972   0.351   2.717  16.719 -0.0275 -0.3014  0.9944
  465MPD2    C2 6973   0.215   2.722  16.686  0.0911 -0.4117 -0.2567
  465MPD2    C3 6974   0.153   2.621  16.616 -0.5327  0.3171 -0.1046
  465MPD2    C4 6975   0.226   2.505  16.580  0.0215  0.8178  0.1628
  465MPD2    C5 6976   0.360   2.506  16.605  0.1893  0.1181 -0.0344
  465MPD2     H 6977   0.147   2.797  16.724  0.3452  0.5494 -1.6749
  465MPD2    H1 6978   0.188   2.421  16.524  0.4212 -0.2294  1.4600
  465MPD2    H2 6979   0.531   2.590  16.682 -0.0910  0.0518  2.6493
  465MPD2    H3 6980   0.422   2.425  16.568  0.3080 -0.3645  1.2273
  465MPD2     N 6981   0.013   2.629  16.583 -0.7438 -0.5844  0.3955
  465MPD2    H5 6982   4.702   2.716  16.603 -1.5617 -1.1654  0.9834
  465MPD2    N1 6983   0.405   2.820  16.802 -0.8232  0.5899 -0.6657
  465MPD2    H7 6984   0.341   2.894  16.829 -1.1003  0.5559 -1.2400
  466TMC3    C1 6985   4.345   2.561  16.668 -0.2395 -0.2775 -0.1327
  466TMC3    C2 6986   4.305   2.688  16.627 -0.5021 -0.3404 -1.0314
  466TMC3    C3 6987   4.390   2.752  16.538 -0.0274  0.0416 -0.2181
  466TMC3    C4 6988   4.453   2.493  16.617 -0.5986 -0.2416 -0.9194
  466TMC3    C5 6989   4.524   2.561  16.532 -0.5813 -0.6274 -0.3377
  466TMC3    C6 6990   4.500   2.691  16.496 -0.0901  0.2907  0.0973
  466TMC3     C 6991   4.251   2.504  16.768 -0.3931 -0.9908 -0.1710
  466TMC3     O 6992   4.156   2.572  16.804 -0.7618 -0.5036 -0.0220
  466TMC3     H 6993   4.206   2.721  16.657 -0.3384  0.7774 -1.7312
  466TMC3    H1 6994   4.478   2.390  16.641  0.5479  0.4424  0.7973
  466TMC3    H2 6995   4.569   2.740  16.428 -0.0301  0.1980  0.0902
  466TMC3    C7 6996   4.663   2.527  16.539  0.4105  0.1907 -0.1802
  466TMC3    C8 6997   4.367   2.886  16.486  0.8319  0.3440 -0.0511
  466TMC3    O1 6998   4.680   2.404  16.523  0.5096  0.4458  0.5260
  466TMC3    O2 6999   4.448   2.912  16.399  1.0163 -0.0193  0.2101
  467TMC3    C1 7000   0.741   1.232  13.894 -0.3356 -0.1986 -0.2957
  467TMC3    C2 7001   0.686   1.349  13.852  0.0364  0.4779  0.9986
  467TMC3    C3 7002   0.550   1.363  13.867  0.0630  0.4338 -0.0962
  467TMC3    C4 7003   0.671   1.140  13.965 -0.6003  0.2348  0.4154
  467TMC3    C5 7004   0.539   1.158  13.973 -0.0408 -0.2322 -0.0996
  467TMC3    C6 7005   0.469   1.263  13.920 -0.0832 -0.3674 -0.6659
  467TMC3     C 7006   0.858   1.187  13.824 -0.4581 -0.7048  0.1753
  467TMC3     O 7007   0.897   1.249  13.725 -0.6532 -0.5361 -0.5097
  467TMC3     H 7008   0.744   1.421  13.795  0.5751 -0.7684 -0.0266
  467TMC3    H1 7009   0.710   1.046  14.002 -1.6241  0.7006  2.6737
  467TMC3    H2 7010   0.362   1.271  13.908  0.0436 -0.3227 -1.7939
  467TMC3    C7 7011   0.462   1.040  14.004  0.1060  0.0413  0.4424
  467TMC3    C8 7012   0.498   1.473  13.792 -0.0794  0.8194  0.0523
  467TMC3    O1 7013   0.508   0.929  13.992 -0.0326  0.2706  0.4085
  467TMC3    O2 7014   0.574   1.569  13.782 -0.1177  0.2031  0.9868
  468MPD2     C 7015   3.724   4.617  10.975 -0.5399 -0.0564 -0.3021
  468MPD2    C1 7016   3.856   4.611  11.024 -0.1459  0.3555 -0.3378
  468MPD2    C2 7017   3.921   4.491  11.044 -0.1029 -0.0165 -0.0356
  468MPD2    C3 7018   3.855   4.370  11.036 -1.3910  0.3679  0.9042
  468MPD2    C4 7019   3.723   4.381  11.001 -0.0480  0.0966 -0.1442
  468MPD2    C5 7020   3.671   4.502  10.947 -0.4791  0.2653  0.1538
  468MPD2     H 7021   4.018   4.490  11.093  0.3464  0.5956 -0.9325
  468MPD2    H1 7022   3.669   4.290  10.979 -2.1926  0.7915  2.3148
  468MPD2    H2 7023   3.670   4.707  10.947  0.1176  0.8422  1.3355
  468MPD2    H3 7024   3.574   4.494  10.898  0.6855 -1.7261 -1.8325
  468MPD2     N 7025   3.906   4.243  11.080  0.2205 -0.1220  0.5083
  468MPD2    H5 7026   3.838   4.170  11.059  0.5266  0.1339 -1.3649
  468MPD2    N1 7027   3.935   4.726  11.045 -0.6080  0.5370  0.5669
  468MPD2    H7 7028   4.032   4.704  11.069 -0.2961  1.1837 -0.1093
  469TMC3    C1 7029   3.990   0.194  11.130  0.3490 -0.5698  0.3340
  469TMC3    C2 7030   4.119   0.189  11.076 -0.0249  0.5390 -0.7271
  469TMC3    C3 7031   4.216   0.231  11.154  0.6051 -0.1838  0.0291
  469TMC3    C4 7032   3.969   0.267  11.245  0.8370  0.0960 -0.3301
  469TMC3    C5 7033   4.076   0.287  11.327  0.6063 -0.5484 -0.5081
  469TMC3    C6 7034   4.201   0.276  11.281 -0.3759  0.6483  0.2426
  469TMC3     C 7035   3.880   0.111  11.078 -0.2826  0.8147  0.3967
  469TMC3     O 7036   3.764   0.141  11.087 -0.2099 -0.2620 -0.4152
  469TMC3     H 7037   4.141   0.145  10.979 -1.4662 -0.0816 -0.7764
  469TMC3    H1 7038   3.864   0.278  11.271  1.5913 -0.3305  2.8666
  469TMC3    H2 7039   4.284   0.315  11.338 -0.6580 -1.9328  2.4289
  469TMC3    C7 7040   4.056   0.320  11.468 -0.0197  0.4116 -0.2993
  469TMC3    C8 7041   4.350   0.219  11.096 -0.7216  0.2150 -0.2518
  469TMC3    O1 7042   3.950   0.381  11.496  0.3141 -0.0614  0.3070
  469TMC3    O2 7043   4.355   0.224  10.973  0.1833 -0.0830 -0.2132
  470TMC3    C1 7044   1.379   0.768   0.102  0.8432  1.3811 -0.0193
  470TMC3    C2 7045   1.377   0.858   0.203  0.4547  0.4666  0.6882
  470TMC3    C3 7046   1.434   0.814   0.320  0.4525  0.1517  0.0889
  470TMC3    C4 7047   1.445   0.645   0.116 -0.1917 -0.5515  0.4714
  470TMC3    C5 7048   1.518   0.621   0.230 -0.5580 -0.9298 -0.0148
  470TMC3    C6 7049   1.504   0.700   0.340  0.3724 -0.0166  0.6261
  470TMC3     C 7050   1.269   0.786   0.012  0.1086  0.7937  0.5950
  470TMC3     O 7051   1.229   0.904   0.007  0.4467 -0.3983  0.0495
  470TMC3     H 7052   1.332   0.956   0.190 -0.3152  0.0060 -0.1642
  470TMC3    H1 7053   1.468   0.584   0.029  3.3997 -1.4384  2.0493
  470TMC3    H2 7054   1.569   0.689   0.426  3.4088  2.7896 -1.3238
  470TMC3    C7 7055   1.590   0.497   0.244 -0.1808 -0.1198  0.3575
  470TMC3    C8 7056   1.411   0.900   0.436  1.3871 -0.7584 -0.9607
  470TMC3    O1 7057   1.653   0.458   0.146 -0.4124  0.0550 -0.1421
  470TMC3    O2 7058   1.474   0.862   0.533 -0.0905  0.3709  0.1757
  471MPD2     C 7059   2.933   1.986  16.717  0.7938 -0.4241 -0.1159
  471MPD2    C1 7060   2.878   1.859  16.721  0.1892  0.0075  0.4410
  471MPD2    C2 7061   2.860   1.798  16.844 -0.2707 -0.5832 -0.1477
  471MPD2    C3 7062   2.903   1.868  16.957 -0.3553  0.6917  0.0019
  471MPD2    C4 7063   2.958   1.992  16.953 -0.3374 -0.0394 -0.2289
  471MPD2    C5 7064   2.972   2.054  16.835 -0.3447  0.3738  0.5647
  471MPD2     H 7065   2.813   1.700  16.846  1.0957 -1.2336  0.8979
  471MPD2    H1 7066   2.993   2.046  17.040 -1.8989 -1.6861  1.4091
  471MPD2    H2 7067   2.953   2.035  16.622 -1.1740  1.0632  0.2319
  471MPD2    H3 7068   3.016   2.153  16.830 -0.4338  0.4164  0.6469
  471MPD2     N 7069   2.888   1.809  17.085  0.3308 -0.4431 -0.0171
  471MPD2    H5 7070   2.933   1.861  17.160  1.5453 -0.4617 -0.7269
  471MPD2    N1 7071   2.827   1.796  16.597 -0.0658  0.5126 -0.0302
  471MPD2    H7 7072   2.767   1.714  16.606 -0.0068  0.3462 -1.1973
  472TMC3    C1 7073   2.749   1.776  16.371 -0.9066  0.1592  0.8206
  472TMC3    C2 7074   2.703   1.834  16.248 -0.3645  0.7590  0.3352
  472TMC3    C3 7075   2.673   1.747  16.145 -0.2765 -0.3988 -0.0048
  472TMC3    C4 7076   2.781   1.639  16.375 -0.4189  0.3633 -0.2775
  472TMC3    C5 7077   2.764   1.562  16.263 -0.9308 -0.3336 -0.2622
  472TMC3    C6 7078   2.719   1.615  16.145 -0.2846 -0.2404  0.5276
  472TMC3     C 7079   2.824   1.858  16.466  0.6831  0.3594 -0.5435
  472TMC3     O 7080   2.884   1.957  16.430 -0.7135 -0.6482  0.5040
  472TMC3     H 7081   2.661   1.934  16.256 -2.5044  0.0097 -1.4406
  472TMC3    H1 7082   2.821   1.592  16.464  1.2116  0.3951 -0.9981
  472TMC3    H2 7083   2.705   1.553  16.057 -2.6183  3.2913 -1.5927
  472TMC3    C7 7084   2.715   1.430  16.311  0.6067  0.2106 -0.7976
  472TMC3    C8 7085   2.534   1.749  16.105 -0.3503  1.5770 -0.5027
  472TMC3    O1 7086   2.750   1.392  16.421 -0.2830  0.1452  0.6172
  472TMC3    O2 7087   2.462   1.796  16.193 -0.7102  0.0995 -0.3377
  473MPD2     C 7088   1.515   3.848  14.329 -0.5717 -0.3599 -0.7476
  473MPD2    C1 7089   1.594   3.876  14.218  0.4506 -0.2368  0.4688
  473MPD2    C2 7090   1.726   3.924  14.232  0.8366  0.7750 -0.2867
  473MPD2    C3 7091   1.778   3.937  14.356 -0.2226  0.2368 -0.2852
  473MPD2    C4 7092   1.699   3.904  14.468 -0.0956  0.5380 -0.4097
  473MPD2    C5 7093   1.571   3.861  14.456 -0.4548 -0.3281 -0.4806
  473MPD2     H 7094   1.783   3.941  14.141  1.2092  1.7774  0.1294
  473MPD2    H1 7095   1.740   3.916  14.568  0.9144  1.6819 -0.9649
  473MPD2    H2 7096   1.416   3.808  14.313 -0.2399 -0.2056 -3.1705
  473MPD2    H3 7097   1.508   3.848  14.544 -0.0883  1.9395  0.1133
  473MPD2     N 7098   1.907   3.991  14.389  0.3852  0.5455  0.8663
  473MPD2    H5 7099   1.939   3.956  14.479 -0.3775  0.5889  1.1535
  473MPD2    N1 7100   1.558   3.846  14.083  0.0136  0.7512  0.3343
  473MPD2    H7 7101   1.634   3.863  14.017 -0.3061 -0.7753 -0.4264
  474TMC3    C1 7102   2.130   4.068  14.323  0.0755  0.6783 -0.7049
  474TMC3    C2 7103   2.204   4.151  14.236 -0.5316 -0.1310 -0.0809
  474TMC3    C3 7104   2.339   4.147  14.251  0.0703 -1.2537 -0.0795
  474TMC3    C4 7105   2.188   3.982  14.411  0.1386 -0.0513 -0.0912
  474TMC3    C5 7106   2.319   3.982  14.416  0.1441 -0.2782 -0.0618
  474TMC3    C6 7107   2.396   4.049  14.327 -0.1168  0.0304 -0.1466
  474TMC3     C 7108   1.985   4.058  14.299 -0.4250  0.1405  0.0293
  474TMC3     O 7109   1.947   4.106  14.191 -0.1931 -0.0110 -0.0391
  474TMC3     H 7110   2.164   4.211  14.155  1.1060 -0.3250 -1.0164
  474TMC3    H1 7111   2.127   3.929  14.483  0.7032 -0.1344  0.3301
  474TMC3    H2 7112   2.504   4.040  14.328 -0.3273 -2.6059 -2.5730
  474TMC3    C7 7113   2.371   3.904  14.522  0.2814 -0.4786 -0.6543
  474TMC3    C8 7114   2.414   4.198  14.140  0.1844 -0.0225  0.1952
  474TMC3    O1 7115   2.325   3.793  14.552  0.3938 -0.1171  0.1824
  474TMC3    O2 7116   2.471   4.120  14.069  0.1339 -0.7002  0.1552
  475MPD2     C 7117   0.261   1.901  11.155  0.5957 -0.5023 -0.2600
  475MPD2    C1 7118   0.312   1.979  11.056 -0.4969 -0.5677  0.1042
  475MPD2    C2 7119   0.234   2.072  10.992 -0.4250  0.3374  0.0956
  475MPD2    C3 7120   0.100   2.084  11.016 -0.3409 -0.1384  0.6252
  475MPD2    C4 7121   0.050   1.999  11.116 -0.9369 -0.1726  0.5123
  475MPD2    C5 7122   0.132   1.909  11.188  0.5624  0.0744 -0.0630
  475MPD2     H 7123   0.281   2.134  10.916 -1.5679  1.9079  0.6730
  475MPD2    H1 7124   4.680   1.985  11.134 -0.3325 -2.3522  2.5702
  475MPD2    H2 7125   0.323   1.828  11.205 -0.7886 -1.0875  0.6113
  475MPD2    H3 7126   0.081   1.853  11.265 -1.3434  2.3971  0.3864
  475MPD2     N 7127   0.017   2.179  10.950 -0.2941 -0.0072 -0.1227
  475MPD2    H5 7128   0.056   2.236  10.875 -0.6107  1.6411  0.9614
  475MPD2    N1 7129   0.454   1.971  11.028 -0.2050 -0.7425 -0.0904
  475MPD2    H7 7130   0.506   1.917  11.096 -0.9286  0.5159  1.4723
  476TMC3    C1 7131   0.660   2.022  10.910 -0.5016  0.1656  0.5510
  476TMC3    C2 7132   0.699   2.074  10.791  0.9338 -0.4967 -0.4373
  476TMC3    C3 7133   0.780   2.188  10.791  0.1485  0.1274 -0.1285
  476TMC3    C4 7134   0.707   2.072  11.027 -0.8468 -0.1038 -0.2836
  476TMC3    C5 7135   0.789   2.178  11.018  0.2592 -0.0625 -0.8347
  476TMC3    C6 7136   0.825   2.247  10.906  0.1019  0.0936  0.0461
  476TMC3     C 7137   0.514   2.002  10.904 -0.8340 -0.2928 -0.3181
  476TMC3     O 7138   0.458   2.041  10.806 -0.2509 -0.0187 -0.2070
  476TMC3     H 7139   0.663   2.026  10.701  0.0689 -0.8584  0.0944
  476TMC3    H1 7140   0.678   2.035  11.125  1.3403 -0.3590  0.2822
  476TMC3    H2 7141   0.868   2.347  10.910 -1.4823  0.6248  3.6205
  476TMC3    C7 7142   0.812   2.240  11.150  1.0635 -0.1564 -0.2245
  476TMC3    C8 7143   0.764   2.278  10.684 -0.3728  1.0220 -0.2128
  476TMC3    O1 7144   0.827   2.150  11.236  0.0688  0.3883  0.1325
  476TMC3    O2 7145   0.771   2.397  10.704  0.3159 -0.1239 -0.6776
  477MPD2     C 7146   2.679   3.908  12.170  0.6110 -0.2930  0.2350
  477MPD2    C1 7147   2.626   3.801  12.110 -0.2783 -0.2764  0.1407
  477MPD2    C2 7148   2.652   3.675  12.157  0.5259 -0.2124 -0.2431
  477MPD2    C3 7149   2.744   3.657  12.261 -0.9290  0.1962  0.4399
  477MPD2    C4 7150   2.796   3.771  12.317  0.3106  0.4035 -0.2857
  477MPD2    C5 7151   2.756   3.894  12.274 -0.4622  0.2638 -0.0417
  477MPD2     H 7152   2.607   3.582  12.125  1.5357  0.3718 -3.2786
  477MPD2    H1 7153   2.837   3.768  12.417  0.5446 -1.3835 -0.4325
  477MPD2    H2 7154   2.655   4.005  12.129  1.2693 -0.1865  0.1164
  477MPD2    H3 7155   2.793   3.977  12.334  1.6798 -0.4144 -0.4172
  477MPD2     N 7156   2.763   3.528  12.302  0.3411 -0.3522 -0.4925
  477MPD2    H5 7157   2.710   3.460  12.248  1.4127  0.6759 -2.8530
  477MPD2    N1 7158   2.524   3.836  12.021 -0.3253 -0.2301  0.4288
  477MPD2    H7 7159   2.492   3.932  12.010 -0.2190 -0.4526 -1.8493
  478TMC3    C1 7160   2.357   3.781  11.862  0.6021 -0.3025  0.6915
  478TMC3    C2 7161   2.258   3.862  11.916  0.3702  0.4402  0.1346
  478TMC3    C3 7162   2.163   3.906  11.829 -0.0083 -0.5490 -0.1363
  478TMC3    C4 7163   2.360   3.750  11.732  0.2423 -0.2681 -0.0078
  478TMC3    C5 7164   2.273   3.815  11.651  0.2067  0.5160 -0.1444
  478TMC3    C6 7165   2.168   3.890  11.693 -0.2284  0.7445 -0.5382
  478TMC3     C 7166   2.466   3.730  11.947  0.3241  0.6613  0.4320
  478TMC3     O 7167   2.508   3.617  11.924  0.5679  0.1622  0.2019
  478TMC3     H 7168   2.247   3.883  12.022 -1.4575 -1.3549  0.2957
  478TMC3    H1 7169   2.448   3.706  11.686  0.4312 -1.2606  1.3360
  478TMC3    H2 7170   2.078   3.912  11.637 -0.0439 -0.6253 -1.3811
  478TMC3    C7 7171   2.295   3.795  11.513  0.1083  0.6433 -0.0341
  478TMC3    C8 7172   2.129   4.036  11.885 -0.1412  0.1689  0.0199
  478TMC3    O1 7173   2.388   3.730  11.469 -0.0923 -0.6525 -0.2913
  478TMC3    O2 7174   2.161   4.128  11.814  0.3054  0.0174  0.3431
  479MPD2     C 7175   1.711   0.369  15.085  0.3706  0.0061  0.1820
  479MPD2    C1 7176   1.629   0.439  15.171  0.5465 -0.1619 -0.3296
  479MPD2    C2 7177   1.667   0.560  15.226  0.0493  0.1950  0.2010
  479MPD2    C3 7178   1.776   0.625  15.169 -0.2279 -1.2518  0.5028
  479MPD2    C4 7179   1.858   0.564  15.079 -0.0652  0.0689 -0.0094
  479MPD2    C5 7180   1.826   0.434  15.044  0.1252 -0.3222 -0.3899
  479MPD2     H 7181   1.607   0.618  15.296 -0.1233 -1.1661  1.1755
  479MPD2    H1 7182   1.953   0.611  15.056 -0.0540 -1.4040 -2.9438
  479MPD2    H2 7183   1.690   0.271  15.044  0.5031 -0.3441  0.9658
  479MPD2    H3 7184   1.892   0.373  14.983  0.9085  0.7757 -0.6474
  479MPD2     N 7185   1.817   0.753  15.219 -0.1419  0.5199  0.4822
  479MPD2    H5 7186   1.908   0.783  15.186 -0.2629 -0.3712 -0.6322
  479MPD2    N1 7187   1.514   0.367  15.211  0.3659  0.0790 -0.2484
  479MPD2    H7 7188   1.501   0.273  15.175  1.6713 -0.7271  1.3781
  480TMC3    C1 7189   2.016   0.947  15.553 -0.1494  0.6764 -0.1510
  480TMC3    C2 7190   2.110   1.012  15.480  0.5476  0.1132 -0.0527
  480TMC3    C3 7191   2.080   1.028  15.345 -0.4629  0.4398 -0.5545
  480TMC3    C4 7192   1.898   0.919  15.512 -0.1281 -0.3192  0.0798
  480TMC3    C5 7193   1.871   0.925  15.377 -0.5844  0.1113  0.1183
  480TMC3    C6 7194   1.967   0.975  15.293 -0.4311 -0.2534  0.4670
  480TMC3     C 7195   2.043   0.926  15.696 -0.8340  0.0712 -0.1107
  480TMC3     O 7196   2.100   1.019  15.751 -0.2606 -0.2437 -0.2242
  480TMC3     H 7197   2.200   1.049  15.528 -0.8393 -1.3958  3.6351
  480TMC3    H1 7198   1.823   0.878  15.579 -0.9832  0.2507 -0.5369
  480TMC3    H2 7199   1.938   0.985  15.189  0.1480  2.0698  0.5302
  480TMC3    C7 7200   1.773   0.833  15.324 -0.3653 -0.1837  0.6566
  480TMC3    C8 7201   2.154   1.119  15.261 -0.0348  0.4818 -0.1403
  480TMC3    O1 7202   1.680   0.805  15.398  0.3071 -0.6826 -0.3431
  480TMC3    O2 7203   2.216   1.196  15.333 -0.2791  0.1487  0.2367
  481MPD2     C 7204   3.768   0.394  14.412 -0.4243 -0.0083  0.4955
  481MPD2    C1 7205   3.643   0.448  14.442 -0.2464  0.3835  0.7809
  481MPD2    C2 7206   3.578   0.434  14.561 -0.1125 -0.7103  0.2422
  481MPD2    C3 7207   3.649   0.372  14.661  0.2302  0.3999  0.1065
  481MPD2    C4 7208   3.769   0.308  14.625 -0.0229 -0.1162  0.2259
  481MPD2    C5 7209   3.823   0.321  14.501 -0.7661  0.4841  0.5839
  481MPD2     H 7210   3.482   0.482  14.576 -0.4266 -2.3870  3.6275
  481MPD2    H1 7211   3.816   0.246  14.700  0.0892 -0.7500 -0.3627
  481MPD2    H2 7212   3.817   0.386  14.316 -1.2195  0.1222  0.0765
  481MPD2    H3 7213   3.916   0.268  14.481 -0.6551  0.7343  0.4379
  481MPD2     N 7214   3.602   0.359  14.796 -0.2114  0.0363  0.4312
  481MPD2    H5 7215   3.656   0.301  14.860 -1.5839 -0.4147  1.1747
  481MPD2    N1 7216   3.583   0.520  14.337 -0.1017 -0.2964  0.0974
  481MPD2    H7 7217   3.633   0.525  14.249 -2.4014 -0.1799 -1.2029
  482TMC3    C1 7218   3.414   0.606  14.210  0.3615  1.0450  0.0873
  482TMC3    C2 7219   3.282   0.572  14.182 -0.4477 -0.4749  0.4252
  482TMC3    C3 7220   3.256   0.560  14.049 -0.7322 -0.0822 -0.0584
  482TMC3    C4 7221   3.514   0.625  14.120 -0.0808 -0.3929  1.3366
  482TMC3    C5 7222   3.474   0.618  13.989 -0.4270 -0.7024 -0.8403
  482TMC3    C6 7223   3.348   0.583  13.951 -0.1817  0.0605  0.4728
  482TMC3     C 7224   3.454   0.546  14.330 -0.2706  0.7194  0.0170
  482TMC3     O 7225   3.362   0.502  14.396 -0.2612 -0.1036  0.1148
  482TMC3     H 7226   3.197   0.546  14.243 -1.1018  3.4875  1.1886
  482TMC3    H1 7227   3.619   0.640  14.140 -0.0897 -0.4518  1.4266
  482TMC3    H2 7228   3.314   0.560  13.851  2.4380  2.1101 -0.9001
  482TMC3    C7 7229   3.580   0.574  13.896  0.2425  0.3945 -0.0822
  482TMC3    C8 7230   3.157   0.461  14.018 -0.4067  0.2335 -0.0072
  482TMC3    O1 7231   3.681   0.522  13.946  0.7506  0.0057  0.2375
  482TMC3    O2 7232   3.147   0.369  14.099  0.4142 -0.0930  0.1425
  483TMC3    C1 7233   2.250   3.815   0.399  0.5857 -0.1999  0.2390
  483TMC3    C2 7234   2.341   3.911   0.423  0.1852 -0.4368  0.0979
  483TMC3    C3 7235   2.365   3.944   0.554 -0.3240  0.4035  0.7379
  483TMC3    C4 7236   2.210   3.728   0.497  0.0745  0.6832 -0.5664
  483TMC3    C5 7237   2.243   3.747   0.628  0.2171  0.1257  0.2181
  483TMC3    C6 7238   2.312   3.867   0.659 -0.3945 -0.0687  0.3077
  483TMC3     C 7239   2.213   3.791   0.266 -0.1095  0.2898 -0.0617
  483TMC3     O 7240   2.268   3.851   0.174 -0.1928 -0.1508 -0.1306
  483TMC3     H 7241   2.379   3.960   0.334  0.4164  0.0315  0.4541
  483TMC3    H1 7242   2.153   3.639   0.472  0.5881  0.5904 -1.4083
  483TMC3    H2 7243   2.331   3.896   0.762  0.1790 -0.5801  0.3485
  483TMC3    C7 7244   2.174   3.678   0.733  0.1155  0.3384  0.3719
  483TMC3    C8 7245   2.404   4.080   0.570  0.5471 -0.0712 -0.0810
  483TMC3    O1 7246   2.066   3.632   0.704  0.0694  0.6406 -0.2056
  483TMC3    O2 7247   2.425   4.145   0.471  0.4273 -0.3511 -0.0543
  484MPD2     C 7248   4.475   1.912  12.736 -0.5279  0.4091  0.5675
  484MPD2    C1 7249   4.410   1.982  12.638 -0.1253 -0.1449  0.1216
  484MPD2    C2 7250   4.486   2.046  12.544 -0.6217 -0.3433 -0.4946
  484MPD2    C3 7251   4.630   2.061  12.552 -0.3347  0.3754  0.0594
  484MPD2    C4 7252   4.687   1.983  12.647  0.2307 -0.3176  0.7729
  484MPD2    C5 7253   4.609   1.913  12.735  0.4135  0.2261 -0.2981
  484MPD2     H 7254   4.428   2.099  12.469 -0.8332 -2.1599 -1.5941
  484MPD2    H1 7255   0.059   1.977  12.649  0.2943  0.5592 -0.2400
  484MPD2    H2 7256   4.418   1.841  12.794 -1.1597 -0.2799 -0.9043
  484MPD2    H3 7257   4.654   1.846  12.807 -0.8137  1.7750  1.9099
  484MPD2     N 7258   4.714   2.142  12.470  0.5435 -0.2869  0.4891
  484MPD2    H5 7259   0.074   2.132  12.502  1.1745  0.9022 -1.0535
  484MPD2    N1 7260   4.272   1.963  12.634  0.1707  0.0439 -0.2432
  484MPD2    H7 7261   4.227   1.927  12.717  0.8387 -0.8826 -0.2734
  485TMC3    C1 7262   0.041   2.287  12.303  0.0695 -0.4555  0.0052
  485TMC3    C2 7263   0.154   2.317  12.381  0.6479 -0.5894 -0.0755
  485TMC3    C3 7264   0.248   2.386  12.314  0.8727  0.2703 -0.3335
  485TMC3    C4 7265   0.025   2.322  12.174  1.1443  0.1336 -0.2446
  485TMC3    C5 7266   0.113   2.408  12.118 -0.8341  0.4288 -0.3787
  485TMC3    C6 7267   0.220   2.449  12.195  0.5491 -1.1883 -0.4313
  485TMC3     C 7268   4.673   2.216  12.365 -0.0113 -0.3399 -0.3233
  485TMC3     O 7269   4.557   2.225  12.323 -0.0790 -0.5414 -0.3147
  485TMC3     H 7270   0.178   2.267  12.474  2.5057 -0.1836 -0.3416
  485TMC3    H1 7271   4.690   2.270  12.111 -0.9340  0.6024  1.6946
  485TMC3    H2 7272   0.277   2.535  12.160  0.0454 -1.7457 -2.6164
  485TMC3    C7 7273   0.151   2.390  11.981 -0.8073 -0.2818 -0.1931
  485TMC3    C8 7274   0.386   2.326  12.319 -0.4632 -0.1593  0.1877
  485TMC3    O1 7275   0.065   2.352  11.903  0.2140  0.0196 -0.3478
  485TMC3    O2 7276   0.431   2.315  12.207  0.2598 -0.4889  0.2765
  486MPD2     C 7277   1.627   0.949  12.297 -0.5190  0.6039  0.2764
  486MPD2    C1 7278   1.581   0.999  12.423  0.6385 -0.5728 -0.0552
  486MPD2    C2 7279   1.540   1.131  12.427 -0.8442 -0.4767 -0.1869
  486MPD2    C3 7280   1.527   1.209  12.310 -0.3914  0.0998  0.8425
  486MPD2    C4 7281   1.560   1.151  12.191  0.3943 -0.0949 -0.1950
  486MPD2    C5 7282   1.620   1.025  12.183 -0.5819 -0.2041 -0.1266
  486MPD2     H 7283   1.509   1.182  12.517  0.0957 -1.1178  0.4864
  486MPD2    H1 7284   1.541   1.194  12.093  0.1589 -0.1905 -0.1900
  486MPD2    H2 7285   1.681   0.855  12.287 -1.5073  0.0186  0.4456
  486MPD2    H3 7286   1.660   0.981  12.092 -1.1022 -0.2902 -0.3106
  486MPD2     N 7287   1.465   1.340  12.300  0.0626  0.1727  0.5289
  486MPD2    H5 7288   1.452   1.384  12.210  3.1635  0.8551  0.3925
  486MPD2    N1 7289   1.587   0.918  12.536 -0.5054 -0.2785 -0.0058
  486MPD2    H7 7290   1.645   0.835  12.530 -1.0688 -0.4688 -2.8015
  487TMC3    C1 7291   1.550   0.860  12.757 -0.0676  0.4801  0.1794
  487TMC3    C2 7292   1.596   0.734  12.736 -0.1274 -0.4299 -0.1214
  487TMC3    C3 7293   1.625   0.652  12.843 -0.3494 -0.0269 -0.0166
  487TMC3    C4 7294   1.501   0.899  12.873  0.1585 -0.1670  0.1480
  487TMC3    C5 7295   1.538   0.821  12.981 -0.1771  0.4340 -0.3597
  487TMC3    C6 7296   1.614   0.710  12.970  0.4813  0.2022 -0.5431
  487TMC3     C 7297   1.513   0.938  12.650 -0.7173 -0.0090  0.1261
  487TMC3     O 7298   1.422   1.016  12.662  0.1953 -0.2709  0.2957
  487TMC3     H 7299   1.587   0.680  12.642 -0.1796  1.7241 -1.3371
  487TMC3    H1 7300   1.463   1.000  12.884  0.7604  0.1401 -0.5915
  487TMC3    H2 7301   1.625   0.639  13.051  0.8011  0.9512  0.0721
  487TMC3    C7 7302   1.438   0.796  13.080 -0.5255  0.5142 -0.2623
  487TMC3    C8 7303   1.578   0.520  12.831 -0.7717  0.6719 -0.3989
  487TMC3    O1 7304   1.420   0.684  13.117  0.2418 -0.0107  0.1383
  487TMC3    O2 7305   1.600   0.469  12.720 -0.2840  0.7217  0.0311
  488MPD2     C 7306   1.541   2.591  16.164 -0.1494 -0.4266 -0.3229
  488MPD2    C1 7307   1.637   2.646  16.245  0.2348  0.8862 -0.4620
  488MPD2    C2 7308   1.623   2.637  16.384  0.2358 -0.0100 -0.1395
  488MPD2    C3 7309   1.517   2.578  16.447  0.0661  0.4968 -0.0064
  488MPD2    C4 7310   1.419   2.516  16.371 -0.2737 -0.1428  0.9787
  488MPD2    C5 7311   1.433   2.525  16.231 -0.2805  0.4117 -0.3862
  488MPD2     H 7312   1.693   2.688  16.449 -0.3993 -1.8640  2.0002
  488MPD2    H1 7313   1.333   2.456  16.400 -1.0707  0.3515 -0.3373
  488MPD2    H2 7314   1.542   2.590  16.056  0.1155 -1.5863 -0.3140
  488MPD2    H3 7315   1.354   2.482  16.170 -1.3535  1.1108  0.5070
  488MPD2     N 7316   1.514   2.578  16.587  0.1269  0.0877 -0.3249
  488MPD2    H5 7317   1.596   2.618  16.631  0.6116 -1.4832  0.1940
  488MPD2    N1 7318   1.734   2.737  16.195  0.5057 -0.3588  0.2997
  488MPD2    H7 7319   1.797   2.781  16.261 -0.0225  0.2455  0.3971
  489TMC3    C1 7320   1.436   2.567  16.804 -0.4533 -0.2601 -0.0594
  489TMC3    C2 7321   1.497   2.684  16.836  0.0777  0.6519 -0.7512
  489TMC3    C3 7322   1.530   2.697  16.968  0.2905  0.6627 -0.2796
  489TMC3    C4 7323   1.381   2.485  16.900  0.8439 -0.0178  0.6677
  489TMC3    C5 7324   1.418   2.501  17.033  0.5214  0.0903 -1.0218
  489TMC3    C6 7325   1.498   2.609  17.069  0.7060  0.3091  0.0414
  489TMC3     C 7326   1.409   2.539  16.662 -0.3012  0.4493  0.1073
  489TMC3     O 7327   1.297   2.500  16.629  0.2466  0.5372  0.0698
  489TMC3     H 7328   1.547   2.747  16.764  0.4740 -0.0797 -1.1106
  489TMC3    H1 7329   1.330   2.397  16.862 -0.0835  0.4202  0.9051
  489TMC3    H2 7330   1.538   2.610  17.170 -0.7765  1.1972  0.6159
  489TMC3    C7 7331   1.382   2.392  17.119 -0.8990 -0.4413  0.1068
  489TMC3    C8 7332   1.613   2.812  16.997 -0.3176 -0.5345  0.3751
  489TMC3    O1 7333   1.308   2.316  17.064 -0.0371 -0.8819  0.3563
  489TMC3    O2 7334   1.714   2.824  16.931  0.7184 -0.1496 -0.0039
  490MPD2     C 7335   2.636   2.162  16.947  0.4750 -0.2276  0.4644
  490MPD2    C1 7336   2.622   2.139  17.081 -0.3437  0.2232  0.3939
  490MPD2    C2 7337   2.688   2.217  17.172 -0.6013  0.5640 -0.1560
  490MPD2    C3 7338   2.765   2.322  17.135 -0.7439 -0.5122  0.0321
  490MPD2    C4 7339   2.785   2.343  16.995  0.4685 -0.5829 -0.4469
  490MPD2    C5 7340   2.721   2.259  16.907 -1.2008  0.0054  0.1610
  490MPD2     H 7341   2.681   2.197  17.279  0.0394  0.1764 -0.1889
  490MPD2    H1 7342   2.848   2.427  16.968 -0.7323 -0.0649 -1.6649
  490MPD2    H2 7343   2.587   2.095  16.877  1.2622 -0.3904  0.0617
  490MPD2    H3 7344   2.753   2.264  16.803 -1.0515  0.3826  0.2249
  490MPD2     N 7345   2.810   2.412  17.229  0.3072  0.3388 -1.1239
  490MPD2    H5 7346   2.875   2.486  17.202 -1.2776  1.3396 -2.1810
  490MPD2    N1 7347   2.523   2.046  17.121 -0.0078 -0.0455  0.0949
  490MPD2    H7 7348   2.450   2.023  17.055  1.1978  2.1386 -1.9889
  491TMC3    C1 7349   2.388   1.918  17.270 -1.0632  0.1680 -0.6946
  491TMC3    C2 7350   2.366   1.880  17.398 -0.3264 -0.2178 -0.2190
  491TMC3    C3 7351   2.237   1.850  17.435 -0.1538  0.0964  0.6667
  491TMC3    C4 7352   2.288   1.914  17.176  0.3824  0.0456 -0.4007
  491TMC3    C5 7353   2.160   1.883  17.214 -0.9703  0.1066  0.3779
  491TMC3    C6 7354   2.139   1.850  17.337 -0.0507  0.2357  0.4900
  491TMC3     C 7355   2.510   1.989  17.250 -0.3961 -0.1010  0.3556
  491TMC3     O 7356   2.584   2.000  17.346  0.2508  0.2576  0.2852
  491TMC3     H 7357   2.447   1.899  17.467 -0.9320 -1.5004  0.8477
  491TMC3    H1 7358   2.306   1.932  17.070  0.7170  3.3001  0.1923
  491TMC3    H2 7359   2.039   1.810  17.349  0.4638 -1.3939 -0.7354
  491TMC3    C7 7360   2.055   1.875  17.108  0.0419 -0.0751  0.0096
  491TMC3    C8 7361   2.208   1.770  17.549 -0.1449  0.5395 -0.2940
  491TMC3    O1 7362   1.976   1.784  17.107 -0.1053  0.7010  0.2409
  491TMC3    O2 7363   2.090   1.766  17.577 -0.2509  0.1189  0.0083
  492MPD2     C 7364   2.558   2.823  11.102  0.3803 -0.0159  0.0618
  492MPD2    C1 7365   2.450   2.743  11.083  0.4345  0.4825  0.3084
  492MPD2    C2 7366   2.422   2.642  11.169 -0.5621 -0.6454  0.0747
  492MPD2    C3 7367   2.505   2.621  11.277 -0.7218 -0.9187 -0.1397
  492MPD2    C4 7368   2.618   2.701  11.294  0.2809  0.0400 -0.4623
  492MPD2    C5 7369   2.640   2.808  11.213 -0.0542 -0.2310 -0.2683
  492MPD2     H 7370   2.334   2.583  11.147 -2.5608  1.2059  3.1059
  492MPD2    H1 7371   2.689   2.679  11.372 -3.8513  0.4130  3.3834
  492MPD2    H2 7372   2.576   2.909  11.037  1.1077  1.2250  1.9203
  492MPD2    H3 7373   2.729   2.869  11.221 -0.7100  0.5693  1.1097
  492MPD2     N 7374   2.483   2.519  11.377 -0.6031  0.2626 -0.1632
  492MPD2    H5 7375   2.546   2.511  11.455 -1.5697  4.5396  1.0513
  492MPD2    N1 7376   2.376   2.777  10.967  0.1752  0.0542 -0.4407
  492MPD2    H7 7377   2.420   2.847  10.908  0.8654  0.5743  0.7100
  493TMC3    C1 7378   2.209   2.756  10.805  0.4939 -1.0980 -0.7826
  493TMC3    C2 7379   2.245   2.876  10.734  0.3729  0.5521  0.1243
  493TMC3    C3 7380   2.192   2.886  10.608  0.2480 -1.2059 -0.0401
  493TMC3    C4 7381   2.126   2.656  10.760 -0.1788  0.2372  0.0439
  493TMC3    C5 7382   2.081   2.681  10.635  0.0738  0.2083 -0.8397
  493TMC3    C6 7383   2.104   2.790  10.559  0.3293 -0.2935 -0.7607
  493TMC3     C 7384   2.260   2.723  10.933  1.2922  0.1060 -0.0010
  493TMC3     O 7385   2.193   2.642  10.999  1.0711  0.1214  0.1911
  493TMC3     H 7386   2.290   2.963  10.780 -1.1790  1.7772 -0.6590
  493TMC3    H1 7387   2.105   2.563  10.811 -1.6431  0.7913  0.4548
  493TMC3    H2 7388   2.070   2.797  10.456  4.3105 -2.1530 -2.1849
  493TMC3    C7 7389   1.984   2.585  10.585  0.5021  0.6120  0.1676
  493TMC3    C8 7390   2.233   2.999  10.527  0.2506  0.2358  0.5856
  493TMC3    O1 7391   1.900   2.626  10.509  0.5872  0.1104  0.2359
  493TMC3    O2 7392   2.161   3.047  10.437  0.5020 -0.6523  0.5226
  494TMC3    C1 7393   2.984   3.744   0.667  0.0729  0.3505 -0.6408
  494TMC3    C2 7394   2.983   3.607   0.681 -0.3051  0.5874  0.1472
  494TMC3    C3 7395   2.984   3.527   0.569  0.3267 -0.7290 -0.0231
  494TMC3    C4 7396   2.972   3.809   0.546 -0.0178 -0.3608 -0.3817
  494TMC3    C5 7397   2.989   3.723   0.433 -0.1859  0.9390 -0.3078
  494TMC3    C6 7398   3.006   3.587   0.448  0.7404 -0.6292 -0.4223
  494TMC3     C 7399   2.971   3.826   0.783  0.6730 -0.1615 -0.1995
  494TMC3     O 7400   2.895   3.926   0.785 -0.0878 -0.0956 -0.8506
  494TMC3     H 7401   2.976   3.562   0.779 -0.8527 -1.8688 -1.0110
  494TMC3    H1 7402   2.968   3.917   0.544  0.4180 -0.3299  0.2457
  494TMC3    H2 7403   3.013   3.523   0.361 -1.1588  1.0485 -1.8223
  494TMC3    C7 7404   3.044   3.782   0.317 -0.0081  0.3792 -0.8560
  494TMC3    C8 7405   2.926   3.392   0.575 -0.5363  0.4594 -0.4996
  494TMC3    O1 7406   3.129   3.713   0.258 -0.7231 -0.1718  0.0375
  494TMC3    O2 7407   2.897   3.351   0.686 -0.2836  0.1780  0.2115
  495TMC3    C1 7408   2.367   0.940  14.274 -0.0734  0.6470  0.2691
  495TMC3    C2 7409   2.289   1.025  14.204 -0.2027  0.3406  1.4607
  495TMC3    C3 7410   2.237   1.135  14.267  0.2707  0.1182  0.2582
  495TMC3    C4 7411   2.392   0.959  14.405  0.0217 -0.1065  0.1200
  495TMC3    C5 7412   2.334   1.068  14.464  0.3061  0.6724  0.5218
  495TMC3    C6 7413   2.269   1.161  14.396 -0.5785 -0.2010 -0.1856
  495TMC3     C 7414   2.368   0.799  14.221 -0.6802  0.4835  0.6087
  495TMC3     O 7415   2.282   0.763  14.140 -0.2404 -0.4187 -0.1189
  495TMC3     H 7416   2.267   1.007  14.100  2.4883 -0.9265  1.1090
  495TMC3    H1 7417   2.436   0.889  14.477 -2.1812 -2.2795 -0.6676
  495TMC3    H2 7418   2.232   1.250  14.447  1.4726  0.0349  0.9048
  495TMC3    C7 7419   2.317   1.062  14.605  0.4282 -0.4935 -0.1394
  495TMC3    C8 7420   2.103   1.164  14.237  0.4966  0.6341  0.6129
  495TMC3    O1 7421   2.329   0.950  14.656  0.1319  0.6882  0.2244
  495TMC3    O2 7422   2.037   1.224  14.325 -0.7962  0.3078  0.5173
  496MPD2     C 7423   3.638   0.742  15.717 -0.6986 -0.4995  0.3668
  496MPD2    C1 7424   3.680   0.837  15.630 -0.2061  0.5843 -0.3996
  496MPD2    C2 7425   3.615   0.961  15.642 -0.3286 -0.2122  0.1698
  496MPD2    C3 7426   3.504   0.991  15.730  0.3196 -0.2603  0.5032
  496MPD2    C4 7427   3.457   0.883  15.807 -0.4320 -0.0375 -0.1503
  496MPD2    C5 7428   3.530   0.763  15.800  0.7468 -0.4216 -0.0997
  496MPD2     H 7429   3.662   1.037  15.581 -3.3465  1.9060  0.5338
  496MPD2    H1 7430   3.368   0.908  15.864 -1.1856 -2.0596 -0.4412
  496MPD2    H2 7431   3.688   0.646  15.727  0.8655  0.2630 -0.0776
  496MPD2    H3 7432   3.491   0.684  15.863 -1.4896 -0.4113 -1.4498
  496MPD2     N 7433   3.448   1.115  15.754  0.8478  1.0816 -0.0953
  496MPD2    H5 7434   3.370   1.115  15.820 -1.5228  3.2546 -2.8838
  496MPD2    N1 7435   3.797   0.814  15.554 -0.3712 -0.2939  0.8263
  496MPD2    H7 7436   3.846   0.725  15.567  0.7321  0.1029 -0.5697
  497TMC3    C1 7437   3.400   1.330  15.733  0.2967 -0.4100 -0.8871
  497TMC3    C2 7438   3.357   1.419  15.640 -0.4807  0.1030  0.2572
  497TMC3    C3 7439   3.331   1.547  15.681 -0.6615  0.2775  0.3537
  497TMC3    C4 7440   3.419   1.361  15.863  0.4312  0.1517 -1.2021
  497TMC3    C5 7441   3.398   1.490  15.898  0.5597  0.2139 -0.3186
  497TMC3    C6 7442   3.345   1.583  15.813  0.0606  0.2717  0.1443
  497TMC3     C 7443   3.470   1.220  15.680  0.3456 -0.4822 -0.4447
  497TMC3     O 7444   3.535   1.224  15.577 -0.4305  0.3402 -0.3100
  497TMC3     H 7445   3.345   1.400  15.535  1.9595 -0.5081  0.0938
  497TMC3    H1 7446   3.451   1.289  15.938  0.6114  0.8356 -0.6298
  497TMC3    H2 7447   3.324   1.681  15.853  1.0228 -0.6363  2.8935
  497TMC3    C7 7448   3.421   1.530  16.034 -0.4333 -0.1730  0.4957
  497TMC3    C8 7449   3.251   1.620  15.592 -0.2650  0.9012 -0.3868
  497TMC3    O1 7450   3.375   1.633  16.069  0.4527 -0.0169 -0.2903
  497TMC3    O2 7451   3.177   1.557  15.513 -0.1762 -0.7215  0.4875
  498MPD2     C 7452   4.057   2.296  10.020 -0.1260  0.1009  0.0628
  498MPD2    C1 7453   4.173   2.249   9.962 -0.2468  0.0407  0.2253
  498MPD2    C2 7454   4.200   2.114   9.968  0.8571  0.4057  0.4067
  498MPD2    C3 7455   4.104   2.025  10.018  0.2439 -0.0284 -0.3154
  498MPD2    C4 7456   3.983   2.067  10.069  0.3057 -0.3396  0.6874
  498MPD2    C5 7457   3.963   2.201  10.069  0.0771  0.3860 -0.1267
  498MPD2     H 7458   4.289   2.075   9.921  0.4244 -1.2533  0.9391
  498MPD2    H1 7459   3.910   2.002  10.115 -1.7141  2.7150  1.7599
  498MPD2    H2 7460   4.028   2.399  10.039  1.7295  0.8607 -1.1863
  498MPD2    H3 7461   3.885   2.232  10.138  1.6307  1.9398  0.9451
  498MPD2     N 7462   4.141   1.890  10.034 -0.1205 -0.2738  0.1579
  498MPD2    H5 7463   4.240   1.870  10.032 -0.3155 -0.8348 -3.3875
  498MPD2    N1 7464   4.288   2.337   9.939  0.3778  0.4881  0.2841
  498MPD2    H7 7465   4.376   2.298   9.905  0.7417 -0.3133  2.1383
  499TMC3    C1 7466   4.403   2.555   9.913 -0.5230  0.4790 -0.2161
  499TMC3    C2 7467   4.523   2.494   9.888 -0.4147 -0.9558 -0.3436
  499TMC3    C3 7468   4.632   2.572   9.863 -0.2095  0.3860 -0.5703
  499TMC3    C4 7469   4.397   2.692   9.927 -0.7891  0.3508 -0.2971
  499TMC3    C5 7470   4.518   2.765   9.925 -0.2266  0.1085 -0.4633
  499TMC3    C6 7471   4.631   2.710   9.863  0.2042 -0.5293  0.6525
  499TMC3     C 7472   4.282   2.477   9.960  0.0411  0.0927  0.7145
  499TMC3     O 7473   4.187   2.546   9.996 -0.1581 -0.1659  0.3828
  499TMC3     H 7474   4.531   2.387   9.873  0.4448 -0.9691  0.1895
  499TMC3    H1 7475   4.300   2.740   9.930 -1.3094 -0.7666  0.3360
  499TMC3    H2 7476   4.721   2.770   9.857  0.2128 -0.5144  0.9149
  499TMC3    C7 7477   4.506   2.912   9.913 -0.4066  1.0801  0.2474
  499TMC3    C8 7478   0.016   2.492   9.836  0.2565 -0.3323  0.3938
  499TMC3    O1 7479   4.584   2.969   9.843 -0.0246  0.0008  0.1153
  499TMC3    O2 7480   0.014   2.387   9.902  0.2807 -0.2349 -0.4567
  500MPD2     C 7481   1.302   3.703  10.735  0.7844  0.1695 -0.0623
  500MPD2    C1 7482   1.328   3.723  10.596  0.8464  0.4247  0.0119
  500MPD2    C2 7483   1.231   3.685  10.508  0.8019 -0.5303 -0.6636
  500MPD2    C3 7484   1.104   3.649  10.557  0.2332 -0.2964  0.3573
  500MPD2    C4 7485   1.077   3.644  10.692 -0.6711 -0.0044  0.1150
  500MPD2    C5 7486   1.182   3.671  10.782  0.6291 -0.3957  0.3503
  500MPD2     H 7487   1.248   3.680  10.401 -0.7947 -2.9117 -0.8149
  500MPD2    H1 7488   0.979   3.616  10.730 -0.6918  2.0167  1.5492
  500MPD2    H2 7489   1.381   3.721  10.808  1.9266 -0.1348 -1.2242
  500MPD2    H3 7490   1.161   3.679  10.888  0.4426 -2.8732  0.5115
  500MPD2     N 7491   1.004   3.595  10.472 -0.2433 -0.7364  0.1672
  500MPD2    H5 7492   0.923   3.554  10.518 -0.4929 -0.2541  0.1697
  500MPD2    N1 7493   1.458   3.769  10.541  0.7651  0.0833  0.6016
  500MPD2    H7 7494   1.539   3.776  10.603  1.2752  0.4900 -0.1081
  501TMC3    C1 7495   1.630   3.822  10.404  0.6679 -0.6268 -0.3289
  501TMC3    C2 7496   1.673   3.924  10.340  0.3570  0.6218 -0.1683
  501TMC3    C3 7497   1.810   3.943  10.326  0.2005 -1.0294 -0.2590
  501TMC3    C4 7498   1.710   3.724  10.452  0.0186  0.0714  0.6211
  501TMC3    C5 7499   1.847   3.733  10.424  0.8495 -0.1558 -0.2622
  501TMC3    C6 7500   1.897   3.844  10.364 -0.3970 -0.2719 -0.5335
  501TMC3     C 7501   1.490   3.795  10.412  0.4818  0.2164 -0.3683
  501TMC3     O 7502   1.423   3.823  10.317  0.0985 -0.5871  0.3809
  501TMC3     H 7503   1.598   3.994  10.307 -0.9184  0.1472  1.6934
  501TMC3    H1 7504   1.674   3.644  10.515 -0.6362  1.5555  2.1290
  501TMC3    H2 7505   2.005   3.852  10.354  0.1875 -1.5812  4.6655
  501TMC3    C7 7506   1.926   3.687  10.537 -0.1996  0.3128  0.0430
  501TMC3    C8 7507   1.855   4.061  10.397 -0.0244 -0.8223  0.4082
  501TMC3    O1 7508   1.892   3.582  10.590  0.3885 -0.8405 -0.3382
  501TMC3    O2 7509   1.942   4.047  10.481  0.0073  0.8719  0.5846
  502TMC3    C1 7510   1.659   2.229  14.711  0.2680  0.4587 -0.4387
  502TMC3    C2 7511   1.632   2.356  14.683 -0.4573  0.0958 -0.6040
  502TMC3    C3 7512   1.501   2.386  14.654 -0.8657 -0.1005  0.3387
  502TMC3    C4 7513   1.557   2.137  14.699 -0.3045 -0.4259  0.1988
  502TMC3    C5 7514   1.429   2.179  14.684 -0.8367  0.0417  0.2539
  502TMC3    C6 7515   1.391   2.301  14.663  0.2376  0.3405 -0.2044
  502TMC3     C 7516   1.790   2.190  14.765 -0.4039  0.5920 -0.2787
  502TMC3     O 7517   1.892   2.256  14.729 -0.3535  0.6961  0.6022
  502TMC3     H 7518   1.714   2.424  14.662  1.1316 -1.7710 -0.4777
  502TMC3    H1 7519   1.573   2.032  14.720  0.4820 -0.0649  1.3536
  502TMC3    H2 7520   1.295   2.334  14.626 -0.0582 -2.0559 -1.5904
  502TMC3    C7 7521   1.335   2.064  14.672 -0.1626 -0.4833  0.3664
  502TMC3    C8 7522   1.471   2.527  14.688 -0.6069  0.0983 -0.1871
  502TMC3    O1 7523   1.394   1.961  14.640 -0.2157 -0.2889 -0.1057
  502TMC3    O2 7524   1.571   2.601  14.681 -0.2874  0.1258 -0.1980
  503MPD2     C 7525   3.429   2.889  16.606 -0.1840  0.6863 -0.3639
  503MPD2    C1 7526   3.403   2.885  16.740  0.1846 -0.5532 -0.0912
  503MPD2    C2 7527   3.398   2.760  16.803  0.0199  0.4469  0.3209
  503MPD2    C3 7528   3.438   2.648  16.734  1.4063  0.0130 -0.2617
  503MPD2    C4 7529   3.464   2.662  16.601  0.0528 -0.9286 -0.9761
  503MPD2    C5 7530   3.460   2.779  16.537 -0.6114 -0.3000 -0.3294
  503MPD2     H 7531   3.368   2.747  16.907  0.5023 -2.1475  0.1297
  503MPD2    H1 7532   3.476   2.574  16.538  0.1515 -0.4693 -1.5986
  503MPD2    H2 7533   3.434   2.982  16.552  0.6057  0.2799 -0.9840
  503MPD2    H3 7534   3.477   2.782  16.430  1.1854  1.4817  0.0291
  503MPD2     N 7535   3.445   2.532  16.806 -0.8873 -0.2459 -0.3175
  503MPD2    H5 7536   3.437   2.532  16.907 -0.1224 -0.5302 -0.2600
  503MPD2    N1 7537   3.372   3.006  16.814  0.0809 -0.0669 -0.3890
  503MPD2    H7 7538   3.344   2.985  16.909 -2.2056  0.2448 -1.0031
  504TMC3    C1 7539   3.458   2.295  16.849 -0.3852  0.1814  0.0255
  504TMC3    C2 7540   3.424   2.349  16.969 -0.7733 -0.9199  0.6972
  504TMC3    C3 7541   3.508   2.322  17.079  0.5861  0.6924 -0.0739
  504TMC3    C4 7542   3.562   2.208  16.834 -0.3247  0.7901  0.0866
  504TMC3    C5 7543   3.640   2.184  16.946  0.5647  0.9992 -0.6795
  504TMC3    C6 7544   3.618   2.246  17.071 -0.3341 -0.2487  0.0908
  504TMC3     C 7545   3.470   2.405  16.751 -0.2069  0.0775  0.5273
  504TMC3     O 7546   3.515   2.371  16.641  0.3021 -0.6387  0.1851
  504TMC3     H 7547   3.341   2.418  16.981  1.4080  1.6973  0.7360
  504TMC3    H1 7548   3.589   2.163  16.739  1.4232  0.3537  0.7909
  504TMC3    H2 7549   3.680   2.241  17.160  0.4368 -0.7931 -0.4856
  504TMC3    C7 7550   3.774   2.139  16.915 -0.7070 -0.6516 -0.4178
  504TMC3    C8 7551   3.506   2.418  17.181  0.4202 -0.8187 -0.8301
  504TMC3    O1 7552   3.824   2.194  16.821 -0.3848 -0.0137  0.3760
  504TMC3    O2 7553   3.477   2.532  17.140 -0.5460  0.6264 -0.0542
  505MPD2     C 7554   4.596   0.448  10.968 -1.0858 -0.9064 -0.1711
  505MPD2    C1 7555   4.530   0.521  10.877  0.0411  0.0407 -0.0418
  505MPD2    C2 7556   4.572   0.651  10.851 -0.3579  0.5197  0.1213
  505MPD2    C3 7557   4.683   0.705  10.914 -0.5540  0.0982  0.3844
  505MPD2    C4 7558   0.013   0.617  10.997  0.5342  0.4737  0.1858
  505MPD2    C5 7559   4.706   0.491  11.036 -0.0002 -0.4569  0.0730
  505MPD2     H 7560   4.510   0.721  10.796 -0.2820  0.0519 -0.5614
  505MPD2    H1 7561   0.107   0.651  11.041  0.8881  0.5965 -0.6521
  505MPD2    H2 7562   4.557   0.347  10.975 -0.1372 -1.2476  0.1034
  505MPD2    H3 7563   0.026   0.424  11.101 -0.3510 -2.2835 -1.5277
  505MPD2     N 7564   0.002   0.834  10.911  0.3913  0.2303  0.3470
  505MPD2    H5 7565   0.093   0.854  10.952  0.5698 -0.1458  0.1304
  505MPD2    N1 7566   4.415   0.455  10.816  0.4644 -0.2130 -0.0327
  505MPD2    H7 7567   4.375   0.379  10.870 -0.9782 -0.5604 -1.6071
  506TMC3    C1 7568   4.397   0.563  10.593 -0.2698 -0.3433  0.4598
  506TMC3    C2 7569   4.343   0.679  10.553 -0.1115 -0.3280  0.1351
  506TMC3    C3 7570   4.419   0.777  10.497 -0.5284  0.1592 -0.2248
  506TMC3    C4 7571   4.534   0.538  10.574 -0.1768 -0.0870  0.4469
  506TMC3    C5 7572   4.608   0.647  10.527 -0.1625 -0.2401  0.4210
  506TMC3    C6 7573   4.554   0.762  10.487 -0.2465 -0.0585 -0.2410
  506TMC3     C 7574   4.334   0.502  10.709  0.5248  0.0550 -0.2542
  506TMC3     O 7575   4.219   0.473  10.682 -0.2424 -0.2061  0.9891
  506TMC3     H 7576   4.237   0.690  10.575  0.1337  0.3627  0.9430
  506TMC3    H1 7577   4.570   0.446  10.620  1.5449  0.1140 -0.5171
  506TMC3    H2 7578   4.610   0.849  10.454  1.3666 -1.2762 -0.7148
  506TMC3    C7 7579   0.018   0.633  10.550 -0.0703 -0.0596 -0.3282
  506TMC3    C8 7580   4.360   0.878  10.418 -0.2544  0.4277 -0.0467
  506TMC3    O1 7581   0.055   0.515  10.558  0.2684 -0.4312  0.4212
  506TMC3    O2 7582   4.428   0.972  10.383  0.0865  0.1407 -0.4410
  507TMC3    C1 7583   4.348   1.880  14.388  0.7216 -0.3815 -0.5948
  507TMC3    C2 7584   4.457   1.917  14.313 -0.3312  0.0536 -0.2235
  507TMC3    C3 7585   4.575   1.958  14.369  0.8340 -1.0190  0.1689
  507TMC3    C4 7586   4.358   1.886  14.522 -0.9387  0.1003 -0.1302
  507TMC3    C5 7587   4.484   1.896  14.575  0.0937  0.2786 -1.3494
  507TMC3    C6 7588   4.592   1.926  14.501  0.3327 -1.0291 -0.3607
  507TMC3     C 7589   4.223   1.943  14.355  0.2961  0.1419  0.3594
  507TMC3     O 7590   4.162   2.001  14.444 -0.3854 -0.3532 -0.1353
  507TMC3     H 7591   4.448   1.913  14.205 -0.6178 -0.2100 -0.1902
  507TMC3    H1 7592   4.283   1.860  14.596 -1.8794  2.1275 -0.3807
  507TMC3    H2 7593   4.687   1.940  14.551 -2.2934  1.8046  3.7856
  507TMC3    C7 7594   4.488   1.965  14.701  0.1209 -0.1793 -0.5485
  507TMC3    C8 7595   4.594   2.103  14.343 -0.2038  0.2425 -0.0191
  507TMC3    O1 7596   4.403   1.934  14.785 -0.1021  0.0525 -0.1065
  507TMC3    O2 7597   4.613   2.175  14.438 -0.8403 -0.0751  0.2748
  508MPD2     C 7598   0.602   4.508  15.788  0.3090 -0.0880  0.1776
  508MPD2    C1 7599   0.733   4.542  15.819  0.6074 -0.0063 -0.0749
  508MPD2    C2 7600   0.775   4.671  15.784 -0.2129 -0.1574  0.5077
  508MPD2    C3 7601   0.701   0.025  15.710 -0.3707  0.6441  0.8728
  508MPD2    C4 7602   0.574   4.728  15.682 -0.1720 -0.4331 -0.2371
  508MPD2    C5 7603   0.528   4.602  15.717 -0.9221  0.0809  0.2108
  508MPD2     H 7604   0.876   4.696  15.812 -0.3516  2.4055 -1.2166
  508MPD2    H1 7605   0.502   0.054  15.630 -0.0015  1.6152  1.9566
  508MPD2    H2 7606   0.557   4.412  15.811  0.7305 -0.1997  0.5427
  508MPD2    H3 7607   0.426   4.576  15.691 -0.5618 -1.7437  0.6199
  508MPD2     N 7608   0.740   0.152  15.680 -0.1199 -0.2296 -0.3356
  508MPD2    H5 7609   0.671   0.210  15.635  0.3571  1.2170  0.7854
  508MPD2    N1 7610   0.805   4.439  15.890 -0.2534  0.0628  0.1081
  508MPD2    H7 7611   0.758   4.353  15.915  1.5592 -0.7772  0.6593
  509TMC3    C1 7612   0.823   0.547  15.692 -0.1285 -0.1695  0.4213
  509TMC3    C2 7613   0.953   0.599  15.705 -0.3174 -0.0935 -0.4678
  509TMC3    C3 7614   1.057   0.507  15.699  0.6145 -0.4380  0.0092
  509TMC3    C4 7615   0.796   0.411  15.686  0.2547  0.1342 -0.4787
  509TMC3    C5 7616   0.900   0.325  15.668  0.4264 -0.3548 -0.3593
  509TMC3    C6 7617   1.031   0.376  15.674 -0.1995 -0.3131 -0.3903
  509TMC3     C 7618   0.704   0.626  15.666 -0.3180 -0.7543  0.0774
  509TMC3     O 7619   0.593   0.575  15.687 -0.9521 -0.6269  0.0787
  509TMC3     H 7620   0.975   0.701  15.734  0.3467 -0.2068 -0.5676
  509TMC3    H1 7621   0.696   0.377  15.663 -0.2622  1.4077 -0.1307
  509TMC3    H2 7622   1.121   0.321  15.650 -0.2917 -0.4489 -0.4240
  509TMC3    C7 7623   0.873   0.181  15.675 -0.3662  0.2017  0.0320
  509TMC3    C8 7624   1.195   0.548  15.740 -0.3501  0.2341 -0.0232
  509TMC3    O1 7625   0.976   0.114  15.681 -0.0253 -0.0961  0.2628
  509TMC3    O2 7626   1.269   0.448  15.766 -0.5639  0.5251  0.5326
  510MPD2     C 7627   3.095   1.840  14.574 -0.3508 -0.5980  0.0213
  510MPD2    C1 7628   3.190   1.752  14.601 -0.1402 -0.3029  1.4444
  510MPD2    C2 7629   3.291   1.716  14.507 -0.0946 -0.4012  0.4075
  510MPD2    C3 7630   3.280   1.761  14.378 -0.7514 -0.1633  0.4018
  510MPD2    C4 7631   3.173   1.851  14.347  0.4339  0.2499 -0.4416
  510MPD2    C5 7632   3.087   1.883  14.445 -0.3900 -0.9257 -0.4121
  510MPD2     H 7633   3.366   1.644  14.539 -2.1648 -2.1744  1.2861
  510MPD2    H1 7634   3.164   1.885  14.244  2.3477  4.2825  0.6929
  510MPD2    H2 7635   3.011   1.858  14.639 -1.1987  0.7563 -1.4462
  510MPD2    H3 7636   3.001   1.943  14.416 -1.0527 -1.2417  0.8913
  510MPD2     N 7637   3.372   1.729  14.280 -0.1715  0.0378  0.1820
  510MPD2    H5 7638   3.456   1.682  14.313  1.5640  3.5173  0.7453
  510MPD2    N1 7639   3.175   1.685  14.724 -0.6382  0.1084 -0.7486
  510MPD2    H7 7640   3.099   1.710  14.786 -0.5475  0.9126 -0.9712
  511TMC3    C1 7641   3.190   1.511  14.873  0.7049  0.3435  0.2410
  511TMC3    C2 7642   3.100   1.574  14.952 -0.6277  0.7224 -0.6284
  511TMC3    C3 7643   3.014   1.492  15.020 -0.1758 -0.5368 -0.0413
  511TMC3    C4 7644   3.196   1.374  14.855 -0.0227 -0.0674 -0.5839
  511TMC3    C5 7645   3.105   1.296  14.928  0.2240  0.0939  0.5273
  511TMC3    C6 7646   3.015   1.356  15.008 -0.7647  0.1928  0.0575
  511TMC3     C 7647   3.258   1.587  14.772 -0.3779 -0.4529 -0.9535
  511TMC3     O 7648   3.353   1.523  14.725  0.4416 -0.1353  0.0056
  511TMC3     H 7649   3.099   1.681  14.968 -1.4959  0.3222  2.0637
  511TMC3    H1 7650   3.279   1.327  14.804 -0.3037 -0.1704 -0.9466
  511TMC3    H2 7651   2.941   1.291  15.054  0.6819 -0.7547  1.0518
  511TMC3    C7 7652   3.101   1.148  14.908  0.5465  0.2539  0.5270
  511TMC3    C8 7653   2.904   1.556  15.098  0.4001 -0.3588  0.3667
  511TMC3    O1 7654   3.157   1.106  14.806 -0.3625 -0.4447 -0.0214
  511TMC3    O2 7655   2.921   1.673  15.123  0.0255 -0.1582  0.0698
  512TMC3    C1 7656   2.968   0.284  12.705  0.4283 -0.0634  0.6442
  512TMC3    C2 7657   2.948   0.360  12.815 -0.3423  0.4689 -1.1143
  512TMC3    C3 7658   2.885   0.292  12.919 -1.3298 -0.4891  0.8347
  512TMC3    C4 7659   2.914   0.158  12.674  0.5350 -0.2166  0.7304
  512TMC3    C5 7660   2.848   0.099  12.781  0.1638 -0.9428 -0.0588
  512TMC3    C6 7661   2.835   0.161  12.902  0.2851  0.1242 -0.1545
  512TMC3     C 7662   3.001   0.366  12.588  0.1339 -1.0466  0.2750
  512TMC3     O 7663   2.978   0.484  12.607 -0.3216  0.3451  0.0897
  512TMC3     H 7664   2.998   0.455  12.832 -0.2866  0.4126 -0.9636
  512TMC3    H1 7665   2.918   0.106  12.579 -0.6522  1.1509 -0.0803
  512TMC3    H2 7666   2.775   0.111  12.977 -0.7674  0.0589 -1.0456
  512TMC3    C7 7667   2.742   0.018  12.735 -0.3258 -0.0832  0.3087
  512TMC3    C8 7668   2.866   0.357  13.049  0.2287 -0.5681 -0.0738
  512TMC3    O1 7669   2.705   0.018  12.620 -0.1793  0.3565  0.3988
  512TMC3    O2 7670   2.837   0.283  13.143 -0.2899 -1.0061 -0.1259
  513MPD2     C 7671   4.148   0.518  13.261  0.5288  0.5327 -0.3571
  513MPD2    C1 7672   4.265   0.515  13.191  0.7197  0.1932 -0.2469
  513MPD2    C2 7673   4.356   0.619  13.202 -0.8608 -0.8584  0.1711
  513MPD2    C3 7674   4.328   0.723  13.290 -0.3926 -0.5097 -0.0396
  513MPD2    C4 7675   4.217   0.719  13.376  0.2321 -0.5857  0.2422
  513MPD2    C5 7676   4.128   0.619  13.351  0.0336 -0.1642 -0.8433
  513MPD2     H 7677   4.443   0.623  13.138 -0.3018  0.2344  1.0001
  513MPD2    H1 7678   4.203   0.802  13.445 -0.1792 -0.1802 -0.3357
  513MPD2    H2 7679   4.064   0.450  13.253 -0.3301  1.6814 -1.0780
  513MPD2    H3 7680   4.036   0.608  13.409  0.5950  1.4841  0.3885
  513MPD2     N 7681   4.426   0.823  13.279 -0.4012 -0.2858  0.1069
  513MPD2    H5 7682   4.494   0.817  13.204 -0.8001 -0.7061 -0.2196
  513MPD2    N1 7683   4.294   0.422  13.093 -0.1172  0.0087  0.3195
  513MPD2    H7 7684   4.386   0.433  13.052 -0.4150 -1.3856 -0.7206
  514TMC3    C1 7685   4.287   0.214  12.980  0.1193 -0.3518 -0.8379
  514TMC3    C2 7686   4.240   0.199  12.852 -0.1041  0.2335  0.3076
  514TMC3    C3 7687   4.326   0.234  12.749 -0.0516  0.3516  0.7910
  514TMC3    C4 7688   4.417   0.238  12.990 -0.8089  0.0887 -0.8494
  514TMC3    C5 7689   4.504   0.253  12.884  0.2981 -0.0868 -0.8125
  514TMC3    C6 7690   4.463   0.243  12.755 -0.2664 -0.1778  0.0420
  514TMC3     C 7691   4.214   0.315  13.055  0.2524 -0.2449  0.7220
  514TMC3     O 7692   4.098   0.280  13.080  0.5754  0.0244  0.1901
  514TMC3     H 7693   4.133   0.210  12.836 -0.3415 -1.6004  0.7115
  514TMC3    H1 7694   4.466   0.242  13.087 -0.1594  0.8818 -1.2072
  514TMC3    H2 7695   4.529   0.273  12.674  0.3316 -0.2347  0.5056
  514TMC3    C7 7696   4.585   0.365  12.913  0.1716 -0.3737  0.3619
  514TMC3    C8 7697   4.255   0.298  12.639 -0.8501  0.0646 -0.2624
  514TMC3    O1 7698   4.543   0.433  13.004 -0.4895  0.6161 -0.0295
  514TMC3    O2 7699   4.143   0.338  12.660 -0.2353  0.4416  0.3585
  515MPD2     C 7700   2.494   2.530  13.999  1.3187  0.6906  0.0724
  515MPD2    C1 7701   2.370   2.555  14.063 -0.5212 -0.4643  0.6538
  515MPD2    C2 7702   2.366   2.588  14.195  0.2626 -0.3468 -0.3451
  515MPD2    C3 7703   2.490   2.609  14.265 -0.7664 -1.4601  0.1450
  515MPD2    C4 7704   2.604   2.613  14.195  0.4123 -0.1451 -0.2594
  515MPD2    C5 7705   2.607   2.562  14.065  0.0774 -0.4326  0.2098
  515MPD2     H 7706   2.268   2.601  14.240  0.0264  2.2860 -1.5864
  515MPD2    H1 7707   2.693   2.633  14.254  0.0079 -0.1227  0.3403
  515MPD2    H2 7708   2.497   2.491  13.898 -1.6512  0.3893  0.1076
  515MPD2    H3 7709   2.702   2.544  14.016 -0.4452  0.8925 -1.3084
  515MPD2     N 7710   2.495   2.645  14.400 -0.3985 -0.1714  0.5665
  515MPD2    H5 7711   2.589   2.673  14.426 -0.3743  1.4854 -1.2685
  515MPD2    N1 7712   2.244   2.540  13.995  0.2674  0.3010 -0.0135
  515MPD2    H7 7713   2.164   2.574  14.047 -1.9729 -1.2357 -2.4877
  516TMC3    C1 7714   2.083   2.508  13.827  0.4570  0.2593 -0.2370
  516TMC3    C2 7715   2.000   2.607  13.869 -0.3430 -0.4344 -0.1345
  516TMC3    C3 7716   1.867   2.578  13.888 -0.5447  0.0754 -1.1643
  516TMC3    C4 7717   2.043   2.378  13.817  0.0428 -0.0926 -0.6534
  516TMC3    C5 7718   1.916   2.351  13.861 -0.5516 -0.1701  0.3468
  516TMC3    C6 7719   1.828   2.445  13.890  0.1081  0.2389 -0.6150
  516TMC3     C 7720   2.226   2.514  13.861  0.2130  0.2646 -0.5218
  516TMC3     O 7721   2.300   2.461  13.780 -0.3381  0.2223  0.6021
  516TMC3     H 7722   2.032   2.710  13.885 -1.5764 -0.1496  0.4906
  516TMC3    H1 7723   2.112   2.295  13.802  0.3541 -0.0419  0.4947
  516TMC3    H2 7724   1.723   2.418  13.895 -0.1582  1.2445 -0.7365
  516TMC3    C7 7725   1.906   2.235  13.946  0.2691 -0.6032 -0.6589
  516TMC3    C8 7726   1.777   2.668  13.945  0.5704 -0.3128  0.3245
  516TMC3    O1 7727   1.993   2.150  13.942  0.0422 -0.6269  0.0474
  516TMC3    O2 7728   1.690   2.616  14.011 -0.5707  0.1361  0.0210
  517MPD2     C 7729   1.930   4.499  17.478  0.3238 -0.6492 -0.1203
  517MPD2    C1 7730   2.049   4.463  17.536  0.2608 -1.0137  1.2437
  517MPD2    C2 7731   2.115   4.551  17.621  0.3256  0.0659  0.0009
  517MPD2    C3 7732   2.054   4.666  17.667  0.0214  0.5034  0.0419
  517MPD2    C4 7733   1.937   4.705  17.610  0.3498 -1.4094  0.7386
  517MPD2    C5 7734   1.876   4.622  17.515 -0.1524  0.1226  0.4165
  517MPD2     H 7735   2.202   4.519  17.676  0.5965  0.0253 -0.4562
  517MPD2    H1 7736   1.888   0.060  17.640  2.4368  0.5737 -1.8059
  517MPD2    H2 7737   1.886   4.448  17.393  0.1440 -1.6134  0.5596
  517MPD2    H3 7738   1.788   4.659  17.463  0.6818  1.2064 -0.1990
  517MPD2     N 7739   2.107   0.010   0.033  0.1315 -0.0112  0.1807
  517MPD2    H5 7740   2.048   0.085   0.068 -2.4502 -1.1198 -1.7786
  517MPD2    N1 7741   2.104   4.329  17.516  0.3636 -0.4866 -0.1048
  517MPD2    H7 7742   2.190   4.308  17.566 -0.6807 -1.4005  1.3207
  518TMC3    C1 7743   2.135   4.120  17.411  0.5614  0.0757 -0.0960
  518TMC3    C2 7744   2.075   4.001  17.377  0.6142 -0.0979 -0.7747
  518TMC3    C3 7745   2.156   3.891  17.357 -0.2444  0.9548  0.5285
  518TMC3    C4 7746   2.278   4.128  17.414 -0.5423 -0.1008  0.0702
  518TMC3    C5 7747   2.348   4.017  17.387 -0.0817 -0.7038  0.7321
  518TMC3    C6 7748   2.292   3.900  17.357 -0.0420 -0.9695 -0.1751
  518TMC3     C 7749   2.053   4.235  17.435 -0.8833  0.3654  0.2663
  518TMC3     O 7750   1.947   4.233  17.374  0.2998  0.3504  0.0965
  518TMC3     H 7751   1.966   3.998  17.370  0.6583 -1.3273 -0.9286
  518TMC3    H1 7752   2.333   4.215  17.448 -0.1655 -0.8228  1.3152
  518TMC3    H2 7753   2.349   3.809  17.341 -0.1435 -0.3831 -3.9681
  518TMC3    C7 7754   2.475   4.046  17.321  0.6209  0.2616  0.4764
  518TMC3    C8 7755   2.098   3.762  17.326 -0.2517 -0.5770  0.0212
  518TMC3    O1 7756   2.508   4.163  17.306  0.6035  0.0709 -0.1910
  518TMC3    O2 7757   2.177   3.681  17.277  0.0686  0.5465 -0.1147
  519MPD2     C 7758   3.939   2.744  13.403  0.0046  0.1655 -0.4663
  519MPD2    C1 7759   3.901   2.681  13.520 -0.5288 -0.3599  0.1174
  519MPD2    C2 7760   3.962   2.563  13.558  0.4419 -0.1791  0.3285
  519MPD2    C3 7761   4.057   2.503  13.477  0.1891  0.4977  0.8354
  519MPD2    C4 7762   4.089   2.556  13.351  0.1941 -1.1479  0.3423
  519MPD2    C5 7763   4.030   2.678  13.322 -0.4736 -0.4382 -0.2652
  519MPD2     H 7764   3.921   2.520  13.648 -2.4362  2.3710  0.2264
  519MPD2    H1 7765   4.150   2.504  13.279 -0.1112  1.9783 -2.1653
  519MPD2    H2 7766   3.886   2.831  13.366 -0.5879 -0.0635 -0.1568
  519MPD2    H3 7767   4.064   2.725  13.230 -0.0736  1.4285  0.8245
  519MPD2     N 7768   4.124   2.383  13.510  0.0768 -0.4478 -0.4214
  519MPD2    H5 7769   4.164   2.326  13.437  1.6718  1.9415 -1.4064
  519MPD2    N1 7770   3.791   2.742  13.585  0.2017 -0.3246  0.4680
  519MPD2    H7 7771   3.746   2.818  13.535  0.4239  0.5867  1.6591
  520TMC3    C1 7772   4.136   2.184  13.618 -0.0203 -0.5496 -0.4777
  520TMC3    C2 7773   4.071   2.126  13.518  0.4085  0.2077  0.6497
  520TMC3    C3 7774   4.076   1.987  13.500 -0.9200  0.0544 -0.2193
  520TMC3    C4 7775   4.221   2.110  13.698 -0.5618 -0.0534 -0.1007
  520TMC3    C5 7776   4.242   1.977  13.665  0.1076  0.1113  0.2772
  520TMC3    C6 7777   4.166   1.909  13.574 -0.0182  0.0984 -0.0398
  520TMC3     C 7778   4.122   2.325  13.626  0.2896 -0.3655  0.4741
  520TMC3     O 7779   4.122   2.386  13.733  0.0891  0.3778 -0.3113
  520TMC3     H 7780   4.004   2.189  13.461  0.0873 -0.8162 -0.0993
  520TMC3    H1 7781   4.267   2.156  13.785  1.0170  0.7186 -1.3615
  520TMC3    H2 7782   4.166   1.802  13.560 -1.0242  0.2930 -1.4384
  520TMC3    C7 7783   4.339   1.904  13.735  0.0724 -0.0415  0.1702
  520TMC3    C8 7784   3.983   1.928  13.407  0.5579 -0.4922 -0.1634
  520TMC3    O1 7785   4.377   1.940  13.847 -0.2073  0.0688 -1.0797
  520TMC3    O2 7786   4.021   1.822  13.357 -0.0515 -0.0456 -0.4461
  521MPD2     C 7787   4.291   4.240  17.445  0.3561 -0.0992  0.3712
  521MPD2    C1 7788   4.292   4.364  17.382  0.1436  0.1048  0.1809
  521MPD2    C2 7789   4.399   4.404  17.302  0.2925 -0.3726  0.1087
  521MPD2    C3 7790   4.515   4.325  17.290  0.4579 -0.0626  0.3862
  521MPD2    C4 7791   4.520   4.212  17.365 -0.1849 -0.7696  0.3769
  521MPD2    C5 7792   4.414   4.173  17.441  0.2784 -0.0043  0.0263
  521MPD2     H 7793   4.387   4.496  17.247  2.3061  0.5326  1.1707
  521MPD2    H1 7794   4.612   4.154  17.359  1.1281  1.1238  2.1003
  521MPD2    H2 7795   4.210   4.201  17.506  1.0228  0.3715  1.5473
  521MPD2    H3 7796   4.418   4.080  17.496 -1.4688 -0.8165 -1.2541
  521MPD2     N 7797   4.607   4.362  17.187 -0.1624 -0.2694  0.3341
  521MPD2    H5 7798   4.594   4.451  17.140 -0.5161 -0.7916 -0.5476
  521MPD2    N1 7799   4.178   4.435  17.408 -0.5024  0.3242  0.6440
  521MPD2    H7 7800   4.110   4.390  17.468 -2.0666 -0.8431 -2.0261
  522TMC3    C1 7801   0.062   4.375  17.057  0.8171  0.1589 -0.1562
  522TMC3    C2 7802   0.172   4.308  17.012  0.2282  0.4822  0.1511
  522TMC3    C3 7803   0.266   4.374  16.945  0.6970 -0.0557  1.0550
  522TMC3    C4 7804   0.053   4.511  17.050 -0.3210 -0.2472 -0.4328
  522TMC3    C5 7805   0.157   4.571  16.986 -0.2398  0.4370 -0.4191
  522TMC3    C6 7806   0.262   4.505  16.929  0.0017  0.6862 -0.3438
  522TMC3     C 7807   4.723   4.298  17.154  0.2208  0.8106  0.3923
  522TMC3     O 7808   0.029   4.190  17.189 -0.3993  0.0215  0.1019
  522TMC3     H 7809   0.173   4.200  17.017  0.2335  0.4706 -0.1215
  522TMC3    H1 7810   4.723   4.567  17.114  0.8306  0.9929 -0.3269
  522TMC3    H2 7811   0.351   4.555  16.892 -0.7363 -0.1523 -3.2148
  522TMC3    C7 7812   0.152   4.703  16.958  0.4678  0.0387  0.0471
  522TMC3    C8 7813   0.397   4.314  16.935  0.1467 -0.3882 -0.6789
  522TMC3    O1 7814   0.259   0.027  16.955  0.3994  0.3079  0.6094
  522TMC3    O2 7815   0.430   4.239  17.026 -0.4657  0.1800 -0.0544
  523MPD2     C 7816   2.133   0.434  10.064 -0.1694 -1.0993 -0.2560
  523MPD2    C1 7817   2.055   0.325  10.036  0.6292  0.6590  0.1842
  523MPD2    C2 7818   1.997   0.323   9.910 -0.1289  1.1043 -0.5558
  523MPD2    C3 7819   2.034   0.414   9.807 -0.5880  0.1575  0.2372
  523MPD2    C4 7820   2.112   0.518   9.844  0.0059 -0.1607  0.2519
  523MPD2    C5 7821   2.162   0.532   9.973 -0.2361  0.6049 -0.1951
  523MPD2     H 7822   1.933   0.238   9.888 -2.1048  1.8977  2.0818
  523MPD2    H1 7823   2.148   0.595   9.777 -2.1638  1.0147  0.4197
  523MPD2    H2 7824   2.167   0.440  10.167 -1.0094  0.3068 -0.0510
  523MPD2    H3 7825   2.229   0.613  10.000  0.1372  0.2226  0.0224
  523MPD2     N 7826   1.989   0.413   9.672  0.0681  0.1930  0.5666
  523MPD2    H5 7827   2.019   0.490   9.614  4.0990 -1.3742  0.5716
  523MPD2    N1 7828   2.033   0.231  10.140  0.5065  0.5293 -0.0744
  523MPD2    H7 7829   2.058   0.258  10.234  1.1470  0.8025 -0.3205
  524TMC3    C1 7830   1.868   0.342   9.478 -0.1091  0.2143 -0.1337
  524TMC3    C2 7831   1.819   0.244   9.404 -0.0034 -0.7640 -0.0630
  524TMC3    C3 7832   1.731   0.280   9.305 -0.2246 -0.3259 -0.8431
  524TMC3    C4 7833   1.847   0.475   9.452  0.1198  0.4304 -0.1725
  524TMC3    C5 7834   1.765   0.506   9.352  0.0064 -0.3653 -0.1363
  524TMC3    C6 7835   1.704   0.409   9.275  0.4479 -0.1264 -0.4956
  524TMC3     C 7836   1.908   0.316   9.616  0.1707  0.2554 -0.0840
  524TMC3     O 7837   1.861   0.208   9.654  0.2485  0.7989 -0.0960
  524TMC3     H 7838   1.813   0.144   9.443 -1.1205 -0.2469  1.1082
  524TMC3    H1 7839   1.873   0.556   9.520  1.3909 -1.6448  1.8184
  524TMC3    H2 7840   1.646   0.440   9.190 -0.3758  1.0422  0.4906
  524TMC3    C7 7841   1.731   0.648   9.337  0.7610 -1.1403 -0.6827
  524TMC3    C8 7842   1.658   0.171   9.236  0.7645 -0.2287  0.0472
  524TMC3    O1 7843   1.804   0.720   9.404 -0.3927 -0.3141  0.5173
  524TMC3    O2 7844   1.680   0.056   9.277 -0.2116  0.3674 -0.5775
  525MPD2     C 7845   0.268   1.930  14.332  0.0607  0.4750  0.5139
  525MPD2    C1 7846   0.396   1.923  14.381 -0.4670  0.6161 -0.0011
  525MPD2    C2 7847   0.469   2.042  14.373  0.0060  0.1075  0.6377
  525MPD2    C3 7848   0.413   2.160  14.330 -0.2178 -0.5684  0.2392
  525MPD2    C4 7849   0.283   2.164  14.286 -0.0344  0.2187  0.1535
  525MPD2    C5 7850   0.214   2.048  14.278  0.4183  0.3763 -0.7551
  525MPD2     H 7851   0.570   2.040  14.413  1.0264 -0.0335 -1.9341
  525MPD2    H1 7852   0.230   2.252  14.251 -0.0738  0.7647  1.5740
  525MPD2    H2 7853   0.207   1.841  14.325  0.2961  0.6425 -3.8572
  525MPD2    H3 7854   0.111   2.043  14.244 -0.2590 -0.3367  1.4433
  525MPD2     N 7855   0.475   2.288  14.336 -0.3793  0.4494 -0.7731
  525MPD2    H5 7856   0.423   2.374  14.323  2.0708  1.9138 -1.0325
  525MPD2    N1 7857   0.445   1.804  14.440 -0.1906 -0.1413  0.3399
  525MPD2    H7 7858   0.542   1.804  14.469 -0.2020  1.9060  0.3671
  526TMC3    C1 7859   0.446   1.604  14.533 -0.0187  0.2149  0.4815
  526TMC3    C2 7860   0.434   1.586  14.670  0.0958 -0.4003 -0.3526
  526TMC3    C3 7861   0.553   1.564  14.737  0.3639  0.5872  0.0562
  526TMC3    C4 7862   0.567   1.577  14.466  0.0387  0.7625 -0.3969
  526TMC3    C5 7863   0.677   1.544  14.535 -0.5436 -0.1631  0.2956
  526TMC3    C6 7864   0.672   1.536  14.674  0.9285  0.1055  0.7292
  526TMC3     C 7865   0.363   1.698  14.470 -0.6102 -0.2305  0.8107
  526TMC3     O 7866   0.246   1.702  14.506  0.1466 -0.5054 -0.1336
  526TMC3     H 7867   0.343   1.611  14.722  0.9843 -0.5362  1.2878
  526TMC3    H1 7868   0.566   1.572  14.358  0.3808  1.0714 -0.4148
  526TMC3    H2 7869   0.762   1.512  14.731  1.0147 -0.1509  0.4833
  526TMC3    C7 7870   0.797   1.493  14.467 -0.2843 -0.9509 -0.2717
  526TMC3    C8 7871   0.553   1.588  14.879 -0.7736 -0.4994 -0.0773
  526TMC3    O1 7872   0.883   1.451  14.543 -0.4265 -0.3771 -0.6873
  526TMC3    O2 7873   0.658   1.629  14.926  0.1521  0.0526 -0.2918
  527MPD2     C 7874   2.520   4.327   1.584 -0.0318  0.2665  0.3024
  527MPD2    C1 7875   2.548   4.393   1.467 -0.2273 -0.2667  0.6278
  527MPD2    C2 7876   2.678   4.388   1.418 -0.1309  0.7346 -0.1116
  527MPD2    C3 7877   2.776   4.317   1.480 -0.1855  0.0006 -0.0467
  527MPD2    C4 7878   2.744   4.243   1.595  0.0001  0.2586  0.2463
  527MPD2    C5 7879   2.616   4.254   1.648  0.0791 -0.1171 -0.2966
  527MPD2     H 7880   2.716   4.447   1.336 -1.2350  0.1087 -1.0716
  527MPD2    H1 7881   2.824   4.206   1.659 -1.3526 -1.1221  1.1359
  527MPD2    H2 7882   2.423   4.323   1.633 -0.8393 -2.4544 -1.5438
  527MPD2    H3 7883   2.592   4.224   1.750  2.0922 -1.6317 -0.2880
  527MPD2     N 7884   2.902   4.328   1.433  0.3116  0.8020  0.1832
  527MPD2    H5 7885   2.913   4.381   1.347  1.6528 -0.3514 -0.3599
  527MPD2    N1 7886   2.454   4.472   1.397 -0.1275  0.4998 -0.3597
  527MPD2    H7 7887   2.493   4.498   1.307  1.7277 -0.3897  0.1925
  528TMC3    C1 7888   2.257   4.599   1.356 -0.7898 -0.2943  0.8028
  528TMC3    C2 7889   2.326   4.663   1.259 -0.3103 -0.1617  0.3351
  528TMC3    C3 7890   2.267   0.011   1.175  0.0552  0.1220  0.8150
  528TMC3    C4 7891   2.121   4.613   1.356 -0.0683 -0.2506  0.4275
  528TMC3    C5 7892   2.058   4.687   1.258  0.2095  0.1997  0.0955
  528TMC3    C6 7893   2.130   0.028   1.166  0.2709  0.1774 -0.7606
  528TMC3     C 7894   2.324   4.492   1.435  0.2064 -0.0244 -0.1719
  528TMC3     O 7895   2.265   4.453   1.536 -0.0587 -0.0076 -0.0061
  528TMC3     H 7896   2.434   4.652   1.254 -0.2920 -0.3635  1.2293
  528TMC3    H1 7897   2.069   4.549   1.426 -1.4309  1.8827  1.3912
  528TMC3    H2 7898   2.078   0.093   1.097 -0.7394 -0.7607 -0.8780
  528TMC3    C7 7899   1.921   4.675   1.241  0.7778  0.2496  0.1686
  528TMC3    C8 7900   2.350   0.069   1.070  0.4918  0.0833  0.9176
  528TMC3    O1 7901   1.866   4.649   1.348  0.8623 -0.2272 -0.6383
  528TMC3    O2 7902   2.461   0.026   1.049  0.5998 -0.3871  0.5173
  529MPD2     C 7903   0.589   1.908  17.577 -0.0601  0.3057  0.1029
  529MPD2    C1 7904   0.610   2.001  17.679 -0.0743 -0.8681  0.4419
  529MPD2    C2 7905   0.631   2.136  17.658 -0.1573 -0.4315  0.2985
  529MPD2    C3 7906   0.648   2.178  17.531  0.1183  1.1998  0.6280
  529MPD2    C4 7907   0.653   2.085  17.427  0.0625 -0.0221 -0.6012
  529MPD2    C5 7908   0.626   1.949  17.452 -0.5006 -0.0824  0.1339
  529MPD2     H 7909   0.644   2.203  17.742 -1.5345 -1.1838  1.0994
  529MPD2    H1 7910   0.687   2.105  17.326  1.6727  0.9652  0.1433
  529MPD2    H2 7911   0.567   1.803  17.597  3.6557 -0.4984 -0.1043
  529MPD2    H3 7912   0.622   1.875  17.373  0.3754 -2.2608  2.1393
  529MPD2     N 7913   0.672   2.315  17.498 -0.5126  0.5124  0.2806
  529MPD2    H5 7914   0.690   2.331  17.399 -3.6508  0.9436 -0.2189
  529MPD2    N1 7915   0.599   1.960   0.070  0.3409 -0.3260  0.5268
  529MPD2    H7 7916   0.631   2.034   0.132  2.8652 -0.8546 -0.1461
  530TMC3    C1 7917   0.555   1.832   0.267  0.6149 -0.3460 -0.5202
  530TMC3    C2 7918   0.596   1.942   0.338  0.3535 -0.0310 -0.3431
  530TMC3    C3 7919   0.594   1.939   0.473  0.3202  0.3796  0.2812
  530TMC3    C4 7920   0.528   1.716   0.330  0.2744  0.0505 -0.4824
  530TMC3    C5 7921   0.523   1.720   0.466 -0.4706 -0.3203 -0.1665
  530TMC3    C6 7922   0.543   1.830   0.543  0.0312  0.0652 -0.0109
  530TMC3     C 7923   0.557   1.840   0.121 -0.0847 -0.5378 -0.4204
  530TMC3     O 7924   0.539   1.734   0.065 -0.2451 -0.3949 -0.5013
  530TMC3     H 7925   0.611   2.038   0.292  0.8337 -0.7625 -1.7188
  530TMC3    H1 7926   0.499   1.628   0.274 -0.9298 -0.3184  0.7181
  530TMC3    H2 7927   0.539   1.833   0.651 -2.3805 -0.9601 -0.0663
  530TMC3    C7 7928   0.457   1.602   0.520  0.5037  0.1582 -0.1635
  530TMC3    C8 7929   0.648   2.052   0.548  0.4705  1.0824 -0.3957
  530TMC3    O1 7930   0.484   1.498   0.461  0.8034 -0.9545  0.3334
  530TMC3    O2 7931   0.651   2.159   0.494  0.3521  0.0372  0.1045
  531MPD2     C 7932   0.215   0.701  12.808 -0.0297 -0.1373 -0.2904
  531MPD2    C1 7933   0.108   0.713  12.897 -0.2581 -0.2392 -0.0062
  531MPD2    C2 7934   0.025   0.606  12.903 -0.2613 -0.4370  0.0684
  531MPD2    C3 7935   0.042   0.491  12.831  0.0365 -0.4733  0.5132
  531MPD2    C4 7936   0.137   0.481  12.732 -0.0823  0.4471 -0.4255
  531MPD2    C5 7937   0.223   0.592  12.724 -0.6125  0.4885 -0.3279
  531MPD2     H 7938   4.676   0.612  12.970  0.2863 -1.2991  0.8401
  531MPD2    H1 7939   0.150   0.391  12.673 -2.9022  0.7852 -1.5675
  531MPD2    H2 7940   0.283   0.784  12.793 -0.4421  0.4599  1.1758
  531MPD2    H3 7941   0.311   0.581  12.661  0.3731 -2.3704  1.5386
  531MPD2     N 7942   4.700   0.375  12.839  0.1243  0.2569 -0.2788
  531MPD2    H5 7943   4.723   0.293  12.785  2.8750  0.0425  1.2576
  531MPD2    N1 7944   0.098   0.826  12.987 -0.4709 -0.6124  0.7232
  531MPD2    H7 7945   0.171   0.896  12.984 -0.5772 -0.5926 -1.3690
  532TMC3    C1 7946   4.728   0.974  13.147  0.1861 -0.0970  0.6281
  532TMC3    C2 7947   4.594   1.000  13.169 -0.7629  0.0173  0.9302
  532TMC3    C3 7948   4.543   1.021  13.294 -0.0159 -0.1168  0.0614
  532TMC3    C4 7949   0.076   0.981  13.257  0.4032  0.3547  0.4985
  532TMC3    C5 7950   0.028   1.011  13.378  0.9988 -0.6806  0.0146
  532TMC3    C6 7951   4.629   1.030  13.400 -0.2800 -0.3160  0.1602
  532TMC3     C 7952   4.731   0.846  13.078  0.6891  0.6060  0.1334
  532TMC3     O 7953   4.628   0.786  13.090  0.6117  0.2389  0.0098
  532TMC3     H 7954   4.526   1.000  13.084 -0.3420 -1.0458  0.5904
  532TMC3    H1 7955   0.181   0.983  13.231 -0.4857  3.9152 -2.9205
  532TMC3    H2 7956   4.587   1.027  13.500 -0.2251 -1.6244  0.1563
  532TMC3    C7 7957   0.083   0.940  13.486  0.2166 -0.3219  0.4230
  532TMC3    C8 7958   4.424   0.950  13.336 -0.2063 -0.5139  0.5284
  532TMC3    O1 7959   0.067   0.977  13.601 -0.2276 -0.3562 -0.3003
  532TMC3    O2 7960   4.348   0.979  13.427 -0.8669  0.0078  0.4285
  533TMC3    C1 7961   0.636   2.449  14.406 -0.3938  0.2223 -0.3351
  533TMC3    C2 7962   0.765   2.483  14.428 -0.6525  0.1327  0.7077
  533TMC3    C3 7963   0.799   2.560  14.539 -0.1717  0.8800  0.5892
  533TMC3    C4 7964   0.538   2.505  14.492  0.0778 -0.4333  0.9913
  533TMC3    C5 7965   0.578   2.592  14.589  0.1901 -0.5956  0.0733
  533TMC3    C6 7966   0.707   2.630  14.614  0.0116  0.0406 -0.1875
  533TMC3     C 7967   0.609   2.309  14.361 -0.4074  0.2881  0.3248
  533TMC3     O 7968   0.704   2.230  14.355 -0.3284  0.4060 -0.2302
  533TMC3     H 7969   0.850   2.452  14.368 -0.6511 -0.0062  0.7807
  533TMC3    H1 7970   0.433   2.480  14.480 -0.3914  2.1817 -0.3638
  533TMC3    H2 7971   0.743   2.686  14.700 -0.2652 -0.6140  0.3567
  533TMC3    C7 7972   0.523   2.536  14.713 -0.2835 -0.2449 -0.3190
  533TMC3    C8 7973   0.911   2.656  14.512 -0.5663 -0.1054  0.2566
  533TMC3    O1 7974   0.493   2.419  14.710 -0.1513 -0.1405  0.1026
  533TMC3    O2 7975   0.899   2.773  14.544  0.1706 -0.6207 -0.3218
  534MPD2     C 7976   2.677   2.674   1.435 -0.1572  0.0572  0.2853
  534MPD2    C1 7977   2.651   2.811   1.434 -0.1280  0.7767 -0.3860
  534MPD2    C2 7978   2.541   2.847   1.358 -0.0029  0.7362  0.1756
  534MPD2    C3 7979   2.461   2.758   1.298 -0.3267 -0.1093 -0.0782
  534MPD2    C4 7980   2.479   2.622   1.305 -0.0838  1.4326 -0.1699
  534MPD2    C5 7981   2.593   2.587   1.369 -0.2900 -0.6095  0.8704
  534MPD2     H 7982   2.529   2.954   1.353  1.4649  0.9161  0.5820
  534MPD2    H1 7983   2.422   2.550   1.247 -0.6125  1.6597  0.0639
  534MPD2    H2 7984   2.766   2.625   1.472 -1.4799 -0.8724  2.2334
  534MPD2    H3 7985   2.632   2.486   1.372 -1.5014 -1.1840 -2.1292
  534MPD2     N 7986   2.351   2.799   1.218 -0.0683 -0.1584  0.1363
  534MPD2    H5 7987   2.308   2.724   1.165 -1.8257  1.2442 -0.4204
  534MPD2    N1 7988   2.731   2.910   1.498  0.6301  0.2233  0.1731
  534MPD2    H7 7989   2.680   2.997   1.509 -1.2008 -0.7586 -0.4460
  535TMC3    C1 7990   2.215   2.943   1.099 -0.7625  0.0175 -0.2215
  535TMC3    C2 7991   2.154   2.832   1.060 -0.6746  0.1060  0.4166
  535TMC3    C3 7992   2.109   2.812   0.932  0.1649 -0.1582 -0.5146
  535TMC3    C4 7993   2.237   3.044   1.016 -0.1211  0.0505  0.1523
  535TMC3    C5 7994   2.208   3.020   0.885 -0.0620 -0.2485 -0.2191
  535TMC3    C6 7995   2.133   2.914   0.845  0.6812 -0.4474 -0.0191
  535TMC3     C 7996   2.303   2.929   1.209  0.2849 -0.0406  0.3428
  535TMC3     O 7997   2.346   3.032   1.258 -0.1999  0.2646  0.0459
  535TMC3     H 7998   2.145   2.746   1.126 -1.2968 -0.3767 -0.2873
  535TMC3    H1 7999   2.270   3.140   1.053  1.4330  0.1157 -1.4009
  535TMC3    H2 8000   2.099   2.899   0.743  1.4908 -0.0305 -0.3516
  535TMC3    C7 8001   2.230   3.117   0.778  0.1826  0.2547 -0.0394
  535TMC3    C8 8002   1.982   2.746   0.915  0.1261 -0.3951  0.2053
  535TMC3    O1 8003   2.175   3.103   0.671 -0.0959  0.1775  0.2541
  535TMC3    O2 8004   1.950   2.728   0.800  0.6800 -0.0850  0.1846
  536MPD2     C 8005   1.998   1.833  16.103 -0.1079 -0.3672 -0.4604
  536MPD2    C1 8006   1.900   1.737  16.086  0.0801  0.0779  1.2456
  536MPD2    C2 8007   1.858   1.701  15.954  0.1594 -0.0584 -0.0882
  536MPD2    C3 8008   1.928   1.746  15.843  1.4870  0.0043  0.4016
  536MPD2    C4 8009   2.038   1.825  15.866  0.6946 -0.8256 -0.3571
  536MPD2    C5 8010   2.071   1.874  15.990 -0.1048 -0.4379 -0.0522
  536MPD2     H 8011   1.765   1.648  15.943  1.9609 -3.3373  0.4236
  536MPD2    H1 8012   2.099   1.867  15.786  0.4012 -2.2088 -1.3070
  536MPD2    H2 8013   2.031   1.865  16.201 -3.3738 -1.8082  1.0946
  536MPD2    H3 8014   2.146   1.950  16.010 -0.3658 -0.0265 -0.6528
  536MPD2     N 8015   1.899   1.709  15.709 -0.4630 -0.0738 -0.1842
  536MPD2    H5 8016   1.939   1.767  15.635  1.2737 -0.6377  0.3077
  536MPD2    N1 8017   1.838   1.698  16.205  0.1981  0.0467  0.0824
  536MPD2    H7 8018   1.877   1.728  16.294  0.6168  1.7816 -0.6973
  537TMC3    C1 8019   1.689   1.585  16.352  0.2717  0.1736  0.0977
  537TMC3    C2 8020   1.728   1.666  16.457  0.5775  0.0710  0.2412
  537TMC3    C3 8021   1.708   1.611  16.581  1.2255 -0.0658  0.3049
  537TMC3    C4 8022   1.626   1.463  16.367 -0.5586  0.3245  0.6205
  537TMC3    C5 8023   1.614   1.415  16.493 -0.0149 -1.0852  1.6010
  537TMC3    C6 8024   1.656   1.485  16.600  0.0079  0.3394  0.3789
  537TMC3     C 8025   1.725   1.622  16.212 -0.7450 -0.2726 -0.2616
  537TMC3     O 8026   1.661   1.568  16.122 -0.1859  0.6017 -0.0536
  537TMC3     H 8027   1.778   1.758  16.430  2.1446 -1.2821 -1.4843
  537TMC3    H1 8028   1.597   1.421  16.271  3.0446 -0.3269 -0.1884
  537TMC3    H2 8029   1.654   1.447  16.702  0.6430  0.3213  0.3826
  537TMC3    C7 8030   1.541   1.286  16.509 -0.0348 -0.0981  0.0930
  537TMC3    C8 8031   1.755   1.686  16.694  0.6770 -0.5525  0.1010
  537TMC3    O1 8032   1.491   1.243  16.405  0.2885  0.0162 -0.5369
  537TMC3    O2 8033   1.770   1.634  16.801  0.3659  0.0236 -0.1452
  538TMC3    C1 8034   2.622   0.182  11.196 -0.0779 -0.1677 -0.2512
  538TMC3    C2 8035   2.750   0.229  11.188  0.2223 -0.3364 -1.1268
  538TMC3    C3 8036   2.806   0.260  11.062 -0.0748 -0.1381  0.3231
  538TMC3    C4 8037   2.543   0.188  11.085  0.3233  0.3250  0.2343
  538TMC3    C5 8038   2.601   0.231  10.962 -0.2232  0.8653 -1.2812
  538TMC3    C6 8039   2.733   0.256  10.946 -0.6159 -0.8606  0.9801
  538TMC3     C 8040   2.602   0.066  11.278  0.6195 -0.1718 -0.3233
  538TMC3     O 8041   2.566   4.698  11.223 -0.1223  0.0841  0.4921
  538TMC3     H 8042   2.817   0.227  11.273 -1.2993 -1.7262  0.0278
  538TMC3    H1 8043   2.438   0.168  11.104  0.3893  0.0339  0.2940
  538TMC3    H2 8044   2.787   0.262  10.852 -1.7100 -1.3672  0.3267
  538TMC3    C7 8045   2.512   0.229  10.854  0.5389 -0.5304 -0.1404
  538TMC3    C8 8046   2.945   0.293  11.064 -0.5455 -0.0178  0.1362
  538TMC3    O1 8047   2.403   0.187  10.883  0.3997  0.2563 -0.0824
  538TMC3    O2 8048   3.000   0.290  11.175 -0.5318 -0.0269  0.6175
  539MPD2     C 8049   1.944   4.101  12.197  0.0998  0.3881  0.2993
  539MPD2    C1 8050   2.007   4.136  12.074 -0.5345  0.0650 -0.1762
  539MPD2    C2 8051   2.046   4.271  12.055 -0.1512  0.8224 -0.2197
  539MPD2    C3 8052   2.021   4.368  12.146  0.6849  0.1037  0.1421
  539MPD2    C4 8053   1.959   4.332  12.262  0.1385  0.7815  0.0205
  539MPD2    C5 8054   1.923   4.199  12.290  0.0376  0.0607 -0.2462
  539MPD2     H 8055   2.085   4.297  11.957 -1.4239  0.1263 -0.9064
  539MPD2    H1 8056   1.936   4.411  12.332  0.0523  1.0497 -0.3084
  539MPD2    H2 8057   1.930   3.997  12.221  2.0232 -0.0262 -0.3844
  539MPD2    H3 8058   1.875   4.170  12.382 -0.1815 -0.2975 -0.4750
  539MPD2     N 8059   2.031   4.504  12.113 -0.2892 -0.6280 -0.6298
  539MPD2    H5 8060   2.001   4.556  12.195  0.4537  0.4455 -1.0455
  539MPD2    N1 8061   2.052   4.027  11.994  0.5341  0.7275  0.4983
  539MPD2    H7 8062   2.013   3.939  12.025 -0.6367  0.8643 -0.5996
  540TMC3    C1 8063   2.097   4.707  12.003  0.1870 -0.3147  0.0533
  540TMC3    C2 8064   2.181   0.034  11.917  0.0562 -0.3413  0.6170
  540TMC3    C3 8065   2.177   0.169  11.908  0.4179 -1.1800  0.3974
  540TMC3    C4 8066   1.988   0.030  12.063 -0.3600 -0.1874  0.4433
  540TMC3    C5 8067   1.983   0.166  12.054  0.1028 -0.0809 -0.6614
  540TMC3    C6 8068   2.078   0.236  11.977 -0.3053  0.1821  0.2102
  540TMC3     C 8069   2.105   4.556  12.007 -0.1472 -0.7577 -0.3788
  540TMC3     O 8070   2.192   4.500  11.941  0.5618  0.0883  0.9878
  540TMC3     H 8071   2.263   4.722  11.865  0.2881  0.8310 -0.0943
  540TMC3    H1 8072   1.921   4.709  12.127  0.4379 -2.7894 -1.0646
  540TMC3    H2 8073   2.060   0.341  11.961 -2.7891 -0.3921 -0.7111
  540TMC3    C7 8074   1.861   0.231  12.089 -0.8112 -0.4330  0.2844
  540TMC3    C8 8075   2.223   0.215  11.772 -0.5597  0.4060  0.3463
  540TMC3    O1 8076   1.859   0.347  12.119 -0.0472  0.2386  0.4146
  540TMC3    O2 8077   2.286   0.320  11.765 -0.1249 -0.6332 -0.0795
  541MPD2     C 8078   0.750   0.965  13.288  0.8548  0.2345  0.0126
  541MPD2    C1 8079   0.816   0.870  13.208  0.1737 -0.2253 -0.7203
  541MPD2    C2 8080   0.883   0.924  13.096  0.6551 -0.0002 -0.2274
  541MPD2    C3 8081   0.902   1.059  13.071 -0.4848  0.2805 -0.0524
  541MPD2    C4 8082   0.835   1.149  13.151 -0.0719  0.2166  0.0661
  541MPD2    C5 8083   0.756   1.099  13.252  0.0294 -0.0407 -0.2018
  541MPD2     H 8084   0.922   0.861  13.017  0.2207  2.3050 -2.2434
  541MPD2    H1 8085   0.824   1.255  13.134  0.3322  0.6434  2.5009
  541MPD2    H2 8086   0.701   0.933  13.379 -0.5163  1.2287 -0.3751
  541MPD2    H3 8087   0.713   1.170  13.320 -2.7536 -0.3393 -1.6431
  541MPD2     N 8088   0.971   1.110  12.956 -0.5017 -0.6448  0.0256
  541MPD2    H5 8089   0.979   1.209  12.938  1.0134 -0.6930  0.4005
  541MPD2    N1 8090   0.823   0.729  13.224 -0.0482  0.0459 -0.7390
  541MPD2    H7 8091   0.860   0.681  13.143 -0.8029  0.8326 -1.5578
  542TMC3    C1 8092   1.057   1.106  12.741  0.2670 -0.1066 -0.4339
  542TMC3    C2 8093   1.126   1.037  12.646 -0.1745 -0.1415  0.0718
  542TMC3    C3 8094   1.137   1.102  12.524 -0.3318  0.4803 -0.0495
  542TMC3    C4 8095   0.995   1.224  12.725 -0.5441 -0.1784  0.4718
  542TMC3    C5 8096   0.999   1.273  12.601  1.1046 -0.1037  0.2851
  542TMC3    C6 8097   1.077   1.216  12.500 -0.0104  0.1425  0.8138
  542TMC3     C 8098   1.050   1.039  12.866  0.3369  0.8647 -0.5670
  542TMC3     O 8099   1.086   0.922  12.873  0.3505 -0.1584  0.4552
  542TMC3     H 8100   1.161   0.934  12.655 -1.1881 -0.6937 -2.2651
  542TMC3    H1 8101   0.930   1.276  12.794 -1.3331 -0.8111  0.2079
  542TMC3    H2 8102   1.088   1.273  12.409 -0.7738 -0.5280  0.2964
  542TMC3    C7 8103   0.948   1.402  12.588  0.8066  0.0811  0.0666
  542TMC3    C8 8104   1.168   1.024  12.400 -0.1681 -0.4713 -0.0374
  542TMC3    O1 8105   0.971   1.476  12.684 -0.1068 -0.1076 -0.8807
  542TMC3    O2 8106   1.099   1.050  12.300 -0.1369  0.0276 -0.0345
  543TMC3    C1 8107   0.123   1.930  16.500  0.0230 -0.1655  0.2556
  543TMC3    C2 8108   0.130   1.792  16.502  0.1477 -0.3626  0.2732
  543TMC3    C3 8109   0.072   1.723  16.602  0.5751 -0.1196  0.8912
  543TMC3    C4 8110   0.063   1.989  16.606  0.0517  0.0425 -0.3226
  543TMC3    C5 8111   4.731   1.913  16.697 -0.5534 -0.0345 -1.1067
  543TMC3    C6 8112   0.001   1.778  16.702  0.3167 -0.7115  0.1897
  543TMC3     C 8113   0.231   1.987  16.439  0.1297 -0.5398 -0.1206
  543TMC3     O 8114   0.331   1.919  16.426 -0.0868 -0.3924  0.3819
  543TMC3     H 8115   0.186   1.740  16.425  0.5921  1.0270 -0.3474
  543TMC3    H1 8116   0.051   2.097  16.605 -1.2613 -0.0695  2.1931
  543TMC3    H2 8117   4.693   1.726  16.787 -0.2459 -0.5543 -0.0066
  543TMC3    C7 8118   4.695   1.989  16.815  0.3966 -0.6627  0.1417
  543TMC3    C8 8119   0.102   1.582  16.608 -0.1574 -0.0758  1.4036
  543TMC3    O1 8120   4.681   2.109  16.809 -0.6825  0.3487 -0.2212
  543TMC3    O2 8121   0.188   1.545  16.534  0.0656 -0.2079 -0.2095
  544MPD2     C 8122   4.690   1.092  16.695 -0.1444  0.0672 -0.2612
  544MPD2    C1 8123   0.077   1.144  16.649 -0.2364  0.3938 -0.7817
  544MPD2    C2 8124   0.093   1.275  16.620  0.0182  0.1075  0.8149
  544MPD2    C3 8125   4.725   1.360  16.651 -0.4206 -0.4529 -0.2673
  544MPD2    C4 8126   4.607   1.306  16.694 -0.1430  0.0353  0.7907
  544MPD2    C5 8127   4.590   1.176  16.719 -0.3113  0.7777  0.0305
  544MPD2     H 8128   0.186   1.319  16.588 -0.2401  0.4630  0.5571
  544MPD2    H1 8129   4.528   1.377  16.714  0.1112  1.3566 -2.8612
  544MPD2    H2 8130   4.671   0.988  16.717 -0.4608  0.3897  0.9720
  544MPD2    H3 8131   4.499   1.136  16.762  0.6611 -0.6167  0.8159
  544MPD2     N 8132   4.733   1.508  16.650  0.7731  0.3679  0.0465
  544MPD2    H5 8133   4.657   1.561  16.692 -1.1062 -1.8259 -0.6338
  544MPD2    N1 8134   0.180   1.049  16.632  0.7452 -0.4453 -0.1128
  544MPD2    H7 8135   0.156   0.952  16.648 -0.0996 -0.5062 -1.7398
  545TMC3    C1 8136   0.388   0.967  16.572  0.2409 -0.2791  0.5949
  545TMC3    C2 8137   0.331   0.858  16.524  0.2609 -0.2542 -0.2102
  545TMC3    C3 8138   0.412   0.741  16.523 -0.1983  0.2203  0.4569
  545TMC3    C4 8139   0.523   0.982  16.601 -0.3406  0.0209  0.0481
  545TMC3    C5 8140   0.604   0.865  16.586  0.3379 -0.3274 -0.4363
  545TMC3    C6 8141   0.546   0.742  16.556  0.1257  0.2032  0.2839
  545TMC3     C 8142   0.310   1.085  16.601  0.3941 -0.6355  0.4537
  545TMC3     O 8143   0.375   1.187  16.602 -0.0136  0.2399  0.2587
  545TMC3     H 8144   0.225   0.838  16.513 -0.0186 -0.3604  2.6774
  545TMC3    H1 8145   0.560   1.069  16.653  1.0631 -0.2723 -0.4469
  545TMC3    H2 8146   0.608   0.654  16.557 -1.9419 -1.2584 -0.3468
  545TMC3    C7 8147   0.744   0.879  16.617 -0.9866 -0.1915 -0.0400
  545TMC3    C8 8148   0.343   0.616  16.497 -0.8697 -0.3902 -0.1835
  545TMC3    O1 8149   0.784   0.993  16.622  1.0312  0.4676 -0.0266
  545TMC3    O2 8150   0.223   0.618  16.515 -0.0852  0.2108  0.3452
  546MPD2     C 8151   1.969   2.187  17.344 -0.9081  0.3479  0.5494
  546MPD2    C1 8152   1.891   2.241  17.248  0.0401 -0.6290  0.0769
  546MPD2    C2 8153   1.911   2.369  17.215  0.8734 -0.0952  0.1126
  546MPD2    C3 8154   1.994   2.450  17.289  0.2379 -0.0042  0.8124
  546MPD2    C4 8155   2.079   2.391  17.379 -0.3906 -0.8061 -0.1716
  546MPD2    C5 8156   2.062   2.263  17.406  0.0111 -0.9121  0.2203
  546MPD2     H 8157   1.858   2.418  17.134 -0.3876  0.5507  1.3229
  546MPD2    H1 8158   2.149   2.449  17.438 -2.3303  1.1602  0.2371
  546MPD2    H2 8159   1.975   2.085  17.380 -0.4690  0.6842  1.4356
  546MPD2    H3 8160   2.124   2.215  17.481 -0.7959  0.2235  1.6124
  546MPD2     N 8161   2.027   2.588  17.267  0.5993  0.1235  0.3653
  546MPD2    H5 8162   2.103   2.634  17.316  0.2845 -0.0022  0.9700
  546MPD2    N1 8163   1.797   2.157  17.182 -0.3968  0.3240 -0.0299
  546MPD2    H7 8164   1.798   2.063  17.219  0.6982 -0.0405 -0.9926
  547TMC3    C1 8165   1.620   2.091  17.031  0.0869  0.2646 -0.3612
  547TMC3    C2 8166   1.520   2.125  16.934  0.4573 -0.5920  0.4385
  547TMC3    C3 8167   1.454   2.020  16.879  0.7418 -0.8237  0.1253
  547TMC3    C4 8168   1.649   1.957  17.050  0.0236 -0.0265 -0.4501
  547TMC3    C5 8169   1.572   1.854  16.988  0.4487 -0.3233  0.1265
  547TMC3    C6 8170   1.471   1.892  16.903 -0.7434  1.2575  0.9963
  547TMC3     C 8171   1.706   2.194  17.082 -0.1270  0.2506  0.0179
  547TMC3     O 8172   1.689   2.301  17.030  0.9986 -0.1224 -0.4283
  547TMC3     H 8173   1.494   2.224  16.901  0.3759 -1.1120 -1.0423
  547TMC3    H1 8174   1.739   1.930  17.106  0.7777  0.8102 -1.2617
  547TMC3    H2 8175   1.425   1.816  16.842  1.0790  2.5684 -2.0068
  547TMC3    C7 8176   1.575   1.715  17.047  0.5710  0.2337 -0.2290
  547TMC3    C8 8177   1.354   2.060  16.783 -0.2405  0.1120  0.5472
  547TMC3    O1 8178   1.493   1.632  17.002  0.0537  0.0741  0.7449
  547TMC3    O2 8179   1.375   2.148  16.706  0.0928 -0.1498 -0.1844
  548MPD2     C 8180   1.428   2.915  12.361  0.3458  0.1312 -0.0095
  548MPD2    C1 8181   1.417   2.788  12.413  0.1601  0.5062 -0.5166
  548MPD2    C2 8182   1.526   2.711  12.412  0.4650 -0.4113 -0.0492
  548MPD2    C3 8183   1.649   2.758  12.368 -0.6841 -0.6831 -0.1859
  548MPD2    C4 8184   1.666   2.884  12.320 -0.3462  0.2170  1.0603
  548MPD2    C5 8185   1.545   2.958  12.318 -0.0347  0.0277  1.1150
  548MPD2     H 8186   1.525   2.608  12.446 -2.3172 -0.7401 -1.1372
  548MPD2    H1 8187   1.760   2.925  12.286 -0.2809  0.3079  1.3451
  548MPD2    H2 8188   1.339   2.977  12.350 -1.1582 -2.1852 -0.8220
  548MPD2    H3 8189   1.549   3.062  12.287 -0.5937 -0.4928 -0.7113
  548MPD2     N 8190   1.757   2.663  12.366  0.0491  0.3849  0.0643
  548MPD2    H5 8191   1.737   2.565  12.385  0.7636  0.2405  0.0493
  548MPD2    N1 8192   1.302   2.744  12.484  0.1759 -0.5871 -0.7931
  548MPD2    H7 8193   1.241   2.819  12.515 -0.8581 -1.2962 -1.1330
  549TMC3    C1 8194   1.199   2.582  12.633  0.6549 -0.5797  0.5903
  549TMC3    C2 8195   1.148   2.689  12.706  0.0675  0.9263  0.2105
  549TMC3    C3 8196   1.061   2.659  12.805 -0.3979  0.4308 -0.5216
  549TMC3    C4 8197   1.177   2.449  12.667  0.4045  0.2348  0.6509
  549TMC3    C5 8198   1.095   2.422  12.772 -0.1958 -0.4563  0.4332
  549TMC3    C6 8199   1.043   2.528  12.851  0.7473 -0.6940  0.5593
  549TMC3     C 8200   1.284   2.611  12.518 -0.4561  0.2193 -0.2361
  549TMC3     O 8201   1.318   2.510  12.454 -0.1252 -0.7917  0.3115
  549TMC3     H 8202   1.154   2.792  12.671 -1.5652  0.6503 -0.8833
  549TMC3    H1 8203   1.228   2.364  12.624  1.3764  1.7978 -1.2552
  549TMC3    H2 8204   0.966   2.511  12.926  0.8182 -0.3738  0.7031
  549TMC3    C7 8205   1.111   2.295  12.838  0.3995 -0.3176  0.0872
  549TMC3    C8 8206   0.995   2.769  12.876  0.3226 -0.5394 -1.2366
  549TMC3    O1 8207   1.117   2.300  12.959  0.4274  0.4082 -0.0918
  549TMC3    O2 8208   0.883   2.744  12.918  0.3746  0.0257 -0.2125
  550TMC3    C1 8209   0.717   0.669  12.415  0.1652  0.4016  0.0966
  550TMC3    C2 8210   0.710   0.789  12.478 -0.5016 -0.8123  0.0046
  550TMC3    C3 8211   0.773   0.896  12.426  0.0950  0.4339 -0.2667
  550TMC3    C4 8212   0.790   0.652  12.298  0.3992  0.2303 -0.9907
  550TMC3    C5 8213   0.833   0.767  12.239  0.2365  0.4794 -0.0236
  550TMC3    C6 8214   0.830   0.886  12.300 -0.4529 -0.2128  1.0993
  550TMC3     C 8215   0.593   0.599  12.410  0.2304 -0.0802  0.2345
  550TMC3     O 8216   0.510   0.615  12.499 -0.1110 -0.3704  0.3862
  550TMC3     H 8217   0.669   0.791  12.578 -0.7700 -0.0677 -0.1250
  550TMC3    H1 8218   0.809   0.553  12.258 -0.9983 -0.1649 -0.6777
  550TMC3    H2 8219   0.866   0.976  12.250  0.8924 -0.4152  1.6923
  550TMC3    C7 8220   0.760   0.772  12.109  0.4047  0.1119  0.2278
  550TMC3    C8 8221   0.741   1.029  12.480 -0.2126 -0.3929  0.3649
  550TMC3    O1 8222   0.720   0.659  12.074  0.2181 -0.2598 -0.0802
  550TMC3    O2 8223   0.754   1.127  12.406  0.5120  0.4727 -0.3026
  551TMC3    C1 8224   2.432   3.152  13.277 -0.1741  0.1089 -0.2568
  551TMC3    C2 8225   2.527   3.214  13.201  0.1001 -0.0187 -0.5648
  551TMC3    C3 8226   2.631   3.273  13.259 -0.2874 -0.2185 -1.3114
  551TMC3    C4 8227   2.441   3.158  13.413  0.4915 -0.4036  0.7522
  551TMC3    C5 8228   2.546   3.233  13.469  0.2033 -0.4895  0.0247
  551TMC3    C6 8229   2.636   3.292  13.393 -0.1599  0.4237  0.0147
  551TMC3     C 8230   2.331   3.062  13.222  0.4733  0.1201  0.7410
  551TMC3     O 8231   2.226   3.071  13.272  0.3668  0.0995  0.1067
  551TMC3     H 8232   2.531   3.201  13.094  1.1037 -1.8741 -0.3057
  551TMC3    H1 8233   2.374   3.095  13.470 -1.6080 -0.2343 -1.5506
  551TMC3    H2 8234   2.716   3.346  13.441 -0.7861  1.3637  0.0137
  551TMC3    C7 8235   2.561   3.255  13.619  0.1536  0.1290 -1.3334
  551TMC3    C8 8236   2.681   3.382  13.182 -0.1893 -0.4059  0.5553
  551TMC3    O1 8237   2.666   3.305  13.659 -0.4313  0.1364  0.2727
  551TMC3    O2 8238   2.618   3.421  13.086 -0.1793 -0.1762  0.0321
  552MPD2     C 8239   0.037   0.851  14.406 -0.3695  0.1067 -0.1566
  552MPD2    C1 8240   0.006   0.724  14.465 -0.3753  0.2341  0.1117
  552MPD2    C2 8241   0.092   0.669  14.560 -0.0586  0.1392  0.1197
  552MPD2    C3 8242   0.217   0.730  14.588 -0.0447 -0.0944 -0.0704
  552MPD2    C4 8243   0.249   0.845  14.521 -0.5074  0.4717 -0.0379
  552MPD2    C5 8244   0.163   0.903  14.432 -0.3648 -0.6387  0.1176
  552MPD2     H 8245   0.057   0.577  14.606  0.5315 -0.6500 -1.0214
  552MPD2    H1 8246   0.343   0.895  14.539  0.9957 -1.5380 -2.2678
  552MPD2    H2 8247   4.707   0.912  14.345 -0.1524 -0.0973 -0.5942
  552MPD2    H3 8248   0.195   0.991  14.378 -2.4857  0.5031  0.7284
  552MPD2     N 8249   0.310   0.679  14.676  0.0267 -0.2729 -0.1894
  552MPD2    H5 8250   0.389   0.740  14.696 -1.7232  2.0208 -0.3229
  552MPD2    N1 8251   4.627   0.655  14.439  0.7733 -0.7359  0.0280
  552MPD2    H7 8252   4.610   0.565  14.483  0.3586 -0.5255  0.2981
  553TMC3    C1 8253   4.408   0.603  14.365 -0.1004 -0.5402 -0.5386
  553TMC3    C2 8254   4.326   0.605  14.253  0.2974  0.6295  0.0617
  553TMC3    C3 8255   4.268   0.486  14.214  0.2838  0.4119 -0.3749
  553TMC3    C4 8256   4.423   0.496  14.445 -1.0290 -0.1606 -0.0938
  553TMC3    C5 8257   4.359   0.382  14.405 -0.1362 -0.4275  0.7876
  553TMC3    C6 8258   4.271   0.386  14.298 -0.1466  0.1255  0.0753
  553TMC3     C 8259   4.520   0.694  14.359  0.1898  0.0301 -0.4289
  553TMC3     O 8260   4.502   0.803  14.305 -0.3963  0.1984  0.6612
  553TMC3     H 8261   4.324   0.686  14.182 -0.7040 -0.5906 -1.3010
  553TMC3    H1 8262   4.467   0.506  14.544 -0.4797  0.8485 -0.4314
  553TMC3    H2 8263   4.234   0.292  14.258  0.7971  0.1237 -0.7994
  553TMC3    C7 8264   4.465   0.284  14.404  0.0136  0.0611 -0.4645
  553TMC3    C8 8265   4.283   0.451  14.074 -0.5281  0.7296  0.0068
  553TMC3    O1 8266   4.579   0.330  14.411  0.9266 -0.2052 -0.2777
  553TMC3    O2 8267   4.339   0.348  14.052 -0.3711  0.0307 -0.4818
  554TMC3    C1 8268   1.460   4.447  11.588  0.5842 -0.0682  0.1422
  554TMC3    C2 8269   1.359   4.369  11.542 -0.6058  0.3495  0.0238
  554TMC3    C3 8270   1.328   4.377  11.406 -0.5399  0.7315 -0.0356
  554TMC3    C4 8271   1.528   4.544  11.504 -0.8305 -0.3794 -0.4142
  554TMC3    C5 8272   1.504   4.539  11.369  0.3414 -0.7377  0.7313
  554TMC3    C6 8273   1.397   4.467  11.322  0.1642  0.2250 -0.0258
  554TMC3     C 8274   1.520   4.439  11.723 -0.3225  0.1750  0.2604
  554TMC3     O 8275   1.625   4.495  11.734  0.0226 -0.4450 -0.4041
  554TMC3     H 8276   1.308   4.293  11.601  1.3054 -1.5102 -0.7169
  554TMC3    H1 8277   1.605   4.613  11.536 -0.4461 -1.1709  0.3475
  554TMC3    H2 8278   1.363   4.490  11.221 -1.0956 -1.2662  0.0579
  554TMC3    C7 8279   1.565   4.638  11.278 -0.9216  0.0532  0.6293
  554TMC3    C8 8280   1.230   4.288  11.355  0.2456  0.5827  0.1674
  554TMC3    O1 8281   1.558   4.611  11.157  0.3811  0.4515  0.5246
  554TMC3    O2 8282   1.147   4.261  11.440 -0.6187  0.0360 -0.3009
  555TMC3    C1 8283   0.800   4.076  15.463  0.0299  0.1410 -0.0686
  555TMC3    C2 8284   0.858   4.101  15.578  0.6924  0.4544 -0.4130
  555TMC3    C3 8285   0.926   4.011  15.653  0.7384 -0.6231  0.7190
  555TMC3    C4 8286   0.797   3.947  15.421  0.1637  0.5392 -0.2406
  555TMC3    C5 8287   0.872   3.851  15.489 -0.2834 -0.1861  0.4636
  555TMC3    C6 8288   0.943   3.882  15.605  0.4641  0.3089  0.0716
  555TMC3     C 8289   0.770   4.193  15.373  0.0615  0.3063 -0.6847
  555TMC3     O 8290   0.848   4.286  15.376 -0.2186 -0.7233 -0.0832
  555TMC3     H 8291   0.853   4.205  15.610  1.3299  1.0252 -2.1789
  555TMC3    H1 8292   0.721   3.927  15.346 -0.6774  1.1461  0.4537
  555TMC3    H2 8293   1.015   3.812  15.646  1.5380 -0.0124 -2.3656
  555TMC3    C7 8294   0.876   3.708  15.447 -0.0549 -0.4606 -0.1072
  555TMC3    C8 8295   0.908   4.025  15.797  0.3328  0.2075 -0.4472
  555TMC3    O1 8296   0.898   3.613  15.525  0.3793  0.1218  0.5752
  555TMC3    O2 8297   0.853   4.130  15.828  0.2903 -0.4934 -0.6689
  556MPD2     C 8298   3.940   1.144  10.657  0.0184  0.3240 -0.2501
  556MPD2    C1 8299   3.861   1.079  10.743 -1.0319 -0.7038  0.3816
  556MPD2    C2 8300   3.760   0.992  10.695 -0.3967 -0.4938  0.0868
  556MPD2    C3 8301   3.737   0.974  10.564 -0.6582 -0.7474 -0.1808
  556MPD2    C4 8302   3.810   1.047  10.471 -0.5009  0.5568 -0.4060
  556MPD2    C5 8303   3.913   1.128  10.521 -0.0025  0.8758 -0.0792
  556MPD2     H 8304   3.710   0.922  10.761 -1.9684 -1.4818 -2.1534
  556MPD2    H1 8305   3.804   1.032  10.364 -1.1929 -3.0146  0.1318
  556MPD2    H2 8306   4.022   1.208  10.689  0.7554 -0.6864 -0.1155
  556MPD2    H3 8307   3.983   1.173  10.451  0.0402 -0.7429 -1.0741
  556MPD2     N 8308   3.633   0.892  10.521  0.2239 -0.0625  0.5861
  556MPD2    H5 8309   3.575   0.848  10.592 -0.9693 -0.5665 -0.7046
  556MPD2    N1 8310   3.858   1.099  10.883  0.0061 -0.3108  0.1339
  556MPD2    H7 8311   3.784   1.051  10.933 -0.8350  0.4638 -0.3742
  557TMC3    C1 8312   3.492   0.786  10.360  0.0446  0.7648 -0.2799
  557TMC3    C2 8313   3.424   0.798  10.244 -0.4490  1.0664  0.7888
  557TMC3    C3 8314   3.315   0.721  10.224 -0.0624  1.4496 -0.5265
  557TMC3    C4 8315   3.460   0.697  10.455 -0.5245 -0.2729  0.4383
  557TMC3    C5 8316   3.346   0.621  10.436 -0.4401 -0.3460 -0.5074
  557TMC3    C6 8317   3.266   0.639  10.323  0.3914 -0.7462 -0.0306
  557TMC3     C 8318   3.589   0.887  10.392  0.1193 -0.2700  0.5483
  557TMC3     O 8319   3.614   0.953  10.292 -0.5218  0.3511  0.3668
  557TMC3     H 8320   3.453   0.875  10.173  0.6896  1.2726  1.4735
  557TMC3    H1 8321   3.501   0.697  10.556 -1.0837 -0.4214  0.6679
  557TMC3    H2 8322   3.171   0.589  10.308  0.2026 -0.1868 -0.7204
  557TMC3    C7 8323   3.265   0.558  10.545  0.2776  0.4575 -0.1109
  557TMC3    C8 8324   3.239   0.734  10.100  0.9056  0.0962  0.4026
  557TMC3    O1 8325   3.145   0.548  10.523  0.5993 -0.2991 -0.3914
  557TMC3    O2 8326   3.282   0.821  10.024  0.0335 -0.0415  0.7936
  558TMC3    C1 8327   0.879   3.546  10.281 -0.4032  0.0066 -0.0913
  558TMC3    C2 8328   0.815   3.461  10.361  0.6063  0.6641 -0.2216
  558TMC3    C3 8329   0.720   3.376  10.310  0.0955 -0.1079 -0.1020
  558TMC3    C4 8330   0.841   3.567  10.156  0.1613 -0.8306  0.0034
  558TMC3    C5 8331   0.735   3.489  10.109 -0.0475 -0.0552 -0.8309
  558TMC3    C6 8332   0.669   3.400  10.185  0.5354 -0.2953  0.5388
  558TMC3     C 8333   0.997   3.618  10.336  0.1310  0.2821 -0.1384
  558TMC3     O 8334   1.071   3.672  10.257 -0.1797 -0.5217  0.0116
  558TMC3     H 8335   0.857   3.424  10.454  2.5250  1.0766 -0.9234
  558TMC3    H1 8336   0.895   3.635  10.091  0.0633 -1.5156 -0.7938
  558TMC3    H2 8337   0.599   3.329  10.144  0.3295 -0.4401  1.1349
  558TMC3    C7 8338   0.682   3.528   9.974  0.1754  0.3497  0.4751
  558TMC3    C8 8339   0.669   3.248  10.375 -0.0264 -0.3228  0.8860
  558TMC3    O1 8340   0.744   3.615   9.914 -0.0560 -0.0508 -0.1505
  558TMC3    O2 8341   0.639   3.154  10.304  0.1225  0.1080 -1.0820
  559MPD2     C 8342   1.054   3.971  10.743  0.2482  0.8702 -0.4919
  559MPD2    C1 8343   0.963   3.945  10.844 -0.1822  0.7485 -0.8937
  559MPD2    C2 8344   1.012   3.921  10.971  0.4745 -0.1462 -0.9065
  559MPD2    C3 8345   1.142   3.937  11.005  0.6321 -0.1264  0.2268
  559MPD2    C4 8346   1.230   3.969  10.902  0.2436  0.5282  0.0350
  559MPD2    C5 8347   1.186   3.984  10.771  0.3277  0.4650  0.5477
  559MPD2     H 8348   0.938   3.900  11.047  0.5721  2.4069 -0.1303
  559MPD2    H1 8349   1.336   3.965  10.924  0.0281  0.7258  1.1148
  559MPD2    H2 8350   1.027   3.992  10.640  0.2998  0.3721 -0.6087
  559MPD2    H3 8351   1.255   3.998  10.688  1.7467 -0.2908  1.6031
  559MPD2     N 8352   1.187   3.896  11.135  0.0927  0.3498 -0.0270
  559MPD2    H5 8353   1.118   3.854  11.196  2.0942 -0.1900  1.8336
  559MPD2    N1 8354   0.826   3.939  10.809  0.5510  0.7366 -0.3948
  559MPD2    H7 8355   0.796   3.966  10.716  0.1277  1.8773  0.0768
  560TMC3    C1 8356   1.333   3.844  11.307  0.2039  0.1911 -0.2653
  560TMC3    C2 8357   1.273   3.726  11.333 -0.0922 -0.2624 -0.2889
  560TMC3    C3 8358   1.285   3.667  11.453  0.6530 -0.4166  0.0259
  560TMC3    C4 8359   1.420   3.893  11.396  0.2503  0.1000 -1.1141
  560TMC3    C5 8360   1.436   3.832  11.514  0.0587  0.7162  0.3592
  560TMC3    C6 8361   1.369   3.719  11.552  0.8566  0.6098 -0.2749
  560TMC3     C 8362   1.307   3.934  11.196 -0.6098 -0.3813 -0.8282
  560TMC3     O 8363   1.385   4.021  11.164 -0.0557 -0.0729  0.1909
  560TMC3     H 8364   1.209   3.684  11.256  1.8268  0.5221 -2.3338
  560TMC3    H1 8365   1.463   3.993  11.388 -1.3196  0.9720  1.0847
  560TMC3    H2 8366   1.363   3.692  11.657 -0.5306 -1.9418 -1.0148
  560TMC3    C7 8367   1.517   3.897  11.619 -0.2544  0.3302 -0.0863
  560TMC3    C8 8368   1.204   3.548  11.474 -0.2159  0.1219 -0.7941
  560TMC3    O1 8369   1.475   3.883  11.733  0.4971 -0.0815 -0.4542
  560TMC3    O2 8370   1.144   3.493  11.386  0.1840  0.3125 -0.0371
  561TMC3    C1 8371   3.897   3.165  11.881  0.0576  0.4329 -0.0676
  561TMC3    C2 8372   3.823   3.078  11.955  0.0449 -0.6293 -0.2167
  561TMC3    C3 8373   3.719   3.133  12.018  0.5765  0.2099  0.1253
  561TMC3    C4 8374   3.861   3.300  11.863  0.4092  0.5132 -0.1261
  561TMC3    C5 8375   3.746   3.348  11.922  0.0333  0.4452 -0.4430
  561TMC3    C6 8376   3.671   3.264  11.995  0.1327 -0.1910  0.6543
  561TMC3     C 8377   3.994   3.095  11.804 -0.1624 -0.2755 -0.1729
  561TMC3     O 8378   4.026   2.985  11.842 -0.0942  0.3208  0.2583
  561TMC3     H 8379   3.855   2.976  11.971  0.8384 -0.4223 -0.4783
  561TMC3    H1 8380   3.923   3.367  11.805  2.4056  0.6604  2.1640
  561TMC3    H2 8381   3.580   3.301  12.039 -0.0751  0.3874 -0.2545
  561TMC3    C7 8382   3.684   3.477  11.887  0.3672 -0.1429  0.4591
  561TMC3    C8 8383   3.641   3.034  12.093  0.4610  0.1638  0.5376
  561TMC3    O1 8384   3.585   3.517  11.948  0.3270  0.6269 -0.9693
  561TMC3    O2 8385   3.666   2.914  12.082 -0.2418  0.2931  0.1643
  562TMC3    C1 8386   0.560   3.944  16.481  0.1499  0.3566  0.1479
  562TMC3    C2 8387   0.478   4.047  16.511 -0.6277  0.1188  0.0287
  562TMC3    C3 8388   0.430   4.123  16.407  0.0850  0.2603 -0.3903
  562TMC3    C4 8389   0.595   3.905  16.352 -0.2542  0.5791 -0.2999
  562TMC3    C5 8390   0.538   3.984  16.255  0.6141 -0.1053 -0.1939
  562TMC3    C6 8391   0.465   4.095  16.276 -0.1197  0.5114  0.0608
  562TMC3     C 8392   0.648   3.901  16.586 -0.4171  0.2449 -0.2155
  562TMC3     O 8393   0.745   3.838  16.546  0.5522 -0.7773 -0.3625
  562TMC3     H 8394   0.467   4.088  16.611 -2.6281 -0.6814  0.1261
  562TMC3    H1 8395   0.683   3.844  16.338 -1.3413 -1.3978  1.4131
  562TMC3    H2 8396   0.423   4.142  16.188 -0.1708  1.1313  0.4108
  562TMC3    C7 8397   0.548   3.930  16.122  0.6063 -0.1685  0.2941
  562TMC3    C8 8398   0.344   4.237  16.438  0.1970  0.7504 -0.5096
  562TMC3    O1 8399   0.512   3.999  16.029 -0.9495 -0.3844  0.1660
  562TMC3    O2 8400   0.278   4.231  16.538 -0.6350 -0.5609 -0.2480
  563MPD2     C 8401   2.668   0.717  15.862 -0.1540  0.3243  0.1361
  563MPD2    C1 8402   2.696   0.728  15.998 -0.1272  0.3091 -0.7323
  563MPD2    C2 8403   2.815   0.682  16.042  0.0740  0.4689 -0.2941
  563MPD2    C3 8404   2.909   0.613  15.961 -0.3742  0.0636  0.4169
  563MPD2    C4 8405   2.880   0.603  15.830  0.5942  0.7234  1.1865
  563MPD2    C5 8406   2.760   0.654  15.785  0.1307 -0.7437  0.1519
  563MPD2     H 8407   2.836   0.690  16.148 -3.7361 -0.9454  0.5446
  563MPD2    H1 8408   2.940   0.541  15.764 -0.6987  0.0414  0.6470
  563MPD2    H2 8409   2.577   0.755  15.817  0.4538  0.2259 -1.1849
  563MPD2    H3 8410   2.744   0.661  15.678  0.0051 -0.1498  0.2119
  563MPD2     N 8411   3.021   0.558  16.030 -0.3301  0.2362  0.1225
  563MPD2    H5 8412   3.011   0.572  16.131 -0.1797 -0.2010  0.1960
  563MPD2    N1 8413   2.611   0.790  16.088 -0.0258 -0.4034  0.2777
  563MPD2    H7 8414   2.651   0.803  16.180 -1.3203  0.0267  0.7905
  564TMC3    C1 8415   2.419   0.841  16.197 -0.0534  0.2998 -0.7527
  564TMC3    C2 8416   2.292   0.790  16.187  0.1036 -0.6665 -0.8575
  564TMC3    C3 8417   2.268   0.678  16.264 -0.6919  0.1261 -0.3292
  564TMC3    C4 8418   2.510   0.806  16.300 -0.5441 -0.3817 -0.4606
  564TMC3    C5 8419   2.484   0.692  16.374  0.1604  0.3058 -0.0481
  564TMC3    C6 8420   2.364   0.635  16.351  0.3628 -0.1596  0.4839
  564TMC3     C 8421   2.482   0.828  16.071  0.3912  0.1108 -0.7808
  564TMC3     O 8422   2.407   0.813  15.972 -0.8570  0.0311 -0.3611
  564TMC3     H 8423   2.220   0.823  16.113 -0.0105 -1.1828 -0.9743
  564TMC3    H1 8424   2.603   0.854  16.328 -0.1028 -0.1311 -2.3856
  564TMC3    H2 8425   2.347   0.534  16.386 -2.7430  0.2099  0.0248
  564TMC3    C7 8426   2.590   0.591  16.342 -0.0637  0.0415  0.8730
  564TMC3    C8 8427   2.211   0.570  16.190 -0.7683  0.1837 -0.3528
  564TMC3    O1 8428   2.700   0.611  16.386  0.0969  0.0053 -0.0742
  564TMC3    O2 8429   2.176   0.473  16.260 -0.6881  0.5026 -0.2879
  565TMC3    C1 8430   3.232   2.677  10.600  0.7176  0.4299  0.1992
  565TMC3    C2 8431   3.222   2.575  10.685  0.3634 -0.1223  0.4598
  565TMC3    C3 8432   3.225   2.598  10.821 -0.1957 -0.5331 -0.0140
  565TMC3    C4 8433   3.271   2.803  10.644  0.1584  0.2180 -0.2425
  565TMC3    C5 8434   3.272   2.828  10.777 -0.4259  0.4116 -0.1724
  565TMC3    C6 8435   3.247   2.726  10.869  0.7646  0.1494  0.1221
  565TMC3     C 8436   3.241   2.646  10.462 -0.2539 -0.6994 -0.1268
  565TMC3     O 8437   3.275   2.536  10.434  0.0461  0.1579  0.1129
  565TMC3     H 8438   3.215   2.476  10.641 -1.0660  1.2289 -2.3764
  565TMC3    H1 8439   3.277   2.891  10.582 -3.4451  0.9652  0.4578
  565TMC3    H2 8440   3.262   2.742  10.976 -2.0696 -0.5362  0.6148
  565TMC3    C7 8441   3.289   2.964  10.828  0.2765  0.3574 -0.3464
  565TMC3    C8 8442   3.214   2.482  10.905 -0.2762  0.0469  0.1331
  565TMC3    O1 8443   3.272   2.979  10.947 -0.3923  0.2659 -0.1230
  565TMC3    O2 8444   3.227   2.368  10.852  0.3759  0.3084  0.5674
  566MPD2     C 8445   4.665   3.808  14.630  0.0927  0.0312 -0.0970
  566MPD2    C1 8446   4.677   3.910  14.540  0.9731 -0.5538 -0.3904
  566MPD2    C2 8447   4.576   3.927  14.445  0.6758  0.9131  0.2313
  566MPD2    C3 8448   4.479   3.833  14.430 -0.1682 -0.0518  0.3907
  566MPD2    C4 8449   4.476   3.728  14.513  0.4367  0.2799 -0.0422
  566MPD2    C5 8450   4.570   3.719  14.611 -0.0311 -0.7055  0.3508
  566MPD2     H 8451   4.584   4.005  14.370 -0.0674 -0.7234 -1.5735
  566MPD2    H1 8452   4.405   3.647  14.503 -0.7890  1.1038  2.1010
  566MPD2    H2 8453   0.002   3.796  14.708  0.0736 -1.8081 -0.3717
  566MPD2    H3 8454   4.561   3.642  14.687  1.8770 -0.4003  0.8702
  566MPD2     N 8455   4.399   3.824  14.314 -0.4935 -0.2364 -0.2950
  566MPD2    H5 8456   4.355   3.733  14.302 -0.3998 -0.6568  2.6185
  566MPD2    N1 8457   0.057   3.987  14.536 -0.5285 -0.0811  0.6220
  566MPD2    H7 8458   0.137   3.944  14.582 -0.6934  0.7910  1.7119
  567TMC3    C1 8459   0.224   4.110  14.421 -0.3299 -0.4551  0.2375
  567TMC3    C2 8460   0.248   4.118  14.287  0.0378 -0.2327 -0.4763
  567TMC3    C3 8461   0.379   4.122  14.247  0.5474  1.0698  0.8515
  567TMC3    C4 8462   0.318   4.105  14.518  0.6942  0.3535 -0.3769
  567TMC3    C5 8463   0.453   4.112  14.476  0.2150 -0.7644 -0.6448
  567TMC3    C6 8464   0.478   4.123  14.338  0.5402  0.1024  0.0329
  567TMC3     C 8465   0.083   4.086  14.448 -0.7503  0.9060 -0.2259
  567TMC3     O 8466   0.006   4.154  14.386  0.1584  0.6710 -0.4373
  567TMC3     H 8467   0.168   4.113  14.213 -2.9913  2.5595  2.6039
  567TMC3    H1 8468   0.295   4.111  14.624 -2.4788  3.1675 -1.2397
  567TMC3    H2 8469   0.581   4.136  14.308  1.0204 -2.7428  0.4704
  567TMC3    C7 8470   0.564   4.112  14.572 -0.4956 -0.0918  0.3399
  567TMC3    C8 8471   0.415   4.142  14.109 -0.3764  0.3163  0.0060
  567TMC3    O1 8472   0.664   4.167  14.547 -0.0332  0.2526  0.5985
  567TMC3    O2 8473   0.342   4.213  14.042 -0.6171  0.6314  0.0672
  568MPD2     C 8474   2.132   3.830  16.211  0.5604 -0.6174  0.1860
  568MPD2    C1 8475   2.248   3.861  16.282 -0.4866 -0.7771 -0.2592
  568MPD2    C2 8476   2.291   3.994  16.268  0.7876  0.0499  0.2147
  568MPD2    C3 8477   2.235   4.078  16.172 -0.6228  0.5509  0.6492
  568MPD2    C4 8478   2.141   4.027  16.086 -1.1943 -0.4735  0.4947
  568MPD2    C5 8479   2.093   3.905  16.104 -0.4773 -0.1225  0.9762
  568MPD2     H 8480   2.369   4.034  16.331  0.9253  0.2305 -0.0678
  568MPD2    H1 8481   2.105   4.082  16.000  0.6300  0.8700  0.5674
  568MPD2    H2 8482   2.098   3.727  16.212 -1.8994  0.1717 -2.5802
  568MPD2    H3 8483   2.013   3.877  16.036  0.3309 -1.0472  0.4144
  568MPD2     N 8484   2.281   4.213  16.174  0.7720  0.0683 -0.3758
  568MPD2    H5 8485   2.343   4.229  16.253  0.5086 -1.0626  0.0637
  568MPD2    N1 8486   2.294   3.777  16.389 -0.3048  0.3243  0.8641
  568MPD2    H7 8487   2.243   3.693  16.416  1.1814  0.3616  3.7799
  569TMC3    C1 8488   2.329   4.437  16.112 -0.0309 -0.2893  0.7697
  569TMC3    C2 8489   2.349   4.480  16.240 -0.0893  0.6269  0.7093
  569TMC3    C3 8490   2.383   4.609  16.258 -0.0362 -0.1226 -0.2347
  569TMC3    C4 8491   2.353   4.522  16.009 -0.2096 -0.1110  0.4824
  569TMC3    C5 8492   2.404   4.646  16.033  0.5758 -0.1978  0.5437
  569TMC3    C6 8493   2.425   4.691  16.162 -0.2587  0.2193  0.1560
  569TMC3     C 8494   2.253   4.316  16.084 -0.0843 -0.3326  0.2447
  569TMC3     O 8495   2.173   4.302  15.991 -0.4270 -0.2588 -0.2814
  569TMC3     H 8496   2.315   4.431  16.330 -2.5721 -0.4569 -0.8013
  569TMC3    H1 8497   2.340   4.493  15.905 -1.8394 -0.6535  0.8440
  569TMC3    H2 8498   2.451   0.056  16.191  0.0250 -0.2033  1.3715
  569TMC3    C7 8499   2.394   0.014  15.938  1.0148  0.1454  0.0661
  569TMC3    C8 8500   2.377   4.654  16.401  0.2146  0.0465 -0.3479
  569TMC3    O1 8501   2.429   4.714  15.826 -0.1784  0.0268 -0.1520
  569TMC3    O2 8502   2.294   4.606  16.477  0.2967  0.1360 -0.3952
  570TMC3    C1 8503   1.827   2.896  16.045  0.4933 -0.4512 -0.3907
  570TMC3    C2 8504   1.914   2.882  15.942  0.0666 -0.1158  0.1973
  570TMC3    C3 8505   2.000   2.994  15.935 -0.4376  0.3793 -0.0463
  570TMC3    C4 8506   1.829   2.992  16.136  0.0789 -0.3105  0.2639
  570TMC3    C5 8507   1.912   3.099  16.115  0.2362 -0.0869  0.3126
  570TMC3    C6 8508   1.993   3.106  16.011  0.2873 -0.5340  0.2792
  570TMC3     C 8509   1.752   2.773  16.064 -0.2553 -0.1880  0.2046
  570TMC3     O 8510   1.695   2.735  15.963 -0.0177  0.1695  0.7417
  570TMC3     H 8511   1.920   2.798  15.874  1.4045 -0.3626  0.6252
  570TMC3    H1 8512   1.769   2.984  16.226  0.5601 -1.1135  0.5132
  570TMC3    H2 8513   2.057   3.193  15.998  0.6112 -0.8950 -0.5516
  570TMC3    C7 8514   1.853   3.223  16.167 -0.0899  0.4212 -0.0412
  570TMC3    C8 8515   2.134   2.984  15.874  0.5740  0.0684  0.3147
  570TMC3    O1 8516   1.792   3.220  16.275  0.1547 -0.5782 -0.1053
  570TMC3    O2 8517   2.183   3.096  15.862  0.0616 -0.0174 -0.3029
  571MPD2     C 8518   4.480   4.402   0.011 -0.3060  0.1485  0.1184
  571MPD2    C1 8519   4.346   4.427   0.013  0.3912  0.0077  0.1400
  571MPD2    C2 8520   4.296   4.553  17.717  0.0266 -0.3678 -0.9650
  571MPD2    C3 8521   4.388   4.659  17.691 -0.3962 -0.3924 -0.7526
  571MPD2    C4 8522   4.521   4.627  17.690  0.5500  0.2999 -0.3486
  571MPD2    C5 8523   4.571   4.504  17.729  0.3571  0.4286 -0.9503
  571MPD2     H 8524   4.189   4.571  17.711  0.0013  0.0265  0.7838
  571MPD2    H1 8525   4.590   4.709  17.671  0.0901  0.6331 -0.5648
  571MPD2    H2 8526   4.520   4.306   0.041 -0.7860 -0.2539 -0.5159
  571MPD2    H3 8527   4.677   4.483  17.737  0.2680  0.9420  1.5187
  571MPD2     N 8528   4.342   0.053  17.661 -0.2484  0.1688  0.1616
  571MPD2    H5 8529   4.419   0.117  17.643 -0.4336  0.4727  0.4554
  571MPD2    N1 8530   4.265   4.311   0.040  0.1844  0.3979  1.0514
  571MPD2    H7 8531   4.302   4.231   0.091  2.8282  0.2688 -1.0906
  572TMC3    C1 8532   4.209   0.239  17.668  0.5936 -0.3341  0.0644
  572TMC3    C2 8533   4.110   0.296  17.743 -0.0735  0.1286 -0.6348
  572TMC3    C3 8534   4.112   0.433  17.742  0.2228 -0.4136  0.8089
  572TMC3    C4 8535   4.304   0.308  17.589  0.1787  0.3006 -0.5171
  572TMC3    C5 8536   4.280   0.442  17.588  0.1332  0.4969  0.2303
  572TMC3    C6 8537   4.178   0.511  17.655 -0.4340 -0.2891 -0.1628
  572TMC3     C 8538   4.218   0.100  17.677 -0.7807  0.0883 -0.4815
  572TMC3     O 8539   4.113   0.046  17.704 -0.5634 -0.4411  0.2996
  572TMC3     H 8540   4.054   0.236   0.070 -0.8907  0.0923 -1.3140
  572TMC3    H1 8541   4.374   0.266  17.517 -0.3060  0.6287 -1.1717
  572TMC3    H2 8542   4.179   0.619  17.648 -2.6361 -0.5006 -3.4769
  572TMC3    C7 8543   4.364   0.529  17.502 -0.4741  0.1608  0.0624
  572TMC3    C8 8544   4.035   0.500   0.103 -0.4278 -0.4241 -0.2804
  572TMC3    O1 8545   4.306   0.618  17.447  0.1410 -0.5476 -0.4741
  572TMC3    O2 8546   4.009   0.619   0.092  0.1159  0.0811 -0.5344
  573MPD2     C 8547   1.079   4.541  17.592  0.4387  0.4468  0.3836
  573MPD2    C1 8548   1.044   4.671  17.566  0.4379  0.1923  0.3260
  573MPD2    C2 8549   1.099   4.734  17.456 -0.1155  0.0139 -0.6983
  573MPD2    C3 8550   1.174   4.661  17.369 -1.0663 -0.1824  0.1217
  573MPD2    C4 8551   1.200   4.528  17.389 -0.4797 -0.3486  0.6869
  573MPD2    C5 8552   1.159   4.469  17.507  0.4181 -0.2865  0.4531
  573MPD2     H 8553   1.091   0.102  17.425 -1.1208  0.1149 -0.1031
  573MPD2    H1 8554   1.258   4.461  17.328 -0.8775  0.0641 -0.1436
  573MPD2    H2 8555   1.040   4.494  17.681 -1.2497  0.6542 -0.2459
  573MPD2    H3 8556   1.184   4.366  17.529 -1.6973 -1.1147 -1.0074
  573MPD2     N 8557   1.218   4.705  17.243  0.1044  0.3047 -0.7318
  573MPD2    H5 8558   1.254   4.637  17.177  0.2039 -0.3158 -0.0249
  573MPD2    N1 8559   0.984   0.012  17.672  0.5975 -0.8014  0.0747
  573MPD2    H7 8560   0.962   4.706   0.019  0.8268 -0.1960  0.4178
  574TMC3    C1 8561   1.261   0.116  17.061  0.3652  0.2423  0.1253
  574TMC3    C2 8562   1.287   0.249  17.032 -0.6278 -0.2108 -0.2924
  574TMC3    C3 8563   1.270   0.288  16.903  0.1759  0.0389  0.3508
  574TMC3    C4 8564   1.202   0.031  16.964  0.1468 -0.4493 -1.0549
  574TMC3    C5 8565   1.199   0.071  16.834  0.2857 -1.4357 -0.1817
  574TMC3    C6 8566   1.236   0.200  16.805  0.6846 -0.1850 -0.6454
  574TMC3     C 8567   1.217   0.101  17.198 -0.2455 -0.1517  0.9508
  574TMC3     O 8568   1.181   0.204  17.255  0.5441 -0.2119 -0.1458
  574TMC3     H 8569   1.310   0.323  17.109 -0.6628 -1.2993  0.7607
  574TMC3    H1 8570   1.169   4.671  17.002  3.9150 -1.1536  0.4127
  574TMC3    H2 8571   1.217   0.236  16.704 -1.6002  0.0972 -0.1172
  574TMC3    C7 8572   1.101   0.013  16.743 -0.4260  0.0387 -0.2429
  574TMC3    C8 8573   1.260   0.428  16.884 -0.4582 -0.0362 -0.2607
  574TMC3    O1 8574   1.010   4.685  16.801  0.6864 -0.0331  0.2151
  574TMC3    O2 8575   1.338   0.496  16.947 -0.1100 -0.0826 -0.1241
  575TMC3    C1 8576   3.630   1.756  11.137 -0.4893  0.2272 -0.0746
  575TMC3    C2 8577   3.603   1.698  11.256 -0.0627  0.1335  0.1148
  575TMC3    C3 8578   3.490   1.741  11.331  0.1341  1.0957 -0.9788
  575TMC3    C4 8579   3.553   1.866  11.097 -0.2716  0.4775 -0.1077
  575TMC3    C5 8580   3.455   1.911  11.181  0.5870  0.1455  0.2652
  575TMC3    C6 8581   3.420   1.859  11.301  0.3806  0.2675 -0.2505
  575TMC3     C 8582   3.729   1.697  11.049 -0.5677 -0.6360 -0.9633
  575TMC3     O 8583   3.758   1.581  11.068 -0.3142  0.3840 -0.1471
  575TMC3     H 8584   3.665   1.617  11.293 -0.9740 -1.1894 -1.2810
  575TMC3    H1 8585   3.575   1.926  11.010  0.7311 -0.9730 -0.8416
  575TMC3    H2 8586   3.334   1.887  11.360  0.1063 -0.5236 -0.2822
  575TMC3    C7 8587   3.404   2.039  11.144  0.5817 -0.1412 -0.1234
  575TMC3    C8 8588   3.425   1.632  11.398 -0.1851 -0.4168  0.5694
  575TMC3    O1 8589   3.418   2.085  11.030 -0.3962 -0.3846  0.7363
  575TMC3    O2 8590   3.488   1.533  11.429 -0.0614 -0.0749  0.4012
  576MPD2     C 8591   2.310   3.183  12.744  0.1008 -0.2972  0.2508
  576MPD2    C1 8592   2.414   3.267  12.765  0.4770 -0.0890 -0.2386
  576MPD2    C2 8593   2.419   3.351  12.872 -0.1368  0.1381 -0.2729
  576MPD2    C3 8594   2.316   3.361  12.964 -0.0164 -0.0524  0.2215
  576MPD2    C4 8595   2.210   3.274  12.940 -0.7276  0.5339 -0.0664
  576MPD2    C5 8596   2.210   3.184  12.834 -0.4819 -0.3378  0.1211
  576MPD2     H 8597   2.506   3.415  12.874 -2.3655  3.1706  0.4638
  576MPD2    H1 8598   2.126   3.264  13.009 -1.0685 -0.2680 -0.6091
  576MPD2    H2 8599   2.303   3.115  12.660  1.3652 -0.6659  0.4392
  576MPD2    H3 8600   2.120   3.123  12.828  0.0540 -1.1064 -0.1186
  576MPD2     N 8601   2.334   3.454  13.067 -0.6642 -0.0752  0.6081
  576MPD2    H5 8602   2.428   3.492  13.063 -0.2198 -1.2822 -0.6485
  576MPD2    N1 8603   2.521   3.273  12.670  0.1458 -0.1091 -0.6514
  576MPD2    H7 8604   2.585   3.351  12.669 -1.0026  0.8559  0.4775
  577TMC3    C1 8605   2.679   3.208  12.515 -0.6854 -0.5788  0.2004
  577TMC3    C2 8606   2.779   3.117  12.526 -0.3522  0.4958 -0.1194
  577TMC3    C3 8607   2.903   3.153  12.489  0.1103 -0.2381  0.1131
  577TMC3    C4 8608   2.695   3.338  12.478 -0.4837  0.8993  0.1969
  577TMC3    C5 8609   2.824   3.373  12.458 -0.4150 -0.1804 -0.8899
  577TMC3    C6 8610   2.932   3.288  12.464 -0.5952  0.2453  0.5507
  577TMC3     C 8611   2.560   3.178  12.580  0.3816  0.9137  0.2615
  577TMC3     O 8612   2.519   3.069  12.566 -0.1989 -0.1391  0.4184
  577TMC3     H 8613   2.769   3.015  12.561 -0.5664 -0.1808 -2.1598
  577TMC3    H1 8614   2.612   3.406  12.464 -1.0052 -0.0810 -1.4948
  577TMC3    H2 8615   3.029   3.324  12.430 -0.6367 -0.7280 -0.6110
  577TMC3    C7 8616   2.850   3.500  12.403 -0.0050  0.1108  0.1667
  577TMC3    C8 8617   3.009   3.053  12.476 -0.8900  0.5159 -0.3336
  577TMC3    O1 8618   2.942   3.566  12.452 -0.1325  0.0436 -0.1341
  577TMC3    O2 8619   2.997   2.937  12.518  0.0504  0.0945  0.7381
  578MPD2     C 8620   1.032   3.029   0.393 -0.5627 -0.0333 -0.0926
  578MPD2    C1 8621   1.166   3.026   0.417 -0.1712  0.7274  0.2008
  578MPD2    C2 8622   1.219   2.914   0.469 -0.2471 -0.4618  0.7419
  578MPD2    C3 8623   1.136   2.813   0.515  0.4908  0.5100 -0.4974
  578MPD2    C4 8624   0.999   2.824   0.514 -0.4757 -0.5095  0.5025
  578MPD2    C5 8625   0.945   2.935   0.447  0.0508 -0.8065  1.1627
  578MPD2     H 8626   1.325   2.894   0.462 -0.0325  1.1672 -0.4862
  578MPD2    H1 8627   0.941   2.760   0.579 -0.5121  0.3082  1.2850
  578MPD2    H2 8628   0.987   3.113   0.341 -3.3143 -1.3033  0.2145
  578MPD2    H3 8629   0.838   2.944   0.431  0.7136  2.0278 -1.6800
  578MPD2     N 8630   1.202   2.697   0.552  0.1814 -0.2965  0.1296
  578MPD2    H5 8631   1.301   2.697   0.530  0.5459 -0.5974  1.8175
  578MPD2    N1 8632   1.243   3.123   0.357 -0.1318  0.2611  0.4752
  578MPD2    H7 8633   1.195   3.194   0.303 -1.2265 -1.6859 -1.0945
  579TMC3    C1 8634   1.244   2.484   0.623 -0.3674 -0.2973 -0.1605
  579TMC3    C2 8635   1.367   2.520   0.661 -0.0452 -0.3025 -0.2086
  579TMC3    C3 8636   1.450   2.417   0.688 -0.0352  0.0339 -0.1515
  579TMC3    C4 8637   1.196   2.354   0.628  0.5122 -0.3079 -0.0027
  579TMC3    C5 8638   1.289   2.252   0.652  0.0565  0.6128  0.3022
  579TMC3    C6 8639   1.416   2.285   0.689  0.0159  0.6093  0.0002
  579TMC3     C 8640   1.143   2.589   0.603 -0.1666  0.7674 -0.5797
  579TMC3     O 8641   1.026   2.565   0.630  0.5259 -0.5014  0.5717
  579TMC3     H 8642   1.391   2.623   0.683 -1.8148  0.2934 -1.0001
  579TMC3    H1 8643   1.093   2.338   0.599 -0.3633  2.8931  1.3899
  579TMC3    H2 8644   1.485   2.203   0.704 -0.0546  0.3361 -1.1886
  579TMC3    C7 8645   1.232   2.127   0.692 -0.2781 -0.3405 -0.3615
  579TMC3    C8 8646   1.566   2.455   0.770  0.0385 -0.1207  0.6366
  579TMC3    O1 8647   1.311   2.061   0.761  0.1644 -0.7118 -0.1482
  579TMC3    O2 8648   1.678   2.437   0.732 -0.4808  0.2935  0.6050
  580TMC3    C1 8649   0.794   2.521  12.573 -0.0849  0.1415  0.2383
  580TMC3    C2 8650   0.821   2.651  12.518 -0.1509 -0.9958  0.4154
  580TMC3    C3 8651   0.900   2.665  12.401  0.2816 -0.5295 -0.0031
  580TMC3    C4 8652   0.852   2.414  12.515  0.3002  0.4308  0.1704
  580TMC3    C5 8653   0.937   2.437  12.403  0.1791  0.4105  0.0706
  580TMC3    C6 8654   0.953   2.556  12.341  0.5579 -0.6945 -0.0084
  580TMC3     C 8655   0.709   2.494  12.692 -0.6068  0.3072 -0.1899
  580TMC3     O 8656   0.747   2.401  12.764 -0.2377  0.2864  0.1054
  580TMC3     H 8657   0.781   2.739  12.566  0.5738 -0.0844 -0.6618
  580TMC3    H1 8658   0.846   2.316  12.560  1.4879  0.7844  1.1061
  580TMC3    H2 8659   1.027   2.567  12.262  3.2839  0.4717  2.6801
  580TMC3    C7 8660   1.015   2.319  12.357  0.7836 -0.3477 -0.2862
  580TMC3    C8 8661   0.875   2.781  12.315  0.1517 -0.1332  0.1264
  580TMC3    O1 8662   1.056   2.240  12.441  0.1344  0.4257 -0.4122
  580TMC3    O2 8663   0.781   2.851  12.345 -0.3024 -0.1929  0.1681
  581MPD2     C 8664   3.823   1.898  14.617  0.1754  0.1534 -0.4228
  581MPD2    C1 8665   3.696   1.885  14.676  0.6814  0.2083 -0.3402
  581MPD2    C2 8666   3.585   1.922  14.598  0.1088 -0.8399 -0.0293
  581MPD2    C3 8667   3.602   1.970  14.472  0.6387  0.8553 -0.0908
  581MPD2    C4 8668   3.729   1.979  14.418 -0.3783  0.4433 -0.4925
  581MPD2    C5 8669   3.839   1.946  14.491 -0.1680  0.1533 -0.0130
  581MPD2     H 8670   3.484   1.924  14.636  0.3225 -0.6434  0.5387
  581MPD2    H1 8671   3.748   2.020  14.319 -1.1221  2.0422  0.0243
  581MPD2    H2 8672   3.910   1.880  14.679  1.7205  1.1986 -2.2980
  581MPD2    H3 8673   3.939   1.958  14.452  0.5507 -1.6565  1.2588
  581MPD2     N 8674   3.488   2.030  14.406 -0.2234  0.7259  0.1263
  581MPD2    H5 8675   3.402   2.043  14.459 -1.4349  0.0946 -1.6687
  581MPD2    N1 8676   3.678   1.849  14.811 -0.7856 -0.3485 -0.0718
  581MPD2    H7 8677   3.581   1.841  14.842 -0.7870 -0.5764 -0.1333
  582TMC3    C1 8678   3.701   1.809  15.037 -0.1202 -0.2611 -0.1500
  582TMC3    C2 8679   3.761   1.883  15.135 -0.2882 -0.2299 -0.3785
  582TMC3    C3 8680   3.677   1.949  15.219 -0.7234 -0.0278  0.6706
  582TMC3    C4 8681   3.569   1.781  15.030 -0.5232 -0.1306 -0.1729
  582TMC3    C5 8682   3.485   1.849  15.109  0.8703  0.7880  0.0728
  582TMC3    C6 8683   3.536   1.932  15.204  0.1357  0.1993  1.1903
  582TMC3     C 8684   3.767   1.812  14.911 -0.3350  0.6991 -0.3934
  582TMC3     O 8685   3.887   1.839  14.906 -0.3130  0.2366 -0.6110
  582TMC3     H 8686   3.861   1.923  15.127 -0.5115  0.1828 -1.1311
  582TMC3    H1 8687   3.524   1.718  14.954  0.4799 -0.5391 -0.4176
  582TMC3    H2 8688   3.476   1.992  15.271  0.6847 -0.0674  1.9262
  582TMC3    C7 8689   3.377   1.909  15.021 -0.5669 -0.1107  0.2269
  582TMC3    C8 8690   3.722   1.988  15.351 -0.3593 -0.3504  0.6309
  582TMC3    O1 8691   3.313   1.827  14.958 -0.4535 -0.4350 -0.2841
  582TMC3    O2 8692   3.641   2.050  15.421 -0.0401  0.1632 -0.4143
  583MPD2     C 8693   3.743   3.388  16.844 -0.5246  0.2725 -0.2579
  583MPD2    C1 8694   3.760   3.519  16.810  0.5402 -0.0664 -0.5753
  583MPD2    C2 8695   3.699   3.617  16.896 -0.6056  0.0377 -1.0354
  583MPD2    C3 8696   3.629   3.581  17.009 -0.4506  1.9042 -0.0512
  583MPD2    C4 8697   3.631   3.451  17.045  0.0610 -0.2928  0.0099
  583MPD2    C5 8698   3.668   3.353  16.952  0.9018 -0.4683 -0.5277
  583MPD2     H 8699   3.702   3.719  16.858 -0.5171  0.6497  0.6092
  583MPD2    H1 8700   3.586   3.419  17.139 -0.6388  0.2032 -0.1533
  583MPD2    H2 8701   3.774   3.308  16.778 -1.6592 -1.3593  1.2043
  583MPD2    H3 8702   3.665   3.248  16.980  0.3919 -0.3368 -0.0965
  583MPD2     N 8703   3.565   3.682  17.081  0.2395  0.2554 -0.5150
  583MPD2    H5 8704   3.583   3.777  17.049  1.0495  0.4527  0.5303
  583MPD2    N1 8705   3.825   3.559  16.689  0.3850 -0.1119  0.0381
  583MPD2    H7 8706   3.813   3.655  16.660 -0.7308 -0.8978 -2.0528
  584TMC3    C1 8707   3.408   3.772  17.239 -0.3721 -0.6784  0.2337
  584TMC3    C2 8708   3.345   3.838  17.140  0.6689 -0.1227  0.0992
  584TMC3    C3 8709   3.262   3.936  17.186  0.8321  0.3030 -0.3272
  584TMC3    C4 8710   3.373   3.788  17.371  0.2416 -0.9455 -0.0050
  584TMC3    C5 8711   3.294   3.892  17.404 -0.8412  0.5296  0.4792
  584TMC3    C6 8712   3.231   3.969  17.312 -0.6574 -0.1926 -0.0871
  584TMC3     C 8713   3.502   3.664  17.203 -0.4042  0.5287  0.6331
  584TMC3     O 8714   3.486   3.569  17.281  0.6562  0.0192 -0.0604
  584TMC3     H 8715   3.364   3.814  17.036 -1.8218  0.7528 -0.5511
  584TMC3    H1 8716   3.415   3.720  17.444 -1.1673 -1.6430  0.1626
  584TMC3    H2 8717   3.144   4.028  17.336 -0.3726 -0.1124  0.7567
  584TMC3    C7 8718   3.258   3.910  17.550 -0.3096 -0.5007 -0.2591
  584TMC3    C8 8719   3.269   4.050  17.100 -0.0079  0.1824 -0.4627
  584TMC3    O1 8720   3.275   3.806  17.618 -0.0746  0.4827 -0.6481
  584TMC3    O2 8721   3.280   4.027  16.985  0.0437  0.1662 -0.1530
  585MPD2     C 8722   2.245   2.903   0.134 -0.3953  0.3635 -0.5405
  585MPD2    C1 8723   2.340   2.975   0.072 -0.4943 -0.3572  0.6938
  585MPD2    C2 8724   2.455   2.914   0.030  0.0593  0.1871  0.1232
  585MPD2    C3 8725   2.471   2.776   0.035 -0.0503  0.7114  0.2658
  585MPD2    C4 8726   2.374   2.702   0.096 -0.2403  0.1707 -0.0935
  585MPD2    C5 8727   2.259   2.763   0.139 -0.0578  0.0588  0.3125
  585MPD2     H 8728   2.532   2.966  17.716 -0.4349 -0.3540 -1.0334
  585MPD2    H1 8729   2.385   2.595   0.109 -1.4394  0.3013  1.9449
  585MPD2    H2 8730   2.154   2.944   0.175  0.1873  0.6527  0.4550
  585MPD2    H3 8731   2.175   2.700   0.168 -0.4458  0.2190 -0.4639
  585MPD2     N 8732   2.584   2.713  17.723 -0.0837  0.3336  0.2048
  585MPD2    H5 8733   2.578   2.613  17.707 -2.3096  0.5708 -0.5028
  585MPD2    N1 8734   2.306   3.109   0.056  0.6139 -0.2657  0.1567
  585MPD2    H7 8735   2.227   3.152   0.104  1.2326  0.7144  0.2818
  586TMC3    C1 8736   2.793   2.685  17.608  0.0338 -0.9985  0.2093
  586TMC3    C2 8737   2.926   2.712  17.606  0.3799 -0.5744 -0.0734
  586TMC3    C3 8738   3.000   2.656  17.510 -0.6908  0.5278 -0.1322
  586TMC3    C4 8739   2.739   2.592  17.522  0.4986  0.6187 -0.1165
  586TMC3    C5 8740   2.816   2.530  17.432 -0.0550 -0.3695  0.4352
  586TMC3    C6 8741   2.948   2.565  17.420 -0.3165 -0.0908 -0.0694
  586TMC3     C 8742   2.699   2.778  17.673 -0.6090  0.1954  0.2174
  586TMC3     O 8743   2.744   2.895  17.685  0.3996 -0.3652 -0.0820
  586TMC3     H 8744   2.960   2.786  17.677 -0.6612 -0.3475  0.1859
  586TMC3    H1 8745   2.632   2.602  17.507  0.3895 -0.2993  0.0696
  586TMC3    H2 8746   3.011   2.516  17.346  0.0972 -1.3471  1.1014
  586TMC3    C7 8747   2.753   2.422  17.353 -0.1175 -0.5390 -0.0447
  586TMC3    C8 8748   3.144   2.638  17.539  0.3206  0.6535  0.2789
  586TMC3    O1 8749   2.648   2.378  17.396 -0.6057 -0.3247 -0.0295
  586TMC3    O2 8750   3.199   2.557  17.466  0.1220  0.2771  0.0945
  587TMC3    C1 8751   0.291   1.109  16.217  0.1675 -0.0094 -0.4840
  587TMC3    C2 8752   0.279   1.241  16.190  0.7382  0.3515  0.1241
  587TMC3    C3 8753   0.396   1.313  16.167  0.1275  0.1593  0.3769
  587TMC3    C4 8754   0.412   1.054  16.233  0.2466  0.4767 -0.8048
  587TMC3    C5 8755   0.525   1.132  16.215 -0.2817  0.2216 -0.0188
  587TMC3    C6 8756   0.521   1.263  16.183 -0.9531  0.4157 -0.4036
  587TMC3     C 8757   0.166   1.030  16.252 -0.0235  0.2222  0.5863
  587TMC3     O 8758   0.183   0.908  16.257  0.0768  0.2639 -0.2827
  587TMC3     H 8759   0.180   1.274  16.161 -0.5454 -2.2485  1.5726
  587TMC3    H1 8760   0.414   0.952  16.270 -1.4022  0.3151 -1.1477
  587TMC3    H2 8761   0.603   1.325  16.150  0.3499 -2.0602 -1.7482
  587TMC3    C7 8762   0.649   1.060  16.223  0.0500 -0.0244 -0.0182
  587TMC3    C8 8763   0.378   1.453  16.117  0.0120 -0.2030  0.2548
  587TMC3    O1 8764   0.636   0.940  16.254 -1.4205 -0.8343  0.1805
  587TMC3    O2 8765   0.474   1.517  16.071 -0.0361  0.4121 -0.4854
  588TMC3    C1 8766   2.434   4.408  10.238 -0.0181 -0.4763 -0.1085
  588TMC3    C2 8767   2.443   4.274  10.237  0.2544 -0.0136 -0.0392
  588TMC3    C3 8768   2.536   4.214  10.315  0.3262 -0.0891  0.0491
  588TMC3    C4 8769   2.532   4.484  10.299  0.1283 -0.5610  0.1780
  588TMC3    C5 8770   2.630   4.423  10.371 -0.1836 -0.5341 -0.5166
  588TMC3    C6 8771   2.621   4.286  10.395  0.1088 -0.1757 -0.4177
  588TMC3     C 8772   2.344   4.477  10.141 -0.0636  0.0612  0.2609
  588TMC3     O 8773   2.289   4.410  10.055  0.3679  0.0959  0.1381
  588TMC3     H 8774   2.390   4.219  10.159  1.7960  0.3270 -1.3187
  588TMC3    H1 8775   2.523   4.592  10.304  0.9081 -0.6139  2.4497
  588TMC3    H2 8776   2.707   4.246  10.447  0.1954  0.6961  0.1146
  588TMC3    C7 8777   2.745   4.500  10.421 -0.1893  0.2005 -0.5226
  588TMC3    C8 8778   2.546   4.070  10.295  0.1006 -0.1215  0.6085
  588TMC3    O1 8779   2.803   4.460  10.518 -0.1345  0.6657 -0.7551
  588TMC3    O2 8780   2.455   4.022  10.230  0.2007  0.2456  0.3468
  589TMC3    C1 8781   1.355   1.305   1.252 -0.6179  0.4416  0.5225
  589TMC3    C2 8782   1.478   1.293   1.313  0.7460 -0.4036  0.7478
  589TMC3    C3 8783   1.560   1.201   1.255 -0.0146  0.6296 -0.5633
  589TMC3    C4 8784   1.320   1.247   1.133 -0.1199  0.4852 -0.1526
  589TMC3    C5 8785   1.410   1.152   1.081 -0.0720  0.0714  0.4879
  589TMC3    C6 8786   1.529   1.126   1.146 -0.3970 -0.1912 -0.1594
  589TMC3     C 8787   1.250   1.390   1.309  0.5264  0.8638  0.2763
  589TMC3     O 8788   1.143   1.388   1.250  0.4918  0.2959  0.2508
  589TMC3     H 8789   1.500   1.346   1.404  0.8910 -2.1729  1.7466
  589TMC3    H1 8790   1.219   1.248   1.094  0.2841  1.7132 -1.1811
  589TMC3    H2 8791   1.583   1.041   1.106 -1.0922 -0.6425 -0.1468
  589TMC3    C7 8792   1.395   1.107   0.939  0.2273 -0.0334  0.4226
  589TMC3    C8 8793   1.685   1.185   1.320 -0.2327 -0.6942  0.1469
  589TMC3    O1 8794   1.470   1.020   0.888 -0.2397 -0.6771 -0.3688
  589TMC3    O2 8795   1.696   1.244   1.425 -0.0962  0.3693  1.0839
  590MPD2     C 8796   1.507   4.285  16.479  0.1021  0.6845 -0.0985
  590MPD2    C1 8797   1.441   4.389  16.420  0.4740  0.3540 -0.4753
  590MPD2    C2 8798   1.507   4.503  16.392 -0.6216  0.4403  1.3247
  590MPD2    C3 8799   1.638   4.519  16.430 -0.6947  0.6350  0.3829
  590MPD2    C4 8800   1.701   4.417  16.500 -0.8057 -0.1400  0.1834
  590MPD2    C5 8801   1.638   4.297  16.521  0.1123  0.6677  0.5580
  590MPD2     H 8802   1.459   4.582  16.336  0.7983  1.3886  1.4461
  590MPD2    H1 8803   1.806   4.427  16.527 -1.4405 -0.6207  2.8655
  590MPD2    H2 8804   1.463   4.187  16.497  1.7165 -0.5299 -2.8151
  590MPD2    H3 8805   1.695   4.211  16.556  0.8083  0.9268  0.0853
  590MPD2     N 8806   1.717   4.632  16.395  0.2761 -0.1313  0.0307
  590MPD2    H5 8807   1.814   4.628  16.424  0.3543 -0.7148 -0.2985
  590MPD2    N1 8808   1.311   4.361  16.368  0.7649 -0.3755 -0.6438
  590MPD2    H7 8809   1.272   4.273  16.399  0.6113  0.2558  0.9379
  591TMC3    C1 8810   1.796   0.093  16.320 -0.4628  0.2016  1.4010
  591TMC3    C2 8811   1.900   0.027  16.271  0.2078 -0.1001 -0.0460
  591TMC3    C3 8812   1.977   0.091  16.177 -0.4988  0.3872  0.3630
  591TMC3    C4 8813   1.777   0.230  16.298 -0.8881  1.0135 -0.4427
  591TMC3    C5 8814   1.865   0.287  16.219  0.1938 -0.4679  0.3226
  591TMC3    C6 8815   1.960   0.225  16.148  0.6249  0.6062  0.3271
  591TMC3     C 8816   1.678   0.018  16.353  1.0189  0.2070  0.9523
  591TMC3     O 8817   1.564   0.068  16.341 -0.1675  0.2906 -0.0953
  591TMC3     H 8818   1.924   4.661  16.296  4.4217  1.4463  2.2508
  591TMC3    H1 8819   1.696   0.283  16.347  0.2489 -1.2148  3.8153
  591TMC3    H2 8820   2.023   0.276  16.076 -1.6148 -0.1831 -2.1983
  591TMC3    C7 8821   1.841   0.429  16.203 -0.5012 -0.1448  0.0896
  591TMC3    C8 8822   2.035   0.002  16.077  0.5372  0.5872 -0.2556
  591TMC3    O1 8823   1.781   0.491  16.290  0.1333 -0.1004  0.2085
  591TMC3    O2 8824   2.057   4.622  16.108  0.1913  0.0754 -0.0366
  592MPD2     C 8825   1.949   2.055  11.445  0.0170 -0.2519  0.1039
  592MPD2    C1 8826   1.985   2.072  11.579 -0.6015 -0.7391 -0.4930
  592MPD2    C2 8827   1.962   1.963  11.663 -0.0456  0.4084 -0.0594
  592MPD2    C3 8828   1.926   1.843  11.617  0.3453 -0.1228  0.0113
  592MPD2    C4 8829   1.906   1.825  11.480  0.1272 -0.5602 -0.0933
  592MPD2    C5 8830   1.923   1.932  11.395 -0.1407  0.2537  0.3232
  592MPD2     H 8831   1.969   1.974  11.771  2.2356  1.1779 -0.2909
  592MPD2    H1 8832   1.869   1.732  11.439  0.0387 -0.5489 -0.0411
  592MPD2    H2 8833   1.942   2.131  11.369  1.2908 -0.9281 -0.6924
  592MPD2    H3 8834   1.891   1.930  11.291 -0.8108  2.6151  0.4691
  592MPD2     N 8835   1.900   1.750  11.716  0.2105  0.3035 -0.0213
  592MPD2    H5 8836   1.925   1.769  11.812  0.9689 -0.9041  0.0277
  592MPD2    N1 8837   2.020   2.198  11.618  0.7264  0.0029 -0.2290
  592MPD2    H7 8838   2.010   2.266  11.544  1.5484  1.7896  1.3099
  593TMC3    C1 8839   2.046   2.370  11.756 -0.1434  0.9701  0.1328
  593TMC3    C2 8840   2.084   2.423  11.874  0.2256  0.4194  0.0328
  593TMC3    C3 8841   2.056   2.552  11.895 -1.0395 -0.6763  0.1473
  593TMC3    C4 8842   1.969   2.445  11.664 -0.0636 -0.0505  0.0188
  593TMC3    C5 8843   1.936   2.578  11.705  0.3703  0.4203  0.4944
  593TMC3    C6 8844   1.979   2.638  11.822  0.4324 -0.3655 -0.0758
  593TMC3     C 8845   2.059   2.226  11.745  1.0361 -0.0485  0.4250
  593TMC3     O 8846   2.104   2.151  11.833  0.0196  0.5306 -0.3067
  593TMC3     H 8847   2.149   2.359  11.933  0.7239  1.5795  0.7455
  593TMC3    H1 8848   1.919   2.404  11.577  1.0640 -0.5726 -0.3891
  593TMC3    H2 8849   1.950   2.737  11.852 -0.6975 -1.3979  2.2326
  593TMC3    C7 8850   1.899   2.678  11.601 -0.0232 -0.0659 -0.3007
  593TMC3    C8 8851   2.090   2.610  12.021  0.0029 -0.2087 -0.0923
  593TMC3    O1 8852   1.891   2.795  11.643 -0.0770  0.3107  0.2088
  593TMC3    O2 8853   1.988   2.661  12.067 -0.1580 -0.1300  0.4596
  594MPD2     C 8854   1.102   0.384  14.925  0.1707  0.1523 -0.2107
  594MPD2    C1 8855   1.010   0.462  14.854  0.5476  0.9062  0.1729
  594MPD2    C2 8856   1.055   0.540  14.744 -0.1331  0.2210  0.0518
  594MPD2    C3 8857   1.190   0.561  14.717  0.1843  0.3812 -0.0961
  594MPD2    C4 8858   1.283   0.498  14.807 -0.9993  0.1064 -0.1722
  594MPD2    C5 8859   1.234   0.408  14.904  0.9453 -0.0398 -0.0719
  594MPD2     H 8860   0.986   0.579  14.671  1.4040  0.5556 -1.2200
  594MPD2    H1 8861   1.388   0.504  14.783 -1.2626 -0.5624 -1.5079
  594MPD2    H2 8862   1.074   0.316  15.005 -1.1943  0.2325 -0.6091
  594MPD2    H3 8863   1.317   0.357  14.951  0.2810 -0.9057  0.1617
  594MPD2     N 8864   1.220   0.648  14.617 -0.3116  0.3759 -0.5256
  594MPD2    H5 8865   1.148   0.687  14.557 -2.2778 -2.5702 -0.0991
  594MPD2    N1 8866   0.870   0.451  14.883 -0.6889 -0.9160 -0.4822
  594MPD2    H7 8867   0.840   0.383  14.952  2.2513  0.5766  2.2577
  595TMC3    C1 8868   1.465   0.952  14.367 -0.1532 -0.4748  0.1579
  595TMC3    C2 8869   1.459   0.839  14.437 -0.3213 -0.4689  0.1472
  595TMC3    C3 8870   1.338   0.795  14.482 -0.9631 -0.8222  0.2004
  595TMC3    C4 8871   1.354   1.015  14.324 -0.4028  0.5691  1.0581
  595TMC3    C5 8872   1.227   0.970  14.355 -0.2364  0.6243 -0.4259
  595TMC3    C6 8873   1.223   0.863  14.446 -0.5938  0.0538 -0.7677
  595TMC3     C 8874   1.593   0.976  14.298 -0.2294  0.2139  0.2479
  595TMC3     O 8875   1.691   0.921  14.347  0.8025  0.8015 -0.4196
  595TMC3     H 8876   1.550   0.787  14.465  1.5282  1.9503 -1.3403
  595TMC3    H1 8877   1.374   1.113  14.284 -2.8810 -0.7079 -3.3121
  595TMC3    H2 8878   1.125   0.826  14.475  1.8753 -2.1901  4.6647
  595TMC3    C7 8879   1.112   1.057  14.341  0.8260 -0.3510 -0.1151
  595TMC3    C8 8880   1.343   0.699  14.587 -0.1301  0.2999  0.0376
  595TMC3    O1 8881   1.026   1.043  14.427  0.6302  0.4903 -0.0868
  595TMC3    O2 8882   1.451   0.683  14.639  0.0910 -0.1362  0.0148
  596MPD2     C 8883   4.472   3.397  17.052  0.5850  0.0264 -0.3074
  596MPD2    C1 8884   4.478   3.518  16.989 -0.5359 -0.1520 -0.1292
  596MPD2    C2 8885   4.540   3.519  16.866  0.0398 -0.5548 -0.8971
  596MPD2    C3 8886   4.585   3.401  16.794 -0.1264  0.0337 -0.2542
  596MPD2    C4 8887   4.573   3.282  16.852 -0.1951 -0.4686  0.7071
  596MPD2    C5 8888   4.524   3.283  16.979 -0.0820 -0.4402  0.3101
  596MPD2     H 8889   4.555   3.615  16.817 -0.9241  2.6963  5.1394
  596MPD2    H1 8890   4.600   3.194  16.794  0.2707  1.0649 -1.4009
  596MPD2    H2 8891   4.414   3.376  17.141  0.9438  3.4155  0.7379
  596MPD2    H3 8892   4.518   3.190  17.034 -2.3346  0.8576  2.2707
  596MPD2     N 8893   4.641   3.413  16.665 -0.5068 -0.4610 -0.3139
  596MPD2    H5 8894   4.656   3.326  16.615 -0.2252  0.1692 -1.3245
  596MPD2    N1 8895   4.409   3.635  17.035  0.2665 -0.1569  0.0626
  596MPD2    H7 8896   4.409   3.708  16.965  1.3637  0.2236  0.4748
  597TMC3    C1 8897   4.292   3.788  17.163  0.6257 -0.5637 -0.3523
  597TMC3    C2 8898   4.333   3.880  17.071  1.2063  0.1539  0.2505
  597TMC3    C3 8899   4.276   4.008  17.073  0.3232 -0.1750  0.0831
  597TMC3    C4 8900   4.196   3.815  17.264 -0.8958 -0.3039 -0.1797
  597TMC3    C5 8901   4.138   3.935  17.247 -0.2353 -0.4455  0.6544
  597TMC3    C6 8902   4.188   4.038  17.168  0.0454  0.5727  0.1086
  597TMC3     C 8903   4.336   3.651  17.153  0.5545  0.1823 -0.0187
  597TMC3     O 8904   4.324   3.581  17.253  0.0002  0.1400 -0.4877
  597TMC3     H 8905   4.420   3.858  17.011 -0.3064  1.0441 -2.2856
  597TMC3    H1 8906   4.156   3.732  17.321 -1.2033  1.4339  2.1097
  597TMC3    H2 8907   4.154   4.140  17.179  0.3414  0.6973 -0.1367
  597TMC3    C7 8908   4.053   3.965  17.362 -0.2176  0.0198 -0.2776
  597TMC3    C8 8909   4.320   4.108  16.981  1.0641  0.7001 -0.1180
  597TMC3    O1 8910   4.068   3.883  17.457 -0.9261  0.6354 -0.0070
  597TMC3    O2 8911   4.249   4.208  16.984  0.3096  0.2032  0.0139
  598TMC3    C1 8912   2.900   0.400  15.492  0.2168 -0.1955 -0.2888
  598TMC3    C2 8913   2.795   0.326  15.531 -0.5649  0.3901 -0.3094
  598TMC3    C3 8914   2.668   0.360  15.491 -0.1703  0.0238  1.1413
  598TMC3    C4 8915   2.878   0.510  15.417  0.1399  0.3487 -0.2248
  598TMC3    C5 8916   2.751   0.544  15.383  0.4622  0.5593  0.3688
  598TMC3    C6 8917   2.645   0.473  15.414  0.3504 -0.1149  0.2855
  598TMC3     C 8918   3.035   0.350  15.506 -0.2073 -0.5478  0.9170
  598TMC3     O 8919   3.131   0.412  15.462  0.2342  0.2908 -0.6066
  598TMC3     H 8920   2.807   0.224  15.566 -0.7208  0.3175 -0.4726
  598TMC3    H1 8921   2.959   0.560  15.366 -0.0905  0.7641 -0.1850
  598TMC3    H2 8922   2.552   0.501  15.364  0.4197 -0.4215 -0.0137
  598TMC3    C7 8923   2.747   0.608  15.255 -0.3389  0.7825  0.0526
  598TMC3    C8 8924   2.565   0.254  15.499 -1.3353  0.8794  0.5640
  598TMC3    O1 8925   2.664   0.575  15.172  0.0206 -0.1484 -0.4114
  598TMC3    O2 8926   2.593   0.147  15.557 -0.9939 -0.0749 -0.4566
  599MPD2     C 8927   2.926   2.644  15.660 -0.2759 -0.1827  0.4898
  599MPD2    C1 8928   2.881   2.519  15.692 -0.5728 -0.4871 -0.7799
  599MPD2    C2 8929   2.750   2.513  15.747  0.5823  0.3222 -0.5470
  599MPD2    C3 8930   2.686   2.632  15.785 -0.1717 -0.2784  0.3629
  599MPD2    C4 8931   2.744   2.754  15.762 -0.0230 -0.3697 -0.5324
  599MPD2    C5 8932   2.862   2.762  15.702  0.5563 -0.4793  0.6425
  599MPD2     H 8933   2.705   2.417  15.770  0.2309 -0.0947 -3.0029
  599MPD2    H1 8934   2.699   2.852  15.773 -0.7372 -0.9948  2.1639
  599MPD2    H2 8935   3.019   2.650  15.604 -0.0007  1.2945  1.0952
  599MPD2    H3 8936   2.909   2.859  15.690  2.6495 -1.1422  3.5857
  599MPD2     N 8937   2.552   2.640  15.837 -0.0387 -0.0814  0.2639
  599MPD2    H5 8938   2.528   2.736  15.860 -1.6347 -0.0107 -1.6431
  599MPD2    N1 8939   2.957   2.401  15.659  0.1002 -0.0467  0.0433
  599MPD2    H7 8940   3.053   2.425  15.637 -0.1157 -0.1186 -1.0054
  600TMC3    C1 8941   2.348   2.582  15.927 -0.5127 -0.2813  0.2119
  600TMC3    C2 8942   2.236   2.502  15.921  0.4355  0.4167 -0.0698
  600TMC3    C3 8943   2.127   2.531  16.000  0.7173 -0.4158 -0.1880
  600TMC3    C4 8944   2.350   2.699  16.000  0.5088  0.0044 -0.8789
  600TMC3    C5 8945   2.233   2.720  16.076 -0.0144  0.1205 -0.7731
  600TMC3    C6 8946   2.119   2.635  16.082 -0.7481 -0.7081 -0.4257
  600TMC3     C 8947   2.467   2.533  15.857 -0.4490  0.5246  0.7108
  600TMC3     O 8948   2.483   2.415  15.833  0.0091 -0.4034  0.3560
  600TMC3     H 8949   2.238   2.421  15.849 -0.6296  1.8736 -1.7346
  600TMC3    H1 8950   2.444   2.745  16.027 -0.0175  1.5777 -1.7372
  600TMC3    H2 8951   2.041   2.641  16.157 -0.4022  0.4043 -0.1528
  600TMC3    C7 8952   2.232   2.825  16.179 -0.2788 -0.2663 -0.0713
  600TMC3    C8 8953   2.004   2.492  15.950  0.7177 -0.1389 -0.2948
  600TMC3    O1 8954   2.135   2.826  16.253  0.9493  0.0925  0.0104
  600TMC3    O2 8955   1.950   2.568  15.870 -0.3926 -0.1034 -0.5176
  601MPD2     C 8956   0.077   0.720  17.352  0.8155 -0.0932 -0.2897
  601MPD2    C1 8957   4.684   0.755  17.318  0.5239  0.0224  0.6231
  601MPD2    C2 8958   4.580   0.671  17.359 -0.5823  0.1570 -0.0761
  601MPD2    C3 8959   4.606   0.567  17.449 -0.2726  0.3715 -0.0269
  601MPD2    C4 8960   4.736   0.534  17.480  0.5247  0.0871 -0.0890
  601MPD2    C5 8961   0.104   0.611  17.426  0.1369  0.4364 -0.7145
  601MPD2     H 8962   4.478   0.707  17.345 -1.0355 -1.9137 -2.0905
  601MPD2    H1 8963   0.010   0.456  17.554  1.2524 -1.5077 -1.8539
  601MPD2    H2 8964   0.168   0.766  17.313  1.8845 -1.5196  0.5260
  601MPD2    H3 8965   0.210   0.591  17.439 -0.1619  0.3676  1.5828
  601MPD2     N 8966   4.496   0.491  17.504 -0.0733  0.0704 -0.5361
  601MPD2    H5 8967   4.515   0.420  17.573 -1.5469 -0.6013 -0.8178
  601MPD2    N1 8968   4.644   0.865  17.235  0.1753 -0.3206 -0.1916
  601MPD2    H7 8969   4.547   0.883  17.209  0.4752  0.7482 -0.5615
  602TMC3    C1 8970   4.652   1.083  17.141 -0.2714 -0.1656 -0.4622
  602TMC3    C2 8971   4.685   1.213  17.177  0.3770 -0.5088  0.8419
  602TMC3    C3 8972   4.596   1.307  17.136 -0.1769  0.9242  0.2291
  602TMC3    C4 8973   4.545   1.046  17.071 -0.3154  0.4648 -0.0764
  602TMC3    C5 8974   4.461   1.143  17.040 -0.1770 -0.5337 -0.0392
  602TMC3    C6 8975   4.475   1.268  17.086  0.4269 -0.0053  0.3386
  602TMC3     C 8976   4.723   0.978  17.205 -0.0933 -0.1840  0.1035
  602TMC3     O 8977   0.105   0.993  17.242 -0.3001 -0.7000 -0.4078
  602TMC3     H 8978   0.031   1.242  17.241  0.3340  0.3722  0.4989
  602TMC3    H1 8979   4.534   0.948  17.025  0.3428 -0.0333  0.8192
  602TMC3    H2 8980   4.403   1.339  17.050  1.1284 -1.3537 -3.6892
  602TMC3    C7 8981   4.326   1.090  17.010 -0.6794  0.5265 -0.6388
  602TMC3    C8 8982   4.588   1.439  17.199  0.2020 -0.0943  0.9111
  602TMC3    O1 8983   4.313   0.990  16.939 -0.4437 -0.0842 -0.0647
  602TMC3    O2 8984   4.688   1.509  17.196  0.0903 -0.2681 -0.1757
  603TMC3    C1 8985   2.852   2.323  11.197  0.2887 -0.1875  0.2838
  603TMC3    C2 8986   2.894   2.297  11.322 -0.2510  0.1380 -0.1069
  603TMC3    C3 8987   2.840   2.191  11.382  0.0344  0.0424 -0.1894
  603TMC3    C4 8988   2.757   2.251  11.141  0.2372  0.1996  0.4595
  603TMC3    C5 8989   2.697   2.150  11.210 -0.1409  0.2569  0.4591
  603TMC3    C6 8990   2.738   2.119  11.334 -0.5077 -1.0621 -0.3201
  603TMC3     C 8991   2.881   2.453  11.146 -0.5753  0.3648 -0.0549
  603TMC3     O 8992   2.933   2.526  11.228  0.2422  0.2650 -0.3699
  603TMC3     H 8993   2.971   2.357  11.370  1.4988 -0.2581 -2.3850
  603TMC3    H1 8994   2.734   2.276  11.038  1.6934 -1.7789 -0.3491
  603TMC3    H2 8995   2.724   2.021  11.377 -0.4158 -0.9596 -0.0575
  603TMC3    C7 8996   2.629   2.054  11.132 -0.0191 -0.4745 -0.5677
  603TMC3    C8 8997   2.923   2.101  11.479  0.1128  0.8621  0.2436
  603TMC3    O1 8998   2.612   1.947  11.192 -0.0363  0.3134  0.0681
  603TMC3    O2 8999   2.907   1.981  11.468  0.9668 -0.0183  0.5482
  604MPD2     C 9000   3.696   0.054  16.442 -0.3865 -0.1814 -0.3153
  604MPD2    C1 9001   3.602   0.012  16.353 -0.4972  0.5474  0.1210
  604MPD2    C2 9002   3.642   4.717  16.222 -0.9811  0.4260  1.0832
  604MPD2    C3 9003   3.776   4.725  16.183 -0.2065  0.1401 -0.1576
  604MPD2    C4 9004   3.866   0.047  16.263 -0.1392  0.1472  1.0798
  604MPD2    C5 9005   3.828   0.068  16.396  0.6707 -0.8046  0.0946
  604MPD2     H 9006   3.573   4.669  16.153  1.1628 -2.1125  0.7066
  604MPD2    H1 9007   3.969   0.066  16.236 -0.4254  0.0928 -0.0367
  604MPD2    H2 9008   3.661   0.073  16.543 -1.0604  0.8759 -0.7570
  604MPD2    H3 9009   3.902   0.104  16.468 -0.1274  0.1664  0.4390
  604MPD2     N 9010   3.822   4.664  16.059  0.1658  0.3054  0.3951
  604MPD2    H5 9011   3.748   4.622  16.003  1.0774 -2.4263  1.1959
  604MPD2    N1 9012   3.468   0.002  16.395  0.5072 -0.1564  1.0134
  604MPD2    H7 9013   3.454   0.020  16.494  0.9736  3.8816  0.3625
  605TMC3    C1 9014   3.246   4.712  16.407  0.6106 -0.1769  0.6541
  605TMC3    C2 9015   3.270   4.709  16.541  0.2326  0.2629  0.4271
  605TMC3    C3 9016   3.205   0.061  16.619  0.0586 -0.3116  0.3748
  605TMC3    C4 9017   3.155   0.064  16.360 -0.4413 -0.5933  0.6665
  605TMC3    C5 9018   3.079   0.144  16.445 -0.3171 -0.5832  0.8693
  605TMC3    C6 9019   3.113   0.150  16.577 -0.5093  0.3764  0.2380
  605TMC3     C 9020   3.361   4.697  16.324 -0.2714 -0.3124 -0.2942
  605TMC3     O 9021   3.350   4.687  16.202  0.1115 -0.1453  0.1854
  605TMC3     H 9022   3.341   4.640  16.583 -1.5462 -2.2503 -0.6960
  605TMC3    H1 9023   3.149   0.071  16.252 -0.0655 -0.7524  0.6372
  605TMC3    H2 9024   3.046   0.213  16.636 -1.9498 -1.9248  1.0514
  605TMC3    C7 9025   2.964   0.220  16.396  0.5766 -0.8059  0.0598
  605TMC3    C8 9026   3.274   0.078  16.743 -0.3028  0.3657  0.2241
  605TMC3    O1 9027   2.890   0.273  16.478 -0.1937  0.0274 -0.2846
  605TMC3    O2 9028   3.283   4.703  16.798 -0.2329  0.2911  0.3459
  606TMC3    C1 9029   0.089   3.288   0.050  0.4281 -0.1146 -0.0895
  606TMC3    C2 9030   0.163   3.243  17.683  0.1654 -0.3719  0.2645
  606TMC3    C3 9031   0.118   3.126  17.624 -0.1114  0.2134 -0.7618
  606TMC3    C4 9032   4.724   3.210   0.110 -0.6159 -0.4731  0.3522
  606TMC3    C5 9033   4.670   3.113   0.031  0.4150 -0.0446  0.1409
  606TMC3    C6 9034   4.732   3.066  17.663 -1.0320  0.7001 -0.8236
  606TMC3     C 9035   0.127   3.418   0.103 -0.5816 -0.3225  0.3046
  606TMC3     O 9036   0.240   3.459   0.085 -0.1056 -0.0761  0.0034
  606TMC3     H 9037   0.254   3.298  17.666  0.2871  0.0533  2.3220
  606TMC3    H1 9038   4.670   3.233   0.201  0.9005 -1.4021  1.4767
  606TMC3    H2 9039   4.692   2.983  17.606 -0.2349  0.1598 -0.5873
  606TMC3    C7 9040   4.583   3.019   0.103  0.2817 -0.1496  0.5742
  606TMC3    C8 9041   0.194   3.062  17.514  0.3904 -0.7414  0.0911
  606TMC3    O1 9042   4.587   3.011   0.225  0.2279  0.4812 -0.0684
  606TMC3    O2 9043   0.315   3.058  17.532 -0.2327  0.0754  0.4351
  607MPD2     C 9044   2.271   1.686  11.641  0.1204 -0.6644 -0.3158
  607MPD2    C1 9045   2.271   1.788  11.732  0.4406 -0.3477 -0.9699
  607MPD2    C2 9046   2.234   1.772  11.861 -0.7244  0.0163  0.1332
  607MPD2    C3 9047   2.203   1.649  11.909  0.2352  0.1772  0.0449
  607MPD2    C4 9048   2.216   1.540  11.825 -0.1921 -0.4305 -0.1339
  607MPD2    C5 9049   2.239   1.555  11.687  0.4112 -0.2189 -0.4602
  607MPD2     H 9050   2.222   1.861  11.922  1.4564 -0.6655  1.5432
  607MPD2    H1 9051   2.196   1.439  11.860  2.2107 -0.9374 -0.2531
  607MPD2    H2 9052   2.300   1.707  11.539  2.2580  0.0261  0.4321
  607MPD2    H3 9053   2.231   1.472  11.618 -1.8822 -0.6275  0.2994
  607MPD2     N 9054   2.164   1.648  12.049  0.3973  0.4302  0.0607
  607MPD2    H5 9055   2.147   1.733  12.103  1.0481  0.7477 -0.2289
  607MPD2    N1 9056   2.280   1.923  11.694  0.8556 -0.5772 -0.2827
  607MPD2    H7 9057   2.273   1.988  11.771  1.3386 -2.4111  1.3040
  608TMC3    C1 9058   2.349   2.119  11.575 -0.2312  0.0666 -0.0174
  608TMC3    C2 9059   2.402   2.164  11.697 -0.1845  0.6822  0.1669
  608TMC3    C3 9060   2.424   2.294  11.715 -0.1336  0.2002  0.5446
  608TMC3    C4 9061   2.344   2.192  11.457 -0.5696  0.7258  0.4899
  608TMC3    C5 9062   2.369   2.330  11.484 -1.0490 -0.1252 -0.0547
  608TMC3    C6 9063   2.400   2.382  11.611 -0.4477 -0.2165  0.6382
  608TMC3     C 9064   2.313   1.975  11.568  0.1219 -0.2324 -0.6639
  608TMC3     O 9065   2.328   1.918  11.459  0.5453 -0.3263 -0.1496
  608TMC3     H 9066   2.435   2.085  11.763  2.0189  0.5412 -1.1066
  608TMC3    H1 9067   2.317   2.135  11.369  0.0800 -0.0817  0.8103
  608TMC3    H2 9068   2.410   2.489  11.625 -1.0764 -0.2923  1.6812
  608TMC3    C7 9069   2.387   2.413  11.368  0.5690  0.3004  0.6298
  608TMC3    C8 9070   2.424   2.351  11.850 -0.3233  0.9673 -0.5988
  608TMC3    O1 9071   2.335   2.376  11.266 -0.0988  0.1036 -0.0588
  608TMC3    O2 9072   2.407   2.469  11.874 -0.3498 -0.2316  0.2871
  609TMC3    C1 9073   0.229   0.340   9.191 -0.2907  0.1148 -0.5490
  609TMC3    C2 9074   0.140   0.273   9.107  0.2812 -0.3463  0.5479
  609TMC3    C3 9075   0.186   0.173   9.028  0.4247 -0.3587  0.1564
  609TMC3    C4 9076   0.362   0.301   9.203 -0.2198 -0.2451  0.3833
  609TMC3    C5 9077   0.402   0.195   9.130  0.3430 -0.1308  0.1924
  609TMC3    C6 9078   0.319   0.128   9.043 -0.6847 -0.4856 -0.4121
  609TMC3     C 9079   0.174   0.429   9.293 -0.9920 -0.2418  0.3734
  609TMC3     O 9080   0.054   0.446   9.290  0.4078 -0.5987 -0.1250
  609TMC3     H 9081   0.036   0.305   9.106  0.0705 -1.0028  1.4793
  609TMC3    H1 9082   0.427   0.342   9.280  0.4749  2.8725 -1.8525
  609TMC3    H2 9083   0.357   0.051   8.977  0.4941 -0.8289  0.6728
  609TMC3    C7 9084   0.540   0.144   9.169 -0.8207  0.0147 -0.3338
  609TMC3    C8 9085   0.096   0.102   8.936 -0.1223 -0.2684 -0.7959
  609TMC3    O1 9086   0.598   0.203   9.255  0.0323  0.1152 -0.0483
  609TMC3    O2 9087   0.155   0.017   8.864 -0.3001 -0.0686  0.0968
  610TMC3    C1 9088   2.797   1.490  12.669  0.3792  0.0420  0.3461
  610TMC3    C2 9089   2.814   1.598  12.593 -0.4550  0.0301  0.2927
  610TMC3    C3 9090   2.919   1.605  12.500 -0.7818 -0.0057 -0.8383
  610TMC3    C4 9091   2.875   1.381  12.648  0.8291 -0.8687 -0.0726
  610TMC3    C5 9092   2.983   1.395  12.564 -0.0143  0.1586 -0.4508
  610TMC3    C6 9093   3.010   1.505  12.486 -0.1048  0.2624 -0.5990
  610TMC3     C 9094   2.677   1.500  12.761 -0.3408 -0.1011  0.9054
  610TMC3     O 9095   2.630   1.612  12.786  0.4566  0.0201 -0.2561
  610TMC3     H 9096   2.750   1.683  12.612  1.4940  1.1783  1.7193
  610TMC3    H1 9097   2.861   1.298  12.716 -1.6220  0.4144  1.0147
  610TMC3    H2 9098   3.102   1.518  12.429 -1.3074  4.1651 -1.6391
  610TMC3    C7 9099   3.090   1.300  12.597 -0.2510 -0.2384  0.1786
  610TMC3    C8 9100   2.945   1.722  12.433  0.0645  0.4608  0.3586
  610TMC3    O1 9101   3.048   1.189  12.624 -0.4203 -0.3130 -0.4662
  610TMC3    O2 9102   3.059   1.744  12.400  0.5609 -0.0092 -0.0261
  611MPD2     C 9103   1.433   2.294  10.109  0.1253 -0.1621 -0.7051
  611MPD2    C1 9104   1.494   2.176  10.142  0.1188 -0.0449 -0.0198
  611MPD2    C2 9105   1.632   2.178  10.163 -0.1504  0.3843 -0.0409
  611MPD2    C3 9106   1.710   2.295  10.147  0.0058  1.1270  0.2535
  611MPD2    C4 9107   1.650   2.409  10.107  0.0782 -0.0266  0.4619
  611MPD2    C5 9108   1.515   2.404  10.086  0.2845 -0.0010 -0.0423
  611MPD2     H 9109   1.676   2.084  10.194 -0.6404  0.3100  0.4383
  611MPD2    H1 9110   1.711   2.498  10.109  0.7413 -0.4577 -0.3980
  611MPD2    H2 9111   1.326   2.305  10.093 -0.1251 -0.1300  0.9881
  611MPD2    H3 9112   1.463   2.496  10.065 -1.0894 -0.6114  0.6272
  611MPD2     N 9113   1.846   2.302  10.179  1.0434  0.3387  0.6863
  611MPD2    H5 9114   1.891   2.393  10.177 -0.1560  0.8675 -2.9100
  611MPD2    N1 9115   1.435   2.047  10.150 -0.3150 -0.0532  0.4735
  611MPD2    H7 9116   1.490   1.968  10.184 -0.0870 -0.7372 -1.5076
  612TMC3    C1 9117   2.052   2.243  10.272 -0.2397  0.6230 -0.5130
  612TMC3    C2 9118   2.130   2.138  10.318 -0.0366 -0.8006  0.0713
  612TMC3    C3 9119   2.234   2.171  10.398  0.5706  0.1300 -0.4140
  612TMC3    C4 9120   2.093   2.375  10.287  0.4688  0.2104 -0.0859
  612TMC3    C5 9121   2.219   2.398  10.345  0.3917  0.1933  0.3167
  612TMC3    C6 9122   2.276   2.302  10.422  0.1891  0.2650 -0.4720
  612TMC3     C 9123   1.927   2.201  10.215 -0.4011  0.5093 -0.5835
  612TMC3     O 9124   1.910   2.077  10.209 -0.0342 -0.3253 -0.1048
  612TMC3     H 9125   2.114   2.035  10.287  2.2782 -0.7117 -1.4348
  612TMC3    H1 9126   2.048   2.453  10.226  1.0173 -0.2608 -1.0754
  612TMC3    H2 9127   2.360   2.329  10.484 -1.2151  0.3209  1.4374
  612TMC3    C7 9128   2.275   2.534  10.327 -0.0603 -0.0540  0.3276
  612TMC3    C8 9129   2.281   2.064  10.489 -0.0327  0.0566  0.9241
  612TMC3    O1 9130   2.206   2.634  10.292 -0.6722  0.2444 -0.2143
  612TMC3    O2 9131   2.251   1.948  10.464 -0.3303 -0.1497 -0.0285
  613MPD2     C 9132   1.264   2.980  16.537 -0.2070  0.1308  0.9446
  613MPD2    C1 9133   1.189   3.091  16.509 -0.9865 -0.0812 -0.3230
  613MPD2    C2 9134   1.087   3.073  16.428  0.2513 -0.6579  0.5778
  613MPD2    C3 9135   1.046   2.949  16.378 -0.0753  0.3833  0.4977
  613MPD2    C4 9136   1.117   2.837  16.421 -0.6806  0.0994 -0.3708
  613MPD2    C5 9137   1.225   2.858  16.494 -0.1600 -0.0492 -0.0408
  613MPD2     H 9138   1.030   3.164  16.414  0.8088 -0.7284 -2.0982
  613MPD2    H1 9139   1.082   2.741  16.385  0.5631 -0.1363 -0.9585
  613MPD2    H2 9140   1.353   2.984  16.599 -0.1290  0.4924  0.8079
  613MPD2    H3 9141   1.274   2.775  16.544  0.8648  0.5572 -0.0306
  613MPD2     N 9142   0.943   2.932  16.281 -0.8603  0.3712 -0.1565
  613MPD2    H5 9143   0.951   2.851  16.219 -1.0037 -0.6856  1.2204
  613MPD2    N1 9144   1.230   3.216  16.566  0.0816 -0.4395  0.0051
  613MPD2    H7 9145   1.318   3.214  16.616  0.6261 -1.3188 -0.9910
  614TMC3    C1 9146   1.284   3.449  16.571  0.0924  0.3359  0.0466
  614TMC3    C2 9147   1.391   3.423  16.485 -0.4626 -0.8346  1.2954
  614TMC3    C3 9148   1.404   3.496  16.370 -0.1628 -0.0149 -0.5453
  614TMC3    C4 9149   1.223   3.571  16.559  0.0661 -0.7200  0.6789
  614TMC3    C5 9150   1.260   3.652  16.454  0.3606 -0.5196  0.1515
  614TMC3    C6 9151   1.341   3.619  16.348  0.4978 -0.4386 -0.2962
  614TMC3     C 9152   1.176   3.343  16.549  0.1968 -0.2401 -0.1114
  614TMC3     O 9153   1.072   3.378  16.496 -0.4711 -0.4569 -0.7342
  614TMC3     H 9154   1.434   3.325  16.503  1.0656 -0.1026  1.6179
  614TMC3    H1 9155   1.142   3.598  16.626  0.0364 -2.6991  1.4583
  614TMC3    H2 9156   1.352   3.682  16.260 -1.1338  0.3950  0.0986
  614TMC3    C7 9157   1.161   3.752  16.422  0.2332 -0.2687  0.9584
  614TMC3    C8 9158   1.395   3.416  16.241 -0.5917  0.1725  0.4193
  614TMC3    O1 9159   1.091   3.783  16.516  0.1338 -0.8593  0.0925
  614TMC3    O2 9160   1.323   3.462  16.150  0.8264 -1.0055 -0.4783
  615MPD2     C 9161   0.911   0.372  16.053 -0.5480 -0.4668 -0.0353
  615MPD2    C1 9162   0.804   0.464  16.053  0.4873 -0.8443  0.6117
  615MPD2    C2 9163   0.676   0.424  16.061  0.3008  0.9204  0.2321
  615MPD2    C3 9164   0.647   0.290  16.037 -0.5525  0.8653 -0.0782
  615MPD2    C4 9165   0.751   0.198  16.031  0.0742 -0.2790 -0.7033
  615MPD2    C5 9166   0.880   0.237  16.040 -0.4463  0.5259 -0.0227
  615MPD2     H 9167   0.596   0.497  16.069  0.5179  0.9730  1.8096
  615MPD2    H1 9168   0.732   0.094  16.007  0.7471 -0.5969  0.1571
  615MPD2    H2 9169   1.014   0.402  16.069 -0.1034 -1.9178 -0.1647
  615MPD2    H3 9170   0.962   0.167  16.029 -0.4623  0.8811 -2.5065
  615MPD2     N 9171   0.515   0.234  16.029 -0.2350  0.2022  0.2124
  615MPD2    H5 9172   0.508   0.135  16.008 -1.5867  0.0161  1.6120
  615MPD2    N1 9173   0.823   0.606  16.065  0.2260 -0.7838  0.2434
  615MPD2    H7 9174   0.736   0.659  16.073  1.9706  1.8522  1.8928
  616TMC3    C1 9175   0.918   0.818  16.024  0.0212  0.2873  0.2255
  616TMC3    C2 9176   1.026   0.884  15.981 -1.0745 -0.2307 -0.2699
  616TMC3    C3 9177   1.014   0.971  15.881  0.3329 -0.0721  0.0147
  616TMC3    C4 9178   0.793   0.844  15.978 -0.0309 -0.2657  0.3606
  616TMC3    C5 9179   0.784   0.935  15.878 -0.1122 -0.0412  0.3029
  616TMC3    C6 9180   0.894   0.998  15.822 -0.3643 -0.1023  0.3085
  616TMC3     C 9181   0.935   0.679  16.039 -0.0543  0.5690  0.0200
  616TMC3     O 9182   1.050   0.638  16.020  0.2189 -0.7345  0.1185
  616TMC3     H 9183   1.122   0.854  16.020  0.1108  3.1114 -0.6716
  616TMC3    H1 9184   0.702   0.812  16.027 -2.1518  2.4610 -1.7500
  616TMC3    H2 9185   0.888   1.082  15.754  1.1774  1.3457  1.9823
  616TMC3    C7 9186   0.663   1.023  15.871  0.4879 -0.9157 -0.2987
  616TMC3    C8 9187   1.126   1.037  15.817  0.2156 -0.1139  1.0133
  616TMC3    O1 9188   0.680   1.143  15.861 -0.3121  0.3405 -0.3836
  616TMC3    O2 9189   1.106   1.074  15.703  0.2024 -0.3361  1.0414
  617MPD2     C 9190   3.723   3.497  13.341 -0.0265 -0.5431  0.3446
  617MPD2    C1 9191   3.739   3.469  13.473 -0.5718  0.3814 -0.4662
  617MPD2    C2 9192   3.623   3.442  13.543  0.1868 -0.1850 -0.1133
  617MPD2    C3 9193   3.497   3.452  13.491  0.0199  0.5041  0.0381
  617MPD2    C4 9194   3.488   3.489  13.360  0.3550 -0.4711  0.4379
  617MPD2    C5 9195   3.599   3.509  13.286 -0.2812  0.2759 -0.5296
  617MPD2     H 9196   3.635   3.420  13.649  0.4091 -3.2944 -0.7982
  617MPD2    H1 9197   3.392   3.507  13.314  0.9987 -0.9470 -1.1187
  617MPD2    H2 9198   3.810   3.511  13.278  1.4985 -0.7299  2.4311
  617MPD2    H3 9199   3.586   3.521  13.179 -4.3962 -1.0353 -0.1925
  617MPD2     N 9200   3.380   3.424  13.561 -0.0444 -0.0152  0.1877
  617MPD2    H5 9201   3.293   3.437  13.512  1.6068  0.6995 -2.5580
  617MPD2    N1 9202   3.865   3.493  13.528  0.1247 -0.0992  0.1839
  617MPD2    H7 9203   3.929   3.524  13.456 -0.0019 -0.3031 -0.0171
  618TMC3    C1 9204   4.029   3.555  13.679  0.1048 -0.2590 -0.7105
  618TMC3    C2 9205   4.094   3.534  13.800  0.0035 -0.2530 -0.1534
  618TMC3    C3 9206   4.217   3.596  13.812  0.4750 -0.3278  0.3166
  618TMC3    C4 9207   4.081   3.646  13.587 -0.1790  0.0103 -0.2496
  618TMC3    C5 9208   4.198   3.709  13.616 -0.1337 -0.2332  0.1723
  618TMC3    C6 9209   4.274   3.688  13.726  0.2514 -0.0340 -0.2554
  618TMC3     C 9210   3.902   3.484  13.657  0.6372  0.4713 -0.9004
  618TMC3     O 9211   3.851   3.427  13.751 -0.0821  0.1057 -0.2646
  618TMC3     H 9212   4.067   3.461  13.876 -0.1582 -0.5261 -0.4675
  618TMC3    H1 9213   4.023   3.671  13.500 -1.9816 -0.5642  0.7894
  618TMC3    H2 9214   4.373   3.729  13.738  1.3370 -2.1578 -1.9897
  618TMC3    C7 9215   4.256   3.793  13.508  0.0028  0.2368 -0.3082
  618TMC3    C8 9216   4.303   3.527  13.902 -0.4543  0.3682 -0.0826
  618TMC3    O1 9217   4.355   3.864  13.527  0.0019  0.1472  0.0836
  618TMC3    O2 9218   4.248   3.469  13.995  0.4126 -0.4706  0.2359
  619MPD2     C 9219   0.118   4.479  14.021  0.2239  0.0212  0.0595
  619MPD2    C1 9220   0.018   4.564  13.981 -0.1656 -1.0077 -0.1682
  619MPD2    C2 9221   4.624   4.562  14.027  0.4811 -0.2803  0.2513
  619MPD2    C3 9222   4.591   4.478  14.127  0.0418 -0.0263 -0.5076
  619MPD2    C4 9223   4.689   4.380  14.161  0.1404 -0.7228 -0.5265
  619MPD2    C5 9224   0.076   4.384  14.108 -0.9213  0.0444  0.3789
  619MPD2     H 9225   4.556   4.635  13.985 -0.3928 -0.2514  1.7289
  619MPD2    H1 9226   4.670   4.305  14.236 -0.9593 -0.4876 -0.5747
  619MPD2    H2 9227   0.216   4.492  13.976 -0.2529  0.2076 -0.9299
  619MPD2    H3 9228   0.158   4.324  14.146 -0.1207  0.3451 -0.8531
  619MPD2     N 9229   4.461   4.476  14.184 -0.4188 -0.1978  0.0988
  619MPD2    H5 9230   4.455   4.412  14.263  1.2611 -2.3391 -1.5514
  619MPD2    N1 9231   0.042   4.661  13.883  0.6590 -0.0776 -0.2631
  619MPD2    H7 9232   4.705   4.730  13.867 -0.2251 -0.7097  1.0464
  620TMC3    C1 9233   0.130   0.043  13.718  0.5750 -0.8343 -0.0016
  620TMC3    C2 9234   0.000   0.086  13.696 -0.6509 -0.7551  0.2121
  620TMC3    C3 9235   4.716   0.203  13.637 -0.2233 -0.1003 -0.3955
  620TMC3    C4 9236   0.233   0.119  13.666 -0.4370  1.1070  0.0756
  620TMC3    C5 9237   0.205   0.235  13.603  0.2902  0.6266 -0.0069
  620TMC3    C6 9238   0.080   0.284  13.592 -0.3775  0.1290 -0.4970
  620TMC3     C 9239   0.159   4.675  13.812  0.1717  0.0178  0.0484
  620TMC3     O 9240   0.274   4.634  13.824  0.4813 -0.8154  0.7538
  620TMC3     H 9241   4.647   0.025  13.706 -0.7295 -0.7942 -0.6951
  620TMC3    H1 9242   0.328   0.068  13.679 -0.7037  0.3079 -1.1735
  620TMC3    H2 9243   0.059   0.371  13.532 -0.2914 -0.0155 -0.7390
  620TMC3    C7 9244   0.298   0.261  13.500  0.1939 -0.0786  0.6684
  620TMC3    C8 9245   4.605   0.276  13.692  0.1678 -0.2067  0.4695
  620TMC3    O1 9246   0.340   0.156  13.450 -0.0346 -0.4196 -0.2106
  620TMC3    O2 9247   4.555   0.221  13.791  0.0423  0.3875 -0.1321
  621MPD2     C 9248   0.116   4.470  10.648  0.6690  1.2294  0.5480
  621MPD2    C1 9249   0.058   4.449  10.526 -0.2856  0.1711  0.2848
  621MPD2    C2 9250   0.060   4.542  10.428 -0.2607 -0.3329  0.3911
  621MPD2    C3 9251   0.111   4.670  10.455 -0.5783 -0.2417  0.4695
  621MPD2    C4 9252   0.161   4.698  10.577 -0.5325  0.8710  1.3503
  621MPD2    C5 9253   0.170   4.594  10.667 -0.4585  0.3041 -0.7981
  621MPD2     H 9254   0.030   4.506  10.330  2.1078 -2.3548  0.4133
  621MPD2    H1 9255   0.195   0.055  10.618  0.9389  0.8647  0.1551
  621MPD2    H2 9256   0.130   4.402  10.731  2.5364  0.9992  0.0424
  621MPD2    H3 9257   0.227   4.612  10.757  0.8340 -0.0544 -1.5444
  621MPD2     N 9258   0.106   0.036  10.358  0.2052  0.5767 -0.6630
  621MPD2    H5 9259   0.038   0.013  10.286  0.0330 -0.3633 -0.1980
  621MPD2    N1 9260   0.004   4.317  10.494 -0.9857  0.3066 -0.5297
  621MPD2    H7 9261   4.695   4.299  10.405 -1.9647  1.8695 -0.3454
  622TMC3    C1 9262   4.691   4.093  10.521 -0.6679  0.1350 -0.0630
  622TMC3    C2 9263   4.612   4.019  10.604 -0.1749 -0.0513 -0.3464
  622TMC3    C3 9264   4.562   3.903  10.555  0.7412  0.0174 -0.3595
  622TMC3    C4 9265   4.686   4.076  10.385 -0.4158  0.0054  0.1911
  622TMC3    C5 9266   4.612   3.969  10.339  0.0746  0.3604  0.4831
  622TMC3    C6 9267   4.559   3.874  10.426  0.9564  0.6123 -0.1309
  622TMC3     C 9268   0.004   4.211  10.582 -0.6485 -0.2986  0.7578
  622TMC3     O 9269   0.033   4.209  10.702  0.2225  0.0521 -0.2190
  622TMC3     H 9270   4.613   4.043  10.710 -0.3612 -0.5134 -0.2390
  622TMC3    H1 9271   0.011   4.137  10.320 -1.9433  0.5653 -0.7199
  622TMC3    H2 9272   4.520   3.777  10.395 -3.4813  2.1082  0.7539
  622TMC3    C7 9273   4.577   3.963  10.199 -0.0039  0.4175  0.3577
  622TMC3    C8 9274   4.446   3.855  10.627 -0.3511 -0.4190  0.5855
  622TMC3    O1 9275   4.517   3.857  10.169 -0.2214 -0.3192  0.8584
  622TMC3    O2 9276   4.379   3.766  10.575 -0.4183  0.0183  0.0661
  623MPD2     C 9277   3.848   0.451  15.988  0.2469 -0.3571  0.2188
  623MPD2    C1 9278   3.785   0.410  16.103  0.6673 -0.2577 -0.3881
  623MPD2    C2 9279   3.858   0.406  16.223  0.3739  0.4173  0.3872
  623MPD2    C3 9280   3.985   0.453  16.231 -0.1573  0.0413 -0.7658
  623MPD2    C4 9281   4.050   0.495  16.118 -0.4524 -0.0343 -0.2553
  623MPD2    C5 9282   3.975   0.497  16.002 -0.0870  0.5244  0.1104
  623MPD2     H 9283   3.808   0.384  16.316  1.9735  0.3143  1.2205
  623MPD2    H1 9284   4.143   0.547  16.137  0.4176 -1.6243 -0.2264
  623MPD2    H2 9285   3.804   0.465  15.890 -0.8608  2.1009  1.0459
  623MPD2    H3 9286   4.022   0.546  15.917 -0.1819  1.4201  0.5743
  623MPD2     N 9287   4.045   0.449  16.359 -0.4631  0.0235  0.5384
  623MPD2    H5 9288   3.983   0.412  16.430  0.5839 -1.3391  0.7394
  623MPD2    N1 9289   3.654   0.357  16.108 -0.6075  0.4141  0.5470
  623MPD2    H7 9290   3.618   0.345  16.203  0.2786 -0.0736  0.8175
  624TMC3    C1 9291   4.221   0.360  16.709 -0.2516  0.7222  0.6859
  624TMC3    C2 9292   4.095   0.349  16.761 -0.4115  0.0002  0.2499
  624TMC3    C3 9293   3.999   0.428  16.702 -0.3529 -0.2178  0.4716
  624TMC3    C4 9294   4.255   0.452  16.614  0.2528 -0.0694  0.4166
  624TMC3    C5 9295   4.153   0.520  16.553 -0.2276  0.1851  0.0271
  624TMC3    C6 9296   4.027   0.509  16.592 -0.2852  0.0907 -0.6717
  624TMC3     C 9297   4.329   0.301  16.776  0.1048 -0.2031  0.1490
  624TMC3     O 9298   4.297   0.226  16.865  0.0631  0.0317  0.1086
  624TMC3     H 9299   4.069   0.266  16.826 -1.6310 -1.3032 -1.8989
  624TMC3    H1 9300   4.349   0.456  16.560 -0.7121  1.2284 -1.1759
  624TMC3    H2 9301   3.953   0.574  16.548 -1.5659 -2.1289 -1.8103
  624TMC3    C7 9302   4.163   0.509  16.409  0.2126 -0.2015  0.2422
  624TMC3    C8 9303   3.863   0.380  16.711 -0.4031 -0.0266 -1.2209
  624TMC3    O1 9304   4.265   0.542  16.347 -0.0501  0.3004  0.0436
  624TMC3    O2 9305   3.796   0.411  16.613  0.0159 -0.0878  0.1591
  625MPD2     C 9306   4.098   1.673   0.367  0.5943 -1.5800 -0.7237
  625MPD2    C1 9307   4.172   1.785   0.337 -0.1085  0.7396  0.7604
  625MPD2    C2 9308   4.307   1.767   0.339 -0.2233 -0.5682 -0.8395
  625MPD2    C3 9309   4.372   1.645   0.353  0.1412 -0.5152  0.1112
  625MPD2    C4 9310   4.299   1.534   0.374  0.0352 -0.0089  0.0549
  625MPD2    C5 9311   4.159   1.550   0.379 -0.5508 -0.1346  0.9054
  625MPD2     H 9312   4.364   1.858   0.324  0.3103 -1.0571 -1.7599
  625MPD2    H1 9313   4.342   1.436   0.390 -1.8369 -0.9528 -0.7461
  625MPD2    H2 9314   3.990   1.675   0.368  0.6220 -0.7960  0.5664
  625MPD2    H3 9315   4.099   1.460   0.376 -2.5699  1.2324  0.0424
  625MPD2     N 9316   4.510   1.649   0.358  0.1028  0.7825 -0.3313
  625MPD2    H5 9317   4.546   1.744   0.350 -3.0172  1.9659 -0.2926
  625MPD2    N1 9318   4.121   1.912   0.301  0.1459  0.9197  0.2564
  625MPD2    H7 9319   4.198   1.977   0.310  1.2746 -0.3099 -0.4660
  626TMC3    C1 9320   3.980   2.077   0.243 -0.2664 -0.1158  0.1304
  626TMC3    C2 9321   3.908   2.115   0.128 -0.0537 -0.0483  0.2618
  626TMC3    C3 9322   3.848   2.238   0.138  0.0605  0.8483 -0.6884
  626TMC3    C4 9323   3.988   2.153   0.354  0.2657  0.2903  0.4782
  626TMC3    C5 9324   3.933   2.279   0.357  0.0735 -0.3532 -0.4633
  626TMC3    C6 9325   3.861   2.328   0.247 -0.1292 -0.3423  0.0980
  626TMC3     C 9326   3.999   1.934   0.257  0.4117 -0.2886 -0.1283
  626TMC3     O 9327   3.919   1.848   0.225 -0.0994  0.2751 -0.6177
  626TMC3     H 9328   3.893   2.040   0.051 -0.8814  0.1751  0.1984
  626TMC3    H1 9329   4.015   2.110   0.450  1.3330  1.6826  0.8104
  626TMC3    H2 9330   3.818   2.427   0.257 -2.5461 -1.4535  0.5752
  626TMC3    C7 9331   3.890   2.323   0.489  0.1885 -0.0579 -0.3462
  626TMC3    C8 9332   3.792   2.280   0.012  0.0709 -0.2780 -0.2096
  626TMC3    O1 9333   3.972   2.321   0.576 -0.2935  0.1638 -0.0062
  626TMC3    O2 9334   3.804   2.194  17.668 -0.3332  0.7490  0.0455
  627MPD2     C 9335   2.854   2.103  13.917  0.1455 -0.3600  0.0265
  627MPD2    C1 9336   2.948   2.031  13.994  0.4830  0.1269 -0.5306
  627MPD2    C2 9337   2.909   1.907  14.040  0.6826 -0.2493 -0.6566
  627MPD2    C3 9338   2.789   1.847  14.015 -0.1646  0.3084 -0.4251
  627MPD2    C4 9339   2.704   1.917  13.933  0.6078 -0.0451  0.0534
  627MPD2    C5 9340   2.727   2.050  13.901  0.0374 -0.3695 -0.5173
  627MPD2     H 9341   2.984   1.853  14.097 -1.8607  0.2997  3.2192
  627MPD2    H1 9342   2.614   1.869  13.897 -0.6314  1.8765  0.5815
  627MPD2    H2 9343   2.880   2.201  13.880  0.4284 -0.6732 -0.6093
  627MPD2    H3 9344   2.662   2.100  13.830 -0.4443  0.9731  0.8605
  627MPD2     N 9345   2.763   1.717  14.070  0.4016  0.9285 -0.3737
  627MPD2    H5 9346   2.817   1.692  14.152  1.5899  0.2062 -1.3717
  627MPD2    N1 9347   3.085   2.071  14.009  0.0555 -0.1903  0.2327
  627MPD2    H7 9348   3.145   1.999  14.048  1.3243  1.6993  1.7759
  628TMC3    C1 9349   3.270   2.232  14.033  0.4447 -0.5202 -0.3138
  628TMC3    C2 9350   3.330   2.138  14.104 -0.0111  0.4298 -0.2537
  628TMC3    C3 9351   3.366   2.154  14.231 -0.3369 -0.2270  0.2769
  628TMC3    C4 9352   3.270   2.358  14.082 -0.9398 -0.0304 -0.1035
  628TMC3    C5 9353   3.328   2.375  14.206  0.0823  0.3152  0.1101
  628TMC3    C6 9354   3.356   2.273  14.292  0.5241  0.1595 -0.7895
  628TMC3     C 9355   3.136   2.200  13.979  0.5722 -0.6271  0.1617
  628TMC3     O 9356   3.069   2.299  13.947 -0.5340 -0.6158 -0.4690
  628TMC3     H 9357   3.340   2.043  14.054 -0.1209 -1.2316  2.8326
  628TMC3    H1 9358   3.232   2.440  14.022 -1.7819  1.3623  2.3406
  628TMC3    H2 9359   3.412   2.292  14.384  1.1094 -2.1646 -0.6564
  628TMC3    C7 9360   3.327   2.504  14.268 -0.0808  0.1023 -0.3407
  628TMC3    C8 9361   3.484   2.071  14.271 -0.2850 -0.0286  0.1989
  628TMC3    O1 9362   3.411   2.517  14.349 -0.3031  0.2349  0.1946
  628TMC3    O2 9363   3.559   2.035  14.178  0.3831 -0.5249  0.5771
  629MPD2     C 9364   1.498   1.381  15.893  0.0422  0.5256  1.0058
  629MPD2    C1 9365   1.525   1.268  15.971 -0.3250 -0.0524 -0.0534
  629MPD2    C2 9366   1.426   1.165  15.975  0.2357 -0.0799 -0.3883
  629MPD2    C3 9367   1.315   1.169  15.894 -0.1037 -0.3721  0.0670
  629MPD2    C4 9368   1.302   1.273  15.804 -0.4964 -0.7790 -0.3899
  629MPD2    C5 9369   1.394   1.374  15.803  0.3834  0.7696  0.6395
  629MPD2     H 9370   1.441   1.078  16.038 -0.2086  0.5919  0.6481
  629MPD2    H1 9371   1.220   1.281  15.734 -1.4813  0.7473  0.9175
  629MPD2    H2 9372   1.558   1.471  15.903 -1.0178  1.3739 -0.2422
  629MPD2    H3 9373   1.380   1.465  15.746  0.7313 -0.4521 -1.3799
  629MPD2     N 9374   1.226   1.062  15.907 -0.1297 -0.2948  0.3760
  629MPD2    H5 9375   1.234   1.008  15.992 -3.0872 -1.5278 -0.1252
  629MPD2    N1 9376   1.647   1.277  16.042 -0.7299 -0.3755  0.1139
  629MPD2    H7 9377   1.688   1.369  16.033 -0.6281 -0.2825  1.5112
  630TMC3    C1 9378   1.817   1.213  16.192 -0.8638 -0.0118 -0.1728
  630TMC3    C2 9379   1.891   1.325  16.150  0.5780  0.8440 -0.0414
  630TMC3    C3 9380   1.989   1.364  16.240 -0.1044 -0.0259  0.2103
  630TMC3    C4 9381   1.842   1.149  16.308 -0.2380  0.5439  0.0959
  630TMC3    C5 9382   1.927   1.211  16.399 -0.3698 -0.0052  0.1159
  630TMC3    C6 9383   2.011   1.313  16.365  0.3378 -0.6860 -0.2651
  630TMC3     C 9384   1.692   1.174  16.123 -0.1807 -0.0229  1.3489
  630TMC3     O 9385   1.635   1.069  16.150  0.0159 -0.2285 -0.6197
  630TMC3     H 9386   1.883   1.363  16.048  0.4876 -0.5542 -0.5501
  630TMC3    H1 9387   1.776   1.071  16.344  0.2993 -1.4749 -3.3600
  630TMC3    H2 9388   2.104   1.340  16.415 -0.3807  1.3871 -0.0727
  630TMC3    C7 9389   1.940   1.152  16.527 -0.9298 -0.0541 -0.3646
  630TMC3    C8 9390   2.094   1.450  16.197 -0.2124  0.0349  0.5049
  630TMC3    O1 9391   1.876   1.046  16.541  0.6611 -0.3928 -1.0166
  630TMC3    O2 9392   2.168   1.499  16.281 -0.1520  0.3428 -0.2471
  631MPD2     C 9393   4.220   0.446  15.761  0.7077  0.0206 -0.6615
  631MPD2    C1 9394   4.302   0.519  15.676  0.6661 -0.2835  0.0615
  631MPD2    C2 9395   4.440   0.501  15.683 -0.0964  0.4687  1.0010
  631MPD2    C3 9396   4.497   0.405  15.768 -0.2676  0.6517 -0.0535
  631MPD2    C4 9397   4.420   0.342  15.858 -0.2942  0.2096 -0.2308
  631MPD2    C5 9398   4.280   0.362  15.854 -0.0646  0.1021  0.6229
  631MPD2     H 9399   4.502   0.569  15.626 -0.7217 -0.7209 -1.1257
  631MPD2    H1 9400   4.455   0.267  15.928  2.4945  0.4364 -1.3822
  631MPD2    H2 9401   4.112   0.449  15.758  0.6043 -2.8462  0.0682
  631MPD2    H3 9402   4.220   0.325  15.937 -0.2942  1.0672  0.8879
  631MPD2     N 9403   4.638   0.379  15.755 -0.8877 -0.0221 -0.2485
  631MPD2    H5 9404   4.694   0.413  15.678  0.0542  1.6919  1.1855
  631MPD2    N1 9405   4.231   0.614  15.599 -0.2259  0.0092 -0.2122
  631MPD2    H7 9406   4.130   0.608  15.606 -0.1593  0.8477  1.6587
  632TMC3    C1 9407   4.181   0.771  15.429  0.8830  0.4320 -1.1017
  632TMC3    C2 9408   4.060   0.793  15.485 -0.2186 -0.7912  0.7278
  632TMC3    C3 9409   3.965   0.841  15.398  0.1412  0.2116 -0.0172
  632TMC3    C4 9410   4.210   0.821  15.304  0.0039 -0.0864 -0.5242
  632TMC3    C5 9411   4.118   0.879  15.227 -0.6154  0.2465 -0.0661
  632TMC3    C6 9412   3.993   0.892  15.270  0.2803  0.6122  0.0155
  632TMC3     C 9413   4.285   0.702  15.509 -0.9206 -0.3557 -0.4263
  632TMC3     O 9414   4.400   0.720  15.475 -0.0821  0.2817  0.1628
  632TMC3     H 9415   4.037   0.762  15.586  0.1283 -2.6588  0.2208
  632TMC3    H1 9416   4.309   0.807  15.261 -0.4018 -1.4013 -1.0096
  632TMC3    H2 9417   3.914   0.934  15.209  0.8920  0.6578 -0.7392
  632TMC3    C7 9418   4.161   0.935  15.095 -0.1701  0.7023  0.2452
  632TMC3    C8 9419   3.851   0.898  15.463 -0.4982 -0.2535 -0.2669
  632TMC3    O1 9420   4.269   0.905  15.052 -0.0376 -0.5530 -0.0825
  632TMC3    O2 9421   3.797   0.994  15.407 -0.6342  0.0538 -0.4026
  633MPD2     C 9422   3.841   3.357  17.506 -0.4619  0.1709 -0.4376
  633MPD2    C1 9423   3.859   3.299  17.379  0.4734 -0.1194  0.4822
  633MPD2    C2 9424   3.839   3.163  17.367  0.3577 -0.1493  0.5966
  633MPD2    C3 9425   3.796   3.086  17.469  0.3929  0.1955  0.1872
  633MPD2    C4 9426   3.765   3.144  17.586  0.4658 -0.0518  0.4215
  633MPD2    C5 9427   3.793   3.272  17.611 -0.2396 -0.5966 -0.0230
  633MPD2     H 9428   3.860   3.113  17.274  0.2187  0.1854  0.3867
  633MPD2    H1 9429   3.718   3.090  17.668 -1.6913  1.4559  0.1745
  633MPD2    H2 9430   3.868   3.460  17.525  1.7282 -0.6466  0.8138
  633MPD2    H3 9431   3.768   3.313  17.708  0.6602 -0.4886  0.1700
  633MPD2     N 9432   3.790   2.947  17.462 -0.1436 -0.0563  0.0368
  633MPD2    H5 9433   3.765   2.900  17.548  1.7648  0.3029  0.7838
  633MPD2    N1 9434   3.900   3.372  17.264 -0.0439  0.3433 -0.0607
  633MPD2    H7 9435   3.924   3.319  17.181 -1.7994 -2.3532  1.1769
  634TMC3    C1 9436   3.980   3.541  17.133  0.2639  0.4075  0.5324
  634TMC3    C2 9437   4.059   3.444  17.076 -0.0973  0.8438 -0.1290
  634TMC3    C3 9438   4.125   3.484  16.959  0.3773  1.0223 -0.3690
  634TMC3    C4 9439   3.971   3.670  17.091  0.0181 -0.0289  0.1186
  634TMC3    C5 9440   4.032   3.701  16.966 -0.6840 -0.0495  0.3681
  634TMC3    C6 9441   4.104   3.609  16.898 -0.1928 -0.5140  0.0462
  634TMC3     C 9442   3.906   3.506  17.253  0.3539  0.2075 -0.0651
  634TMC3     O 9443   3.854   3.595  17.318  0.0957 -0.4882  0.1307
  634TMC3     H 9444   4.089   3.351  17.123  0.0194  0.4567 -0.9794
  634TMC3    H1 9445   3.924   3.747  17.151 -5.0063 -2.1556 -1.1328
  634TMC3    H2 9446   4.164   3.635  16.812 -0.7990  1.7747  0.3363
  634TMC3    C7 9447   4.027   3.833  16.901 -0.9574 -0.1142 -0.5685
  634TMC3    C8 9448   4.154   3.373  16.875 -0.3706  0.5980 -0.4989
  634TMC3    O1 9449   4.086   3.843  16.794  0.0014  0.0183  0.3273
  634TMC3    O2 9450   4.116   3.265  16.917  0.0147 -0.1539 -0.4050
  635TMC3    C1 9451   4.071   4.171   0.059  0.8471 -0.3363  0.2949
  635TMC3    C2 9452   4.150   4.068   0.019  0.4096  0.5573  0.3028
  635TMC3    C3 9453   4.106   3.947   0.066 -0.8090  0.8757 -0.0803
  635TMC3    C4 9454   3.961   4.173   0.139  0.0693 -0.4761 -0.2026
  635TMC3    C5 9455   3.924   4.046   0.180  0.9036 -0.2297 -0.6209
  635TMC3    C6 9456   3.994   3.935   0.143 -0.1633  0.1380 -0.4341
  635TMC3     C 9457   4.127   4.306   0.038 -0.4941 -0.8509 -0.2583
  635TMC3     O 9458   4.042   4.392   0.008 -0.3458  0.0067 -0.0574
  635TMC3     H 9459   4.223   4.076  17.683 -0.4781  0.0387 -0.5647
  635TMC3    H1 9460   3.905   4.263   0.160 -0.5940 -0.2970 -2.6560
  635TMC3    H2 9461   3.953   3.840   0.174 -2.0581  0.5423 -1.7159
  635TMC3    C7 9462   3.829   4.035   0.291  0.5349  0.2005 -0.2324
  635TMC3    C8 9463   4.183   3.824   0.033 -0.5165 -0.4576 -0.3518
  635TMC3    O1 9464   3.795   3.921   0.318 -0.5345  0.2145  0.1348
  635TMC3    O2 9465   4.133   3.710   0.042  0.6016 -0.3207 -0.7116
  636MPD2     C 9466   0.651   3.776  15.875  0.2288 -0.3807 -0.7211
  636MPD2    C1 9467   0.652   3.734  16.002 -0.5079  0.0196  0.0469
  636MPD2    C2 9468   0.684   3.600  16.026  0.1091 -0.4411 -0.6132
  636MPD2    C3 9469   0.726   3.518  15.931 -0.1177 -0.2970  0.0951
  636MPD2    C4 9470   0.730   3.561  15.802  0.4487 -0.4077  0.5848
  636MPD2    C5 9471   0.684   3.688  15.771 -0.0594  0.0968 -0.7885
  636MPD2     H 9472   0.660   3.549  16.118  1.1261 -3.0035 -1.7858
  636MPD2    H1 9473   0.776   3.505  15.722 -1.6974  0.1439 -1.0453
  636MPD2    H2 9474   0.630   3.878  15.845 -0.0115 -0.9637 -2.5633
  636MPD2    H3 9475   0.680   3.722  15.668 -1.3034  3.0631  0.2277
  636MPD2     N 9476   0.767   3.384  15.965 -0.3702  0.0982 -0.3843
  636MPD2    H5 9477   0.775   3.359  16.063  0.4236  1.3099 -0.1436
  636MPD2    N1 9478   0.607   3.802  16.118  0.3529 -0.6349 -0.1121
  636MPD2    H7 9479   0.605   3.741  16.199  2.4568  0.0337  0.4289
  637TMC3    C1 9480   0.826   3.164  15.945  0.0807  0.3463 -0.4351
  637TMC3    C2 9481   0.767   3.126  16.064  0.1791 -0.2437  0.1031
  637TMC3    C3 9482   0.800   3.006  16.117 -0.8058 -0.0663 -0.3808
  637TMC3    C4 9483   0.930   3.091  15.892  0.0499 -0.2982 -0.2290
  637TMC3    C5 9484   0.949   2.965  15.943 -0.0474  0.4825  0.3274
  637TMC3    C6 9485   0.879   2.912  16.051  0.1419  0.3484 -0.2923
  637TMC3     C 9486   0.784   3.281  15.874 -0.4903 -0.6225  0.0349
  637TMC3     O 9487   0.787   3.284  15.749 -0.6868  0.7289  0.2781
  637TMC3     H 9488   0.696   3.190  16.115  2.1067  0.1072  2.3392
  637TMC3    H1 9489   0.977   3.129  15.802 -0.7653 -2.4026 -1.5415
  637TMC3    H2 9490   0.901   2.811  16.086 -0.7042  0.3494  0.2465
  637TMC3    C7 9491   1.082   2.914  15.966 -0.1393 -0.2204  0.0839
  637TMC3    C8 9492   0.859   3.025  16.244  0.4564  0.0474  0.1194
  637TMC3    O1 9493   1.104   2.796  16.003  0.6985  0.6504  0.2336
  637TMC3    O2 9494   0.832   3.129  16.297 -0.2887  0.5609  0.7896
  638MPD2     C 9495   0.413   2.681  15.026 -0.2921 -0.7749  0.2957
  638MPD2    C1 9496   0.470   2.590  14.937  0.2792  0.6013 -0.3747
  638MPD2    C2 9497   0.498   2.463  14.990  0.6386  0.7176  0.0614
  638MPD2    C3 9498   0.450   2.423  15.110 -0.3932  0.1466  0.3805
  638MPD2    C4 9499   0.369   2.509  15.187  0.2845  0.2414  0.9335
  638MPD2    C5 9500   0.366   2.638  15.148 -0.5915 -0.4591  0.3662
  638MPD2     H 9501   0.544   2.389  14.926 -1.3174  0.5886 -1.2013
  638MPD2    H1 9502   0.325   2.477  15.281  0.5126  0.8055  1.2331
  638MPD2    H2 9503   0.407   2.785  14.995 -3.1751 -0.8220  0.7641
  638MPD2    H3 9504   0.331   2.710  15.220 -0.4815  0.2635 -0.2966
  638MPD2     N 9505   0.486   2.298  15.151 -0.2898 -0.1729  0.2878
  638MPD2    H5 9506   0.528   2.238  15.080  0.6177 -2.0514  2.4120
  638MPD2    N1 9507   0.511   2.631  14.807  0.2214  0.6024  0.5632
  638MPD2    H7 9508   0.507   2.729  14.780  0.0559  0.3712 -0.2481
  639TMC3    C1 9509   0.487   2.098  15.245 -0.1699  0.4094 -0.5195
  639TMC3    C2 9510   0.382   2.027  15.189  0.0273 -0.3294 -0.1236
  639TMC3    C3 9511   0.406   1.938  15.082  0.4478  0.0987 -0.2578
  639TMC3    C4 9512   0.612   2.088  15.182 -0.8115  0.2545  0.4188
  639TMC3    C5 9513   0.637   2.007  15.075 -0.2273 -0.1198 -0.2092
  639TMC3    C6 9514   0.532   1.929  15.027 -0.3750  0.2275 -0.7198
  639TMC3     C 9515   0.458   2.235  15.273  0.3339 -0.1727 -0.8861
  639TMC3     O 9516   0.407   2.269  15.382  0.3891 -0.3721  0.0249
  639TMC3     H 9517   0.282   2.043  15.226 -0.3614 -1.1837 -0.8253
  639TMC3    H1 9518   0.694   2.145  15.223 -0.2408  0.2897 -0.7908
  639TMC3    H2 9519   0.548   1.850  14.955 -0.8034  0.1314 -0.7128
  639TMC3    C7 9520   0.770   2.009  15.023 -0.3490  0.2494  0.1832
  639TMC3    C8 9521   0.303   1.903  14.982 -0.1235 -0.6109 -0.1638
  639TMC3    O1 9522   0.845   2.099  15.069  0.2346 -0.2903  0.2134
  639TMC3    O2 9523   0.340   1.885  14.869  0.5152  0.0547  0.2066
  640MPD2     C 9524   0.903   1.444   9.854  0.9651  0.4795 -0.5317
  640MPD2    C1 9525   0.777   1.414   9.809  0.4458  0.8974 -0.4965
  640MPD2    C2 9526   0.675   1.504   9.821 -0.0399 -0.5587 -0.2873
  640MPD2    C3 9527   0.688   1.621   9.894  0.1291 -0.0821 -0.6008
  640MPD2    C4 9528   0.813   1.653   9.943  0.3232  0.0086  0.0770
  640MPD2    C5 9529   0.918   1.567   9.919  0.3198 -0.8507  0.0850
  640MPD2     H 9530   0.582   1.484   9.768 -1.0064  1.5380  0.6106
  640MPD2    H1 9531   0.831   1.747   9.994  0.7750  0.2474 -0.5216
  640MPD2    H2 9532   0.982   1.370   9.848 -0.6685 -1.1061 -2.3285
  640MPD2    H3 9533   1.016   1.603   9.947  0.2056 -0.6247  0.1921
  640MPD2     N 9534   0.585   1.716   9.916  0.4684  0.2007 -0.3412
  640MPD2    H5 9535   0.612   1.797   9.972 -1.2045 -0.3610  1.3064
  640MPD2    N1 9536   0.772   1.301   9.730 -0.3496  0.6599  0.3535
  640MPD2    H7 9537   0.865   1.265   9.712 -0.7910 -0.4389  0.2862
  641TMC3    C1 9538   0.681   1.123   9.605  0.6876  0.2202 -0.0964
  641TMC3    C2 9539   0.796   1.051   9.601 -0.1509 -0.1689 -0.7782
  641TMC3    C3 9540   0.803   0.953   9.503 -0.3835 -0.5002 -0.4538
  641TMC3    C4 9541   0.567   1.090   9.533  0.2596 -0.0669 -0.0176
  641TMC3    C5 9542   0.574   0.990   9.440  0.0561 -0.1032 -0.4071
  641TMC3    C6 9543   0.693   0.916   9.422  0.9187  0.3999  0.5382
  641TMC3     C 9544   0.658   1.237   9.696 -0.1313  0.0885 -0.5152
  641TMC3     O 9545   0.540   1.254   9.725 -0.1578  0.1665 -0.1872
  641TMC3     H 9546   0.884   1.083   9.657  0.5202 -0.4216 -1.6839
  641TMC3    H1 9547   0.481   1.156   9.533  0.8609  0.7290  0.9779
  641TMC3    H2 9548   0.695   0.829   9.359 -2.6218  0.3175  0.5102
  641TMC3    C7 9549   0.467   0.956   9.345 -0.0311  0.0104 -0.0054
  641TMC3    C8 9550   0.922   0.869   9.478 -0.0662  0.5217  0.0988
  641TMC3    O1 9551   0.493   0.918   9.232  0.4582 -1.2460  0.0501
  641TMC3    O2 9552   0.909   0.762   9.418  0.1597  0.1826 -0.0191
  642TMC3    C1 9553   1.973   2.584  12.371 -0.3667  0.3135  0.3914
  642TMC3    C2 9554   2.072   2.590  12.467  0.1495  0.1250  1.0486
  642TMC3    C3 9555   2.126   2.471  12.513 -0.0305 -0.1172 -0.2065
  642TMC3    C4 9556   1.925   2.469  12.314  0.0233  1.2536  0.3933
  642TMC3    C5 9557   1.974   2.361  12.380 -0.4909  0.1370 -0.4035
  642TMC3    C6 9558   2.074   2.352  12.477  0.7912 -0.9842 -0.1452
  642TMC3     C 9559   1.891   2.704  12.361 -0.0095 -0.2339 -0.0322
  642TMC3     O 9560   1.952   2.810  12.386  0.3768 -0.6227 -0.1299
  642TMC3     H 9561   2.103   2.690  12.494 -0.8072  0.3941  1.1732
  642TMC3    H1 9562   1.838   2.458  12.251  1.2476 -2.2825 -0.6596
  642TMC3    H2 9563   2.131   2.264  12.505 -0.0226 -0.9627  1.5788
  642TMC3    C7 9564   1.912   2.238  12.346 -0.6605 -0.6392  0.4229
  642TMC3    C8 9565   2.247   2.482  12.593 -0.2198 -0.1485  0.1468
  642TMC3    O1 9566   1.862   2.241  12.236 -0.1112  0.5701  0.1531
  642TMC3    O2 9567   2.272   2.389  12.670  0.1977 -0.5821 -0.5404
  643TMC3    C1 9568   1.147   1.229  17.504  0.1184  0.1583 -0.1173
  643TMC3    C2 9569   1.038   1.222  17.423 -1.1173  0.0544 -0.2521
  643TMC3    C3 9570   1.059   1.204  17.289 -0.4431 -0.4896 -0.3554
  643TMC3    C4 9571   1.277   1.213  17.466  0.2579 -0.2977 -0.8287
  643TMC3    C5 9572   1.294   1.187  17.333  0.0770 -0.0422  0.2107
  643TMC3    C6 9573   1.190   1.174  17.245  0.5906  1.0281 -0.3606
  643TMC3     C 9574   1.114   1.241  17.649 -0.1235 -0.2236  0.1673
  643TMC3     O 9575   0.998   1.281  17.671  0.0742  0.4356  0.1972
  643TMC3     H 9576   0.939   1.202  17.463  0.1616 -2.7671  1.5610
  643TMC3    H1 9577   1.346   1.269  17.527  1.5278  0.5853 -3.0745
  643TMC3    H2 9578   1.209   1.156  17.140  0.3620 -0.5244 -0.1267
  643TMC3    C7 9579   1.388   1.284  17.274  0.7725 -0.1929 -0.2364
  643TMC3    C8 9580   0.986   1.279  17.195 -0.1678 -0.6582  0.2583
  643TMC3    O1 9581   1.342   1.350  17.183 -0.2954 -0.1597  0.4177
  643TMC3    O2 9582   0.993   1.253  17.076 -0.2293  0.1664 -0.2090
  644MPD2     C 9583   0.851   1.526   9.358  0.1478  0.1500 -0.7231
  644MPD2    C1 9584   0.759   1.440   9.301  0.2747  0.7738 -0.5378
  644MPD2    C2 9585   0.625   1.459   9.323 -0.5179 -0.1799  0.3448
  644MPD2    C3 9586   0.576   1.554   9.412 -0.7109  0.0428  0.2497
  644MPD2    C4 9587   0.670   1.631   9.475 -0.2441 -0.2462 -0.3495
  644MPD2    C5 9588   0.800   1.622   9.440  0.3731  0.1604 -0.3329
  644MPD2     H 9589   0.561   1.380   9.285  0.8097  0.1450 -2.6155
  644MPD2    H1 9590   0.652   1.710   9.546 -0.5800  0.0686 -0.7867
  644MPD2    H2 9591   0.957   1.514   9.340  0.1328 -0.2052 -0.5730
  644MPD2    H3 9592   0.872   1.688   9.487  2.3676 -1.3189 -1.2895
  644MPD2     N 9593   0.435   1.562   9.437  0.4272 -0.2723 -0.2887
  644MPD2    H5 9594   0.382   1.487   9.394 -0.4216 -0.3009  0.7902
  644MPD2    N1 9595   0.811   1.340   9.216 -0.3038 -0.2378 -0.5987
  644MPD2    H7 9596   0.910   1.322   9.227 -0.2986  0.7053  0.8705
  645TMC3    C1 9597   0.235   1.652   9.500  0.0845  0.0480 -0.1247
  645TMC3    C2 9598   0.174   1.773   9.479 -0.9185  0.6592  0.2925
  645TMC3    C3 9599   0.040   1.774   9.465 -0.0035  0.1490 -0.0883
  645TMC3    C4 9600   0.175   1.534   9.501  0.1216 -0.8475  0.5553
  645TMC3    C5 9601   0.041   1.537   9.471 -0.1212  0.4571 -0.4038
  645TMC3    C6 9602   4.710   1.655   9.454 -0.3162  0.0840 -0.4431
  645TMC3     C 9603   0.375   1.663   9.498 -0.4355 -0.1924 -0.5366
  645TMC3     O 9604   0.421   1.762   9.549  0.2783  0.8697 -0.3044
  645TMC3     H 9605   0.233   1.863   9.468 -1.1503  0.5511 -1.8018
  645TMC3    H1 9606   0.223   1.440   9.528 -0.1887 -0.5974  1.9626
  645TMC3    H2 9607   4.602   1.664   9.442 -0.1701  1.6983 -0.4140
  645TMC3    C7 9608   4.703   1.418   9.506 -0.1866 -0.1631  0.4155
  645TMC3    C8 9609   4.712   1.908   9.461  0.7149 -0.2242  0.3089
  645TMC3    O1 9610   4.602   1.394   9.440 -0.2653  0.3164  0.0332
  645TMC3    O2 9611   0.056   2.004   9.466  0.1990  0.8071  0.3536
  646MPD2     C 9612   0.700   1.151  14.470 -0.1695 -0.2285  0.1282
  646MPD2    C1 9613   0.613   1.177  14.569  0.0500 -0.6349  0.7574
  646MPD2    C2 9614   0.486   1.226  14.546 -0.0942  0.3857  0.0994
  646MPD2    C3 9615   0.441   1.248  14.422  0.3253 -0.7140 -0.6546
  646MPD2    C4 9616   0.532   1.224  14.318  0.4408  0.4563  0.5651
  646MPD2    C5 9617   0.659   1.169  14.341  0.5249  0.2773 -0.2794
  646MPD2     H 9618   0.417   1.255  14.625 -1.2368  2.4062 -1.6303
  646MPD2    H1 9619   0.494   1.237  14.217  0.4043  0.9852  0.6461
  646MPD2    H2 9620   0.802   1.122  14.495 -0.3064 -0.9621 -0.1745
  646MPD2    H3 9621   0.729   1.148  14.261 -0.4858 -1.5072 -0.6792
  646MPD2     N 9622   0.312   1.310  14.401 -0.1732 -0.0562  0.0230
  646MPD2    H5 9623   0.264   1.329  14.488 -0.8426 -2.5515  0.1976
  646MPD2    N1 9624   0.665   1.161  14.703  0.5914 -0.2108 -0.4117
  646MPD2    H7 9625   0.759   1.122  14.705  0.6249 -0.1809 -1.5240
  647TMC3    C1 9626   0.675   1.183  14.930 -0.2611 -0.4787 -0.3090
  647TMC3    C2 9627   0.666   1.274  15.029 -0.0347 -0.6341 -0.2983
  647TMC3    C3 9628   0.750   1.267  15.141  0.0009 -0.0884 -0.1399
  647TMC3    C4 9629   0.760   1.079  14.933 -0.1619 -0.4385 -0.4441
  647TMC3    C5 9630   0.851   1.080  15.031  0.3877  0.4112  0.2827
  647TMC3    C6 9631   0.851   1.168  15.132 -1.1164 -0.2751 -0.2982
  647TMC3     C 9632   0.598   1.199  14.817  0.0689 -0.1174  0.2162
  647TMC3     O 9633   0.489   1.257  14.839  0.2516  0.2283 -0.1403
  647TMC3     H 9634   0.598   1.359  15.020  0.8169  0.0881  0.1154
  647TMC3    H1 9635   0.769   1.004  14.854 -0.5590  0.6541 -1.5227
  647TMC3    H2 9636   0.930   1.159  15.206 -1.1936 -0.3298 -0.2218
  647TMC3    C7 9637   0.889   0.949  15.074  0.1112  0.2828 -0.0943
  647TMC3    C8 9638   0.674   1.242  15.259 -0.1794  0.6358 -1.2446
  647TMC3    O1 9639   1.008   0.931  15.099  0.4703 -0.2656  0.4304
  647TMC3    O2 9640   0.563   1.292  15.259 -0.1512 -0.4385 -0.3650
  648TMC3    C1 9641   4.681   3.507  16.447  0.4752  0.0139 -0.2127
  648TMC3    C2 9642   4.724   3.377  16.410 -0.4485  0.7860 -0.0005
  648TMC3    C3 9643   0.015   3.357  16.278 -0.6720  0.3431 -0.0509
  648TMC3    C4 9644   4.653   3.608  16.361 -0.1359 -0.6009 -0.0923
  648TMC3    C5 9645   4.676   3.584  16.234  0.4134  0.1922 -0.3729
  648TMC3    C6 9646   4.735   3.461  16.186  0.0062 -0.5988 -0.1155
  648TMC3     C 9647   4.650   3.533  16.589  0.3742 -0.5336 -0.4995
  648TMC3     O 9648   4.623   3.651  16.616 -0.3032  0.1648  0.5826
  648TMC3     H 9649   4.736   3.297  16.482 -0.3715  1.3094  0.5678
  648TMC3    H1 9650   4.630   3.703  16.409 -0.3789 -0.0787 -1.2538
  648TMC3    H2 9651   0.019   3.448  16.081  0.1689  1.0433 -0.2928
  648TMC3    C7 9652   4.628   3.683  16.135  0.0801  0.0941  0.2171
  648TMC3    C8 9653   0.135   3.280  16.269 -0.6184  0.4498 -0.0645
  648TMC3    O1 9654   4.670   3.668  16.020  0.0661 -0.1924  0.4110
  648TMC3    O2 9655   0.185   3.255  16.373 -0.0561 -0.6711  0.7026
  649TMC3    C1 9656   3.907   0.052  13.255  0.4438 -0.4276 -0.7095
  649TMC3    C2 9657   4.040   0.025  13.268 -0.2338  0.0887  0.2227
  649TMC3    C3 9658   4.082   4.723  13.392  0.8481  0.3085  0.5534
  649TMC3    C4 9659   3.815   0.033  13.355 -0.3179 -0.3585 -0.1673
  649TMC3    C5 9660   3.859   4.717  13.472  0.1823 -0.2224 -0.3930
  649TMC3    C6 9661   3.991   4.696  13.493 -0.1492 -0.4819 -0.0274
  649TMC3     C 9662   3.853   0.040  13.121 -0.1180 -0.0218  0.4203
  649TMC3     O 9663   3.730   0.047  13.102 -0.6089  0.0334 -0.1202
  649TMC3     H 9664   4.114   0.050  13.193 -0.1353  0.6677  0.5083
  649TMC3    H1 9665   3.711   0.052  13.331  0.3130  2.5874 -0.4904
  649TMC3    H2 9666   4.036   4.649  13.580 -1.2494  1.0473  1.3609
  649TMC3    C7 9667   3.754   4.674  13.560 -0.0086 -0.9744  0.0934
  649TMC3    C8 9668   4.224   4.696  13.409 -0.1781 -0.3519 -0.1103
  649TMC3    O1 9669   3.647   4.734  13.557 -0.6052  0.2987 -0.7320
  649TMC3    O2 9670   4.267   4.595  13.357  0.5656 -0.0663 -0.2976
  650TMC3    C1 9671   1.330   1.523  12.363  0.0300  0.5142 -0.0555
  650TMC3    C2 9672   1.219   1.563  12.441  0.2885 -0.3079  0.4666
  650TMC3    C3 9673   1.124   1.640  12.382 -0.5581 -1.2313 -0.2692
  650TMC3    C4 9674   1.357   1.581  12.245  0.4788  0.1722 -0.1152
  650TMC3    C5 9675   1.262   1.658  12.192 -0.2693 -0.4265 -0.2206
  650TMC3    C6 9676   1.142   1.668  12.249  0.5440  0.3666 -0.4579
  650TMC3     C 9677   1.392   1.394  12.405 -0.5826 -0.6169  0.3305
  650TMC3     O 9678   1.354   1.347  12.510  0.6058 -0.2948  0.1836
  650TMC3     H 9679   1.207   1.518  12.539 -3.7330  1.4886  0.8020
  650TMC3    H1 9680   1.454   1.569  12.198 -0.9489 -0.0602 -2.9350
  650TMC3    H2 9681   1.067   1.733  12.205 -1.1643 -0.2874  1.4978
  650TMC3    C7 9682   1.310   1.783  12.147 -0.6172 -0.4622 -0.7180
  650TMC3    C8 9683   1.070   1.751  12.455  0.4321  0.1321  0.5346
  650TMC3    O1 9684   1.412   1.782  12.078  0.2344  0.4720  0.0238
  650TMC3    O2 9685   1.038   1.850  12.396 -0.2825 -0.4686 -0.8565
  651MPD2     C 9686   4.527   3.677  10.956 -0.6447  0.2766 -0.4217
  651MPD2    C1 9687   4.532   3.814  10.979  0.1714  0.1266 -0.6189
  651MPD2    C2 9688   4.648   3.879  10.941  0.2854 -0.5376  0.6722
  651MPD2    C3 9689   0.018   3.810  10.876  0.1277  0.5456  0.3215
  651MPD2    C4 9690   0.004   3.674  10.868 -0.3058 -0.6074  0.2979
  651MPD2    C5 9691   4.629   3.611  10.909  0.1070 -0.0480  0.2421
  651MPD2     H 9692   4.651   3.987  10.955 -0.4007 -0.5402  0.8399
  651MPD2    H1 9693   0.081   3.621  10.814  0.3898  1.2825 -0.5537
  651MPD2    H2 9694   4.444   3.611  10.980 -1.4552  1.9664  1.4277
  651MPD2    H3 9695   4.628   3.503  10.901  1.0594  0.1644 -2.9281
  651MPD2     N 9696   0.134   3.884  10.844  0.6052 -0.8039  0.3306
  651MPD2    H5 9697   0.136   3.985  10.855 -1.4966 -0.7836  0.4194
  651MPD2    N1 9698   4.424   3.882  11.043 -0.0758  0.1087 -0.3590
  651MPD2    H7 9699   4.421   3.984  11.049  0.3211  0.1022 -0.0727
  652TMC3    C1 9700   0.595   3.951  10.840 -0.0369  0.5823  0.4860
  652TMC3    C2 9701   0.488   3.879  10.882 -0.1495 -0.1699 -0.4183
  652TMC3    C3 9702   0.366   3.911  10.822  0.1162 -0.3730  0.6266
  652TMC3    C4 9703   0.587   4.062  10.762 -0.4839  0.2423 -0.2482
  652TMC3    C5 9704   0.465   4.088  10.704 -0.5955 -0.2499 -0.0898
  652TMC3    C6 9705   0.353   4.015  10.728 -0.2574  0.1932  0.5444
  652TMC3     C 9706   0.719   3.917  10.895 -0.5649 -0.2944  0.0478
  652TMC3     O 9707   0.717   3.848  10.996  0.9615  0.3006 -0.0676
  652TMC3     H 9708   0.498   3.788  10.940 -2.5269  1.4205  2.4919
  652TMC3    H1 9709   0.671   4.125  10.735 -1.2227  0.9607 -0.8790
  652TMC3    H2 9710   0.259   4.028  10.676 -0.4507  0.7686  1.0272
  652TMC3    C7 9711   0.467   4.164  10.581  0.4192  0.5278  0.4823
  652TMC3    C8 9712   0.255   3.822  10.842  0.3903 -0.2996  0.7211
  652TMC3    O1 9713   0.404   4.111  10.492 -0.4399  0.0037  0.2865
  652TMC3    O2 9714   0.291   3.707  10.870  0.2844  0.3616 -0.4311
  653MPD2     C 9715   3.406   3.292  17.736 -0.5075  0.1919 -0.4720
  653MPD2    C1 9716   3.384   3.421  17.681  0.6805 -0.5416 -0.0485
  653MPD2    C2 9717   3.340   3.421  17.552  0.5194 -0.2018 -0.4189
  653MPD2    C3 9718   3.326   3.309  17.479 -0.0420 -0.0940  0.4311
  653MPD2    C4 9719   3.346   3.185  17.535  0.0574  0.1384  0.0985
  653MPD2    C5 9720   3.395   3.180  17.660 -0.1868 -0.3358 -0.3621
  653MPD2     H 9721   3.308   3.516  17.510  3.5139  0.8379 -0.3085
  653MPD2    H1 9722   3.327   3.088  17.490  0.9797 -0.8748  1.8870
  653MPD2    H2 9723   3.449   3.284   0.092  0.0969 -1.3314 -0.8540
  653MPD2    H3 9724   3.418   3.082  17.700 -0.5994  0.3121  1.4747
  653MPD2     N 9725   3.298   3.324  17.340  0.1662 -0.2259  0.6241
  653MPD2    H5 9726   3.279   3.418  17.305  0.3033 -0.9188 -1.3106
  653MPD2    N1 9727   3.401   3.545   0.003  0.8090 -0.3550  0.2455
  653MPD2    H7 9728   3.379   3.625  17.687  0.5338 -0.3661  0.3344
  654TMC3    C1 9729   3.293   3.271  17.107  0.1483  0.8819  0.2471
  654TMC3    C2 9730   3.275   3.407  17.079 -0.2783  1.0472  0.5958
  654TMC3    C3 9731   3.296   3.447  16.952  0.4409  0.0234 -0.2524
  654TMC3    C4 9732   3.319   3.184  17.009 -0.2363 -0.7684 -0.0719
  654TMC3    C5 9733   3.332   3.229  16.880 -0.1235  0.4986  0.4345
  654TMC3    C6 9734   3.328   3.358  16.850  0.3002 -0.3053  0.1355
  654TMC3     C 9735   3.296   3.222  17.245  0.0455  0.2015 -0.1861
  654TMC3     O 9736   3.323   3.101  17.268 -0.1876  0.0835 -0.4720
  654TMC3     H 9737   3.266   3.481  17.158  2.7144  0.1351  1.7950
  654TMC3    H1 9738   3.323   3.078  17.030  1.9848 -0.5124  0.8785
  654TMC3    H2 9739   3.314   3.386  16.747  0.2071 -1.0371 -0.0527
  654TMC3    C7 9740   3.361   3.136  16.772  0.2342 -0.3115 -0.5280
  654TMC3    C8 9741   3.222   3.570  16.928  0.2930  0.1758  0.5656
  654TMC3    O1 9742   3.366   3.181  16.661 -0.1045 -0.6502  0.6421
  654TMC3    O2 9743   3.154   3.597  17.020 -0.3362  0.2809 -0.2733
  655MPD2     C 9744   0.327   3.523  15.972  0.1525  0.2644  0.2707
  655MPD2    C1 9745   0.316   3.638  15.892 -0.7366 -0.3261  0.5539
  655MPD2    C2 9746   0.353   3.630  15.755 -0.2714  0.1846  0.1964
  655MPD2    C3 9747   0.415   3.520  15.708 -0.0960 -0.4914  0.0400
  655MPD2    C4 9748   0.431   3.412  15.791 -0.0004  0.2852  0.8404
  655MPD2    C5 9749   0.392   3.413  15.922  0.0262  0.4639 -0.5028
  655MPD2     H 9750   0.336   3.714  15.690 -1.0599 -0.7231 -0.7597
  655MPD2    H1 9751   0.478   3.321  15.756 -1.4925 -0.0269 -0.3477
  655MPD2    H2 9752   0.307   3.529  16.078 -1.9746  0.2994 -0.1309
  655MPD2    H3 9753   0.421   3.329  15.983  0.1696  0.5096 -0.5089
  655MPD2     N 9754   0.439   3.511  15.574 -0.5520 -0.5340  0.3320
  655MPD2    H5 9755   0.466   3.418  15.544  0.9703  0.3259 -0.9603
  655MPD2    N1 9756   0.259   3.760  15.924  0.1668 -0.1558  0.0214
  655MPD2    H7 9757   0.267   3.833  15.855  2.2620  0.7857  1.2696
  656TMC3    C1 9758   0.174   3.926  16.063  0.4176 -0.2914  0.7211
  656TMC3    C2 9759   0.116   3.941  16.188 -0.2880  0.0703  0.9516
  656TMC3    C3 9760   0.049   4.063  16.215  0.0671  0.6542  0.7894
  656TMC3    C4 9761   0.184   4.025  15.967 -0.1379  0.2915 -0.3323
  656TMC3    C5 9762   0.116   4.137  16.001 -0.4527 -0.4430 -0.1693
  656TMC3    C6 9763   0.039   4.154  16.113  0.4634 -0.3280 -0.2578
  656TMC3     C 9764   0.222   3.790  16.051  0.2797 -0.2185  0.0709
  656TMC3     O 9765   0.236   3.723  16.152 -0.0733  0.0207  0.1979
  656TMC3     H 9766   0.108   3.858  16.256 -1.8899 -0.6074 -0.0797
  656TMC3    H1 9767   0.255   4.030  15.886  1.9035 -1.2104  1.3671
  656TMC3    H2 9768   4.729   4.249  16.137 -1.5041 -2.1950  3.3016
  656TMC3    C7 9769   0.086   4.226  15.885 -0.2237  0.1871  0.3046
  656TMC3    C8 9770   4.677   4.042  16.316  0.2745 -0.5170  0.8172
  656TMC3    O1 9771   0.174   4.224  15.798 -0.0369 -0.3843 -0.6515
  656TMC3    O2 9772   4.680   3.936  16.367 -0.4940  0.0661  0.3421
  657TMC3    C1 9773   3.707   3.121  15.069  0.4970  0.0465 -0.3650
  657TMC3    C2 9774   3.803   3.048  15.135 -0.2265  0.8486  0.1619
  657TMC3    C3 9775   3.830   3.090  15.263 -0.2413  0.1087 -0.0884
  657TMC3    C4 9776   3.652   3.239  15.116  0.7140 -0.2602 -0.9451
  657TMC3    C5 9777   3.685   3.273  15.238 -0.1100  0.1799 -0.4130
  657TMC3    C6 9778   3.780   3.206  15.312 -0.7895  0.5260 -0.2362
  657TMC3     C 9779   3.669   3.082  14.931 -0.4310  0.3351  0.4716
  657TMC3     O 9780   3.629   3.176  14.865 -0.0568 -0.0533 -0.7818
  657TMC3     H 9781   3.856   2.969  15.083 -0.6364  1.3232 -0.9813
  657TMC3    H1 9782   3.586   3.296  15.052  0.7550  1.5769  0.6641
  657TMC3    H2 9783   3.797   3.227  15.417 -0.5682  0.0842 -0.1823
  657TMC3    C7 9784   3.593   3.361  15.308 -0.1118  0.1373  0.4227
  657TMC3    C8 9785   3.929   3.021  15.347  0.0406  0.1551 -0.0229
  657TMC3    O1 9786   3.482   3.369  15.264 -0.0738 -0.0804 -0.1059
  657TMC3    O2 9787   3.979   3.093  15.433  0.0152 -0.2584  0.7106
  658MPD2     C 9788   0.758   3.931  15.008 -0.0787 -0.2649  0.4808
  658MPD2    C1 9789   0.661   3.840  14.966 -0.0022  0.6206 -0.1445
  658MPD2    C2 9790   0.596   3.878  14.854 -0.6064 -0.3368  0.0649
  658MPD2    C3 9791   0.620   3.988  14.776  0.0820 -0.6298  0.0818
  658MPD2    C4 9792   0.720   4.069  14.816 -0.9628 -0.0554 -0.3410
  658MPD2    C5 9793   0.788   4.038  14.929  0.5779 -0.1354 -0.4891
  658MPD2     H 9794   0.516   3.816  14.816 -3.1307  2.3898  0.9729
  658MPD2    H1 9795   0.744   4.163  14.767 -0.0925 -0.7096 -1.1708
  658MPD2    H2 9796   0.807   3.907  15.102 -3.4305 -0.9336  2.0496
  658MPD2    H3 9797   0.856   4.114  14.966  1.1243  1.3665 -4.5959
  658MPD2     N 9798   0.537   4.021  14.673  0.1447  0.0053 -0.5106
  658MPD2    H5 9799   0.454   3.963  14.664  1.2814 -1.7412  0.2050
  658MPD2    N1 9800   0.625   3.725  15.046 -0.3229 -0.2361 -0.9229
  658MPD2    H7 9801   0.679   3.696  15.127 -0.2679 -0.2906 -0.9794
  659TMC3    C1 9802   0.496   3.539  15.123 -0.9072 -0.0999 -0.3308
  659TMC3    C2 9803   0.501   3.602  15.249 -0.2846 -0.5023 -0.6205
  659TMC3    C3 9804   0.434   3.543  15.348  0.4631 -0.1225  0.4960
  659TMC3    C4 9805   0.429   3.419  15.103 -0.7711  0.0731 -0.3832
  659TMC3    C5 9806   0.348   3.372  15.202 -0.6466 -0.2266 -0.1704
  659TMC3    C6 9807   0.356   3.434  15.329 -0.3895  1.3464 -0.5776
  659TMC3     C 9808   0.525   3.627  15.014 -0.1646  0.3536 -0.8088
  659TMC3     O 9809   0.463   3.619  14.906 -0.4746 -0.7382 -0.2624
  659TMC3     H 9810   0.524   3.707  15.266 -1.3198  0.0340 -2.4974
  659TMC3    H1 9811   0.408   3.386  15.002 -2.3846  2.3084 -0.7780
  659TMC3    H2 9812   0.306   3.393  15.416  2.3028 -0.0369  0.3103
  659TMC3    C7 9813   0.237   3.281  15.178  0.8641  0.2210 -0.4212
  659TMC3    C8 9814   0.431   3.609  15.478  0.2516 -0.0378  0.5682
  659TMC3    O1 9815   0.137   3.278  15.248 -0.3405 -0.0833 -0.4068
  659TMC3    O2 9816   0.425   3.731  15.479  0.0231  0.4658 -0.3570
  660MPD2     C 9817   3.397   2.473  12.443 -0.1104 -0.2652 -0.3241
  660MPD2    C1 9818   3.266   2.511  12.452 -0.1490 -0.2236 -0.7490
  660MPD2    C2 9819   3.196   2.456  12.557 -0.2232  0.0085 -0.5853
  660MPD2    C3 9820   3.256   2.378  12.657  0.2074  0.0123  0.2577
  660MPD2    C4 9821   3.383   2.333  12.639 -0.4892 -0.6551  0.3523
  660MPD2    C5 9822   3.452   2.381  12.532 -0.1046 -0.3408  0.0509
  660MPD2     H 9823   3.091   2.478  12.577 -0.2769 -0.7840  0.0212
  660MPD2    H1 9824   3.432   2.264  12.707  1.4606  0.9310  0.5551
  660MPD2    H2 9825   3.462   2.500  12.361 -1.4463 -0.0538 -1.3110
  660MPD2    H3 9826   3.553   2.347  12.513 -0.2769 -0.4049 -0.7558
  660MPD2     N 9827   3.195   2.342  12.775 -0.0652 -0.3708 -0.1565
  660MPD2    H5 9828   3.238   2.261  12.819  0.0541  0.1107  0.6055
  660MPD2    N1 9829   3.217   2.596  12.346 -0.6350  0.5227  0.0982
  660MPD2    H7 9830   3.270   2.616  12.261 -0.2743  0.4309  0.3033
  661TMC3    C1 9831   3.049   2.735  12.248  0.2309  0.2733 -0.1497
  661TMC3    C2 9832   3.139   2.802  12.174 -0.8050 -0.1459 -0.1502
  661TMC3    C3 9833   3.093   2.903  12.098  0.9130 -0.2421  0.0710
  661TMC3    C4 9834   2.916   2.776  12.259  0.2248  0.2723 -0.7221
  661TMC3    C5 9835   2.877   2.872  12.175 -0.1862 -0.0195 -0.2109
  661TMC3    C6 9836   2.968   2.948  12.105  0.8307  0.0098  0.1208
  661TMC3     C 9837   3.084   2.628  12.339 -0.1232 -0.4998 -0.0288
  661TMC3     O 9838   2.993   2.593  12.419  0.2857 -0.4326  0.0269
  661TMC3     H 9839   3.246   2.792  12.167 -0.9435 -1.6714 -0.0706
  661TMC3    H1 9840   2.843   2.728  12.322 -0.7898  0.9795 -1.3701
  661TMC3    H2 9841   2.932   3.025  12.038  2.2281 -0.5513 -1.2600
  661TMC3    C7 9842   2.741   2.922  12.187 -0.1031 -0.4648  0.2345
  661TMC3    C8 9843   3.159   2.905  11.963 -0.0859  0.0370 -0.3687
  661TMC3    O1 9844   2.733   3.046  12.180 -0.4941 -0.5625 -0.1952
  661TMC3    O2 9845   3.243   2.822  11.929 -0.0239  0.7380 -0.7944
  662MPD2     C 9846   3.430   2.524   0.202 -0.0084  1.2127 -0.0309
  662MPD2    C1 9847   3.385   2.440   0.103 -0.3089  0.2682  0.2363
  662MPD2    C2 9848   3.315   2.496   0.001 -0.2850  0.3106 -0.1057
  662MPD2    C3 9849   3.280   2.633   0.002  0.0522  0.2242 -0.3000
  662MPD2    C4 9850   3.322   2.710   0.105  0.3044 -0.1063  0.1277
  662MPD2    C5 9851   3.406   2.656   0.204 -0.1601 -0.1075 -0.3091
  662MPD2     H 9852   3.271   2.433  17.669  1.7608 -1.2661  0.0037
  662MPD2    H1 9853   3.298   2.815   0.116  0.4616 -0.0203 -0.3736
  662MPD2    H2 9854   3.503   2.487   0.274  0.3742  2.3582  0.1780
  662MPD2    H3 9855   3.441   2.724   0.280  0.0043 -0.4691 -0.0599
  662MPD2     N 9856   3.186   2.688  17.659  0.5090 -0.2385  0.2424
  662MPD2    H5 9857   3.159   2.785  17.672  2.0298 -0.0584  2.1550
  662MPD2    N1 9858   3.416   2.301   0.097 -0.4135  0.3347  0.3262
  662MPD2    H7 9859   3.362   2.254   0.025 -0.0101 -0.1837  0.3594
  663TMC3    C1 9860   3.531   2.096   0.166 -0.0973  0.5220  0.0409
  663TMC3    C2 9861   3.558   2.012   0.270 -0.0338 -0.2362  0.5220
  663TMC3    C3 9862   3.568   1.878   0.252 -0.9151  0.3628  0.7879
  663TMC3    C4 9863   3.505   2.050   0.048 -0.0566  0.8799 -0.0183
  663TMC3    C5 9864   3.496   1.911   0.032 -0.0079  0.2305  0.8265
  663TMC3    C6 9865   3.512   1.830   0.140 -0.2183  0.3035  0.2421
  663TMC3     C 9866   3.506   2.238   0.185  0.5135 -0.7541  0.1414
  663TMC3     O 9867   3.578   2.282   0.274 -0.2361 -0.4618 -0.5461
  663TMC3     H 9868   3.559   2.047   0.373  0.3843  0.6443  0.2201
  663TMC3    H1 9869   3.484   2.114  17.707 -1.2525  0.8137  0.2269
  663TMC3    H2 9870   3.520   1.722   0.130 -0.6878  0.2651  0.2665
  663TMC3    C7 9871   3.441   1.859  17.651  0.1118  0.4768  0.0303
  663TMC3    C8 9872   3.515   1.810   0.367 -0.4749 -0.4999  0.0284
  663TMC3    O1 9873   3.461   1.939  17.559  0.8082 -0.1692 -0.4422
  663TMC3    O2 9874   3.593   1.759   0.450 -0.3176 -0.4619 -0.2613
  664MPD2     C 9875   1.647   0.120  17.067 -0.1839 -0.1007 -0.2779
  664MPD2    C1 9876   1.622   0.234  17.139  0.2306 -0.2725 -0.3680
  664MPD2    C2 9877   1.578   0.218  17.270  0.3817  0.1978 -0.4166
  664MPD2    C3 9878   1.549   0.089  17.322  0.1571 -0.2096 -0.7981
  664MPD2    C4 9879   1.561   4.711  17.245 -0.0917  0.3109  0.5955
  664MPD2    C5 9880   1.611   0.001  17.117 -0.6790  0.4146 -0.4566
  664MPD2     H 9881   1.573   0.306  17.333  0.2904 -0.0653 -0.0576
  664MPD2    H1 9882   1.524   4.613  17.272  1.6099 -0.6769 -0.6384
  664MPD2    H2 9883   1.678   0.107  16.964 -2.7020 -0.6549 -0.9782
  664MPD2    H3 9884   1.611   4.652  17.049  0.1054  1.7881 -2.1533
  664MPD2     N 9885   1.503   0.096  17.450  0.2107 -0.0638 -0.1888
  664MPD2    H5 9886   1.468   0.181  17.492  0.0073  0.0501 -0.5970
  664MPD2    N1 9887   1.648   0.364  17.089 -0.2619 -0.1078 -0.2017
  664MPD2    H7 9888   1.624   0.442  17.150  1.8069 -0.6956  1.3574
  665TMC3    C1 9889   1.429   0.030  17.666  0.0884 -0.6156  0.2179
  665TMC3    C2 9890   1.406   4.671   0.026 -0.0833 -1.1847  0.1565
  665TMC3    C3 9891   1.354   4.699   0.143 -0.6095 -0.5602 -0.2306
  665TMC3    C4 9892   1.390   0.155  17.691 -0.4492  0.4396 -0.0572
  665TMC3    C5 9893   1.335   0.178   0.068 -0.2359 -0.2821  0.3315
  665TMC3    C6 9894   1.309   0.089   0.164 -0.2366 -0.2760 -0.3549
  665TMC3     C 9895   1.488   4.726  17.538 -0.3279 -0.3412  0.6701
  665TMC3     O 9896   1.528   4.611  17.525  0.0283  0.1608 -0.4391
  665TMC3     H 9897   1.451   4.573   0.013 -0.6913 -0.9874 -3.5066
  665TMC3    H1 9898   1.402   0.233  17.617  2.1564  0.1374  0.0242
  665TMC3    H2 9899   1.262   0.116   0.258  0.6701  1.9429 -0.5324
  665TMC3    C7 9900   1.283   0.309   0.103 -0.3275 -0.7100 -0.4203
  665TMC3    C8 9901   1.323   4.585   0.234  0.2457  0.2744 -0.1654
  665TMC3    O1 9902   1.280   0.387   0.008  0.2037  0.4784 -0.5370
  665TMC3    O2 9903   1.379   4.476   0.213 -0.1826  0.0559  0.1011
  666TMC3    C1 9904   0.179   0.211  10.228  0.0949  0.5419  0.8046
  666TMC3    C2 9905   0.194   0.132  10.118 -0.6078 -0.0673  0.0411
  666TMC3    C3 9906   0.233   0.196   9.995  0.5407  0.3279  0.5015
  666TMC3    C4 9907   0.196   0.349  10.226 -0.1771 -0.0740  0.4698
  666TMC3    C5 9908   0.229   0.402  10.106  0.3639  0.4831  0.0120
  666TMC3    C6 9909   0.233   0.335   9.983  0.1495 -0.0140 -0.0188
  666TMC3     C 9910   0.179   0.152  10.357 -0.2295  0.1344  0.0461
  666TMC3     O 9911   0.244   0.207  10.447  0.2484 -0.3519 -0.5544
  666TMC3     H 9912   0.183   0.024  10.122  1.8282 -0.2314  2.6733
  666TMC3    H1 9913   0.181   0.412  10.313 -2.3017  3.2047 -2.2412
  666TMC3    H2 9914   0.249   0.388   9.890 -1.8165 -1.2438 -1.0592
  666TMC3    C7 9915   0.284   0.542  10.106  0.0716 -0.1729  0.0760
  666TMC3    C8 9916   0.225   0.113   9.872 -0.5531 -0.4826 -0.0274
  666TMC3    O1 9917   0.239   0.622  10.186  0.2107  0.4529  0.1010
  666TMC3    O2 9918   0.158   0.007   9.888 -0.2471 -0.8153 -0.3084
  667MPD2     C 9919   2.619   0.427  14.746 -0.4690 -0.4344 -0.1405
  667MPD2    C1 9920   2.500   0.501  14.767  0.0673  0.1275  0.2655
  667MPD2    C2 9921   2.380   0.432  14.774  0.0545  0.3411  0.7197
  667MPD2    C3 9922   2.367   0.295  14.758  0.0201 -0.0346 -0.0184
  667MPD2    C4 9923   2.487   0.223  14.745 -0.3073 -0.0160 -0.0237
  667MPD2    C5 9924   2.607   0.289  14.742 -0.1805  0.3819 -0.2470
  667MPD2     H 9925   2.290   0.492  14.787 -2.1304 -2.9916  0.9746
  667MPD2    H1 9926   2.490   0.115  14.732  0.2331  0.0801 -0.7310
  667MPD2    H2 9927   2.716   0.474  14.752 -0.2630 -0.9252  0.2879
  667MPD2    H3 9928   2.696   0.233  14.714 -0.2194  0.2457 -0.1008
  667MPD2     N 9929   2.242   0.226  14.750  0.0121 -0.4698  0.1770
  667MPD2    H5 9930   2.247   0.128  14.723 -1.5884  0.3113 -2.9078
  667MPD2    N1 9931   2.493   0.638  14.790  0.3357 -0.2004 -0.0224
  667MPD2    H7 9932   2.410   0.680  14.829 -0.4905 -2.2450  0.3950
  668TMC3    C1 9933   2.576   0.845  14.854 -0.4182 -0.0572 -0.4826
  668TMC3    C2 9934   2.659   0.947  14.829 -0.3581  0.3531  0.1236
  668TMC3    C3 9935   2.664   1.046  14.921 -0.5325 -0.0855 -0.4544
  668TMC3    C4 9936   2.497   0.843  14.966  0.0013 -0.1424 -1.1068
  668TMC3    C5 9937   2.492   0.952  15.050  0.7001 -0.1052 -0.0404
  668TMC3    C6 9938   2.583   1.059  15.032  0.3958  0.5930 -0.4836
  668TMC3     C 9939   2.604   0.724  14.774  0.2178 -0.0350  0.0982
  668TMC3     O 9940   2.692   0.714  14.691 -0.2577  0.1284  0.1557
  668TMC3     H 9941   2.709   0.953  14.733  1.2918 -1.2419  0.9013
  668TMC3    H1 9942   2.435   0.756  14.980 -0.4819  0.0180 -2.2038
  668TMC3    H2 9943   2.604   1.138  15.103  0.4634  1.5210 -1.5484
  668TMC3    C7 9944   2.439   0.940  15.184 -0.7657  0.8315 -0.5885
  668TMC3    C8 9945   2.725   1.174  14.888  0.1223 -0.2480  0.0034
  668TMC3    O1 9946   2.509   0.992  15.271 -0.3837 -0.0166  0.0974
  668TMC3    O2 9947   2.736   1.258  14.978 -0.4230 -0.1924  1.0784
  669TMC3    C1 9948   0.477   0.419  15.030 -0.2040  0.0124  0.5475
  669TMC3    C2 9949   0.374   0.482  14.966 -0.6399  0.7139  0.0361
  669TMC3    C3 9950   0.402   0.560  14.858  0.5947 -0.2958 -0.0921
  669TMC3    C4 9951   0.610   0.438  14.991 -0.1258  0.2594  0.2923
  669TMC3    C5 9952   0.632   0.504  14.873 -0.4368  0.6594 -0.4309
  669TMC3    C6 9953   0.531   0.570  14.806  0.0506  0.6920  0.9118
  669TMC3     C 9954   0.439   0.323  15.136  0.3955 -0.6046 -0.7074
  669TMC3     O 9955   0.338   0.356  15.192 -0.1095  0.6678  0.5554
  669TMC3     H 9956   0.269   0.467  14.990 -0.0520  0.5427  2.4690
  669TMC3    H1 9957   0.687   0.388  15.048  0.2301 -1.9314 -2.1342
  669TMC3    H2 9958   0.549   0.626  14.715 -1.2600 -0.9753 -0.3792
  669TMC3    C7 9959   0.769   0.526  14.818 -0.1973 -0.5483 -0.4180
  669TMC3    C8 9960   0.293   0.571  14.761 -0.0326 -0.3580 -0.2568
  669TMC3    O1 9961   0.775   0.623  14.742  0.4267  0.4253 -0.2659
  669TMC3    O2 9962   0.214   0.478  14.754 -0.5889 -0.3242 -0.3695
  670MPD2     C 9963   3.403   3.297  13.098 -0.3387  0.1333 -0.8449
  670MPD2    C1 9964   3.526   3.243  13.106 -0.8246  0.2456  0.0637
  670MPD2    C2 9965   3.550   3.155  13.217  0.0980 -0.9421  0.1459
  670MPD2    C3 9966   3.455   3.135  13.319  0.1704  0.3711 -0.1087
  670MPD2    C4 9967   3.329   3.185  13.295  0.0503 -0.8121 -0.1637
  670MPD2    C5 9968   3.299   3.253  13.186  0.2830 -0.1320 -0.5442
  670MPD2     H 9969   3.644   3.101  13.221  1.1475  0.7971 -1.2738
  670MPD2    H1 9970   3.244   3.172  13.361 -0.4718  1.6009 -0.3610
  670MPD2    H2 9971   3.377   3.365  13.018 -0.1962  3.2854  1.8178
  670MPD2    H3 9972   3.204   3.306  13.185  1.1634  1.4442 -1.9541
  670MPD2     N 9973   3.477   3.039  13.423  0.0811  0.0403 -0.0490
  670MPD2    H5 9974   3.566   2.992  13.434  0.5555  1.5488  2.6212
  670MPD2    N1 9975   3.628   3.271  13.013  0.1490 -0.0436 -0.1531
  670MPD2    H7 9976   3.718   3.231  13.037 -0.4682 -1.6795 -0.5101
  671TMC3    C1 9977   3.432   2.913  13.612 -0.3168 -0.2681 -0.2526
  671TMC3    C2 9978   3.564   2.862  13.599 -0.8417  0.0509  0.3179
  671TMC3    C3 9979   3.586   2.751  13.685 -0.3597  0.1547  0.2196
  671TMC3    C4 9980   3.321   2.850  13.671 -0.7798  0.4295  0.4603
  671TMC3    C5 9981   3.351   2.735  13.736  0.0329  0.1989 -0.1230
  671TMC3    C6 9982   3.474   2.679  13.737  0.1575  0.2326 -0.6430
  671TMC3     C 9983   3.388   3.014  13.519  0.8259 -0.6110  0.0653
  671TMC3     O 9984   3.282   3.068  13.547 -0.0841  0.4685  0.3513
  671TMC3     H 9985   3.642   2.930  13.566 -1.9832  1.9283  1.4377
  671TMC3    H1 9986   3.222   2.895  13.666 -0.6264  0.6661 -0.3992
  671TMC3    H2 9987   3.489   2.583  13.786  1.0917  0.3626 -0.6717
  671TMC3    C7 9988   3.247   2.639  13.713  0.4657  0.2752  0.2324
  671TMC3    C8 9989   3.711   2.682  13.674  0.0493 -0.2321 -0.1995
  671TMC3    O1 9990   3.284   2.527  13.685  0.2042 -0.0355 -0.8020
  671TMC3    O2 9991   3.722   2.580  13.740  0.7045  0.1102 -0.2977
  672MPD2     C 9992   2.655   3.192   1.254  0.6088 -0.4302 -0.1588
  672MPD2    C1 9993   2.741   3.095   1.207  0.0289 -0.0531 -0.0789
  672MPD2    C2 9994   2.877   3.094   1.239  0.1751  0.4902  0.4599
  672MPD2    C3 9995   2.929   3.199   1.318  0.3168 -0.1326  0.4333
  672MPD2    C4 9996   2.840   3.296   1.352 -0.0533 -0.7375  0.1944
  672MPD2    C5 9997   2.709   3.292   1.330 -0.2407 -0.8717 -0.6297
  672MPD2     H 9998   2.934   3.005   1.217 -1.3278  0.1655 -2.1115
  672MPD2    H1 9999   2.869   3.387   1.404 -1.8253 -0.4229  0.6240
  672MPD2    H210000   2.547   3.191   1.239  0.5109  0.1201  0.5264
  672MPD2    H310001   2.634   3.363   1.363  1.7234  0.9070 -0.0220
  672MPD2     N10002   3.063   3.205   1.350  0.8610 -0.6988 -0.4341
  672MPD2    H510003   3.083   3.288   1.404 -1.8290 -1.4110  1.5997
  672MPD2    N110004   2.700   2.996   1.115 -0.0202  0.3709 -0.4664
  672MPD2    H710005   2.762   2.916   1.105 -0.3941 -0.0850  0.9858
  673TMC3    C110006   2.617   2.906   0.922  0.1012  0.2444  0.4083
  673TMC3    C210007   2.648   2.770   0.954  0.1016 -0.1566 -0.7944
  673TMC3    C310008   2.618   2.689   0.850 -0.1518 -0.3461  1.2670
  673TMC3    C410009   2.565   2.941   0.798 -0.2707 -0.9595 -0.0922
  673TMC3    C510010   2.519   2.842   0.710  0.4269  0.0354  0.6811
  673TMC3    C610011   2.544   2.715   0.737 -0.2935 -0.7992 -0.1489
  673TMC3     C10012   2.600   3.008   1.021 -0.7142  0.5861  0.6602
  673TMC3     O10013   2.519   3.099   1.004 -0.1271  0.7371  0.0409
  673TMC3     H10014   2.672   2.729   1.052 -1.0129 -0.7104 -0.7508
  673TMC3    H110015   2.530   3.042   0.783 -2.5133 -1.6898  0.3168
  673TMC3    H210016   2.515   2.635   0.670 -3.3879 -1.2590  1.7181
  673TMC3    C710017   2.518   2.890   0.579 -0.1898 -0.1719  0.8018
  673TMC3    C810018   2.631   2.542   0.879 -0.1410 -0.8740  0.0684
  673TMC3    O110019   2.416   2.880   0.515 -0.4403 -0.2231  1.1258
  673TMC3    O210020   2.548   2.466   0.828 -0.2788  0.4967 -0.4057
  674MPD2     C10021   3.022   3.619  17.696 -0.3510 -0.4900 -0.2108
  674MPD2    C110022   2.990   3.490  17.733  0.5305 -0.3605  0.2932
  674MPD2    C210023   2.864   3.449  17.699  0.2044  0.3497  1.0742
  674MPD2    C310024   2.783   3.527  17.621  0.4254  0.2958  0.0247
  674MPD2    C410025   2.821   3.644  17.575  0.2942  0.0545 -0.5709
  674MPD2    C510026   2.945   3.683  17.602  0.7321 -0.3160 -0.8390
  674MPD2     H10027   2.812   3.363  17.740 -0.5657  0.7770  0.9941
  674MPD2    H110028   2.759   3.713  17.519 -2.4007  0.2415  2.6763
  674MPD2    H210029   3.117   3.665  17.720 -0.0137 -1.3963  0.1819
  674MPD2    H310030   2.983   3.777  17.565 -2.8074  1.3301 -0.3328
  674MPD2     N10031   2.646   3.498  17.623  0.7720  0.0948  0.0652
  674MPD2    H510032   2.615   3.416  17.673 -1.9354  0.6440 -0.7138
  674MPD2    N110033   3.078   3.413   0.069  0.3000 -0.4188  0.7931
  674MPD2    H710034   3.157   3.460   0.113 -0.3246  0.6201  0.8055
  675TMC3    C110035   3.141   3.225   0.203  0.4054  0.7516  0.3193
  675TMC3    C210036   3.108   3.095   0.235 -0.3026 -1.0840  0.2284
  675TMC3    C310037   3.120   3.061   0.366 -0.2679  0.1205  0.2592
  675TMC3    C410038   3.207   3.313   0.291  0.1570  0.1194  0.3709
  675TMC3    C510039   3.243   3.261   0.413  0.6485 -0.0670  0.3835
  675TMC3    C610040   3.191   3.141   0.447 -0.1992  0.0249 -0.2477
  675TMC3     C10041   3.065   3.280   0.090  0.2203 -0.2820  0.4345
  675TMC3     O10042   3.000   3.196   0.027 -0.2535  0.4472 -0.0028
  675TMC3     H10043   3.079   3.015   0.167  0.9233 -0.5165 -0.9554
  675TMC3    H110044   3.230   3.417   0.270  1.3525  0.0306  1.2502
  675TMC3    H210045   3.211   3.100   0.545  0.4791 -2.0157 -1.2380
  675TMC3    C710046   3.312   3.328   0.521 -0.3440 -0.4765 -0.3958
  675TMC3    C810047   3.056   2.949   0.425 -0.1329  0.4883  0.3454
  675TMC3    O110048   3.268   3.302   0.633  0.4755 -0.3054 -0.0534
  675TMC3    O210049   3.107   2.879   0.516 -0.3685 -0.3082 -0.1058
  676MPD2     C10050   1.678   1.798  10.996 -0.2073  0.0245  0.3842
  676MPD2    C110051   1.638   1.696  11.080 -0.3672  0.6491  0.5453
  676MPD2    C210052   1.628   1.566  11.029 -0.0862  0.8182  0.1617
  676MPD2    C310053   1.681   1.529  10.906 -0.0313 -0.1617  0.3394
  676MPD2    C410054   1.717   1.631  10.824 -0.2440  0.8319  0.1573
  676MPD2    C510055   1.719   1.762  10.873 -0.0166  0.1477  0.2346
  676MPD2     H10056   1.592   1.491  11.099  1.5268  1.1220  1.2910
  676MPD2    H110057   1.762   1.612  10.728 -0.0067  0.4334  0.3493
  676MPD2    H210058   1.674   1.902  11.028  1.4887  0.6884 -1.5704
  676MPD2    H310059   1.765   1.841  10.816 -0.7620  0.4174  0.0029
  676MPD2     N10060   1.707   1.396  10.862  0.4520 -0.2543  0.2385
  676MPD2    H510061   1.759   1.381  10.776 -1.1757 -0.9647 -0.6225
  676MPD2    N110062   1.606   1.727  11.215  0.2026  0.0416 -0.4994
  676MPD2    H710063   1.579   1.647  11.270  2.7992  0.1500  0.9464
  677TMC3    C110064   1.573   1.833  11.422  0.4108  0.8505  0.1483
  677TMC3    C210065   1.520   1.714  11.466  0.2710  0.3762  0.4623
  677TMC3    C310066   1.498   1.708  11.600  0.0066  0.3433  1.4075
  677TMC3    C410067   1.603   1.935  11.507 -0.1894  0.1084  0.2084
  677TMC3    C510068   1.588   1.923  11.639 -0.5746  0.0217  0.3317
  677TMC3    C610069   1.529   1.810  11.689 -0.3593 -0.4991  0.1520
  677TMC3     C10070   1.597   1.847  11.279  0.7922  0.6273  0.0564
  677TMC3     O10071   1.620   1.958  11.232 -0.6802  0.1542  0.0175
  677TMC3     H10072   1.496   1.633  11.398  1.8438 -0.5705  1.0532
  677TMC3    H110073   1.652   2.021  11.462 -1.5887  1.1075  0.5769
  677TMC3    H210074   1.505   1.803  11.795 -1.3196  1.9197  0.0872
  677TMC3    C710075   1.627   2.028  11.731 -0.5249  0.0858 -0.1936
  677TMC3    C810076   1.491   1.572  11.667  0.0062 -0.1206 -0.1030
  677TMC3    O110077   1.645   1.993  11.849 -0.7377  0.5716  0.7159
  677TMC3    O210078   1.498   1.568  11.786 -0.0940  0.1809 -0.0524
  678MPD2     C10079   2.167   1.009   1.341 -0.3305 -0.7580  0.0406
  678MPD2    C110080   2.125   1.013   1.210 -0.6987 -0.3081 -0.8033
  678MPD2    C210081   1.996   1.049   1.184  0.0621 -0.1340  0.5544
  678MPD2    C310082   1.909   1.082   1.285 -0.7288 -0.6405 -0.6934
  678MPD2    C410083   1.956   1.088   1.411  0.2924  0.3383  0.0837
  678MPD2    C510084   2.081   1.049   1.444 -1.3161 -0.2734  0.6506
  678MPD2     H10085   1.964   1.049   1.080 -1.0581 -1.0024  0.8933
  678MPD2    H110086   1.897   1.105   1.499 -0.7107  1.5868 -0.8215
  678MPD2    H210087   2.267   0.981   1.375 -1.0504 -1.9757  1.1446
  678MPD2    H310088   2.113   1.055   1.548  0.2265  1.7092  0.0795
  678MPD2     N10089   1.776   1.109   1.242  0.3575  0.0768  0.1255
  678MPD2    H510090   1.757   1.086   1.145  1.1507 -3.0294  0.7218
  678MPD2    N110091   2.200   0.965   1.099 -0.2056 -0.4314  0.1919
  678MPD2    H710092   2.162   0.991   1.009  1.4306 -2.0810 -0.9726
  679TMC3    C110093   2.523   0.777   0.825  0.1260 -0.3147  0.1807
  679TMC3    C210094   2.465   0.790   0.952  0.6718 -0.1099  0.1049
  679TMC3    C310095   2.378   0.890   0.965 -0.4708 -0.6945  0.3046
  679TMC3    C410096   2.490   0.848   0.715  0.4353  0.0593 -0.0512
  679TMC3    C510097   2.404   0.951   0.739 -0.0021 -0.2705  0.0195
  679TMC3    C610098   2.344   0.971   0.861 -0.7134  0.7764 -0.0920
  679TMC3     C10099   2.616   0.659   0.799 -0.0182  0.7323 -0.0848
  679TMC3     O10100   2.685   0.671   0.698  0.0811  0.1466  0.0557
  679TMC3     H10101   2.495   0.731   1.038  1.2764 -0.7868 -0.5673
  679TMC3    H110102   2.539   0.842   0.618 -0.3464 -0.4663 -0.4095
  679TMC3    H210103   2.279   1.054   0.883 -1.1073  1.2663 -3.2234
  679TMC3    C710104   2.391   1.058   0.637  0.0835 -0.1689 -0.1473
  679TMC3    C810105   2.322   0.900   1.101 -0.3413 -0.5733 -0.3918
  679TMC3    O110106   2.486   1.070   0.556 -0.5182 -0.0623  0.3268
  679TMC3    O210107   2.386   0.865   1.199  0.1660 -0.0537 -0.1866
  680MPD2     C10108   2.902   0.213  13.650  0.0636 -0.3271 -0.4161
  680MPD2    C110109   2.981   0.163  13.755 -0.3339  0.2671  0.6267
  680MPD2    C210110   3.043   0.253  13.837 -0.4230 -0.6366  0.4841
  680MPD2    C310111   3.036   0.390  13.813 -0.2626 -0.6841 -0.3569
  680MPD2    C410112   2.966   0.436  13.705 -0.3533  0.0741 -0.6153
  680MPD2    C510113   2.903   0.351  13.616 -0.2556 -0.0584  0.1353
  680MPD2     H10114   3.110   0.218  13.914  1.5886  0.7225 -0.6336
  680MPD2    H110115   2.953   0.541  13.680  0.7701  0.5721  0.9289
  680MPD2    H210116   2.853   0.149  13.577  0.7328  1.3263 -2.3331
  680MPD2    H310117   2.837   0.383  13.537 -0.6696 -0.7423  0.2020
  680MPD2     N10118   3.101   0.487  13.893  0.8474 -0.3884  0.3387
  680MPD2    H510119   3.109   0.582  13.861 -0.9013  0.1763  1.5542
  680MPD2    N110120   3.001   0.025  13.781  0.0866 -0.2946  0.1145
  680MPD2    H710121   3.089   0.004  13.828  1.4439  0.9675 -1.8493
  681TMC3    C110122   2.964   4.535  13.794 -0.0730  0.0515  0.1712
  681TMC3    C210123   2.875   4.450  13.846 -0.4627  0.1240  0.9101
  681TMC3    C310124   2.918   4.327  13.891 -0.3086  0.2644  1.0612
  681TMC3    C410125   3.091   4.508  13.802  0.0589 -0.2551 -0.3879
  681TMC3    C510126   3.137   4.384  13.837  0.0696  0.2930  0.3530
  681TMC3    C610127   3.049   4.292  13.887 -0.4451 -0.8595 -0.1886
  681TMC3     C10128   2.917   4.661  13.748 -0.0204  0.3808  0.9091
  681TMC3     O10129   2.805   4.667  13.696 -0.3512 -0.6215 -0.5957
  681TMC3     H10130   2.768   4.455  13.834 -0.4133 -3.3644 -1.1458
  681TMC3    H110131   3.156   4.584  13.758  0.0438 -0.3933 -0.6478
  681TMC3    H210132   3.084   4.198  13.928  1.5551 -0.3626 -0.7567
  681TMC3    C710133   3.270   4.375  13.879  1.2000 -0.5341  0.4360
  681TMC3    C810134   2.859   4.284  14.019  0.0917 -0.0121  0.1113
  681TMC3    O110135   3.287   4.274  13.948 -0.0642 -0.1262 -0.1182
  681TMC3    O210136   2.859   4.165  14.045  0.1558 -0.6466 -0.1514
  682MPD2     C10137   0.654   1.682  10.495  1.1831 -1.0394 -0.4347
  682MPD2    C110138   0.533   1.613  10.501 -0.1995  0.0654 -0.6654
  682MPD2    C210139   0.472   1.597  10.622 -0.2523  0.2234 -0.5073
  682MPD2    C310140   0.534   1.639  10.740  0.3377 -0.6108  0.7709
  682MPD2    C410141   0.649   1.705  10.728  0.2913 -0.0321  0.6905
  682MPD2    C510142   0.713   1.729  10.608 -0.6002 -0.1861 -0.0510
  682MPD2     H10143   0.376   1.546  10.618 -1.1526  1.8009  1.0275
  682MPD2    H110144   0.698   1.732  10.821  0.5520 -1.3395  0.9348
  682MPD2    H210145   0.717   1.685  10.406 -0.8848  1.6277 -1.7744
  682MPD2    H310146   0.811   1.774  10.609 -0.2246 -1.0065 -0.0481
  682MPD2     N10147   0.484   1.608  10.867 -0.6430  0.3665  0.4932
  682MPD2    H510148   0.550   1.621  10.944 -2.4565  0.4445  2.0203
  682MPD2    N110149   0.483   1.544  10.385 -0.4268  0.3159 -0.3315
  682MPD2    H710150   0.410   1.475  10.402  0.5404 -0.8297 -0.8017
  683TMC3    C110151   0.460   1.406  11.222 -0.4246 -0.5094  0.3267
  683TMC3    C210152   0.360   1.321  11.245 -0.7125 -0.1752 -0.4350
  683TMC3    C310153   0.249   1.329  11.153  0.0671  0.0493 -0.4959
  683TMC3    C410154   0.462   1.483  11.111  0.9043 -0.1951  0.0746
  683TMC3    C510155   0.361   1.481  11.021 -0.1997 -0.6088 -1.3827
  683TMC3    C610156   0.256   1.397  11.041 -0.0236  0.6815  0.2966
  683TMC3     C10157   0.530   1.453  11.340  0.5702 -0.1298  0.3201
  683TMC3     O10158   0.559   1.575  11.334 -0.1453  0.5912 -0.1957
  683TMC3     H10159   0.360   1.256  11.332 -3.5636  2.3765  1.4676
  683TMC3    H110160   0.540   1.552  11.082  0.7350  0.0152  0.1200
  683TMC3    H210161   0.169   1.396  10.975 -0.6960 -0.5581  1.2149
  683TMC3    C710162   0.370   1.540  10.892  0.3064  0.5135 -0.2636
  683TMC3    C810163   0.151   1.224  11.155  0.4268  0.6104 -1.1279
  683TMC3    O110164   0.277   1.531  10.819  0.1713  0.5605  0.2122
  683TMC3    O210165   0.044   1.247  11.099  0.4011  0.3159 -0.6986
  684MPD2     C10166   3.408   0.576  16.623  0.2571 -0.5753  0.0580
  684MPD2    C110167   3.348   0.616  16.504 -0.1712 -0.3170 -0.2386
  684MPD2    C210168   3.317   0.751  16.509  0.0978  0.4846 -0.5081
  684MPD2    C310169   3.350   0.846  16.608 -0.6476 -0.7004  0.6221
  684MPD2    C410170   3.410   0.794  16.726  0.0023  0.1998 -0.5679
  684MPD2    C510171   3.441   0.659  16.729 -0.4290 -1.0515 -0.0138
  684MPD2     H10172   3.261   0.797  16.429 -0.7912 -1.7500 -1.1488
  684MPD2    H110173   3.443   0.855  16.810  1.1263 -1.7609  0.4157
  684MPD2    H210174   3.436   0.472  16.636 -1.7563 -1.3295 -1.7272
  684MPD2    H310175   3.500   0.626  16.814  0.2249  1.5202  0.5305
  684MPD2     N10176   3.323   0.985  16.599 -0.2627  0.0049 -0.2352
  684MPD2    H510177   3.370   1.046  16.665 -2.2759  0.0429  1.1748
  684MPD2    N110178   3.317   0.540  16.394  0.5842  0.2361  0.9412
  684MPD2    H710179   3.267   0.588  16.320  2.0875 -2.5045 -1.8575
  685TMC3    C110180   3.311   0.357  16.248 -0.3282 -0.1275  0.4973
  685TMC3    C210181   3.214   0.424  16.180  0.1360  0.5174 -0.5031
  685TMC3    C310182   3.221   0.429  16.048  0.5211  0.2246  0.2238
  685TMC3    C410183   3.414   0.302  16.179 -0.2964  0.1012  0.2303
  685TMC3    C510184   3.423   0.313  16.046 -0.4027  0.4492 -0.3833
  685TMC3    C610185   3.326   0.381  15.981 -0.8213  0.2439  0.2923
  685TMC3     C10186   3.344   0.404  16.385 -0.2902 -0.1846  0.0814
  685TMC3     O10187   3.412   0.336  16.458 -0.3477 -0.4909 -0.2162
  685TMC3     H10188   3.145   0.485  16.237  0.2345 -1.3401  1.5957
  685TMC3    H110189   3.488   0.243  16.232  1.4373 -0.6822 -3.0940
  685TMC3    H210190   3.328   0.376  15.873  2.5586  0.5295  0.3473
  685TMC3    C710191   3.559   0.350  16.001  0.6200 -0.2459 -0.3060
  685TMC3    C810192   3.121   0.490  15.966  0.4376  0.6444 -0.2474
  685TMC3    O110193   3.581   0.377  15.883  0.4111  0.2525  0.1555
  685TMC3    O210194   3.146   0.488  15.848  0.6184  0.4317 -0.1125
  686MPD2     C10195   0.013   0.711  15.526  0.5521 -0.2400  0.1075
  686MPD2    C110196   0.072   0.658  15.638 -0.1960  0.3502  0.2471
  686MPD2    C210197   0.175   0.571  15.619 -0.4895 -0.0140  0.2816
  686MPD2    C310198   0.213   0.525  15.494  0.3752  0.5655 -0.4628
  686MPD2    C410199   0.151   0.579  15.384  1.0906 -0.1523 -0.0735
  686MPD2    C510200   0.056   0.672  15.400  0.3266  0.0056  0.2889
  686MPD2     H10201   0.234   0.548  15.707  1.8999  0.9163 -1.1017
  686MPD2    H110202   0.172   0.542  15.284  1.5028 -2.1265  0.7515
  686MPD2    H210203   4.668   0.782  15.532  0.3930 -0.4487  0.4171
  686MPD2    H310204   0.004   0.716  15.316 -2.1081 -1.6992  0.8917
  686MPD2     N10205   0.315   0.431  15.468 -0.2944  0.4992 -1.1466
  686MPD2    H510206   0.330   0.423  15.368 -2.5581 -1.1787 -1.3421
  686MPD2    N110207   0.013   0.685  15.765  0.0544 -0.5546  0.2248
  686MPD2    H710208   4.665   0.741  15.764  0.1427 -0.4045  0.8744
  687TMC3    C110209   0.316   0.308  15.681  0.0011  0.0215  0.7601
  687TMC3    C210210   0.176   0.297  15.684  0.1471 -0.0558 -0.6696
  687TMC3    C310211   0.125   0.292  15.808 -0.4593 -0.2477  0.4576
  687TMC3    C410212   0.396   0.289  15.789 -0.2239 -0.0712 -0.6081
  687TMC3    C510213   0.325   0.263  15.907 -0.3879 -0.3795 -0.4797
  687TMC3    C610214   0.192   0.276  15.921  0.0201  0.9196  0.5605
  687TMC3     C10215   0.380   0.346  15.558 -0.4078 -0.7165  0.0511
  687TMC3     O10216   0.485   0.290  15.528  0.4205  0.4641 -0.3811
  687TMC3     H10217   0.116   0.301  15.594 -0.1353  3.2289 -0.3206
  687TMC3    H110218   0.503   0.305  15.777 -0.6608  3.4192  0.4463
  687TMC3    H210219   0.145   0.279  16.018 -0.6310  0.6323  0.2592
  687TMC3    C710220   0.400   0.306  16.021  0.4041  0.0823 -0.0969
  687TMC3    C810221   4.713   0.297  15.837  0.0912  0.1550 -0.0312
  687TMC3    O110222   0.368   0.415  16.069 -0.1123  0.0250 -0.2667
  687TMC3    O210223   4.687   0.233  15.940  0.0231  0.0460 -0.0558
  688MPD2     C10224   3.663   4.200  17.585  0.3933 -0.4470 -1.0174
  688MPD2    C110225   3.714   4.077  17.609  0.6981  0.3230 -0.1867
  688MPD2    C210226   3.825   4.037  17.538 -0.6362 -0.1316  0.2352
  688MPD2    C310227   3.878   4.118  17.433  0.1069 -0.7694 -0.3222
  688MPD2    C410228   3.819   4.243  17.418  0.0869 -0.1561 -0.1781
  688MPD2    C510229   3.711   4.283  17.490  0.4620 -0.1840  0.4371
  688MPD2     H10230   3.877   3.944  17.558 -0.7446  0.0812  1.5200
  688MPD2    H110231   3.848   4.309  17.337 -0.7230  1.2853  0.6951
  688MPD2    H210232   3.586   4.234  17.653  0.3767  0.3127 -1.4195
  688MPD2    H310233   3.662   4.379  17.472  0.8808 -0.0545 -0.0150
  688MPD2     N10234   3.985   4.086  17.348 -0.0751 -0.8296 -0.8899
  688MPD2    H510235   4.005   4.138  17.264 -0.0726 -0.5442 -0.7106
  688MPD2    N110236   3.655   3.989  17.705 -0.1054 -0.1238  0.1185
  688MPD2    H710237   3.686   3.893  17.699 -1.3747 -0.6247  1.7087
  689TMC3    C110238   3.507   3.921   0.136 -0.0434 -0.2147  0.1324
  689TMC3    C210239   3.447   3.962   0.254  0.2322  0.2598 -0.5609
  689TMC3    C310240   3.408   3.867   0.337 -0.0297  0.7691  0.4471
  689TMC3    C410241   3.511   3.791   0.095  0.0322  0.6776 -0.1948
  689TMC3    C510242   3.464   3.696   0.179  0.0343  0.1411  0.7374
  689TMC3    C610243   3.414   3.731   0.304 -0.0670 -0.0421  0.0317
  689TMC3     C10244   3.566   4.030   0.059 -0.0147  0.7204  0.5065
  689TMC3     O10245   3.527   4.142   0.094 -0.7949 -0.1413 -0.0579
  689TMC3     H10246   3.462   4.066   0.281  0.5423  0.8069 -2.8396
  689TMC3    H110247   3.557   3.758   0.003  1.2945 -0.6703  0.9183
  689TMC3    H210248   3.360   3.663   0.368 -0.6611 -0.2498 -0.6900
  689TMC3    C710249   3.440   3.562   0.132 -0.0252 -0.4811 -0.0059
  689TMC3    C810250   3.353   3.909   0.464  0.1105 -0.1353 -0.5046
  689TMC3    O110251   3.460   3.471   0.211 -0.6234 -0.1751  0.0409
  689TMC3    O210252   3.341   3.825   0.551  0.4168 -0.2657 -0.6251
  690MPD2     C10253   2.095   1.553  15.196  0.8758 -0.1286  0.2191
  690MPD2    C110254   2.003   1.463  15.142 -0.4624 -0.1313 -0.0360
  690MPD2    C210255   1.989   1.457  15.002 -0.5180 -0.9370 -0.4988
  690MPD2    C310256   2.063   1.535  14.919  0.6478 -0.0294  0.3273
  690MPD2    C410257   2.157   1.631  14.967 -0.7433  1.0194  0.6975
  690MPD2    C510258   2.161   1.635  15.101 -0.5900  0.6602 -0.0610
  690MPD2     H10259   1.930   1.376  14.961 -1.3795 -1.2311  1.3203
  690MPD2    H110260   2.218   1.699  14.908 -0.3136  0.2958  0.3017
  690MPD2    H210261   2.124   1.560  15.300  0.7898  1.0584  0.1605
  690MPD2    H310262   2.224   1.715  15.138 -0.1354  0.5635 -0.6351
  690MPD2     N10263   2.040   1.523  14.777  0.1812  0.2408  0.5680
  690MPD2    H510264   1.970   1.455  14.751 -1.1619  1.9649 -0.3537
  690MPD2    N110265   1.917   1.379  15.216 -0.1716 -0.1335 -0.3239
  690MPD2    H710266   1.856   1.319  15.160 -2.0530 -0.1469  1.6954
  691TMC3    C110267   1.785   1.290  15.386  0.3949  0.4463  0.1315
  691TMC3    C210268   1.678   1.325  15.307 -0.1441 -0.6019 -0.2166
  691TMC3    C310269   1.556   1.297  15.357  0.6492  0.2312  0.2618
  691TMC3    C410270   1.773   1.240  15.515  0.5259  1.0300  0.0750
  691TMC3    C510271   1.647   1.206  15.556 -0.7561  0.4205  0.1021
  691TMC3    C610272   1.533   1.225  15.475  0.4706  0.2890 -0.2708
  691TMC3     C10273   1.907   1.360  15.351 -0.5151  0.1773  0.6493
  691TMC3     O10274   1.981   1.398  15.441 -0.1338 -0.1230  0.2322
  691TMC3     H10275   1.682   1.387  15.218 -0.8471 -1.9997 -1.2173
  691TMC3    H110276   1.859   1.221  15.579  0.7508 -0.7002 -0.7579
  691TMC3    H210277   1.431   1.201  15.505  0.7845  2.3605  2.4148
  691TMC3    C710278   1.648   1.101  15.652 -0.2256  0.0804 -0.0456
  691TMC3    C810279   1.454   1.402  15.348  0.0956 -0.3875  0.3036
  691TMC3    O110280   1.746   1.085  15.722 -0.2801 -0.3131 -0.1501
  691TMC3    O210281   1.377   1.403  15.443  0.3307  0.1411  0.1777
  692TMC3    C110282   3.001   2.171  15.710 -0.3530  0.1472 -0.2583
  692TMC3    C210283   3.124   2.220  15.762  0.0643  0.7934  0.2350
  692TMC3    C310284   3.207   2.131  15.828 -1.1182 -0.0238  0.5752
  692TMC3    C410285   2.950   2.050  15.735 -0.2689 -0.5234  0.1624
  692TMC3    C510286   3.039   1.969  15.795 -0.1626  0.1025  0.1218
  692TMC3    C610287   3.161   2.006  15.844 -0.8345  0.4930 -0.1562
  692TMC3     C10288   2.903   2.276  15.667  0.2901  0.1037 -0.1538
  692TMC3     O10289   2.786   2.250  15.644 -0.4228 -0.2626 -0.5654
  692TMC3     H10290   3.174   2.294  15.700 -1.3373  0.8549 -0.8395
  692TMC3    H110291   2.849   2.030  15.701 -0.0827 -0.6278 -0.3342
  692TMC3    H210292   3.231   1.926  15.867 -3.1867 -1.4726  0.2404
  692TMC3    C710293   3.007   1.825  15.783 -0.5573 -0.3221  0.6392
  692TMC3    C810294   3.271   2.191  15.943  0.0660  0.0961  0.8133
  692TMC3    O110295   2.944   1.783  15.689 -0.4781  0.0842  0.3220
  692TMC3    O210296   3.324   2.116  16.024  0.1014 -0.1719  0.0429
  693MPD2     C10297   2.303   0.469  10.436 -0.1310 -0.6037  0.2772
  693MPD2    C110298   2.250   0.388  10.539  0.5147  0.0203  0.1338
  693MPD2    C210299   2.330   0.330  10.631  0.0958  0.2012 -0.9093
  693MPD2    C310300   2.460   0.366  10.651  0.1763 -0.2778 -0.0332
  693MPD2    C410301   2.507   0.453  10.556  0.6989  0.0539 -0.3905
  693MPD2    C510302   2.432   0.505  10.454  0.4520  0.2988 -0.0020
  693MPD2     H10303   2.291   0.253  10.696 -4.2082  3.4285  0.3594
  693MPD2    H110304   2.606   0.490  10.576  0.5911 -0.1842  0.5816
  693MPD2    H210305   2.245   0.528  10.367  0.6149  0.1638  0.3033
  693MPD2    H310306   2.470   0.577  10.384 -0.1954 -0.6669 -1.3442
  693MPD2     N10307   2.551   0.320  10.754  0.4004 -0.5226 -0.4164
  693MPD2    H510308   2.646   0.356  10.756  0.2135 -0.1115  1.3417
  693MPD2    N110309   2.114   0.357  10.550 -0.1059 -0.6085 -0.0575
  693MPD2    H710310   2.082   0.312  10.635 -0.4920 -1.3725 -0.6166
  694TMC3    C110311   1.885   0.378  10.530  0.5761 -0.8499  0.4774
  694TMC3    C210312   1.798   0.292  10.476  0.1090  0.0588  0.6703
  694TMC3    C310313   1.693   0.237  10.543  0.0878 -0.2111 -0.2990
  694TMC3    C410314   1.875   0.411  10.664 -1.3527  0.4656 -0.7125
  694TMC3    C510315   1.774   0.352  10.734 -0.6327 -0.4769  1.0904
  694TMC3    C610316   1.676   0.271  10.675 -0.2539  1.0368 -0.5024
  694TMC3     C10317   2.018   0.403  10.470 -0.3764 -0.1978  0.4639
  694TMC3     O10318   2.022   0.449  10.357 -0.2401 -0.5320  0.0112
  694TMC3     H10319   1.815   0.265  10.372 -0.4840  0.0581  0.5776
  694TMC3    H110320   1.950   0.468  10.716  0.0333  0.0354 -2.2255
  694TMC3    H210321   1.593   0.229  10.732 -0.8522  1.3737 -1.1274
  694TMC3    C710322   1.783   0.371  10.875 -0.4255  0.1023  0.5669
  694TMC3    C810323   1.592   0.161  10.479 -0.4796  0.4448 -0.4274
  694TMC3    O110324   1.853   0.464  10.911  0.3537  0.3181 -0.2322
  694TMC3    O210325   1.537   0.081  10.557 -0.2215 -0.9251 -0.0750
  695MPD2     C10326   3.730   1.799  13.324  0.0779 -0.6978 -0.2712
  695MPD2    C110327   3.746   1.934  13.353  0.1858  0.0602 -0.5158
  695MPD2    C210328   3.632   2.018  13.366 -0.5760  0.1816 -1.1653
  695MPD2    C310329   3.506   1.970  13.336  0.5195 -0.4655 -0.4187
  695MPD2    C410330   3.495   1.836  13.311 -0.9151 -0.3302  0.4928
  695MPD2    C510331   3.603   1.753  13.302  0.2666  0.6065 -0.0271
  695MPD2     H10332   3.652   2.119  13.399  3.2543 -0.5854 -1.0965
  695MPD2    H110333   3.398   1.792  13.295 -0.2492 -1.7446  0.3179
  695MPD2    H210334   3.812   1.729  13.309 -1.3961 -2.1800 -1.4943
  695MPD2    H310335   3.592   1.654  13.260  0.7071 -0.1632  1.6436
  695MPD2     N10336   3.391   2.050  13.334  0.1313 -0.4796 -0.4040
  695MPD2    H510337   3.303   2.001  13.323  0.9306 -2.1722  0.7709
  695MPD2    N110338   3.860   1.985  13.400 -0.5954  0.0579 -0.3986
  695MPD2    H710339   3.861   2.078  13.442  3.9817 -0.9821  1.8306
  696TMC3    C110340   3.267   2.248  13.314  0.0372  0.2128 -0.6555
  696TMC3    C210341   3.170   2.204  13.399  0.3585  0.3637 -0.4479
  696TMC3    C310342   3.071   2.290  13.431  0.0930 -0.1773 -0.1504
  696TMC3    C410343   3.243   2.363  13.239  0.2703  0.3700  0.3863
  696TMC3    C510344   3.139   2.439  13.275  0.2091 -0.4605 -0.0227
  696TMC3    C610345   3.041   2.401  13.361  0.1358 -0.8947 -0.3797
  696TMC3     C10346   3.400   2.185  13.321  0.0594  0.0637 -0.1869
  696TMC3     O10347   3.497   2.254  13.289  0.6220  0.3153 -0.2766
  696TMC3     H10348   3.189   2.110  13.450 -2.0020 -0.7071 -1.5648
  696TMC3    H110349   3.316   2.399  13.167  0.9085 -1.6506  0.0398
  696TMC3    H210350   2.956   2.467  13.370  1.1477  0.3204  0.1852
  696TMC3    C710351   3.141   2.572  13.217 -0.2442  0.0952 -0.2476
  696TMC3    C810352   2.960   2.223  13.488  0.3525 -0.6279  0.1481
  696TMC3    O110353   3.194   2.595  13.109 -0.4154  0.0862 -0.9583
  696TMC3    O210354   2.948   2.109  13.450 -0.3576 -0.1151 -0.6260
  697MPD2     C10355   2.704   3.863  15.745 -0.4552  0.5578  0.0616
  697MPD2    C110356   2.708   3.826  15.610 -0.4440  0.0272 -0.7311
  697MPD2    C210357   2.713   3.926  15.511  0.2110  0.2210  0.3380
  697MPD2    C310358   2.729   4.052  15.553  0.0082  0.7769 -0.5402
  697MPD2    C410359   2.741   4.086  15.684  0.4938 -0.8510  0.0083
  697MPD2    C510360   2.736   3.989  15.778  0.8303  0.8637  0.2216
  697MPD2     H10361   2.702   3.903  15.406 -2.0394  0.0489  0.6144
  697MPD2    H110362   2.751   4.187  15.721 -3.6084 -0.2077 -0.6643
  697MPD2    H210363   2.681   3.790  15.822  1.1774  0.2879  0.3099
  697MPD2    H310364   2.731   4.022  15.881  0.6006 -2.2676  1.1879
  697MPD2     N10365   2.732   4.142  15.447 -1.0155  0.4981 -0.2169
  697MPD2    H510366   2.703   4.114  15.355  0.5041 -1.3327 -0.1419
  697MPD2    N110367   2.687   3.694  15.554  0.0725 -0.0269 -0.6590
  697MPD2    H710368   2.676   3.677  15.454 -1.3087  0.9061 -0.6687
  698TMC3    C110369   2.744   4.350  15.332 -0.7040 -0.1181 -0.0806
  698TMC3    C210370   2.711   4.485  15.344  0.0058 -0.6323  0.2466
  698TMC3    C310371   2.619   4.532  15.247 -0.2319  0.6987 -0.7488
  698TMC3    C410372   2.721   4.273  15.223 -0.4648  0.4622 -1.2190
  698TMC3    C510373   2.658   4.337  15.119 -0.4187 -0.3590  0.0667
  698TMC3    C610374   2.601   4.462  15.131 -0.4291  0.5123 -0.4027
  698TMC3     C10375   2.758   4.277  15.458  0.1302  0.7225 -0.1819
  698TMC3     O10376   2.747   4.341  15.562  0.0454 -0.2200 -0.3188
  698TMC3     H10377   2.742   4.541  15.431  0.8027  0.3995 -0.6928
  698TMC3    H110378   2.749   4.169  15.214 -1.2515  0.1693 -0.2293
  698TMC3    H210379   2.555   4.516  15.049  0.2576 -2.3710 -2.6675
  698TMC3    C710380   2.605   4.254  15.007 -0.0002 -0.3177 -1.0670
  698TMC3    C810381   2.621   4.678  15.229  0.3557  0.0795  0.5011
  698TMC3    O110382   2.539   4.327  14.937  0.1660  0.5486  0.1153
  698TMC3    O210383   2.529   4.724  15.164 -0.0568  0.5493  0.4590
  699TMC3    C110384   3.023   2.352  12.946  0.0944 -0.3435  0.0350
  699TMC3    C210385   3.029   2.217  12.952 -0.0133  0.7439  0.4866
  699TMC3    C310386   2.922   2.150  13.006  0.4219  0.7847 -0.8525
  699TMC3    C410387   2.919   2.416  13.008  0.0018  0.0700 -0.1916
  699TMC3    C510388   2.818   2.340  13.065  0.7111 -0.5183 -0.1297
  699TMC3    C610389   2.816   2.208  13.067  0.1521  0.4970 -0.1844
  699TMC3     C10390   3.090   2.408  12.834 -0.2303  0.1885 -0.3272
  699TMC3     O10391   3.049   2.516  12.797 -0.2414 -0.4525  1.1744
  699TMC3     H10392   3.116   2.169  12.909  0.0677  0.9477  0.4238
  699TMC3    H110393   2.921   2.524  13.017 -0.7851 -0.0298  1.1483
  699TMC3    H210394   2.741   2.143  13.109  1.4231  0.4093  1.9127
  699TMC3    C710395   2.743   2.406  13.167 -0.4864 -0.2936 -0.0035
  699TMC3    C810396   2.911   2.003  12.990 -0.0755  0.1492  0.5783
  699TMC3    O110397   2.701   2.325  13.252  0.3930 -0.0011  0.0135
  699TMC3    O210398   2.830   1.950  13.066 -0.4855 -0.2927 -0.1848
  700TMC3    C110399   1.992   4.697  16.994 -0.0586  0.3699  0.5803
  700TMC3    C210400   2.025   4.569  16.995 -0.2716  0.2328  0.7084
  700TMC3    C310401   2.098   4.518  17.099 -0.2669 -0.1455  0.0692
  700TMC3    C410402   2.021   0.046  17.097  0.6077  0.0079 -0.0311
  700TMC3    C510403   2.074   4.722  17.213 -0.5404 -0.3834  0.6038
  700TMC3    C610404   2.117   4.593  17.210 -0.2343 -0.4322 -0.5662
  700TMC3     C10405   1.997   0.022  16.861  0.3003  0.3783  0.0656
  700TMC3     O10406   1.942   4.699  16.770  0.3067 -0.2551  0.2720
  700TMC3     H10407   2.007   4.514  16.904  0.4120 -1.1400  1.4057
  700TMC3    H110408   2.016   0.154  17.105 -2.3489 -0.2029  0.7551
  700TMC3    H210409   2.180   4.551  17.288 -0.1318  0.3358 -0.2265
  700TMC3    C710410   2.127   0.080  17.311  0.4744  0.3198 -0.1957
  700TMC3    C810411   2.130   4.373  17.102  0.0717  0.2987 -0.2122
  700TMC3    O110412   2.055   0.178  17.326 -0.2513  0.3121  0.0525
  700TMC3    O210413   2.245   4.346  17.121  0.3272  0.4358  0.4957
  701TMC3    C110414   2.035   3.067  15.516 -0.8940  0.2050  0.2017
  701TMC3    C210415   2.084   3.003  15.402 -0.5196 -0.0635  0.4111
  701TMC3    C310416   2.201   3.053  15.360  0.0190  0.5200 -0.4192
  701TMC3    C410417   2.094   3.174  15.577 -0.0654  0.9141  0.0941
  701TMC3    C510418   2.214   3.207  15.526 -0.0397  0.2299  0.2658
  701TMC3    C610419   2.277   3.147  15.423 -0.3805  0.6830 -0.4000
  701TMC3     C10420   1.912   3.018  15.576 -0.0246 -0.5893  0.8115
  701TMC3     O10421   1.895   2.897  15.586  0.0895 -0.1265 -0.1707
  701TMC3     H10422   2.038   2.914  15.360 -0.2242 -1.0941  2.2597
  701TMC3    H110423   2.059   3.208  15.674 -1.0128  1.7794 -0.5479
  701TMC3    H210424   2.377   3.177  15.394  0.2412 -0.7501  0.2155
  701TMC3    C710425   2.283   3.320  15.584 -0.5148  0.3324  0.2146
  701TMC3    C810426   2.220   3.044  15.213  0.2676  0.2905  0.8916
  701TMC3    O110427   2.358   3.386  15.514  0.6216 -0.2698  0.5482
  701TMC3    O210428   2.336   3.050  15.173 -0.0359  0.3019  0.2239
  702MPD2     C10429   1.798   1.329  10.246  0.2455 -0.2852  0.1116
  702MPD2    C110430   1.682   1.285  10.309 -0.1708 -0.1389  0.4371
  702MPD2    C210431   1.562   1.346  10.261 -0.1821 -0.1491  0.6042
  702MPD2    C310432   1.565   1.440  10.159 -0.1853  0.3697  0.0235
  702MPD2    C410433   1.681   1.471  10.097 -0.1925  0.1511  0.3287
  702MPD2    C510434   1.793   1.417  10.144  0.5311 -0.2693  0.5595
  702MPD2     H10435   1.466   1.327  10.308 -1.5494  2.9403 -0.9850
  702MPD2    H110436   1.691   1.557  10.031 -0.9676  0.5406  0.7212
  702MPD2    H210437   1.897   1.291  10.270  0.2993  0.7890  1.5616
  702MPD2    H310438   1.883   1.446  10.090 -0.9352  1.8080 -0.7772
  702MPD2     N10439   1.441   1.503  10.136 -0.5115  0.6750  0.2028
  702MPD2    H510440   1.364   1.488  10.200 -0.0448 -0.3108  0.5377
  702MPD2    N110441   1.674   1.199  10.417 -0.0407  0.2613  0.5817
  702MPD2    H710442   1.583   1.177  10.456 -0.2865  1.0421  0.4450
  703TMC3    C110443   1.305   1.673  10.065 -0.0764  0.7616  0.2958
  703TMC3    C210444   1.205   1.616  10.133  0.7625 -1.0828 -0.3322
  703TMC3    C310445   1.123   1.694  10.213 -0.6133  0.0728  0.0814
  703TMC3    C410446   1.340   1.801  10.084  0.0215  0.6055  0.0761
  703TMC3    C510447   1.269   1.880  10.174  0.9106 -0.6122 -0.6373
  703TMC3    C610448   1.159   1.826  10.237  0.3557 -0.5050  0.0038
  703TMC3     C10449   1.413   1.586  10.031 -0.5970  0.7546 -0.1779
  703TMC3     O10450   1.480   1.637   9.943 -0.2031 -0.2757 -0.2550
  703TMC3     H10451   1.187   1.511  10.113  2.5808 -1.8328  2.0128
  703TMC3    H110452   1.412   1.849  10.019  0.2774 -1.1462 -0.9292
  703TMC3    H210453   1.106   1.892  10.305  1.0880 -2.4221  2.4561
  703TMC3    C710454   1.303   2.020  10.169 -0.0161  0.2008 -0.3505
  703TMC3    C810455   1.027   1.639  10.297  0.0492 -0.7138 -0.4837
  703TMC3    O110456   1.208   2.093  10.154  0.5184 -0.0154 -0.6661
  703TMC3    O210457   1.022   1.698  10.404 -0.7565  0.0481  0.0028
  704TMC3    C110458   3.090   4.006  12.606  0.2244  0.6024 -0.6303
  704TMC3    C210459   3.203   4.084  12.611 -0.0080 -0.0930  0.1858
  704TMC3    C310460   3.305   4.030  12.677  1.0083 -0.3628 -0.0156
  704TMC3    C410461   3.079   3.884  12.657  0.0346  0.8345  0.6407
  704TMC3    C510462   3.182   3.836  12.718 -0.4358 -0.2297 -0.3073
  704TMC3    C610463   3.299   3.904  12.730 -0.1998  0.2903 -0.1819
  704TMC3     C10464   2.980   4.067  12.534  0.3693 -0.7071  0.1897
  704TMC3     O10465   2.864   4.031  12.560  0.2791  0.5513  0.5231
  704TMC3     H10466   3.208   4.184  12.568  0.2935 -0.6741 -1.1204
  704TMC3    H110467   2.988   3.828  12.638 -0.2549  1.4296  0.2766
  704TMC3    H210468   3.374   3.863  12.796 -0.4693  0.1478  0.0358
  704TMC3    C710469   3.189   3.696  12.755  0.2416 -0.5178 -0.6290
  704TMC3    C810470   3.433   4.089  12.642 -0.1046  0.0141 -0.2702
  704TMC3    O110471   3.299   3.658  12.791  0.2593  0.5678  0.3783
  704TMC3    O210472   3.451   4.136  12.529  0.3025  0.4128 -0.0320
  705MPD2     C10473   3.451   1.963  16.424  0.8439  0.0343  0.5118
  705MPD2    C110474   3.459   2.092  16.445  0.2129  0.6095  0.6595
  705MPD2    C210475   3.344   2.162  16.485  0.1453  1.2592  0.5547
  705MPD2    C310476   3.219   2.103  16.474  0.6880  0.2086 -1.0907
  705MPD2    C410477   3.210   1.973  16.438 -0.0527  0.5263 -0.0415
  705MPD2    C510478   3.327   1.899  16.426 -0.1520 -0.5714 -0.5206
  705MPD2     H10479   3.359   2.264  16.517 -2.4901  1.9398 -0.3769
  705MPD2    H110480   3.116   1.923  16.417  0.5910  0.4436 -2.7801
  705MPD2    H210481   3.540   1.904  16.402 -0.5539 -0.4863 -3.7159
  705MPD2    H310482   3.321   1.800  16.381  0.4436  0.1816 -2.2395
  705MPD2     N10483   3.097   2.181  16.480  0.2273 -0.0225 -0.2243
  705MPD2    H510484   3.007   2.144  16.451 -0.4548  0.5881  1.1440
  705MPD2    N110485   3.574   2.174  16.424 -0.2681 -0.0923 -0.1807
  705MPD2    H710486   3.567   2.274  16.445  0.5502 -0.2836  1.0243
  706TMC3    C110487   3.843   2.178  16.050 -0.4748  0.5479 -0.5881
  706TMC3    C210488   3.769   2.265  15.990  0.2545  0.4564  0.0967
  706TMC3    C310489   3.689   2.337  16.075 -0.1925  0.9965 -0.6984
  706TMC3    C410490   3.837   2.154  16.179  0.1762  0.2427 -0.7335
  706TMC3    C510491   3.747   2.220  16.262  0.5197  0.2591 -0.9184
  706TMC3    C610492   3.676   2.318  16.214  0.4219  0.8299 -0.0729
  706TMC3     C10493   3.923   2.090  15.972  0.0412  0.0419 -0.7052
  706TMC3     O10494   4.028   2.048  16.025 -0.3252 -0.2241  0.1418
  706TMC3     H10495   3.779   2.296  15.887  2.8570  0.2587  0.2928
  706TMC3    H110496   3.906   2.078  16.214  0.8382  0.7256 -0.9973
  706TMC3    H210497   3.600   2.367  16.273 -0.0866 -1.6653  1.3087
  706TMC3    C710498   3.675   2.127  16.347 -0.4863  0.0317  0.0721
  706TMC3    C810499   3.630   2.457  16.029  0.2722 -0.0815 -0.4377
  706TMC3    O110500   3.713   2.012  16.336 -0.0761  0.1268 -0.4278
  706TMC3    O210501   3.609   2.460  15.910  0.3275 -0.2011  0.5051
  707TMC3    C110502   0.256   0.924   0.384 -0.5434 -0.0756  0.7061
  707TMC3    C210503   0.289   0.914   0.521 -0.1904  0.2969  0.4080
  707TMC3    C310504   0.191   0.914   0.617 -0.0680  0.0058 -0.2668
  707TMC3    C410505   0.122   0.925   0.358  0.3903 -0.0672  0.0570
  707TMC3    C510506   0.026   0.921   0.458 -0.0646 -0.5468  0.2338
  707TMC3    C610507   0.055   0.906   0.591  0.2667  0.4798  0.3594
  707TMC3     C10508   0.356   0.857   0.300  0.4149 -0.4538 -1.3050
  707TMC3     O10509   0.440   0.795   0.362  0.2244  0.0294  0.1780
  707TMC3     H10510   0.388   0.895   0.560 -1.1316  0.7990  2.9853
  707TMC3    H110511   0.086   0.911   0.257 -0.6395 -0.0808  0.4312
  707TMC3    H210512   4.720   0.920   0.672  1.3436  3.3231  0.8180
  707TMC3    C710513   4.635   0.892   0.404  0.1900 -0.0040  0.1564
  707TMC3    C810514   0.232   0.876   0.750  0.2178 -0.3788  0.1500
  707TMC3    O110515   4.612   0.927   0.289  0.0181  0.3455  0.0914
  707TMC3    O210516   0.168   0.927   0.842 -0.3206 -0.2607 -0.2402
  708MPD2     C10517   1.627   0.180  13.341  0.0833 -0.1933  0.5103
  708MPD2    C110518   1.574   0.178  13.466  0.0751  0.6632  0.4782
  708MPD2    C210519   1.659   0.174  13.578  0.1605 -0.0074 -0.3976
  708MPD2    C310520   1.796   0.177  13.564 -0.6154  0.7474 -0.1044
  708MPD2    C410521   1.844   0.191  13.434 -0.5409  0.0082  0.1172
  708MPD2    C510522   1.760   0.191  13.324  0.4840 -0.3565  0.7394
  708MPD2     H10523   1.606   0.170  13.672 -1.4609  0.2314 -1.3147
  708MPD2    H110524   1.948   0.211  13.413 -0.2889 -1.2332  0.2048
  708MPD2    H210525   1.556   0.207  13.264 -0.4620 -0.0005  1.0805
  708MPD2    H310526   1.798   0.193  13.222 -1.3368 -0.1999  0.0524
  708MPD2     N10527   1.882   0.185  13.678 -0.3092 -0.3148  0.4147
  708MPD2    H510528   1.982   0.180  13.659 -0.1640  1.0426  0.8706
  708MPD2    N110529   1.429   0.189  13.476  0.4720 -0.2935 -0.2064
  708MPD2    H710530   1.379   0.217  13.392 -0.9616  1.2657  1.1760
  709TMC3    C110531   1.214   0.227  13.578  0.2907  0.9841  0.0333
  709TMC3    C210532   1.195   0.322  13.484  0.1994  0.7125 -0.4027
  709TMC3    C310533   1.142   0.442  13.524  0.2497  0.1852 -0.6592
  709TMC3    C410534   1.164   0.236  13.703 -0.4472  0.2061  0.7892
  709TMC3    C510535   1.122   0.365  13.740  0.3304 -0.6166  0.6464
  709TMC3    C610536   1.107   0.469  13.655 -0.6570 -0.7279 -0.1544
  709TMC3     C10537   1.349   0.170  13.589  0.3742  0.4227 -1.0436
  709TMC3     O10538   1.369   0.131  13.703  0.2978  0.4576  0.0706
  709TMC3     H10539   1.214   0.306  13.379 -0.9162 -1.4505 -0.2611
  709TMC3    H110540   1.170   0.157  13.777 -0.3860  0.7875  1.4044
  709TMC3    H210541   1.100   0.574  13.685  1.6502 -0.2851 -1.1781
  709TMC3    C710542   1.171   0.406  13.869 -0.7220 -0.5216 -0.2966
  709TMC3    C810543   1.155   0.549  13.429 -0.6192  0.1424 -0.5415
  709TMC3    O110544   1.143   0.515  13.919  0.3903 -0.2280  0.2203
  709TMC3    O210545   1.190   0.524  13.314  0.2280  0.2651  0.4642
  710TMC3    C110546   2.516   1.876   0.301  0.3960  0.1288 -0.9063
  710TMC3    C210547   2.650   1.889   0.324  0.1763 -0.6773  0.0274
  710TMC3    C310548   2.729   1.782   0.349 -0.2846  0.4715 -0.2855
  710TMC3    C410549   2.454   1.760   0.316 -0.6261 -0.4054  0.0043
  710TMC3    C510550   2.534   1.657   0.358  0.2591 -0.3446  0.2721
  710TMC3    C610551   2.670   1.661   0.370  0.1832 -0.2621 -0.5316
  710TMC3     C10552   2.444   1.998   0.274  0.7302 -0.0360  0.4167
  710TMC3     O10553   2.501   2.084   0.208  0.5648  0.1613  0.2059
  710TMC3     H10554   2.698   1.986   0.321  1.0385 -1.0731  0.8856
  710TMC3    H110555   2.349   1.754   0.290 -0.9255  1.5762  0.6940
  710TMC3    H210556   2.719   1.567   0.395  3.8117  2.2545  1.6795
  710TMC3    C710557   2.474   1.528   0.398  0.9229 -0.1927  0.1313
  710TMC3    C810558   2.868   1.801   0.380  0.4349  0.6687 -0.4543
  710TMC3    O110559   2.544   1.425   0.414  0.5474  0.3189 -0.2963
  710TMC3    O210560   2.917   1.911   0.349 -0.0470  0.0292 -0.5121
  711TMC3    C110561   2.440   2.697  14.613 -0.2644  0.3049 -0.5487
  711TMC3    C210562   2.548   2.637  14.669 -0.2696 -0.0063  0.2807
  711TMC3    C310563   2.613   2.701  14.771 -0.0380 -0.5675 -0.9666
  711TMC3    C410564   2.402   2.830  14.638  0.0355 -0.6090 -0.2745
  711TMC3    C510565   2.483   2.898  14.728 -0.1987  0.2464  0.3490
  711TMC3    C610566   2.585   2.833  14.795 -0.4994  0.6751 -0.6551
  711TMC3     C10567   2.393   2.660  14.478  0.2188 -0.0974  0.3435
  711TMC3     O10568   2.277   2.650  14.449 -0.6574  0.6353 -0.4226
  711TMC3     H10569   2.573   2.537  14.635  0.0644 -0.2114  1.1248
  711TMC3    H110570   2.331   2.884  14.576 -1.6859 -1.9322  0.5638
  711TMC3    H210571   2.621   2.881  14.885  2.2531 -1.7634 -0.4661
  711TMC3    C710572   2.516   3.027  14.674  0.7876 -0.5840  0.5391
  711TMC3    C810573   2.735   2.634  14.824  0.8731  0.0265 -0.4406
  711TMC3    O110574   2.446   3.076  14.586  0.5345 -0.2928  0.0894
  711TMC3    O210575   2.747   2.513  14.799 -0.0323  0.0364  0.2366
  712MPD2     C10576   3.983   3.755  14.260 -0.0366 -0.5717 -0.2849
  712MPD2    C110577   3.954   3.829  14.151  0.1716  0.6590 -0.0133
  712MPD2    C210578   3.984   3.963  14.149 -0.8226  1.0001 -0.1541
  712MPD2    C310579   4.036   4.022  14.264 -0.1287 -0.0858 -0.1529
  712MPD2    C410580   4.067   3.949  14.379 -0.2511  0.5792  0.9063
  712MPD2    C510581   4.037   3.821  14.369  0.0994  0.0506  0.0298
  712MPD2     H10582   3.957   4.021  14.062 -1.7793  2.4246  1.0956
  712MPD2    H110583   4.112   3.991  14.468  1.5356  0.8192 -0.1183
  712MPD2    H210584   3.965   3.648  14.267 -1.2456 -0.2446  1.6508
  712MPD2    H310585   4.059   3.756  14.453  0.7801 -0.1071 -0.2732
  712MPD2     N10586   4.067   4.159  14.278  0.0607  0.1927  0.5482
  712MPD2    H510587   4.111   4.193  14.364 -0.5718  0.2826  0.8350
  712MPD2    N110588   3.886   3.777  14.041  0.1866  0.0438 -0.1070
  712MPD2    H710589   3.872   3.849  13.970 -3.2747  1.4981  2.0178
  713TMC3    C110590   4.073   4.392  14.245 -0.6244 -0.1588  0.6152
  713TMC3    C210591   4.200   4.428  14.254  0.0029  0.4347  0.3109
  713TMC3    C310592   4.239   4.555  14.239 -0.3735  0.2263 -0.3770
  713TMC3    C410593   3.971   4.481  14.224  0.0971 -0.9054 -0.4144
  713TMC3    C510594   4.015   4.611  14.217 -0.0900 -0.0732 -0.5872
  713TMC3    C610595   4.145   4.657  14.220 -0.5327 -0.5294 -0.2978
  713TMC3     C10596   4.041   4.258  14.190  0.1079  0.0383  0.5502
  713TMC3     O10597   3.999   4.251  14.076  0.2762 -0.6263 -0.1915
  713TMC3     H10598   4.268   4.344  14.262 -1.5475 -0.5826  3.0132
  713TMC3    H110599   3.866   4.454  14.226 -0.3821  0.9037 -0.6035
  713TMC3    H210600   4.167   0.025  14.195 -2.3494  0.2145  1.2284
  713TMC3    C710601   3.913   4.711  14.215 -0.3000 -0.1753  0.2287
  713TMC3    C810602   4.360   4.574  14.163  0.6461 -0.0318  0.4480
  713TMC3    O110603   3.919   0.061  14.300  0.4325  0.3583  0.3004
  713TMC3    O210604   4.361   4.668  14.088  0.3967 -0.8330 -0.5566
  714MPD2     C10605   0.936   2.280   0.921 -0.1333  0.6943  0.4381
  714MPD2    C110606   0.935   2.143   0.944 -0.6587 -0.4876 -0.4123
  714MPD2    C210607   0.854   2.064   0.865  0.3599  0.3519  0.3895
  714MPD2    C310608   0.776   2.119   0.757 -0.3747 -0.2807  0.0499
  714MPD2    C410609   0.776   2.257   0.734 -0.1370  0.3940 -0.6575
  714MPD2    C510610   0.859   2.330   0.813 -0.5667  0.1285 -0.5481
  714MPD2     H10611   0.849   1.956   0.876 -2.8393  0.3378 -1.0670
  714MPD2    H110612   0.706   2.301   0.663 -0.0089  1.4707 -0.1125
  714MPD2    H210613   1.004   2.346   0.973 -0.2569  0.1493  1.2916
  714MPD2    H310614   0.867   2.435   0.787  0.5108 -0.0834 -1.0694
  714MPD2     N10615   0.710   2.022   0.667 -0.9295 -0.1712  0.0336
  714MPD2    H510616   0.716   1.925   0.695  0.5954 -0.1357 -0.1677
  714MPD2    N110617   1.020   2.095   1.048  0.2068  0.4978 -0.0308
  714MPD2    H710618   1.085   2.164   1.087 -0.6301  0.5715  1.2483
  715TMC3    C110619   1.154   1.929   1.152  0.5767  0.9142 -0.1928
  715TMC3    C210620   1.203   1.802   1.123  0.3189  0.7131 -0.2094
  715TMC3    C310621   1.325   1.765   1.177 -0.0216 -0.0976 -0.7302
  715TMC3    C410622   1.202   2.006   1.252 -0.5208  0.1288 -0.6745
  715TMC3    C510623   1.314   1.953   1.320 -0.3821  0.1865  0.2751
  715TMC3    C610624   1.375   1.839   1.285  0.0522 -0.0333 -0.0218
  715TMC3     C10625   1.030   1.966   1.093  0.0666 -0.2634 -0.4509
  715TMC3     O10626   0.964   1.867   1.061 -0.0977  1.0487  0.2234
  715TMC3     H10627   1.169   1.746   1.037  0.2624 -2.0714  1.6401
  715TMC3    H110628   1.157   2.102   1.274 -1.0759 -0.0640 -0.9890
  715TMC3    H210629   1.465   1.815   1.341 -0.1839 -1.0894 -0.0891
  715TMC3    C710630   1.357   2.025   1.444 -0.0703 -0.6432 -0.2537
  715TMC3    C810631   1.402   1.656   1.119 -0.4646 -0.2026 -0.8492
  715TMC3    O110632   1.468   2.012   1.490 -0.5058 -0.1361 -0.4313
  715TMC3    O210633   1.351   1.586   1.029 -0.1506  0.0701  0.3886
  716MPD2     C10634   1.268   0.924   9.574  0.0622  0.7631  0.1011
  716MPD2    C110635   1.160   0.856   9.521 -0.0642 -0.5281  0.5883
  716MPD2    C210636   1.168   0.725   9.481  0.2115 -0.0724  0.0985
  716MPD2    C310637   1.291   0.659   9.495  0.3091  0.1057 -0.4162
  716MPD2    C410638   1.406   0.728   9.540 -0.4813 -0.2148 -0.2490
  716MPD2    C510639   1.385   0.862   9.572  0.3957 -0.5052 -0.4773
  716MPD2     H10640   1.090   0.661   9.442  1.1418 -0.4049 -1.2231
  716MPD2    H110641   1.506   0.687   9.541 -0.4427 -0.1485 -1.3543
  716MPD2    H210642   1.264   1.027   9.606 -1.1651  0.5035  0.8048
  716MPD2    H310643   1.481   0.906   9.597  0.5227 -1.5419  0.8830
  716MPD2     N10644   1.294   0.521   9.458  0.0464  0.6763  0.1804
  716MPD2    H510645   1.210   0.484   9.416 -0.6766  0.9108  1.4011
  716MPD2    N110646   1.044   0.929   9.513 -0.1072  0.5221 -1.1429
  716MPD2    H710647   1.043   1.021   9.556  3.1330 -0.0993  0.2886
  717TMC3    C110648   1.350   0.294   9.454  0.3821  0.3392 -0.1430
  717TMC3    C210649   1.241   0.270   9.377  0.0846 -0.5005  0.3747
  717TMC3    C310650   1.200   0.145   9.346 -0.0913 -0.2558 -0.3103
  717TMC3    C410651   1.436   0.193   9.494 -0.5872  0.0209 -0.6253
  717TMC3    C510652   1.385   0.067   9.475  0.1491  0.7688  0.5809
  717TMC3    C610653   1.273   0.040   9.399  0.9323 -0.0198 -0.0289
  717TMC3     C10654   1.393   0.433   9.487  0.6020  0.1367 -0.6171
  717TMC3     O10655   1.500   0.444   9.547  0.0135 -0.0558  0.0969
  717TMC3     H10656   1.173   0.346   9.340 -0.5731 -1.5118 -0.4762
  717TMC3    H110657   1.524   0.216   9.553 -2.3015  2.0617  1.1553
  717TMC3    H210658   1.246   4.671   9.389 -0.3404  0.2899  0.1671
  717TMC3    C710659   1.464   4.686   9.518  0.8284  0.3969  0.0091
  717TMC3    C810660   1.064   0.120   9.282 -0.0369 -0.2202  0.1479
  717TMC3    O110661   1.444   4.587   9.456  0.4116 -0.0552  0.2141
  717TMC3    O210662   1.000   0.220   9.259 -0.4649 -0.1802 -0.4385
  718MPD2     C10663   0.338   4.398  12.335  0.1845 -0.4413  0.1673
  718MPD2    C110664   0.296   4.273  12.381  0.0131 -0.1846  0.6018
  718MPD2    C210665   0.354   4.215  12.489 -0.0568 -0.5007  0.3294
  718MPD2    C310666   0.450   4.292  12.559 -0.8095 -0.1510  0.0073
  718MPD2    C410667   0.486   4.418  12.516  0.2696 -0.1532 -0.2470
  718MPD2    C510668   0.431   4.467  12.403 -0.3778  0.1309  0.5316
  718MPD2     H10669   0.330   4.116  12.525 -2.4188  0.3840  1.2137
  718MPD2    H110670   0.574   4.470  12.551  0.7769 -0.5321 -0.9366
  718MPD2    H210671   0.292   4.449  12.251  0.1391  0.7290  0.8928
  718MPD2    H310672   0.477   4.560  12.371 -0.7259 -0.5746 -2.0617
  718MPD2     N10673   0.523   4.227  12.663 -0.2988 -0.5656  0.1357
  718MPD2    H510674   0.487   4.135  12.685  2.8632 -1.8020  0.1080
  718MPD2    N110675   0.194   4.213  12.310  0.0245 -0.0196 -0.4123
  718MPD2    H710676   0.153   4.267  12.234 -0.4706 -1.8372 -1.4473
  719TMC3    C110677   0.068   4.022  12.224 -0.1564  0.1923  0.1617
  719TMC3    C210678   0.070   3.889  12.245  0.6621 -0.0181 -0.4136
  719TMC3    C310679   0.120   3.800  12.162  0.5933 -0.5464 -0.3519
  719TMC3    C410680   0.112   4.069  12.102 -0.5548  0.0890  0.1531
  719TMC3    C510681   0.182   3.986  12.016 -0.4715  0.1156  0.7342
  719TMC3    C610682   0.185   3.852  12.058 -0.3321 -0.2778 -0.4529
  719TMC3     C10683   0.147   4.087  12.335  0.9440  0.2202 -0.6947
  719TMC3     O10684   0.174   4.001  12.417  0.1998 -0.1759  0.1242
  719TMC3     H10685   0.019   3.853  12.333  1.6306  0.3260  0.2903
  719TMC3    H110686   0.115   4.175  12.082  0.5187  0.2853  1.4084
  719TMC3    H210687   0.226   3.778  11.991  0.8860  0.4543 -0.5153
  719TMC3    C710688   0.314   4.033  11.986 -0.6358 -0.2892  0.7147
  719TMC3    C810689   0.202   3.695  12.220 -0.3305  0.8076 -0.0411
  719TMC3    O110690   0.336   4.141  11.938 -0.2469  0.5699  0.2758
  719TMC3    O210691   0.253   3.607  12.157  0.4772  0.0143 -0.1564
  720MPD2     C10692   3.885   0.798  13.670  0.1428 -0.1391 -0.0780
  720MPD2    C110693   3.965   0.909  13.637  0.2007 -0.5306 -0.3871
  720MPD2    C210694   4.059   0.959  13.722  0.0053 -0.8532 -0.1785
  720MPD2    C310695   4.054   0.911  13.854  0.2546  0.2363 -0.0045
  720MPD2    C410696   3.989   0.800  13.883  0.1841 -0.1973  0.3266
  720MPD2    C510697   3.903   0.740  13.793  0.3044 -0.6478  0.8871
  720MPD2     H10698   4.122   1.043  13.696 -0.4692 -0.1396  1.0221
  720MPD2    H110699   3.982   0.754  13.981  1.6488  0.3226  0.6669
  720MPD2    H210700   3.820   0.751  13.597 -0.1566  1.1576 -0.6491
  720MPD2    H310701   3.853   0.649  13.826  1.7209 -2.3230 -1.5753
  720MPD2     N10702   4.136   0.980  13.950  0.1370 -0.3721 -0.8224
  720MPD2    H510703   4.184   1.062  13.914  2.1656 -0.1165  2.4949
  720MPD2    N110704   3.975   0.956  13.509 -0.4904 -0.1523 -0.0849
  720MPD2    H710705   4.047   1.027  13.497  2.5214 -3.5821 -2.1235
  721TMC3    C110706   4.245   1.010  14.157 -0.4916 -0.2445 -0.1111
  721TMC3    C210707   4.229   1.034  14.290  0.1928  0.1564 -0.4455
  721TMC3    C310708   4.312   1.119  14.361 -0.2009 -0.0485  0.3730
  721TMC3    C410709   4.360   1.060  14.091  0.3474 -0.1421  0.3130
  721TMC3    C510710   4.426   1.156  14.160  0.2770  0.3101  0.0650
  721TMC3    C610711   4.404   1.191  14.292 -0.4644  0.0025  0.7243
  721TMC3     C10712   4.139   0.943  14.087  0.0386  0.0270  0.0543
  721TMC3     O10713   4.096   0.838  14.138  0.3757  0.4339 -0.0704
  721TMC3     H10714   4.135   0.998  14.331 -0.3281  0.9855 -0.9282
  721TMC3    H110715   4.376   1.058  13.984 -3.3041  0.5945 -0.2527
  721TMC3    H210716   4.450   1.285  14.320 -0.1971 -0.5739  2.2009
  721TMC3    C710717   4.563   1.140  14.125 -1.0610  0.1007 -0.3914
  721TMC3    C810718   4.263   1.178  14.478  0.8685 -0.0638  0.3698
  721TMC3    O110719   4.618   1.237  14.069 -0.0814  0.3498  0.1878
  721TMC3    O210720   4.282   1.303  14.482 -0.7299 -0.0560 -0.2059
  722MPD2     C10721   3.122   4.371  13.484  0.3154  0.3516 -0.1460
  722MPD2    C110722   3.052   4.488  13.458  0.0019 -0.4854  0.0489
  722MPD2    C210723   2.917   4.474  13.460 -0.9887  0.4020  0.5039
  722MPD2    C310724   2.851   4.352  13.486  0.0557 -0.7435  1.2768
  722MPD2    C410725   2.924   4.234  13.520  0.4294 -0.2362 -0.4675
  722MPD2    C510726   3.058   4.256  13.518 -0.0434 -0.4664 -0.0285
  722MPD2     H10727   2.855   4.562  13.454 -1.4996  0.0511  0.6365
  722MPD2    H110728   2.888   4.133  13.533 -2.5185  0.8421 -0.3107
  722MPD2    H210729   3.230   4.358  13.488  0.4445  1.4338 -0.0712
  722MPD2    H310730   3.121   4.169  13.535  0.6081 -0.1851 -1.0545
  722MPD2     N10731   2.706   4.357  13.485  0.2861 -0.2336  0.0087
  722MPD2    H510732   2.672   4.437  13.431 -1.5275 -1.6162 -0.9065
  722MPD2    N110733   3.110   4.618  13.432 -0.1241  0.5126 -0.1978
  722MPD2    H710734   3.060   4.694  13.386  0.1881 -0.4361 -2.1110
  723TMC3    C110735   2.498   4.238  13.475 -0.5730  0.9768 -0.2483
  723TMC3    C210736   2.416   4.145  13.532  0.0550  0.5794  0.6842
  723TMC3    C310737   2.315   4.091  13.449  0.8839  0.3088 -0.5539
  723TMC3    C410738   2.486   4.276  13.342 -0.9204 -0.0991  0.5048
  723TMC3    C510739   2.378   4.224  13.277  0.7165  0.7131 -0.2975
  723TMC3    C610740   2.289   4.137  13.326  0.1022 -0.1789  0.2715
  723TMC3     C10741   2.633   4.245  13.524  0.2498  0.2594  0.2181
  723TMC3     O10742   2.657   4.156  13.607  0.3875 -0.2545 -0.0483
  723TMC3     H10743   2.432   4.103  13.630  0.7627 -0.1449  0.2564
  723TMC3    H110744   2.550   4.354  13.303 -1.4045 -0.2830 -0.6597
  723TMC3    H210745   2.205   4.107  13.266  1.2218  1.3198 -2.0657
  723TMC3    C710746   2.352   4.274  13.143  0.2767  0.4099 -0.1282
  723TMC3    C810747   2.223   3.996  13.515  0.0869 -0.1968 -0.6126
  723TMC3    O110748   2.258   4.237  13.080 -0.5094  0.6324 -0.4858
  723TMC3    O210749   2.235   3.988  13.636 -0.1687  0.2688  0.0122
  724TMC3    C110750   3.469   3.120  10.283  0.4939 -0.2397  0.0750
  724TMC3    C210751   3.336   3.163  10.305  0.2845  0.1509  0.0277
  724TMC3    C310752   3.276   3.222  10.194 -0.0426  0.8698 -0.2780
  724TMC3    C410753   3.532   3.153  10.171  0.0469 -0.1978  0.1146
  724TMC3    C510754   3.472   3.231  10.077  0.9663  0.2811 -0.0886
  724TMC3    C610755   3.341   3.275  10.085 -0.5312 -0.2441 -0.7216
  724TMC3     C10756   3.517   3.025  10.386  0.3523  0.3718  0.2189
  724TMC3     O10757   3.459   3.020  10.492  0.3103 -0.0042 -0.4292
  724TMC3     H10758   3.274   3.125  10.386 -0.8812  0.8904 -0.5192
  724TMC3    H110759   3.636   3.126  10.160  0.1569  0.6320 -0.8517
  724TMC3    H210760   3.290   3.318   9.999  1.3485 -0.0072 -1.7045
  724TMC3    C710761   3.564   3.273   9.973  0.1088  0.4194  0.2046
  724TMC3    C810762   3.134   3.236  10.214  0.4884  0.2794 -0.2289
  724TMC3    O110763   3.654   3.194   9.949  0.4310  0.2631 -0.5134
  724TMC3    O210764   3.089   3.159  10.300  0.2001  0.1765 -0.3235
  725TMC3    C110765   0.313   1.825  12.479 -0.4283  0.7201 -0.5793
  725TMC3    C210766   0.268   1.827  12.344  0.0089  0.3455 -0.0314
  725TMC3    C310767   0.261   1.705  12.283  0.9298 -0.1694 -0.1865
  725TMC3    C410768   0.353   1.711  12.541 -0.2982  0.0980 -0.3955
  725TMC3    C510769   0.358   1.595  12.465 -0.2475 -0.4429  0.1634
  725TMC3    C610770   0.300   1.587  12.344  0.0609  0.5353  0.4270
  725TMC3     C10771   0.300   1.951  12.558 -0.6776 -0.6229  0.2157
  725TMC3     O10772   0.237   2.043  12.507  0.5107  0.4356 -0.3482
  725TMC3     H10773   0.224   1.918  12.305 -0.4509  0.3108  0.4011
  725TMC3    H110774   0.384   1.701  12.644 -3.1447 -0.5041  0.3896
  725TMC3    H210775   0.300   1.495  12.287  0.9229  0.0248  1.2531
  725TMC3    C710776   0.449   1.480  12.498  0.1830 -0.1713 -0.5866
  725TMC3    C810777   0.169   1.696  12.164  0.7635  0.3618  0.8915
  725TMC3    O110778   0.467   1.396  12.408 -0.0470  0.3488 -0.4992
  725TMC3    O210779   0.114   1.588  12.152  0.2121 -0.5251 -0.0207
  726MPD2     C10780   1.865   3.535  10.137  0.3762 -0.3358 -0.1293
  726MPD2    C110781   1.877   3.458  10.253  0.4307  0.1173 -0.1619
  726MPD2    C210782   1.765   3.412  10.320  0.1915 -0.9316 -0.3192
  726MPD2    C310783   1.638   3.439  10.275  0.0052  0.1458  1.0065
  726MPD2    C410784   1.633   3.513  10.156 -0.1671  0.1171  0.2880
  726MPD2    C510785   1.743   3.563  10.090 -0.1531 -0.0207  0.7836
  726MPD2     H10786   1.784   3.360  10.413 -1.0561  0.2572  0.5988
  726MPD2    H110787   1.543   3.555  10.111  0.7805  0.4149 -1.3335
  726MPD2    H210788   1.950   3.579  10.086  1.0339 -1.9360 -0.4091
  726MPD2    H310789   1.738   3.631  10.006  1.1363  1.7089  2.1029
  726MPD2     N10790   1.518   3.418  10.353  0.2049 -0.4312 -0.0344
  726MPD2    H510791   1.432   3.437  10.303  0.9971  0.2465 -1.1454
  726MPD2    N110792   1.998   3.431  10.312  0.4803 -0.4053 -0.4163
  726MPD2    H710793   1.995   3.391  10.405  0.0214 -2.1691 -1.1784
  727TMC3    C110794   2.210   3.470  10.389 -0.3529  0.1115  0.1284
  727TMC3    C210795   2.200   3.388  10.495  0.2699  0.6862  0.2768
  727TMC3    C310796   2.271   3.427  10.608 -0.4669  0.2476 -0.5139
  727TMC3    C410797   2.303   3.575  10.387  0.4480  0.5053  0.5515
  727TMC3    C510798   2.368   3.607  10.501  0.3137 -0.1537 -0.2593
  727TMC3    C610799   2.366   3.531  10.612  0.6009  0.0323  0.3586
  727TMC3     C10800   2.124   3.461  10.272  0.5593  0.6988 -0.2759
  727TMC3     O10801   2.160   3.513  10.166  0.9750 -0.3233  0.6985
  727TMC3     H10802   2.141   3.298  10.481 -0.0095  0.7789  0.8555
  727TMC3    H110803   2.296   3.651  10.310  1.8743  1.4248  1.3355
  727TMC3    H210804   2.412   3.552  10.707  2.7708 -1.3390 -0.3716
  727TMC3    C710805   2.384   3.750  10.526 -0.3823  0.0867 -0.0053
  727TMC3    C810806   2.276   3.347  10.733  0.2575 -0.2390  0.1143
  727TMC3    O110807   2.322   3.823  10.450  0.2638 -0.5775  0.1191
  727TMC3    O210808   2.368   3.364  10.812  0.2761  0.5001  0.0284
  728TMC3    C110809   2.065   1.574  14.552 -0.7371 -0.5744 -0.3518
  728TMC3    C210810   2.142   1.543  14.449  0.6943 -0.5541 -0.2890
  728TMC3    C310811   2.095   1.570  14.325 -0.2888 -0.3777 -0.0935
  728TMC3    C410812   1.935   1.613  14.543  0.3137 -0.2423 -0.1925
  728TMC3    C510813   1.899   1.649  14.417  0.5186 -0.3102 -0.3865
  728TMC3    C610814   1.970   1.627  14.300  0.4049 -0.1962 -0.1936
  728TMC3     C10815   2.125   1.573  14.687 -0.1726 -0.2685  0.0627
  728TMC3     O10816   2.228   1.635  14.693 -0.1251 -0.6631  0.3447
  728TMC3     H10817   2.237   1.494  14.467  1.4092  1.3906  1.2188
  728TMC3    H110818   1.880   1.626  14.636  1.8975  0.7022  0.6242
  728TMC3    H210819   1.951   1.668  14.201  0.8146 -0.1504 -0.2559
  728TMC3    C710820   1.813   1.770  14.418 -0.3165  0.0308 -0.0013
  728TMC3    C810821   2.159   1.499  14.215 -0.7226  0.0827  0.2057
  728TMC3    O110822   1.742   1.791  14.512  0.3937  0.1046 -0.2111
  728TMC3    O210823   2.268   1.453  14.241 -0.5039 -0.7975 -0.0400
  729MPD2     C10824   4.305   2.203  16.974 -0.0595  0.3505  1.1366
  729MPD2    C110825   4.255   2.327  16.943  0.2504  0.8814  0.2380
  729MPD2    C210826   4.146   2.367  17.014 -0.3609  0.0594  0.7332
  729MPD2    C310827   4.100   2.294  17.122 -1.0128  0.1731  0.7630
  729MPD2    C410828   4.165   2.175  17.163 -0.2627 -0.3129 -0.3916
  729MPD2    C510829   4.269   2.139  17.089  0.4699 -0.7950 -0.1062
  729MPD2     H10830   4.095   2.456  16.978 -0.5213 -1.6298 -3.2621
  729MPD2    H110831   4.138   2.117  17.250 -0.1115  0.8170  0.4060
  729MPD2    H210832   4.385   2.165  16.913 -1.9133  1.3712 -1.9178
  729MPD2    H310833   4.324   2.048  17.107 -0.5083 -1.5816 -1.0664
  729MPD2     N10834   4.001   2.344  17.207  0.4904  0.4797 -0.2536
  729MPD2    H510835   3.991   2.290  17.293  1.2201  0.4933 -0.1590
  729MPD2    N110836   4.298   2.392  16.828 -0.2680  0.4176 -0.1980
  729MPD2    H710837   4.375   2.342  16.785 -0.3685 -1.1976  1.5037
  730TMC3    C110838   3.892   2.516  17.317 -0.3602  0.2434  0.5107
  730TMC3    C210839   3.947   2.484  17.441  0.5730 -0.3519  0.2242
  730TMC3    C310840   3.946   2.583  17.537 -0.1721 -0.1928 -0.3130
  730TMC3    C410841   3.823   2.635  17.302 -0.4731  0.7782  0.5314
  730TMC3    C510842   3.826   2.735  17.401 -0.1314 -0.4700  0.0185
  730TMC3    C610843   3.894   2.711  17.516  0.1216 -0.7237  0.6795
  730TMC3     C10844   3.929   2.457  17.189  0.4391  0.3949 -0.9095
  730TMC3     O10845   3.922   2.533  17.093  0.2194  0.5467  0.0365
  730TMC3     H10846   3.994   2.396  17.482 -1.0277 -0.2213  2.3359
  730TMC3    H110847   3.779   2.660  17.206  0.6941 -0.2255 -0.2553
  730TMC3    H210848   3.901   2.779  17.601 -0.7110 -1.1951  1.1153
  730TMC3    C710849   3.824   2.869  17.351  0.2931 -0.4467  0.3560
  730TMC3    C810850   4.052   2.567  17.635 -0.0909  0.1440 -0.4606
  730TMC3    O110851   3.859   2.897  17.236 -0.4769  0.6186  0.5302
  730TMC3    O210852   4.076   2.457  17.681  0.1097  1.2703  0.5029
  731MPD2     C10853   4.263   0.585  12.211 -0.5996  0.2375  0.8332
  731MPD2    C110854   4.378   0.511  12.218  0.2520  0.5225  0.1713
  731MPD2    C210855   4.405   0.418  12.323 -0.5146  0.0716  0.7746
  731MPD2    C310856   4.309   0.412  12.422 -0.6439 -1.1443 -0.1591
  731MPD2    C410857   4.189   0.480  12.410  0.4428  0.5341  0.6536
  731MPD2    C510858   4.163   0.568  12.307  0.5362  0.3790 -0.4587
  731MPD2     H10859   4.500   0.366  12.329 -0.0308  1.0581  1.7002
  731MPD2    H110860   4.117   0.472  12.490  1.4789 -0.0333  1.5158
  731MPD2    H210861   4.246   0.657  12.131 -0.3077  0.8141  1.2892
  731MPD2    H310862   4.081   0.638  12.300 -0.8695 -1.2113  0.2446
  731MPD2     N10863   4.333   0.320  12.527  0.1050  0.2419 -0.7091
  731MPD2    H510864   4.410   0.256  12.508  0.2250  0.3643 -0.6431
  731MPD2    N110865   4.469   0.531  12.106 -0.9186  0.0433  0.6616
  731MPD2    H710866   4.437   0.596  12.035 -0.8562  0.1890  0.7657
  732TMC3    C110867   4.648   0.537  11.973  0.9465 -0.0205  0.7546
  732TMC3    C210868   4.563   0.525  11.865 -0.5995  0.8442  0.4527
  732TMC3    C310869   4.619   0.575  11.751 -0.2437 -0.2760  0.9382
  732TMC3    C410870   0.038   0.589  11.975  0.2282  0.2024  0.1637
  732TMC3    C510871   0.075   0.650  11.856 -0.2778 -0.1501 -1.2863
  732TMC3    C610872   0.009   0.623  11.735 -0.4912 -0.5875  0.3157
  732TMC3     C10873   4.596   0.491  12.103 -0.2840  0.4690 -0.2286
  732TMC3     O10874   4.673   0.466  12.195  0.0055  0.1810 -0.1664
  732TMC3     H10875   4.474   0.464  11.873  0.0345  0.0778  1.6522
  732TMC3    H110876   0.104   0.594  12.061 -0.0071 -0.3118  0.3790
  732TMC3    H210877   0.037   0.666  11.640 -2.5971 -1.2579 -0.6205
  732TMC3    C710878   0.162   0.764  11.842  0.2609 -0.5308 -0.6465
  732TMC3    C810879   4.531   0.608  11.640  0.8916  0.8883 -0.2546
  732TMC3    O110880   0.157   0.834  11.742 -0.2342  0.3813  0.1385
  732TMC3    O210881   4.578   0.624  11.526 -0.4212 -0.3886 -0.2527
  733TMC3    C110882   0.596   4.110  13.056 -0.5352 -0.8938  1.1318
  733TMC3    C210883   0.636   4.216  12.974 -0.5922 -0.0403  0.7539
  733TMC3    C310884   0.664   4.187  12.844  0.2968 -0.1824 -0.4982
  733TMC3    C410885   0.589   3.981  13.012 -0.0839  0.2433 -0.2748
  733TMC3    C510886   0.631   3.955  12.884  0.3447 -0.0378 -0.1668
  733TMC3    C610887   0.662   4.057  12.797 -0.0578  0.2059 -0.0257
  733TMC3     C10888   0.485   4.144  13.151 -0.1276 -0.5945  0.1893
  733TMC3     O10889   0.422   4.243  13.118  0.1422  0.1381  0.4913
  733TMC3     H10890   0.642   4.316  13.015 -0.5154  0.2402  0.0457
  733TMC3    H110891   0.536   3.898  13.058  1.3599  0.0216  0.9741
  733TMC3    H210892   0.683   4.023  12.697 -1.9803 -1.1875  0.0224
  733TMC3    C710893   0.606   3.828  12.821  0.1677  0.0548 -0.3293
  733TMC3    C810894   0.618   4.286  12.745 -0.6059  0.0178  0.2615
  733TMC3    O110895   0.657   3.731  12.867  0.3010  0.9340  0.2173
  733TMC3    O210896   0.630   4.398  12.784 -0.1174 -0.1112 -0.5279
  734MPD2     C10897   2.375   2.247  12.346  0.2384  0.4296  0.2801
  734MPD2    C110898   2.330   2.132  12.273  0.6605 -0.1120 -0.2170
  734MPD2    C210899   2.324   2.149  12.139  0.3038  0.1890 -0.7465
  734MPD2    C310900   2.374   2.253  12.074 -0.2713 -0.3551  0.2158
  734MPD2    C410901   2.434   2.356  12.143  0.3820 -0.8014  0.0313
  734MPD2    C510902   2.436   2.352  12.282  0.3205  0.3325  0.0957
  734MPD2     H10903   2.287   2.072  12.072  1.2355 -0.7854 -0.1371
  734MPD2    H110904   2.496   2.430  12.093  0.0032 -1.3280 -1.2279
  734MPD2    H210905   2.386   2.244  12.454 -1.6887 -0.1951  0.4687
  734MPD2    H310906   2.481   2.433  12.339  1.2428  0.9783 -1.5506
  734MPD2     N10907   2.383   2.247  11.936 -0.4040  0.3410 -0.1502
  734MPD2    H510908   2.367   2.156  11.894 -1.1033 -0.0498  0.9864
  734MPD2    N110909   2.278   2.011  12.336  0.2972 -0.5545 -0.0746
  734MPD2    H710910   2.291   2.001  12.437 -2.6694 -2.6185  0.1291
  735TMC3    C110911   2.192   1.790  12.354 -0.2255 -0.0405  0.1165
  735TMC3    C210912   2.115   1.708  12.279 -0.0848 -0.0896  0.1603
  735TMC3    C310913   2.141   1.577  12.275 -0.4249  0.6523  0.2256
  735TMC3    C410914   2.305   1.750  12.414  0.8860 -0.0642 -0.5043
  735TMC3    C510915   2.343   1.621  12.397  0.2475  0.3554  0.3340
  735TMC3    C610916   2.254   1.529  12.337  0.3485 -0.2548  0.7232
  735TMC3     C10917   2.212   1.910  12.276 -0.4830 -0.3101 -1.0587
  735TMC3     O10918   2.180   1.901  12.158 -0.8219  0.0009  0.0393
  735TMC3     H10919   2.025   1.750  12.237  0.2971  0.9501  0.3668
  735TMC3    H110920   2.381   1.816  12.454 -0.0674  0.2390  0.7888
  735TMC3    H210921   2.284   1.425  12.336  1.6597  0.1116  1.2278
  735TMC3    C710922   2.484   1.587  12.394 -0.2327  0.3539 -0.1670
  735TMC3    C810923   2.148   1.536  12.131  0.5592 -0.0078  0.2514
  735TMC3    O110924   2.559   1.678  12.363  0.3711 -0.0977 -0.2522
  735TMC3    O210925   2.190   1.425  12.112  0.3782  0.0516 -0.1551
  736MPD2     C10926   2.617   1.249  12.448 -0.0265 -0.1298  0.5781
  736MPD2    C110927   2.620   1.383  12.401 -0.0238 -0.9054  0.5321
  736MPD2    C210928   2.719   1.421  12.313  0.9343  0.3294 -0.1487
  736MPD2    C310929   2.815   1.329  12.270 -0.0296 -0.6959  0.5748
  736MPD2    C410930   2.814   1.201  12.324 -0.1346 -0.0325  0.3714
  736MPD2    C510931   2.711   1.164  12.407  0.1900  0.2442 -0.3114
  736MPD2     H10932   2.706   1.521  12.273  2.7049  1.0351  1.0268
  736MPD2    H110933   2.892   1.135  12.288  0.2728  0.0186  1.1839
  736MPD2    H210934   2.538   1.208  12.510 -1.1825 -0.7685 -1.3171
  736MPD2    H310935   2.713   1.057  12.428 -0.9853  0.3818  0.5124
  736MPD2     N10936   2.919   1.365  12.175  0.1749  0.2082  0.3899
  736MPD2    H510937   2.993   1.301  12.149  0.6583  1.7004 -1.9346
  736MPD2    N110938   2.510   1.457  12.436 -0.0677 -0.5515  0.3673
  736MPD2    H710939   2.433   1.413  12.484  0.6539  0.1382  2.1819
  737TMC3    C110940   3.029   1.482  12.008  0.5381 -0.0587  0.0620
  737TMC3    C210941   3.098   1.602  11.991 -0.3987 -0.3010  0.1677
  737TMC3    C310942   3.217   1.594  11.924  0.2205 -0.5606 -0.0347
  737TMC3    C410943   3.083   1.365  11.962  0.0974 -0.1303 -0.4315
  737TMC3    C510944   3.201   1.362  11.899  0.2227  0.2386  0.4502
  737TMC3    C610945   3.271   1.474  11.878  0.2990  0.5529 -0.2481
  737TMC3     C10946   2.924   1.477  12.101 -0.2625  0.7614 -0.7689
  737TMC3     O10947   2.859   1.577  12.118  0.1831  0.3025  0.7380
  737TMC3     H10948   3.048   1.692  12.025 -0.6229  0.8747 -3.3043
  737TMC3    H110949   3.022   1.275  11.955  0.2084 -0.0224 -2.7557
  737TMC3    H210950   3.360   1.481  11.817 -1.4958  2.1679 -2.7031
  737TMC3    C710951   3.231   1.236  11.825 -0.1893 -0.1125 -0.6286
  737TMC3    C810952   3.270   1.719  11.867  0.8727 -0.4844  0.3650
  737TMC3    O110953   3.151   1.141  11.836  0.0503 -0.1531  0.1265
  737TMC3    O210954   3.394   1.730  11.856 -0.2310  0.5088  0.2916
  738MPD2     C10955   2.704   0.189  15.107 -0.1119  0.9146  0.4566
  738MPD2    C110956   2.789   0.114  15.183  0.4534 -0.3436  0.0383
  738MPD2    C210957   2.924   0.147  15.204  0.0999 -0.4091 -0.2215
  738MPD2    C310958   2.967   0.258  15.136  0.3246  0.6969 -0.4139
  738MPD2    C410959   2.880   0.339  15.061 -0.0716  0.1494  0.6329
  738MPD2    C510960   2.752   0.302  15.049 -0.3996 -0.3348 -0.5189
  738MPD2     H10961   2.992   0.090  15.266  0.6246  0.7078  0.2141
  738MPD2    H110962   2.913   0.431  15.015 -1.7640  0.4367 -0.0311
  738MPD2    H210963   2.597   0.172  15.097 -0.0367 -0.1583  1.5050
  738MPD2    H310964   2.690   0.370  14.992 -2.7357 -1.5334  0.6084
  738MPD2     N10965   3.097   0.312  15.148  0.5154  0.3491  0.3776
  738MPD2    H510966   3.113   0.404  15.108 -0.2499 -0.1668 -1.1191
  738MPD2    N110967   2.747   4.731  15.249 -0.4530  0.3548 -1.0769
  738MPD2    H710968   2.811   4.672  15.299 -1.7936  2.4987  3.1249
  739TMC3    C110969   3.339   0.320  15.173 -1.1072  0.0823 -0.1344
  739TMC3    C210970   3.347   0.360  15.038  0.6357 -0.1267 -0.6712
  739TMC3    C310971   3.470   0.358  14.986  0.4058 -0.9653 -0.3836
  739TMC3    C410972   3.440   0.271  15.252 -0.5740 -0.3247  0.5940
  739TMC3    C510973   3.564   0.276  15.195 -0.8777  0.0237 -0.3068
  739TMC3    C610974   3.581   0.322  15.063  0.1762 -0.9155  0.3447
  739TMC3     C10975   3.209   0.261  15.216  0.3464  0.2249  0.1727
  739TMC3     O10976   3.230   0.151  15.270 -0.6764 -0.3227 -0.0604
  739TMC3     H10977   3.261   0.400  14.986  0.2026 -1.8671 -1.2952
  739TMC3    H110978   3.418   0.238  15.352  3.5035 -0.7939  1.3145
  739TMC3    H210979   3.682   0.344  15.031  0.4891 -1.0354  1.2475
  739TMC3    C710980   3.675   0.250  15.285  0.1959 -0.4988  0.1736
  739TMC3    C810981   3.484   0.402  14.849  0.1090 -0.4093 -0.4235
  739TMC3    O110982   3.645   0.251  15.403  0.1994  0.4167  0.6483
  739TMC3    O210983   3.391   0.453  14.792 -0.0022 -0.4259 -0.2430
  740TMC3    C110984   3.487   1.723  14.081 -0.1808  0.0298 -0.0537
  740TMC3    C210985   3.605   1.720  14.147 -0.0644  0.1482 -0.0442
  740TMC3    C310986   3.718   1.676  14.082 -0.2000 -0.1559 -0.4213
  740TMC3    C410987   3.470   1.671  13.960 -0.3228 -1.1005 -0.7651
  740TMC3    C510988   3.584   1.623  13.897 -0.2214 -0.6473  0.4921
  740TMC3    C610989   3.711   1.631  13.957  0.0306 -0.0399 -0.2179
  740TMC3     C10990   3.364   1.764  14.151  0.0934 -0.1981  0.4836
  740TMC3     O10991   3.263   1.797  14.090 -0.0093 -0.0348 -0.3851
  740TMC3     H10992   3.620   1.772  14.240  1.7899 -2.8754  1.3447
  740TMC3    H110993   3.375   1.656  13.910  0.1129 -0.2354 -1.8496
  740TMC3    H210994   3.800   1.579  13.922  1.1734  0.6063  1.6799
  740TMC3    C710995   3.579   1.518  13.799  0.2139 -0.9919 -0.2529
  740TMC3    C810996   3.848   1.659  14.148 -0.1578 -0.0725 -1.0544
  740TMC3    O110997   3.473   1.459  13.782  0.3510  0.3356 -0.6042
  740TMC3    O210998   3.939   1.632  14.069  0.0812  0.6407 -0.6677
  741TMC3    C110999   3.495   0.897  14.441 -0.2580  0.6142 -0.6027
  741TMC3    C211000   3.361   0.860  14.458  0.2454 -0.6281 -1.0060
  741TMC3    C311001   3.329   0.803  14.580 -0.1233 -0.2173 -0.2421
  741TMC3    C411002   3.592   0.868  14.534  0.3878  0.3349  0.8089
  741TMC3    C511003   3.560   0.804  14.647  0.6705  0.3390  0.0323
  741TMC3    C611004   3.429   0.766  14.668 -0.0101 -0.2768 -0.1348
  741TMC3     C11005   3.543   0.945  14.318 -0.4740  0.0714  0.1700
  741TMC3     O11006   3.664   0.945  14.306  0.5903 -0.6470 -0.1925
  741TMC3     H11007   3.286   0.874  14.381  0.4126  0.5808 -0.9586
  741TMC3    H111008   3.694   0.897  14.514  0.7630 -1.2125  0.4772
  741TMC3    H211009   3.413   0.699  14.751 -0.7651 -0.3522 -0.3437
  741TMC3    C711010   3.660   0.744  14.727  0.7983  0.1325  0.2425
  741TMC3    C811011   3.199   0.736  14.586 -0.3014 -0.7092 -0.2994
  741TMC3    O111012   3.768   0.751  14.682  0.5876 -0.3313 -0.2825
  741TMC3    O211013   3.118   0.781  14.506 -0.1745  0.1138 -0.0053
  742TMC3    C111014   3.333   3.911  15.209  0.1606 -1.1303  0.4475
  742TMC3    C211015   3.267   3.933  15.092 -0.0320  0.9530 -0.1392
  742TMC3    C311016   3.306   3.858  14.986  0.1684 -0.2171 -0.4124
  742TMC3    C411017   3.448   3.832  15.220  0.1306 -0.4949 -0.1535
  742TMC3    C511018   3.490   3.769  15.105 -0.8526 -0.7056  0.8527
  742TMC3    C611019   3.415   3.777  14.987  0.5508  0.7274  0.2046
  742TMC3     C11020   3.282   3.979  15.323 -0.3623  0.3683  0.1813
  742TMC3     O11021   3.166   4.020  15.314 -0.2905 -0.2866 -0.2102
  742TMC3     H11022   3.164   3.966  15.095 -0.1281  0.6807 -0.4995
  742TMC3    H111023   3.490   3.810  15.317  0.1937 -1.3993 -0.3862
  742TMC3    H211024   3.446   3.707  14.910  0.4127  1.2297 -0.3046
  742TMC3    C711025   3.618   3.695  15.107  0.2068  0.0235 -0.2378
  742TMC3    C811026   3.233   3.865  14.857  0.3358  0.3203 -0.7931
  742TMC3    O111027   3.645   3.631  15.010  0.4896 -0.3435  0.0877
  742TMC3    O211028   3.264   3.781  14.771  0.0302 -0.2831  0.0858
  743MPD2     C11029   1.026   0.352   1.388  0.2886 -0.4397  0.2503
  743MPD2    C111030   1.061   0.288   1.273 -0.1276 -1.1071  0.0803
  743MPD2    C211031   1.189   0.306   1.226  0.4015 -0.2636  1.1249
  743MPD2    C311032   1.290   0.356   1.306 -0.4112  0.1689 -0.9367
  743MPD2    C411033   1.264   0.402   1.435 -0.4514  0.5016 -0.2565
  743MPD2    C511034   1.126   0.406   1.475  0.0847  0.3345 -0.2319
  743MPD2     H11035   1.214   0.264   1.130 -0.2803 -1.0386  1.2885
  743MPD2    H111036   1.328   0.453   1.506 -1.5787  0.8993  0.4774
  743MPD2    H211037   0.922   0.358   1.415  0.5394 -1.5868  1.5197
  743MPD2    H311038   1.102   0.458   1.567 -0.4318  1.6723 -1.1059
  743MPD2     N11039   1.419   0.357   1.247 -0.1000 -0.1870 -0.0851
  743MPD2    H511040   1.423   0.313   1.156 -2.7096 -2.7743  1.0671
  743MPD2    N111041   0.960   0.227   1.188  0.3744 -0.2975 -0.1530
  743MPD2    H711042   0.864   0.243   1.218  0.4269  0.2938 -0.2919
  744TMC3    C111043   0.882   0.130   0.994 -0.2608  0.1258 -0.4265
  744TMC3    C211044   0.795   0.234   0.979 -0.6593 -0.2314  0.4390
  744TMC3    C311045   0.707   0.228   0.872 -0.3721 -0.0540 -0.0973
  744TMC3    C411046   0.894   0.020   0.908 -0.5608  0.5059  0.1725
  744TMC3    C511047   0.812   0.025   0.793  0.2484  0.1852  0.4668
  744TMC3    C611048   0.719   0.130   0.775  0.5917  0.1281 -0.1083
  744TMC3     C11049   0.994   0.139   1.084  0.1177  0.1401 -0.4146
  744TMC3     O11050   1.099   0.089   1.045  0.3661  0.1920 -0.3964
  744TMC3     H11051   0.794   0.322   1.043 -0.9975 -0.4925  0.7890
  744TMC3    H111052   0.967   4.678   0.922  0.3145  1.2518 -0.2074
  744TMC3    H211053   0.650   0.131   0.691 -0.4604 -2.8112  0.7030
  744TMC3    C711054   0.850   4.680   0.676  0.3699  0.6047 -0.2945
  744TMC3    C811055   0.598   0.321   0.855  0.0281  0.0545 -0.0934
  744TMC3    O111056   0.788   4.696   0.569 -0.1132  0.2961  0.8170
  744TMC3    O211057   0.555   0.341   0.740 -0.2178  0.3166 -0.1752
  745TMC3    C111058   3.738   3.641  13.912 -0.6426  0.3421 -0.0013
  745TMC3    C211059   3.627   3.573  13.940  0.2988  0.0537  0.5059
  745TMC3    C311060   3.515   3.600  13.878  0.5673  0.1221 -0.3543
  745TMC3    C411061   3.755   3.724  13.809  0.1555  0.0626 -0.1297
  745TMC3    C511062   3.639   3.731  13.733 -0.3516  0.4585  0.8176
  745TMC3    C611063   3.513   3.674  13.762  0.9537  0.2180  0.6918
  745TMC3     C11064   3.829   3.650  14.023  0.4668  0.5828  0.1574
  745TMC3     O11065   3.821   3.567  14.114 -0.8846 -0.3897  0.1201
  745TMC3     H11066   3.631   3.496  14.016 -1.7931  0.4381  0.9921
  745TMC3    H111067   3.852   3.760  13.776  0.3648 -0.3487  0.0434
  745TMC3    H211068   3.420   3.678  13.708  0.5509 -0.0987  1.3666
  745TMC3    C711069   3.641   3.797  13.601  0.0429  0.8735  0.0751
  745TMC3    C811070   3.393   3.604  13.961 -0.1755 -0.4017 -0.0101
  745TMC3    O111071   3.544   3.789  13.526  0.4384  0.0642 -0.0112
  745TMC3    O211072   3.298   3.645  13.905  0.0619  0.4992  0.4983
  746TMC3    C111073   1.657   1.171  10.826 -0.2128  0.5262 -0.2007
  746TMC3    C211074   1.752   1.182  10.722 -0.2228 -0.3786 -0.7207
  746TMC3    C311075   1.740   1.096  10.615 -0.0475 -0.6202 -0.2466
  746TMC3    C411076   1.560   1.079  10.823 -0.3762  0.1294 -0.1844
  746TMC3    C511077   1.544   1.005  10.705 -0.1952  0.6235 -0.1551
  746TMC3    C611078   1.632   1.021  10.600  0.1302 -0.7040 -0.1098
  746TMC3     C11079   1.645   1.287  10.916  0.2194  0.1093  0.2396
  746TMC3     O11080   1.583   1.283  11.019 -0.5215 -0.9868  0.0765
  746TMC3     H11081   1.837   1.248  10.712 -0.9669  0.5743 -0.7829
  746TMC3    H111082   1.489   1.089  10.904 -0.2339  1.0854 -0.1795
  746TMC3    H211083   1.628   0.956  10.514  2.8113  0.9198 -1.4493
  746TMC3    C711084   1.413   0.961  10.669  0.3241 -0.0012  0.2079
  746TMC3    C811085   1.783   1.156  10.492  0.0596 -0.3178  0.6270
  746TMC3    O111086   1.388   0.927  10.553  0.4909 -0.4081 -0.5574
  746TMC3    O211087   1.897   1.200  10.477  0.4428  0.2048  0.5832
  747TMC3    C111088   3.955   1.118  11.096 -0.6134  0.0413 -0.0476
  747TMC3    C211089   3.841   1.078  11.155 -0.4876 -0.0527 -0.5244
  747TMC3    C311090   3.842   1.068  11.294 -0.1365 -0.5788  0.5778
  747TMC3    C411091   4.065   1.158  11.172  0.3255  0.2206  0.4608
  747TMC3    C511092   4.053   1.158  11.315  0.5955 -0.0035  0.3925
  747TMC3    C611093   3.943   1.108  11.375  0.0829  0.4071  0.1062
  747TMC3     C11094   3.965   1.151  10.955 -0.2007 -0.2891  0.2799
  747TMC3     O11095   4.063   1.211  10.916  0.5435 -0.2545  0.2866
  747TMC3     H11096   3.749   1.050  11.105 -2.0537 -0.4185  2.5375
  747TMC3    H111097   4.147   1.216  11.131 -0.8669  0.3630 -1.7059
  747TMC3    H211098   3.939   1.086  11.481  1.4071  0.4939  0.1728
  747TMC3    C711099   4.151   1.240  11.383  0.0371  0.1996 -0.2527
  747TMC3    C811100   3.723   1.007  11.339 -0.7204  0.3574  0.4114
  747TMC3    O111101   4.108   1.322  11.467  0.1951  0.0706  0.2821
  747TMC3    O211102   3.665   0.920  11.264 -0.8060 -0.1129  0.0954
  748MPD2     C11103   4.351   1.136   1.011 -0.4238 -0.3512  0.7577
  748MPD2    C111104   4.436   1.147   0.904  0.1892 -0.3246 -0.4525
  748MPD2    C211105   4.569   1.145   0.927  0.3585  0.1409 -0.0860
  748MPD2    C311106   4.630   1.153   1.057 -0.3467  0.4297 -0.4608
  748MPD2    C411107   4.548   1.156   1.159  0.1399 -0.0688  0.6054
  748MPD2    C511108   4.413   1.149   1.136  0.1409 -0.0745  0.2168
  748MPD2     H11109   4.634   1.150   0.841  0.8868  0.9723  0.3675
  748MPD2    H111110   4.587   1.131   1.257  2.5941  1.5407  0.0402
  748MPD2    H211111   4.243   1.128   1.011 -0.6021  2.2287 -1.0044
  748MPD2    H311112   4.361   1.144   1.231 -0.5403 -2.2174 -0.2482
  748MPD2     N11113   0.035   1.142   1.063  0.3652  0.5473  0.3979
  748MPD2    H511114   0.082   1.138   0.973  1.0192 -0.9226  0.8058
  748MPD2    N111115   4.378   1.136   0.771  0.1200 -0.3113 -0.1178
  748MPD2    H711116   4.278   1.119   0.763 -0.2376 -0.3057  4.1963
  749TMC3    C111117   0.255   1.140   1.147  0.0629  0.7022  0.3540
  749TMC3    C211118   0.332   1.079   1.244  0.5629 -0.3268  0.5326
  749TMC3    C311119   0.466   1.066   1.200 -0.2393  0.0546 -0.1412
  749TMC3    C411120   0.295   1.161   1.015 -0.4362 -0.5453 -0.2413
  749TMC3    C511121   0.421   1.125   0.983 -0.5526  0.7403 -0.0906
  749TMC3    C611122   0.513   1.075   1.074  0.2385 -0.3412  0.4667
  749TMC3     C11123   0.114   1.143   1.180  0.3920 -0.1209 -0.4568
  749TMC3     O11124   0.078   1.129   1.298  0.4354 -0.4433  0.0277
  749TMC3     H11125   0.295   1.068   1.345 -1.6496 -1.1397 -0.3483
  749TMC3    H111126   0.241   1.212   0.936 -0.3656 -1.0258 -0.5939
  749TMC3    H211127   0.618   1.087   1.048 -0.8654  2.3257 -2.7644
  749TMC3    C711128   0.463   1.159   0.846  0.0145  0.1918 -0.5262
  749TMC3    C811129   0.558   1.013   1.299  0.6085 -0.8404 -0.1428
  749TMC3    O111130   0.415   1.258   0.802  0.0460  0.3983  0.3392
  749TMC3    O211131   0.531   1.031   1.417  0.2998 -0.1671 -0.6152
  750MPD2     C11132   1.039   2.907  11.632  0.0533 -0.3077 -0.1117
  750MPD2    C111133   1.001   2.812  11.726  0.2065  0.2059  0.3892
  750MPD2    C211134   1.045   2.682  11.732 -0.9867  0.5641 -0.0344
  750MPD2    C311135   1.140   2.643  11.636  0.1927 -0.8116 -1.1271
  750MPD2    C411136   1.188   2.745  11.557 -0.1832 -0.1506  0.0864
  750MPD2    C511137   1.140   2.871  11.549 -0.7292  0.1258 -0.7273
  750MPD2     H11138   1.007   2.603  11.796  0.4266 -1.2047 -1.3747
  750MPD2    H111139   1.266   2.727  11.483 -0.1301  0.0358  0.0985
  750MPD2    H211140   1.003   3.009  11.635  0.8416 -0.0589  0.9953
  750MPD2    H311141   1.180   2.948  11.485 -0.0529  0.2384 -0.1736
  750MPD2     N11142   1.181   2.505  11.624  0.0731  0.0365 -0.3553
  750MPD2    H511143   1.255   2.486  11.558 -2.7526 -1.5365 -3.0989
  750MPD2    N111144   0.892   2.856  11.805  0.4819 -0.5550  0.1762
  750MPD2    H711145   0.861   2.952  11.795  1.2884 -0.0792  2.1963
  751TMC3    C111146   1.143   2.276  11.599  0.9594  0.3658  0.7121
  751TMC3    C211147   1.150   2.155  11.659 -0.6482 -0.0084  0.1035
  751TMC3    C311148   1.167   2.043  11.585 -0.3484  0.2224 -0.4911
  751TMC3    C411149   1.154   2.281  11.464  0.1456 -0.1509  0.6136
  751TMC3    C511150   1.168   2.166  11.393  0.2087  0.8706  0.4156
  751TMC3    C611151   1.176   2.050  11.452  0.4132  0.0839 -0.4925
  751TMC3     C11152   1.118   2.394  11.676  0.0864  0.7503  0.0346
  751TMC3     O11153   1.031   2.388  11.763  0.0660 -0.0204  0.3078
  751TMC3     H11154   1.125   2.155  11.765 -0.1741  0.1424  0.2154
  751TMC3    H111155   1.144   2.380  11.423  0.7476 -0.3359  0.0031
  751TMC3    H211156   1.200   1.963  11.393 -0.2705  0.3507 -1.1676
  751TMC3    C711157   1.159   2.172  11.246 -0.1216  0.1320  0.8061
  751TMC3    C811158   1.156   1.913  11.645 -0.0898  0.0079 -0.0024
  751TMC3    O111159   1.182   2.281  11.196  0.0974 -0.4904  0.0321
  751TMC3    O211160   1.185   1.900  11.764 -0.5847 -0.2839 -0.1452
  752TMC3    C111161   0.535   2.940  16.949 -0.2954 -0.2180  0.1157
  752TMC3    C211162   0.431   3.019  16.976  0.3553  0.0221 -0.1295
  752TMC3    C311163   0.458   3.118  17.065  0.7958 -0.0818 -0.5709
  752TMC3    C411164   0.658   2.947  17.011  0.0328 -0.0690 -0.5337
  752TMC3    C511165   0.687   3.054  17.084 -0.1774 -0.1341 -0.3543
  752TMC3    C611166   0.588   3.146  17.110  0.3088 -0.2597 -0.7331
  752TMC3     C11167   0.527   2.821  16.860  1.6533 -0.2400 -0.3898
  752TMC3     O11168   0.615   2.738  16.863 -0.3200  0.2482  0.4258
  752TMC3     H11169   0.331   3.012  16.935  0.7397  0.8015 -1.2220
  752TMC3    H111170   0.744   2.882  17.001  1.2856  1.3136  1.1801
  752TMC3    H211171   0.596   3.224  17.185 -0.9689 -1.7682  0.9549
  752TMC3    C711172   0.813   3.059  17.151  0.4651 -0.0653 -0.6052
  752TMC3    C811173   0.351   3.213  17.082 -0.5868  0.6982 -0.6578
  752TMC3    O111174   0.887   2.959  17.153  0.3592 -0.1744  0.3188
  752TMC3    O211175   0.253   3.213  17.010 -0.0455 -0.4286 -0.3264
  753TMC3    C111176   1.571   3.859  13.697 -0.3644  0.7404 -0.0178
  753TMC3    C211177   1.522   3.883  13.822 -0.6238 -0.1636  0.1446
  753TMC3    C311178   1.454   3.789  13.884 -0.3392  0.0477 -0.4203
  753TMC3    C411179   1.562   3.732  13.643  0.4811 -0.3538 -0.0374
  753TMC3    C511180   1.482   3.644  13.706 -0.7962  0.4408 -0.8780
  753TMC3    C611181   1.419   3.665  13.823  0.5588  0.4199  0.2503
  753TMC3     C11182   1.678   3.949  13.650 -0.4741  1.1946 -0.2443
  753TMC3     O11183   1.737   4.009  13.739 -0.0113 -0.4371  0.1946
  753TMC3     H11184   1.523   3.981  13.868 -0.0893  0.6148 -1.5389
  753TMC3    H111185   1.593   3.722  13.540  2.1995  3.8642  0.0595
  753TMC3    H211186   1.371   3.586  13.881  2.2889 -0.4401  0.5227
  753TMC3    C711187   1.478   3.505  13.655  0.1660 -0.5788 -0.7868
  753TMC3    C811188   1.442   3.794  14.033 -0.1757 -0.5704 -0.0952
  753TMC3    O111189   1.568   3.468  13.582  0.1832 -0.0820  0.1155
  753TMC3    O211190   1.346   3.747  14.089  0.5465 -0.9623 -0.0372
  754MPD2     C11191   0.916   2.398  13.697 -0.2735  0.3774  0.0052
  754MPD2    C111192   0.860   2.303  13.613  0.1790 -0.0516  0.4646
  754MPD2    C211193   0.941   2.236  13.528 -0.0153  0.6239  0.4726
  754MPD2    C311194   1.078   2.258  13.523  0.6852 -0.7221 -0.0049
  754MPD2    C411195   1.133   2.324  13.626  0.1333 -0.0203 -0.1880
  754MPD2    C511196   1.052   2.398  13.703 -0.0452 -0.2556  0.1251
  754MPD2     H11197   0.895   2.176  13.450 -0.0888  0.3326  0.7397
  754MPD2    H111198   1.239   2.331  13.647  0.9264 -2.8731 -3.1840
  754MPD2    H211199   0.867   2.468  13.764 -2.2897 -0.0793 -1.0126
  754MPD2    H311200   1.096   2.464  13.776  0.3084 -1.5210  1.0493
  754MPD2     N11201   1.162   2.200  13.417  0.5218 -0.4990 -0.0879
  754MPD2    H511202   1.263   2.205  13.428  0.4570 -1.3802  0.9240
  754MPD2    N111203   0.721   2.305  13.587  0.2728  0.4758 -0.6969
  754MPD2    H711204   0.664   2.363  13.649  0.6410  0.8381 -0.6981
  755MPD2     C11205   0.736   2.925  13.535 -0.2186  0.0788  0.2221
  755MPD2    C111206   0.640   2.828  13.493 -0.3616  0.7921 -0.3621
  755MPD2    C211207   0.689   2.723  13.421  0.5034 -0.2551  0.0465
  755MPD2    C311208   0.822   2.710  13.398  0.4402 -0.4589  0.4883
  755MPD2    C411209   0.917   2.790  13.448 -0.3796 -0.4581  0.1177
  755MPD2    C511210   0.874   2.902  13.520 -0.4225 -0.2688 -0.1832
  755MPD2     H11211   0.617   2.652  13.383  0.3376  0.0083 -0.1298
  755MPD2    H111212   1.023   2.776  13.430  0.2876  1.4826  2.6237
  755MPD2    H211213   0.697   3.017  13.577 -0.4450 -0.9301  2.2668
  755MPD2    H311214   0.936   2.987  13.546  0.7938 -1.3179  0.2919
  755MPD2     N11215   0.874   2.609  13.318 -0.5596  0.9380 -0.0330
  755MPD2    H511216   0.974   2.594  13.303 -0.1484  2.8400  0.8329
  755MPD2    N111217   0.501   2.842  13.506  0.0073  0.4201 -0.0474
  755MPD2    H711218   0.445   2.766  13.468 -0.7340 -0.2679  2.3873
  756MPD2     C11219   0.532   3.558   9.726  0.1460 -0.8494 -0.3069
  756MPD2    C111220   0.474   3.523   9.847  0.6544  0.1318 -1.0828
  756MPD2    C211221   0.330   3.528   9.848  0.1055 -0.0519 -0.8896
  756MPD2    C311222   0.261   3.541   9.724  0.0002  0.0036 -0.5415
  756MPD2    C411223   0.329   3.550   9.601  0.6273  0.6960  0.0775
  756MPD2    C511224   0.468   3.554   9.607  0.2720 -0.9835  0.2737
  756MPD2     H11225   0.277   3.524   9.943 -0.8872 -2.2589 -1.5146
  756MPD2    H111226   0.286   3.563   9.502  3.0150  0.6702 -0.9512
  756MPD2    H211227   0.640   3.568   9.717  0.0296 -0.0254 -0.7915
  756MPD2    H311228   0.528   3.573   9.519 -0.8668  1.8268  0.0764
  756MPD2     N11229   0.118   3.562   9.720  0.5275 -0.3244  0.1321
  756MPD2    H511230   0.076   3.543   9.811 -1.8842 -1.3254 -1.1721
  756MPD2    N111231   0.548   3.493   9.959  0.6232  0.1422 -0.5196
  756MPD2    H711232   0.491   3.458  10.036  0.8598 -0.0420 -0.4296
  757MPD2     C11233   4.311   3.123  10.133  0.5464  0.1514 -0.3120
  757MPD2    C111234   4.367   3.095  10.009 -0.3552  0.7529  0.0327
  757MPD2    C211235   4.407   3.196   9.924  0.4800 -0.3552 -0.8282
  757MPD2    C311236   4.368   3.326   9.960 -0.1384 -0.1552  0.3906
  757MPD2    C411237   4.292   3.351  10.075  1.1882 -0.3226  0.4646
  757MPD2    C511238   4.280   3.250  10.168  0.8919  0.5570  0.0041
  757MPD2     H11239   4.480   3.176   9.846  1.3677  3.0393 -0.8423
  757MPD2    H111240   4.249   3.447  10.099 -0.1632 -0.5507 -1.0314
  757MPD2    H211241   4.286   3.043  10.202 -2.1565  0.3545 -1.0524
  757MPD2    H311242   4.239   3.272  10.266  2.2098  0.4901  0.5659
  757MPD2     N11243   4.423   3.433   9.884 -0.0585  0.7387  0.1747
  757MPD2    H511244   4.485   3.405   9.809 -0.5809  0.6753 -0.2303
  757MPD2    N111245   4.405   2.960   9.989 -0.7349 -0.5604 -0.4587
  757MPD2    H711246   4.368   2.891  10.053  1.3409 -0.3859  0.9488
  758MPD2     C11247   1.345   2.147  15.464  0.3427  0.1483 -0.1514
  758MPD2    C111248   1.342   2.022  15.537 -0.5216  0.1613  0.3317
  758MPD2    C211249   1.248   2.010  15.641 -0.7070 -0.0251 -0.0639
  758MPD2    C311250   1.154   2.112  15.669  0.0571  0.0470  0.0158
  758MPD2    C411251   1.171   2.231  15.597 -0.3701 -0.3632  0.4578
  758MPD2    C511252   1.256   2.252  15.495 -0.0150  0.5204  0.2343
  758MPD2     H11253   1.235   1.912  15.686 -0.6785 -1.3266 -2.9102
  758MPD2    H111254   1.108   2.318  15.614 -0.8287 -0.6842  0.4105
  758MPD2    H211255   1.409   2.173  15.381 -0.4498  1.6201 -0.3131
  758MPD2    H311256   1.259   2.342  15.436  1.2302  2.1211  2.7181
  758MPD2     N11257   1.062   2.106  15.773  0.8188  0.0566 -0.7032
  758MPD2    H511258   0.994   2.178  15.794 -0.7467 -1.7746  0.4444
  758MPD2    N111259   1.422   1.913  15.496 -0.1870  0.1692 -0.5839
  758MPD2    H711260   1.485   1.929  15.418 -0.3074 -0.1974 -0.7542
  759MPD2     C11261   4.387   0.113  10.647 -0.3822  0.1368  0.1089
  759MPD2    C111262   4.264   0.144  10.592  1.0335 -0.3113  0.8550
  759MPD2    C211263   4.262   0.224  10.480  0.0968  0.1950 -0.3018
  759MPD2    C311264   4.379   0.266  10.416  0.0690  0.7476  0.6380
  759MPD2    C411265   4.497   0.224  10.471  0.3503  0.6020 -0.0138
  759MPD2    C511266   4.502   0.158  10.592 -0.2225  0.0094 -0.7192
  759MPD2     H11267   4.169   0.251  10.432  0.8761  1.6916 -0.9634
  759MPD2    H111268   4.590   0.252  10.422  0.1772 -0.0200 -0.6953
  759MPD2    H211269   4.391   0.051  10.735 -2.1599  0.5679  0.4815
  759MPD2    H311270   4.597   0.142  10.642  0.1439 -0.1248 -1.4554
  759MPD2     N11271   4.367   0.342  10.295  0.1204  0.3388 -0.3940
  759MPD2    H511272   4.272   0.368  10.271 -0.0718 -0.8790 -0.9371
  759MPD2    N111273   4.155   0.080  10.654  0.4170 -0.2216 -0.4985
  759MPD2    H711274   4.172   0.029  10.740  1.4469 -1.3699 -1.3782
  760MPD2     C11275   4.381   2.631  12.092  0.4937 -0.0074 -0.2357
  760MPD2    C111276   4.409   2.718  11.995 -0.5418 -0.5029 -0.2822
  760MPD2    C211277   4.471   2.671  11.883 -0.3997  0.8874  0.0119
  760MPD2    C311278   4.508   2.542  11.871 -0.6097 -0.5883  0.6342
  760MPD2    C411279   4.479   2.455  11.969  0.3645 -0.0432 -0.5162
  760MPD2    C511280   4.416   2.501  12.081  0.2772  0.5356 -0.1962
  760MPD2     H11281   4.505   2.734  11.801  0.8020 -1.4246 -1.2476
  760MPD2    H111282   4.503   2.351  11.954  1.2452  0.2584 -1.1650
  760MPD2    H211283   4.326   2.666  12.180  2.1576 -0.8457  1.1377
  760MPD2    H311284   4.384   2.426  12.153 -2.9132 -0.6606 -2.8715
  760MPD2     N11285   4.569   2.483  11.756  0.6905 -0.0962  0.0612
  760MPD2    H511286   4.578   2.382  11.760  0.6091 -0.3065 -4.1777
  760MPD2    N111287   4.383   2.849  12.025  0.1753 -0.2527 -0.3881
  760MPD2    H711288   4.351   2.867  12.120 -1.6271 -0.7296 -0.9103
  761MPD2     C11289   1.095   1.407  11.580  0.2332 -0.1141  0.1381
  761MPD2    C111290   1.048   1.475  11.469  0.5254 -0.1208 -0.2535
  761MPD2    C211291   1.056   1.614  11.464  0.2587 -0.0143 -0.5571
  761MPD2    C311292   1.106   1.683  11.577  0.3303  0.5816  0.7526
  761MPD2    C411293   1.139   1.618  11.693 -0.8151 -0.3195  0.0874
  761MPD2    C511294   1.144   1.479  11.688 -0.3320  0.1917  0.6436
  761MPD2     H11295   1.019   1.679  11.386 -3.2455 -0.2989  0.8790
  761MPD2    H111296   1.173   1.669  11.782 -3.5878  0.5422  0.6599
  761MPD2    H211297   1.083   1.300  11.583 -0.9412 -0.0553 -1.8978
  761MPD2    H311298   1.181   1.420  11.771 -1.2589 -2.6112 -0.9152
  761MPD2     N11299   1.115   1.823  11.553 -0.2325 -0.0881 -1.0477
  761MPD2    H511300   1.096   1.847  11.456 -0.6346 -0.0577 -0.9649
  761MPD2    N111301   0.987   1.399  11.359  0.3228 -0.2086 -0.4875
  761MPD2    H711302   0.980   1.298  11.366 -0.3332 -0.1623 -0.5275
  762MPD2     C11303   0.717   1.285  10.476  0.0188 -0.4437  0.1718
  762MPD2    C111304   0.808   1.368  10.545 -0.0352  0.3686 -0.1043
  762MPD2    C211305   0.891   1.447  10.468 -0.5314 -0.4357 -0.2324
  762MPD2    C311306   0.883   1.451  10.331  0.2414  0.1875 -0.0184
  762MPD2    C411307   0.803   1.361  10.268  0.2584 -0.3254  0.4821
  762MPD2    C511308   0.713   1.288  10.340 -0.8298  0.1840 -0.0591
  762MPD2     H11309   0.973   1.495  10.519  0.4302 -1.3701 -0.9028
  762MPD2    H111310   0.812   1.343  10.161 -1.8010  2.6703 -0.2054
  762MPD2    H211311   0.651   1.210  10.518 -0.4121  0.4797  1.1666
  762MPD2    H311312   0.643   1.223  10.290  0.6793 -1.4949  0.0245
  762MPD2     N11313   0.967   1.526  10.252  0.0205 -0.1197 -0.1384
  762MPD2    H511314   0.987   1.498  10.157  2.1209  1.9282 -0.3018
  762MPD2    N111315   0.807   1.361  10.684 -0.8240 -0.4181 -0.7576
  762MPD2    H711316   0.745   1.287  10.716 -0.3690 -0.3218  0.3209
  763MPD2     C11317   2.838   2.114  16.044  0.5188 -0.7047  0.4397
  763MPD2    C111318   2.735   2.193  16.013 -0.3379 -0.5963 -0.4792
  763MPD2    C211319   2.719   2.322  16.069 -0.0678 -0.8396 -0.6639
  763MPD2    C311320   2.822   2.373  16.142  0.0790  0.9029 -0.2052
  763MPD2    C411321   2.929   2.290  16.163 -0.1630  0.5148  0.5854
  763MPD2    C511322   2.932   2.161  16.132 -0.4044 -0.9891 -0.4267
  763MPD2     H11323   2.629   2.379  16.052 -0.5887 -1.8021 -1.0952
  763MPD2    H111324   3.015   2.323  16.220  1.4765 -1.8277 -0.5478
  763MPD2    H211325   2.850   2.016  15.999 -1.8784 -1.6421  1.8717
  763MPD2    H311326   3.013   2.092  16.150  0.9537  0.4848 -0.9031
  763MPD2     N11327   2.837   2.510  16.174  0.6452  0.2265  0.0070
  763MPD2    H511328   2.931   2.549  16.176  0.6142  0.2502  1.0807
  763MPD2    N111329   2.629   2.157  15.919  0.4093  0.3494  0.3188
  763MPD2    H711330   2.567   2.228  15.884  0.4422  0.1906 -0.0691
  764MPD2     C11331   0.871   3.333   0.023  0.3475  0.2995  0.4197
  764MPD2    C111332   0.832   3.316  17.632 -0.3664 -0.1357 -0.2432
  764MPD2    C211333   0.829   3.196  17.578  0.2468 -0.4140  0.6381
  764MPD2    C311334   0.889   3.089  17.638  0.1437  1.0475 -0.2098
  764MPD2    C411335   0.936   3.103   0.027  0.0122 -0.5195  0.3875
  764MPD2    C511336   0.926   3.225   0.084 -0.4168  0.3277 -0.0080
  764MPD2     H11337   0.791   3.178  17.478 -1.9086  1.6926  1.0752
  764MPD2    H111338   0.979   3.023   0.086  2.6237  1.4651  1.1612
  764MPD2    H211339   0.857   3.428   0.074 -1.1807  0.1406  0.3001
  764MPD2    H311340   0.967   3.249   0.182 -3.2038  0.3075  1.1721
  764MPD2     N11341   0.888   2.963  17.575  1.2041  0.5198 -0.8273
  764MPD2    H511342   0.853   2.970  17.480 -1.0515 -0.9623 -0.1083
  764MPD2    N111343   0.764   3.418  17.564 -0.0004 -0.1234  0.1337
  764MPD2    H711344   0.755   3.401  17.464 -1.7832 -1.6567  0.5520
  765MPD2     C11345   1.228   1.782  15.092 -0.1059  0.2035 -0.6763
  765MPD2    C111346   1.202   1.728  15.218  0.0773  0.7090 -0.3089
  765MPD2    C211347   1.276   1.621  15.252  0.0883 -0.4041 -0.0286
  765MPD2    C311348   1.370   1.562  15.171 -0.8115 -0.3830 -0.1004
  765MPD2    C411349   1.386   1.607  15.043 -0.3600  0.1581  0.2733
  765MPD2    C511350   1.306   1.718  15.002  0.5591  0.7255 -0.7917
  765MPD2     H11351   1.255   1.573  15.347  3.1833 -1.0695  0.3340
  765MPD2    H111352   1.464   1.571  14.976 -2.5012  0.2725 -2.3034
  765MPD2    H211353   1.178   1.874  15.062  2.2278  1.0644 -1.9894
  765MPD2    H311354   1.306   1.753  14.900  1.9087  4.1540  0.4136
  765MPD2     N11355   1.456   1.459  15.218  0.0490 -0.4505  0.4908
  765MPD2    H511356   1.519   1.410  15.155  0.0341 -1.2752  1.1115
  765MPD2    N111357   1.109   1.781  15.306 -0.2036 -0.1542  0.0747
  765MPD2    H711358   1.071   1.868  15.272  0.7467  0.8491  1.5661
  766MPD2     C11359   0.348   1.616  15.345  0.0801 -0.0598  0.4070
  766MPD2    C111360   0.475   1.631  15.299 -0.3204 -0.3746  0.6652
  766MPD2    C211361   0.505   1.599  15.173  0.6291  0.1698  0.1112
  766MPD2    C311362   0.413   1.559  15.081 -0.0312  0.0430 -0.1688
  766MPD2    C411363   0.281   1.549  15.123 -0.5826  0.2936 -0.5213
  766MPD2    C511364   0.253   1.577  15.255 -0.6591 -0.1061 -0.3352
  766MPD2     H11365   0.608   1.617  15.144  0.4003  0.6645 -0.3911
  766MPD2    H111366   0.196   1.521  15.062  0.3396 -0.4249 -1.4598
  766MPD2    H211367   0.317   1.653  15.442  1.2378  0.1372  0.7079
  766MPD2    H311368   0.150   1.567  15.289  0.0700  1.1612  2.2453
  766MPD2     N11369   0.437   1.546  14.941  0.0211  0.5454  0.3091
  766MPD2    H511370   0.365   1.505  14.882  2.4047  0.1061 -2.3242
  766MPD2    N111371   0.580   1.692  15.372  0.4541  0.1640  0.1585
  766MPD2    H711372   0.672   1.693  15.329  0.1602  0.8329 -0.4548
  767MPD2     C11373   4.682   1.794  15.032 -0.3738  0.1275 -0.0189
  767MPD2    C111374   0.073   1.808  14.969  0.0908 -0.5316  0.0870
  767MPD2    C211375   0.082   1.737  14.853 -0.2433  0.0670 -1.0550
  767MPD2    C311376   4.718   1.671  14.787  0.1844  0.2627 -0.0373
  767MPD2    C411377   4.599   1.655  14.853 -0.2217  0.0329  0.1629
  767MPD2    C511378   4.583   1.714  14.979 -0.0006 -0.4057 -0.4684
  767MPD2     H11379   0.169   1.738  14.788  1.9905 -2.5083  1.9054
  767MPD2    H111380   4.515   1.593  14.822 -1.3200  1.2520  0.7088
  767MPD2    H211381   4.655   1.849  15.122  0.7236 -2.2886  1.8081
  767MPD2    H311382   4.487   1.710  15.029  0.4243  0.0224  0.3875
  767MPD2     N11383   0.005   1.628  14.654  0.2220  0.3444 -0.6119
  767MPD2    H511384   0.095   1.651  14.613  0.1695  0.2778 -0.7628
  767MPD2    N111385   0.178   1.887  15.031  0.3559  0.4467  0.6753
  767MPD2    H711386   0.157   1.913  15.127 -0.5540 -0.1344  0.6403
  768MPD2     C11387   0.531   0.256  10.559  0.6715  0.0347 -0.0689
  768MPD2    C111388   0.644   0.339  10.571 -0.5711  0.4972  1.0354
  768MPD2    C211389   0.747   0.308  10.659 -0.7700 -0.3218 -0.2188
  768MPD2    C311390   0.744   0.188  10.724 -0.0303  0.0378  0.0636
  768MPD2    C411391   0.630   0.103  10.716  0.1391 -0.1643 -0.4370
  768MPD2    C511392   0.532   0.139  10.632  0.5676  0.1628  0.4549
  768MPD2     H11393   0.831   0.376  10.663 -0.7123 -0.2323 -2.9524
  768MPD2    H111394   0.616   0.010  10.770  1.9549 -2.3866 -3.7734
  768MPD2    H211395   0.463   0.266  10.475 -0.0874  1.3769  0.6977
  768MPD2    H311396   0.447   0.076  10.610  1.0857 -0.6742  0.8439
  768MPD2     N11397   0.845   0.144  10.812 -0.6277  0.3404  0.0176
  768MPD2    H511398   0.827   0.058  10.862  1.4105  0.7227  1.3902
  768MPD2    N111399   0.670   0.453  10.496 -0.0389  0.1009  0.1949
  768MPD2    H711400   0.757   0.501  10.514 -0.4342  0.9625 -0.1887
  769MPD2     C11401   2.068   3.152  14.742 -0.6085  0.6955  0.3168
  769MPD2    C111402   1.956   3.135  14.816  0.5206  0.1591 -0.0160
  769MPD2    C211403   1.965   3.103  14.953  0.4056 -0.7755 -0.8479
  769MPD2    C311404   2.090   3.088  15.006  0.7593  0.4197  0.1783
  769MPD2    C411405   2.204   3.096  14.925 -0.2418  0.0986 -0.2807
  769MPD2    C511406   2.192   3.133  14.795 -0.5744  0.3143  0.7955
  769MPD2     H11407   1.881   3.108  15.022  0.1303  0.8780 -1.3009
  769MPD2    H111408   2.305   3.091  14.965 -0.3292  1.4265  0.1250
  769MPD2    H211409   2.058   3.177  14.637 -2.5867 -0.6319  0.1843
  769MPD2    H311410   2.275   3.169  14.735 -0.6682 -1.0629 -0.1634
  769MPD2     N11411   2.101   3.058  15.147  0.1416  0.4742 -0.4598
  769MPD2    H511412   2.015   3.059  15.201  0.5221  2.6803  0.1003
  769MPD2    N111413   1.832   3.166  14.759 -0.2211  1.1943 -0.0059
  769MPD2    H711414   1.832   3.201  14.663  1.6273 -1.3010 -0.9288
  770MPD2     C11415   1.150   2.669  14.793  0.0529 -0.1767 -0.1315
  770MPD2    C111416   1.283   2.679  14.762  0.6506 -0.8508  0.0963
  770MPD2    C211417   1.347   2.801  14.784  0.2594 -0.0046  0.7351
  770MPD2    C311418   1.268   2.915  14.805 -0.3510  0.1458 -0.7923
  770MPD2    C411419   1.132   2.902  14.821 -0.0993 -0.1050  0.3306
  770MPD2    C511420   1.073   2.781  14.816 -0.1592  0.3876 -0.5889
  770MPD2     H11421   1.454   2.817  14.787  0.4719 -1.5395  1.5265
  770MPD2    H111422   1.067   2.983  14.852  3.0613  1.8840  1.8305
  770MPD2    H211423   1.091   2.578  14.784  0.4325 -0.2221 -2.1583
  770MPD2    H311424   0.966   2.772  14.829 -0.3160  0.6846 -1.6942
  770MPD2     N11425   1.331   3.045  14.811  0.8845  0.1787 -0.1388
  770MPD2    H511426   1.432   3.053  14.817  0.8886 -1.0058  1.2357
  770MPD2    N111427   1.345   2.557  14.740  0.5170 -0.0605 -0.6414
  770MPD2    H711428   1.279   2.482  14.757 -1.1111  1.2916 -1.0436
  771MPD2     C11429   2.744   0.758  13.348  0.6396  0.6218  1.0933
  771MPD2    C111430   2.740   0.792  13.210 -0.5136  0.2494 -0.1548
  771MPD2    C211431   2.788   0.706  13.111  0.5683 -0.2094 -0.3637
  771MPD2    C311432   2.818   0.576  13.141  0.6613 -0.6232  0.4171
  771MPD2    C411433   2.816   0.543  13.278  0.3653  1.0705  0.5142
  771MPD2    C511434   2.789   0.636  13.374 -0.5488 -0.6999  0.0814
  771MPD2     H11435   2.775   0.730  13.006  2.0323 -0.8222 -0.6867
  771MPD2    H111436   2.853   0.446  13.309 -1.5550 -0.1156 -0.9318
  771MPD2    H211437   2.717   0.824  13.429  1.3216 -0.5477  2.2721
  771MPD2    H311438   2.810   0.617  13.479 -1.3171  0.5303  0.4597
  771MPD2     N11439   2.840   0.485  13.036  0.4724 -0.0821  0.0264
  771MPD2    H511440   2.841   0.528  12.944 -3.3922  0.5548  0.2528
  771MPD2    N111441   2.711   0.926  13.172 -0.4952 -0.4895  0.2762
  771MPD2    H711442   2.745   0.942  13.077 -1.5174 -0.4995 -0.0905
  772MPD2     C11443   2.241   1.616  13.362 -0.0188 -0.1797  0.4359
  772MPD2    C111444   2.235   1.480  13.348  0.1498  0.2169 -0.3366
  772MPD2    C211445   2.118   1.417  13.378 -0.0507  0.6209 -0.6005
  772MPD2    C311446   2.004   1.489  13.413  0.2765 -0.4296  0.2933
  772MPD2    C411447   2.009   1.628  13.426  0.8876 -0.7026  0.2078
  772MPD2    C511448   2.132   1.687  13.402 -0.3522  0.2304 -0.1519
  772MPD2     H11449   2.109   1.309  13.381 -0.5879  0.7240  2.2865
  772MPD2    H111450   1.930   1.693  13.461  1.7006 -0.5396  1.7606
  772MPD2    H211451   2.331   1.673  13.341  0.1084 -0.7240 -0.4879
  772MPD2    H311452   2.143   1.794  13.418  2.2365 -0.0749  0.1517
  772MPD2     N11453   1.872   1.434  13.440  0.4248  0.1062 -0.0137
  772MPD2    H511454   1.795   1.499  13.449  0.3467  0.1864 -1.3759
  772MPD2    N111455   2.348   1.410  13.300 -0.3812  0.4525  0.1632
  772MPD2    H711456   2.336   1.309  13.302 -3.1902  0.8136  0.6748
  773MPD2     C11457   1.224   1.887   0.226 -0.1226 -0.2892  0.1973
  773MPD2    C111458   1.241   1.858   0.095 -0.3304 -0.3993  0.7338
  773MPD2    C211459   1.338   1.763   0.066  0.9166 -1.0641  0.0804
  773MPD2    C311460   1.415   1.710   0.166  0.1414 -0.3387  0.0731
  773MPD2    C411461   1.397   1.745   0.299 -0.1714 -0.4664  0.5840
  773MPD2    C511462   1.300   1.838   0.328 -0.4552 -0.0257  0.2424
  773MPD2     H11463   1.352   1.745  17.704 -0.9025  1.5710 -0.6207
  773MPD2    H111464   1.437   1.693   0.386 -0.5623 -0.9353  0.4835
  773MPD2    H211465   1.147   1.955   0.260 -0.5659 -0.9771  0.5597
  773MPD2    H311466   1.285   1.876   0.429 -0.2264  0.2492  0.1736
  773MPD2     N11467   1.508   1.609   0.125 -0.3428 -0.6832  0.7382
  773MPD2    H511468   1.511   1.595   0.025  0.5878 -0.0360  0.6767
  773MPD2    N111469   1.166   1.924  17.738  0.4041 -0.1266  0.1457
  773MPD2    H711470   1.170   1.890  17.642  1.7861  0.0193  0.1596
  774MPD2     C11471   0.154   1.525  13.681 -0.1931 -0.4346 -0.1091
  774MPD2    C111472   0.289   1.551  13.692  0.3196 -0.1587  0.3118
  774MPD2    C211473   0.331   1.678  13.654 -0.3257  0.0188  0.6375
  774MPD2    C311474   0.246   1.770  13.596 -0.5460  0.8161 -0.1094
  774MPD2    C411475   0.115   1.730  13.567  0.2176  0.0170 -0.3625
  774MPD2    C511476   0.078   1.606  13.603  0.7810 -0.2090  0.4896
  774MPD2     H11477   0.431   1.706  13.684 -0.2177 -0.2985  0.5719
  774MPD2    H111478   0.045   1.796  13.516 -0.4249 -0.7816 -0.5131
  774MPD2    H211479   0.102   1.432  13.697  1.0824 -1.0086  0.7023
  774MPD2    H311480   4.719   1.568  13.570  0.6948  0.0158  0.4817
  774MPD2     N11481   0.295   1.907  13.582 -0.9475  0.1439  0.0164
  774MPD2    H511482   0.395   1.924  13.578 -0.9352 -0.3661 -1.8630
  774MPD2    N111483   0.372   1.458  13.751 -0.2088  0.0422  0.1555
  774MPD2    H711484   0.339   1.365  13.773  0.3087 -0.0727  0.4358
  775MPD2     C11485   2.246   2.729  15.640  0.8277 -0.1981 -0.5195
  775MPD2    C111486   2.254   2.844  15.709 -0.5338 -0.3379  0.4602
  775MPD2    C211487   2.354   2.937  15.681  0.0833 -0.5819 -0.3599
  775MPD2    C311488   2.451   2.908  15.584 -0.3800 -0.2475  0.8197
  775MPD2    C411489   2.452   2.787  15.520 -0.5239  0.0029  0.7237
  775MPD2    C511490   2.350   2.696  15.552  0.1342  0.0841 -0.1662
  775MPD2     H11491   2.343   3.039  15.717  2.8501 -0.2100 -0.5363
  775MPD2    H111492   2.534   2.769  15.451 -1.3196 -1.1047  0.0675
  775MPD2    H211493   2.158   2.667  15.655  0.8299 -0.2110 -0.5602
  775MPD2    H311494   2.351   2.602  15.499  1.3780 -0.9046  1.5761
  775MPD2     N11495   2.563   2.999  15.566 -0.3896 -0.8848  0.3009
  775MPD2    H511496   2.629   2.973  15.493 -0.3543  1.9630 -0.7050
  775MPD2    N111497   2.150   2.867  15.805 -0.4140 -0.2519 -0.3666
  775MPD2    H711498   2.069   2.806  15.813  0.1767 -1.1119 -0.9709
  776MPD2     C11499   0.200   3.082  11.562 -0.3106 -0.6942  0.0994
  776MPD2    C111500   0.309   3.134  11.629 -0.4207 -0.1854 -0.8436
  776MPD2    C211501   0.371   3.250  11.595  0.3114 -0.1201 -0.5833
  776MPD2    C311502   0.327   3.311  11.482 -0.2060  0.3336  0.2280
  776MPD2    C411503   0.225   3.256  11.409 -0.3384  0.6394  0.3485
  776MPD2    C511504   0.168   3.139  11.444  0.0796 -0.6569 -0.1482
  776MPD2     H11505   0.454   3.296  11.646 -0.8765  1.8211 -0.3763
  776MPD2    H111506   0.211   3.293  11.308 -0.7213 -0.4872 -0.0112
  776MPD2    H211507   0.153   2.993  11.601 -0.5816 -0.3370  0.5917
  776MPD2    H311508   0.085   3.099  11.386  1.4370 -2.7106 -0.6441
  776MPD2     N11509   0.400   3.413  11.417  0.0860 -0.0996  0.2490
  776MPD2    H511510   0.363   3.446  11.329  1.0006  1.9250  0.6367
  776MPD2    N111511   0.347   3.049  11.730  0.0580  0.0454  0.1603
  776MPD2    H711512   0.301   2.959  11.736 -1.8325  0.8299 -2.8420
  777MPD2     C11513   1.064   0.659   0.400 -0.1349 -0.3247 -0.3746
  777MPD2    C111514   1.164   0.602   0.471  0.4483  0.0784 -0.4459
  777MPD2    C211515   1.241   0.496   0.417 -0.4121  0.1914  0.2354
  777MPD2    C311516   1.212   0.450   0.291 -1.0291 -0.9295 -0.3830
  777MPD2    C411517   1.115   0.513   0.215  0.1281 -0.1208  1.0710
  777MPD2    C511518   1.038   0.614   0.275 -0.3785  0.5403 -0.2750
  777MPD2     H11519   1.323   0.449   0.470  0.0980  0.7941 -0.0180
  777MPD2    H111520   1.082   0.475   0.119 -2.5841  0.3103  1.8404
  777MPD2    H211521   0.998   0.719   0.460  0.3793 -0.3070  0.1676
  777MPD2    H311522   0.953   0.656   0.222  0.4699 -0.0975 -2.1386
  777MPD2     N11523   1.288   0.338   0.238 -0.0552  0.3981  0.0985
  777MPD2    H511524   1.343   0.280   0.301 -0.6606 -0.4141 -0.1236
  777MPD2    N111525   1.192   0.665   0.594  0.2569 -0.0135 -0.0295
  777MPD2    H711526   1.126   0.738   0.619 -0.2902  0.4583 -2.8394
  778MPD2     C11527   2.795   1.429  14.754  0.0461 -0.3213  0.7637
  778MPD2    C111528   2.832   1.309  14.708  0.5937  0.2173  0.4216
  778MPD2    C211529   2.923   1.301  14.604  0.1134  0.2217 -0.6431
  778MPD2    C311530   2.948   1.414  14.531  0.7522  0.8338  0.5960
  778MPD2    C411531   2.899   1.540  14.569  1.0582  0.2468 -0.2298
  778MPD2    C511532   2.830   1.542  14.692  0.1003  0.0956 -0.1014
  778MPD2     H11533   2.965   1.209  14.563 -2.2076 -0.6522 -1.0228
  778MPD2    H111534   2.921   1.636  14.524 -1.7905  0.3032 -1.4563
  778MPD2    H211535   2.726   1.437  14.837 -0.2517  0.0146  0.4881
  778MPD2    H311536   2.788   1.637  14.725 -1.8847 -1.5936  2.1646
  778MPD2     N11537   3.013   1.397  14.402 -0.5534  0.3193  0.2035
  778MPD2    H511538   3.067   1.314  14.383  1.7315  2.0049 -0.7629
  778MPD2    N111539   2.775   1.188  14.759  0.1708  0.1862 -0.3875
  778MPD2    H711540   2.807   1.103  14.713 -2.6155 -0.3809 -1.2914
  779MPD2     C11541   2.490   4.360  13.912  0.2557 -0.1054  0.0695
  779MPD2    C111542   2.465   4.420  14.040  0.1610  0.0984  0.3292
  779MPD2    C211543   2.495   4.556  14.061  0.3566  0.8737  0.5464
  779MPD2    C311544   2.525   4.635  13.957  0.7724 -0.0110 -0.0619
  779MPD2    C411545   2.534   4.577  13.833  0.2972  0.0909 -0.1900
  779MPD2    C511546   2.521   4.445  13.808  0.4671 -0.4634 -0.2782
  779MPD2     H11547   2.493   4.595  14.161 -0.6491 -0.1033  0.9127
  779MPD2    H111548   2.576   4.639  13.755  0.6814 -1.3515 -1.1284
  779MPD2    H211549   2.474   4.255  13.893  0.8634 -0.0936 -0.4924
  779MPD2    H311550   2.533   4.403  13.709  2.4974 -1.1653  0.2642
  779MPD2     N11551   2.579   0.030  13.972  0.2687 -0.5472 -0.2098
  779MPD2    H511552   2.600   0.081  13.886  0.4719 -0.8066 -0.3147
  779MPD2    N111553   2.409   4.337  14.142  0.4374  0.2763  0.1650
  779MPD2    H711554   2.385   4.381  14.230 -0.9088  1.2187 -0.6896
  780MPD2     C11555   2.331   4.301   0.867 -0.4997 -0.5456  0.2738
  780MPD2    C111556   2.349   4.268   0.735  0.2539 -0.4596 -0.2095
  780MPD2    C211557   2.347   4.370   0.642 -0.1699  1.1146  0.3202
  780MPD2    C311558   2.343   4.503   0.679  0.1140  0.5649  0.5322
  780MPD2    C411559   2.335   4.536   0.812  0.3616 -0.4104  0.9036
  780MPD2    C511560   2.322   4.438   0.903  0.6394 -0.1316 -0.5096
  780MPD2     H11561   2.347   4.358   0.534  0.5954 -0.9118  0.5380
  780MPD2    H111562   2.341   4.641   0.840  0.3277 -0.2190  0.1954
  780MPD2    H211563   2.336   4.218   0.936 -1.9180 -1.4698 -0.7219
  780MPD2    H311564   2.328   4.451   1.011 -1.7301  0.8168 -0.4839
  780MPD2     N11565   2.340   4.597   0.570 -0.4902 -0.3373  0.4611
  780MPD2    H511566   2.345   4.555   0.478 -1.6396  0.8744 -0.1477
  780MPD2    N111567   2.360   4.129   0.695  0.2821 -0.0633 -0.6425
  780MPD2    H711568   2.322   4.065   0.763 -2.5180 -0.0825 -2.2275
  781MPD2     C11569   3.646   2.132  11.901 -0.2874 -0.5203  0.0273
  781MPD2    C111570   3.732   2.019  11.908  0.4234 -0.0897 -0.2240
  781MPD2    C211571   3.847   2.009  11.830 -0.0318 -0.4817 -0.4537
  781MPD2    C311572   3.882   2.121  11.755  0.0949  0.6180  0.5085
  781MPD2    C411573   3.813   2.234  11.770  0.0111 -0.0765  0.2280
  781MPD2    C511574   3.691   2.239  11.834  0.3965 -0.1233  0.5167
  781MPD2     H11575   3.911   1.924  11.851 -2.9644 -1.9739  2.5486
  781MPD2    H111576   3.843   2.328  11.726  0.3194 -0.3139 -0.0745
  781MPD2    H211577   3.549   2.138  11.949 -1.2515  1.1762 -2.1490
  781MPD2    H311578   3.641   2.335  11.826  0.0780 -0.3337 -0.0260
  781MPD2     N11579   4.001   2.121  11.677 -0.7358 -0.0455  0.2097
  781MPD2    H511580   4.034   2.209  11.637 -1.7296  2.0323  3.9365
  781MPD2    N111581   3.699   1.915  11.996 -0.4048  0.1207 -0.0509
  781MPD2    H711582   3.770   1.843  12.007 -0.4696 -0.0748 -0.8704
  782MPD2     C11583   0.919   2.718  10.329 -0.2840 -0.2167 -0.5850
  782MPD2    C111584   1.038   2.699  10.395 -0.4484 -0.0290 -0.6293
  782MPD2    C211585   1.089   2.810  10.463  0.3942 -0.3175 -0.6711
  782MPD2    C311586   1.046   2.938  10.431  0.4353 -0.7105 -0.2292
  782MPD2    C411587   0.934   2.960  10.349  0.2458  0.5018 -0.0270
  782MPD2    C511588   0.870   2.847  10.308  0.2941 -0.3596  0.0069
  782MPD2     H11589   1.168   2.790  10.535 -0.9667  0.5684  1.0890
  782MPD2    H111590   0.883   3.054  10.364  0.7842  0.7152  0.4815
  782MPD2    H211591   0.864   2.643  10.273  0.3394 -0.3091 -1.0807
  782MPD2    H311592   0.784   2.853  10.242 -0.6429 -1.1183  1.1695
  782MPD2     N11593   1.112   3.047  10.493 -0.1497  0.1240 -0.1945
  782MPD2    H511594   1.179   3.016  10.562 -1.8737 -0.9452  1.0095
  782MPD2    N111595   1.108   2.581  10.403 -0.6419  0.0604  0.0559
  782MPD2    H711596   1.193   2.589  10.459  0.1085 -0.7976 -0.9710
  783MPD2     C11597   1.029   1.893  11.050  0.6524 -0.3209  0.5653
  783MPD2    C111598   1.086   2.021  11.069  0.8719 -0.0249  0.1344
  783MPD2    C211599   1.143   2.092  10.959 -0.5016 -0.5169 -0.0544
  783MPD2    C311600   1.105   2.049  10.830  0.5663 -1.2556 -0.1551
  783MPD2    C411601   1.036   1.930  10.819  0.2143 -0.1493  0.2556
  783MPD2    C511602   1.000   1.848  10.922 -0.2398 -0.1334 -0.4068
  783MPD2     H11603   1.197   2.184  10.974  0.0619 -0.8961  0.2443
  783MPD2    H111604   1.005   1.894  10.721 -2.3296 -0.4791  1.1945
  783MPD2    H211605   0.997   1.838  11.138  1.2369 -2.6396 -0.6826
  783MPD2    H311606   0.957   1.751  10.899 -2.5903  0.7778  0.0716
  783MPD2     N11607   1.152   2.125  10.716  0.1245 -0.1355  0.6400
  783MPD2    H511608   1.216   2.202  10.731  0.0793  0.2280 -1.0552
  783MPD2    N111609   1.104   2.056  11.201  0.3995  0.0244  0.1070
  783MPD2    H711610   1.066   2.004  11.279  0.2524  1.3023  0.8895
  784MPD2     C11611   2.876   2.138   1.064  0.6066 -0.1775 -0.3244
  784MPD2    C111612   2.967   2.245   1.074  0.1313  0.4679  0.1002
  784MPD2    C211613   2.918   2.360   1.029  0.9946 -0.0445  0.0756
  784MPD2    C311614   2.788   2.380   0.979 -0.2525  0.4093  0.0706
  784MPD2    C411615   2.702   2.273   0.972  0.4502  0.0077 -0.2733
  784MPD2    C511616   2.749   2.151   1.012 -0.4241  0.4956  0.3710
  784MPD2     H11617   2.984   2.446   1.025  2.2601 -1.0138  0.3059
  784MPD2    H111618   2.595   2.285   0.955  0.7976  1.0137 -1.7925
  784MPD2    H211619   2.898   2.040   1.104 -0.6417  0.2678  1.4515
  784MPD2    H311620   2.686   2.063   1.021 -0.4921  0.3269 -1.7693
  784MPD2     N11621   2.750   2.510   0.937  0.0045 -0.3293  0.0941
  784MPD2    H511622   2.816   2.586   0.950  0.8793 -1.1114  0.2121
  784MPD2    N111623   3.097   2.227   1.123  0.5412 -0.4557  0.3813
  784MPD2    H711624   3.155   2.310   1.129  1.2053 -1.0352  1.9489
  785MPD2     C11625   0.457   0.792  10.737  0.4191 -0.2671 -0.0789
  785MPD2    C111626   0.378   0.907  10.715  0.2913  0.6430 -0.1365
  785MPD2    C211627   0.260   0.891  10.642  0.3188  0.5464  1.2774
  785MPD2    C311628   0.214   0.764  10.619  0.0439  0.3193 -0.0685
  785MPD2    C411629   0.297   0.655  10.636  0.1317 -0.9393  0.9693
  785MPD2    C511630   0.416   0.673  10.692 -0.4123  0.2182 -0.2226
  785MPD2     H11631   0.204   0.982  10.621  0.1283  0.5676  1.8891
  785MPD2    H111632   0.271   0.554  10.607  1.0255 -0.5653 -1.2037
  785MPD2    H211633   0.552   0.793  10.790  1.9874 -1.9337 -2.8744
  785MPD2    H311634   0.473   0.583  10.711 -2.3895 -1.5603 -2.6936
  785MPD2     N11635   0.086   0.755  10.566  0.0418  0.1741  0.4928
  785MPD2    H511636   0.031   0.836  10.539  3.9351  2.3897 -0.8391
  785MPD2    N111637   0.426   1.032  10.763 -0.5037 -0.4510 -0.1260
  785MPD2    H711638   0.528   1.036  10.763 -0.5310  0.2240  0.6917
  786MPD2     C11639   2.812   4.016  14.609 -0.3178 -0.0318  0.1965
  786MPD2    C111640   2.883   3.896  14.595 -0.6497 -0.7222 -0.2411
  786MPD2    C211641   2.993   3.883  14.672 -0.3344  0.1192  0.5566
  786MPD2    C311642   3.040   3.984  14.753 -0.0201  0.1548 -0.2267
  786MPD2    C411643   2.978   4.109  14.758 -0.0122  0.0618  0.0829
  786MPD2    C511644   2.855   4.122  14.696  0.1160 -0.8013 -0.3015
  786MPD2     H11645   3.051   3.791  14.677  0.1320  0.3894  0.1661
  786MPD2    H111646   3.015   4.190  14.819  1.5974  0.5276 -1.5255
  786MPD2    H211647   2.713   4.031  14.568 -0.8194 -2.9496  0.3272
  786MPD2    H311648   2.790   4.208  14.708  0.4952 -0.6578  0.6930
  786MPD2     N11649   3.147   3.971  14.850 -0.0400 -0.2167  0.2842
  786MPD2    H511650   3.154   4.045  14.919  2.4273 -1.1327  1.0272
  786MPD2    N111651   2.831   3.775  14.535 -0.4752 -0.2650  0.2167
  786MPD2    H711652   2.882   3.689  14.555 -1.8486 -0.4842  2.8253
  787MPD2     C11653   3.221   3.326  14.579 -0.1608  0.1535 -0.9939
  787MPD2    C111654   3.192   3.350  14.449 -0.3647  0.0398  0.5171
  787MPD2    C211655   3.289   3.331  14.355  0.4541 -0.1339  0.3181
  787MPD2    C311656   3.420   3.299  14.390 -0.3279  0.1475  0.7383
  787MPD2    C411657   3.449   3.288  14.524  0.3770  0.0783 -0.2579
  787MPD2    C511658   3.350   3.293  14.613  0.2302  0.1744 -0.0535
  787MPD2     H11659   3.266   3.336  14.249  2.1739  3.5310  0.1023
  787MPD2    H111660   3.544   3.245  14.555  0.5120 -0.8747 -2.0083
  787MPD2    H211661   3.146   3.316  14.656 -2.0859 -0.9474 -3.0107
  787MPD2    H311662   3.382   3.265  14.713 -0.4641 -0.2999  0.0300
  787MPD2     N11663   3.523   3.271  14.295  0.3415 -0.3806  0.6981
  787MPD2    H511664   3.618   3.266  14.331  0.0122  0.1321  1.6303
  787MPD2    N111665   3.059   3.384  14.412 -0.1751  0.4059  0.0335
  787MPD2    H711666   3.036   3.377  14.314 -0.4633 -0.6384  0.1701
  788MPD2     C11667   0.333   2.133   0.306  0.3533 -0.9722 -1.2359
  788MPD2    C111668   0.275   2.066   0.203  0.3821 -0.0007  0.7077
  788MPD2    C211669   0.270   2.123   0.076  0.6066  0.2063 -0.3282
  788MPD2    C311670   0.331   2.247   0.054 -0.0266 -0.6363  0.4724
  788MPD2    C411671   0.385   2.315   0.159 -0.4433  0.8348 -0.7268
  788MPD2    C511672   0.387   2.259   0.282  0.2311  0.1471  0.0359
  788MPD2     H11673   0.210   2.088  17.736  0.4400 -1.9150  0.6793
  788MPD2    H111674   0.399   2.422   0.145 -1.8866  1.3247  1.4885
  788MPD2    H211675   0.360   2.102   0.406 -2.1152  0.2261 -0.2030
  788MPD2    H311676   0.423   2.312   0.369 -2.9714 -0.9416  2.0275
  788MPD2     N11677   0.323   2.310  17.669  0.2761 -0.0212  0.1368
  788MPD2    H511678   0.373   2.399  17.665 -1.4926  0.9709  0.2184
  788MPD2    N111679   0.223   1.938   0.211 -0.3360 -0.4054  0.2425
  788MPD2    H711680   0.199   1.898   0.120  0.8287 -2.6557  0.9135
  789MPD2     C11681   0.282   1.738  16.097 -0.0538  0.2249  0.8306
  789MPD2    C111682   0.203   1.636  16.125 -1.1707 -0.0531  0.7945
  789MPD2    C211683   0.069   1.658  16.155 -0.2068  0.3471 -0.1478
  789MPD2    C311684   0.024   1.787  16.164 -0.2903  0.1383  0.1559
  789MPD2    C411685   0.106   1.887  16.117 -0.7900 -0.0019 -0.4123
  789MPD2    C511686   0.237   1.865  16.086  0.0644  0.2784 -0.4734
  789MPD2     H11687   0.001   1.575  16.166  0.0965  0.2411  0.9323
  789MPD2    H111688   0.082   1.992  16.106 -2.0416 -0.1934  0.5152
  789MPD2    H211689   0.384   1.728  16.061  0.2526 -1.7006  2.2382
  789MPD2    H311690   0.294   1.948  16.046  0.0052  0.5866  0.0794
  789MPD2     N11691   4.636   1.824  16.208  0.5495  0.1747  0.0898
  789MPD2    H511692   4.608   1.922  16.203  0.6909  0.2846  1.4238
  789MPD2    N111693   0.244   1.502  16.138 -0.3045 -0.3639 -0.3819
  789MPD2    H711694   0.178   1.432  16.167  3.1650 -2.4243  2.5719
  790MPD2     C11695   1.141   3.822  13.728  0.0666  0.0005  0.0265
  790MPD2    C111696   1.057   3.724  13.779 -0.1285  0.7319  0.0691
  790MPD2    C211697   1.018   3.624  13.690  1.0083 -0.5287 -0.0502
  790MPD2    C311698   1.050   3.619  13.561  0.4845  0.4119  0.1237
  790MPD2    C411699   1.140   3.710  13.510 -0.1063 -0.8919 -0.8704
  790MPD2    C511700   1.188   3.802  13.599 -1.2744 -0.0949  0.7502
  790MPD2     H11701   0.942   3.558  13.730  0.7495  0.7872  1.6028
  790MPD2    H111702   1.178   3.694  13.410  1.1791 -0.3747 -0.4727
  790MPD2    H211703   1.188   3.893  13.795  0.9216 -2.0716  1.6550
  790MPD2    H311704   1.268   3.871  13.575 -3.1910  1.7419 -0.4316
  790MPD2     N11705   1.009   3.501  13.489  0.3273 -0.4366 -0.0907
  790MPD2    H511706   0.948   3.437  13.540  0.8975  0.1440  1.3135
  790MPD2    N111707   1.016   3.729  13.916 -0.3592  0.1068  0.6371
  790MPD2    H711708   1.009   3.819  13.962 -0.2316  0.4393  0.0182
  791MPD2     C11709   0.393   3.312  13.396  0.8135  0.4431  0.0226
  791MPD2    C111710   0.463   3.223  13.316 -0.3523  0.8673  0.0504
  791MPD2    C211711   0.389   3.129  13.238  0.3106  0.9460  0.1621
  791MPD2    C311712   0.248   3.138  13.240 -0.1026 -0.0840 -0.1462
  791MPD2    C411713   0.188   3.238  13.308  0.3020  0.1810  0.1469
  791MPD2    C511714   0.260   3.314  13.396  0.1683 -0.4179  0.4654
  791MPD2     H11715   0.446   3.061  13.177 -0.0062  0.7091  0.1338
  791MPD2    H111716   0.080   3.234  13.313  0.4099 -0.2032  1.8963
  791MPD2    H211717   0.441   3.372  13.473  2.6246 -1.1307  0.1281
  791MPD2    H311718   0.199   3.386  13.450 -1.3889 -1.1095 -0.3667
  791MPD2     N11719   0.177   3.038  13.178  0.0421 -0.3933  0.1082
  791MPD2    H511720   0.242   2.980  13.125  0.9314 -1.2797  2.1574
  791MPD2    N111721   0.604   3.231  13.321 -0.3735  0.4879  0.6362
  791MPD2    H711722   0.636   3.307  13.381  1.5898  2.1384 -2.5217
  792MPD2     C11723   1.020   3.490  11.801  0.4328 -0.0935  0.5744
  792MPD2    C111724   1.055   3.467  11.672  0.3003  0.2542 -0.7178
  792MPD2    C211725   0.974   3.382  11.596 -0.2723 -0.2482 -0.2726
  792MPD2    C311726   0.853   3.341  11.655 -0.1041 -0.0553  0.1348
  792MPD2    C411727   0.816   3.382  11.778  0.0034  0.5509  0.4532
  792MPD2    C511728   0.899   3.456  11.852  0.4895 -0.2741 -0.4189
  792MPD2     H11729   1.002   3.340  11.500 -1.0740 -0.9704 -0.1861
  792MPD2    H111730   0.724   3.351  11.827 -1.0581  2.1671 -0.4820
  792MPD2    H211731   1.083   3.546  11.869 -1.1709  0.7174  1.4152
  792MPD2    H311732   0.880   3.479  11.956 -0.6895 -0.2037 -0.6551
  792MPD2     N11733   0.762   3.263  11.579 -0.1442 -0.6617  0.3225
  792MPD2    H511734   0.684   3.224  11.631  0.6849 -1.3299  1.0650
  792MPD2    N111735   1.173   3.533  11.615 -0.3796 -0.6254  0.2466
  792MPD2    H711736   1.220   3.601  11.675 -0.1365  1.3515 -2.1713
  793MPD2     C11737   0.625   3.017  10.555 -0.3333 -0.1516  0.0247
  793MPD2    C111738   0.651   3.144  10.596  0.0858  0.4831  0.2664
  793MPD2    C211739   0.652   3.163  10.732  0.0191 -0.2682 -0.1519
  793MPD2    C311740   0.621   3.059  10.825 -0.4611 -0.0914  0.6228
  793MPD2    C411741   0.610   2.929  10.773  0.0779 -0.6015 -0.0956
  793MPD2    C511742   0.604   2.918  10.640  0.0194 -0.6068 -0.1111
  793MPD2     H11743   0.668   3.262  10.773 -0.8034 -0.7366  1.3034
  793MPD2    H111744   0.598   2.843  10.837  0.7191  0.6670  1.7204
  793MPD2    H211745   0.630   2.991  10.450  2.5602  0.8657 -0.1086
  793MPD2    H311746   0.582   2.821  10.596  3.3311 -0.5499 -1.9244
  793MPD2     N11747   0.609   3.092  10.961 -0.3104 -0.4118 -0.0386
  793MPD2    H511748   0.616   3.188  10.995 -0.1281 -0.1092 -0.9246
  793MPD2    N111749   0.688   3.243  10.509 -0.5426 -0.4437 -0.1493
  793MPD2    H711750   0.713   3.336  10.540 -1.4809 -0.3608  0.3759
  794MPD2     C11751   1.199   2.679  17.382  0.1762  0.7022  0.0211
  794MPD2    C111752   1.130   2.594  17.303  0.3652  0.2569 -0.2772
  794MPD2    C211753   1.089   2.626  17.175  0.4430  0.3636  0.1404
  794MPD2    C311754   1.132   2.749  17.124 -0.0905 -0.5170  0.0007
  794MPD2    C411755   1.205   2.830  17.204 -0.7163 -0.0734  0.8594
  794MPD2    C511756   1.237   2.806  17.329  0.0444  0.1836  0.8894
  794MPD2     H11757   1.042   2.547  17.117  0.2571 -0.3734  1.3057
  794MPD2    H111758   1.221   2.931  17.167 -1.8616 -0.2025  0.0440
  794MPD2    H211759   1.218   2.672  17.488 -3.2169  1.4251  0.6842
  794MPD2    H311760   1.289   2.877  17.392  0.2306  1.1671 -0.3883
  794MPD2     N11761   1.097   2.792  16.994 -0.0495 -0.5336  0.0574
  794MPD2    H511762   1.147   2.874  16.961  0.1502 -0.7105 -0.0782
  794MPD2    N111763   1.083   2.469  17.350 -0.4179  0.1354  0.4075
  794MPD2    H711764   1.041   2.409  17.280 -1.2263  3.0667 -1.6008
  795MPD2     C11765   3.507   0.205  14.026 -0.4795 -0.2294 -0.0249
  795MPD2    C111766   3.571   0.139  13.918 -0.1798  0.2383 -0.2025
  795MPD2    C211767   3.671   0.052  13.948 -0.1897 -0.0278 -0.0371
  795MPD2    C311768   3.730   0.055  14.071 -0.0261  0.2787  0.0479
  795MPD2    C411769   3.681   0.142  14.173 -0.2273 -0.0008 -0.4582
  795MPD2    C511770   3.570   0.218  14.149 -0.5043 -0.0078  0.2557
  795MPD2     H11771   3.719   4.730  13.869  3.2549 -2.3115  3.7553
  795MPD2    H111772   3.711   0.143  14.277 -3.2635  0.0680  0.4232
  795MPD2    H211773   3.421   0.265  13.999 -0.1993 -0.3000 -1.0849
  795MPD2    H311774   3.520   0.290  14.214  1.1584  1.8963 -0.5664
  795MPD2     N11775   3.839   4.698  14.099  0.6844  0.2342 -0.4962
  795MPD2    H511776   3.882   4.631  14.035  2.7408  0.3007  0.8116
  795MPD2    N111777   3.530   0.151  13.785 -0.2920 -0.3302  0.2970
  795MPD2    H711778   3.572   0.089  13.716 -0.8478 -0.4654  0.0791
  796MPD2     C11779   2.990   1.341  15.972 -0.0197 -1.4466 -0.6813
  796MPD2    C111780   3.023   1.429  16.068 -0.1183  0.4453  0.1256
  796MPD2    C211781   3.053   1.557  16.030  0.2326  0.9641 -0.3949
  796MPD2    C311782   3.041   1.611  15.903 -0.1567 -0.4223 -0.1765
  796MPD2    C411783   3.001   1.524  15.807  0.1753 -0.0547 -0.4377
  796MPD2    C511784   2.978   1.392  15.845  0.1868 -0.2696  0.0415
  796MPD2     H11785   3.075   1.626  16.111  0.4684 -0.4140  0.7252
  796MPD2    H111786   2.988   1.561  15.705  0.8148 -1.0051 -0.8689
  796MPD2    H211787   2.960   1.238  15.991 -1.6478 -1.0642 -1.2156
  796MPD2    H311788   2.940   1.327  15.767  0.0868  1.0653 -1.0170
  796MPD2     N11789   3.061   1.747  15.887  0.1721 -0.2719  0.0620
  796MPD2    H511790   3.100   1.801  15.964 -0.1051  0.9586 -0.6480
  796MPD2    N111791   3.034   1.381  16.203 -0.5939  0.0728  0.2660
  796MPD2    H711792   2.998   1.287  16.210  0.3302 -0.3615 -0.8519
  797MPD2     C11793   4.025   1.095  16.958 -0.4199  0.6113  0.6911
  797MPD2    C111794   4.091   1.157  17.057 -0.3334  0.1174  0.2367
  797MPD2    C211795   4.018   1.236  17.145 -0.4224  0.6622  0.1726
  797MPD2    C311796   3.880   1.250  17.134 -0.1777  0.0758  0.0892
  797MPD2    C411797   3.810   1.185  17.035 -0.0096  0.3163  0.4043
  797MPD2    C511798   3.884   1.102  16.953 -0.2362  0.5807  0.0934
  797MPD2     H11799   4.079   1.287  17.219  0.6518  1.4113 -1.2275
  797MPD2    H111800   3.704   1.188  17.016 -0.1318  1.3168  1.2713
  797MPD2    H211801   4.081   1.033  16.889 -0.4954  0.4551  0.7706
  797MPD2    H311802   3.835   1.043  16.876 -1.9032  1.3271  0.5741
  797MPD2     N11803   3.803   1.337  17.227  0.3573  0.0900 -0.5432
  797MPD2    H511804   3.702   1.343  17.222  0.4741 -0.3024 -3.3775
  797MPD2    N111805   4.229   1.163  17.077  0.0788  0.2062  0.5838
  797MPD2    H711806   4.266   1.215  17.155 -1.7505  0.7267  1.1101
  798MPD2     C11807   4.266   1.783  17.397  0.4541  0.4257  0.6278
  798MPD2    C111808   4.199   1.667  17.407 -0.3218  0.6906 -0.5704
  798MPD2    C211809   4.268   1.556  17.357  0.0624  0.8160  0.2352
  798MPD2    C311810   4.401   1.566  17.309  0.2912 -0.8393 -0.4622
  798MPD2    C411811   4.462   1.684  17.294  0.1226  0.4580 -0.2385
  798MPD2    C511812   4.393   1.794  17.340  0.3890 -0.0582 -1.3853
  798MPD2     H11813   4.222   1.458  17.358  0.7827  0.4835  0.3789
  798MPD2    H111814   4.559   1.695  17.247 -0.1193 -0.3947 -0.9428
  798MPD2    H211815   4.228   1.882  17.419 -0.2424 -0.0028  1.3445
  798MPD2    H311816   4.441   1.891  17.335  0.2778  0.0371 -0.7049
  798MPD2     N11817   4.466   1.452  17.264  0.2301 -0.8431  0.2902
  798MPD2    H511818   4.410   1.368  17.275  1.7390 -1.7183  1.3561
  798MPD2    N111819   4.061   1.660  17.445  0.5912  0.4503  0.0413
  798MPD2    H711820   4.023   1.566  17.435  0.8676  0.2065  1.3017
  799MPD2     C11821   3.301   2.793  14.321 -0.0430 -0.7970  0.2664
  799MPD2    C111822   3.251   2.742  14.209  0.1876 -0.1529  0.0323
  799MPD2    C211823   3.204   2.821  14.104  0.1286  0.0141  0.1147
  799MPD2    C311824   3.210   2.961  14.117 -0.5679  0.0814 -0.7063
  799MPD2    C411825   3.274   3.005  14.225  0.0938 -0.4799 -0.7840
  799MPD2    C511826   3.300   2.927  14.338  0.1633 -0.6052 -0.0615
  799MPD2     H11827   3.153   2.784  14.016  0.4340 -1.4212  0.5357
  799MPD2    H111828   3.287   3.111  14.240  0.2745 -0.6844  0.5126
  799MPD2    H211829   3.324   2.742  14.414 -1.5234  1.2860  1.7985
  799MPD2    H311830   3.344   2.972  14.426 -0.2829 -1.3229  0.5313
  799MPD2     N11831   3.183   3.055  14.017  0.2615 -0.0663  0.0455
  799MPD2    H511832   3.220   3.146  14.042 -0.0833 -0.8520  3.4010
  799MPD2    N111833   3.252   2.599  14.194  0.6106  0.2908  0.0061
  799MPD2    H711834   3.185   2.560  14.128 -1.2429  2.1452  0.7745
  800MPD2     C11835   3.237   3.739  14.429  0.4538 -0.2160 -0.5287
  800MPD2    C111836   3.372   3.712  14.436  0.2065  0.1673  0.3374
  800MPD2    C211837   3.430   3.660  14.326 -0.6823  0.1737 -0.3556
  800MPD2    C311838   3.354   3.648  14.207  0.0578 -0.7428 -0.3888
  800MPD2    C411839   3.215   3.674  14.202 -0.6786 -0.7873  0.3363
  800MPD2    C511840   3.158   3.712  14.321 -0.5693 -0.5655  0.3226
  800MPD2     H11841   3.538   3.652  14.327 -0.7092  0.4579  2.8947
  800MPD2    H111842   3.156   3.661  14.113 -0.5265 -2.8584  0.5385
  800MPD2    H211843   3.185   3.788  14.511  0.2715  0.7438 -1.2090
  800MPD2    H311844   3.054   3.742  14.322 -0.2467  0.6380 -2.2968
  800MPD2     N11845   3.431   3.603  14.094 -0.3173  0.3819  0.1907
  800MPD2    H511846   3.522   3.582  14.134  0.5878  4.4470  0.2864
  800MPD2    N111847   3.447   3.754  14.554  0.1318  0.0599 -0.8187
  800MPD2    H711848   3.394   3.786  14.634  1.5864  0.4416 -0.0076
  801MPD2     C11849   3.758   4.496  14.643 -0.3805  0.1891 -0.2432
  801MPD2    C111850   3.648   4.419  14.699  0.2841  0.4831  0.3615
  801MPD2    C211851   3.532   4.488  14.733  0.4312  0.2785  0.1611
  801MPD2    C311852   3.513   4.624  14.712 -0.0060  0.0795 -0.1399
  801MPD2    C411853   3.620   4.687  14.658 -0.2395 -0.0757 -0.0205
  801MPD2    C511854   3.739   4.630  14.620 -0.0717  0.6883 -0.5577
  801MPD2     H11855   3.453   4.427  14.775  0.9955 -0.5357  0.0182
  801MPD2    H111856   3.607   0.055  14.631 -1.2378 -0.1784  0.0676
  801MPD2    H211857   3.858   4.456  14.630 -0.0577  1.8828 -2.9491
  801MPD2    H311858   3.813   4.694  14.575 -0.1267  0.0776 -1.5111
  801MPD2     N11859   3.390   4.692  14.743  0.0750  0.2415  0.2028
  801MPD2    H511860   3.359   0.046  14.708 -1.8680 -1.1929 -1.7094
  801MPD2    N111861   3.659   4.280  14.700  0.2113 -0.0666 -0.5935
  801MPD2    H711862   3.736   4.234  14.651 -0.0361 -1.4517  0.3005
  802MPD2     C11863   2.551   0.497  17.387  0.3562  0.2403 -0.1430
  802MPD2    C111864   2.668   0.503  17.449 -0.2727  0.4133 -0.1376
  802MPD2    C211865   2.754   0.393  17.468 -0.0443 -0.0997 -0.1949
  802MPD2    C311866   2.730   0.273  17.411 -0.5186  0.2301  0.6811
  802MPD2    C411867   2.609   0.260  17.335  0.0432  0.9369  0.5692
  802MPD2    C511868   2.529   0.372  17.326 -0.0214  0.3871  0.0019
  802MPD2     H11869   2.847   0.403  17.523  0.6864 -0.2695 -1.3839
  802MPD2    H111870   2.572   0.174  17.281 -1.4915  3.4318 -2.3683
  802MPD2    H211871   2.494   0.575  17.337  0.6140 -0.5324 -1.6597
  802MPD2    H311872   2.439   0.362  17.266  0.0827 -0.7073  0.0188
  802MPD2     N11873   2.833   0.178  17.421 -1.0181 -0.0705  0.0006
  802MPD2    H511874   2.917   0.211  17.466 -0.1507 -1.6092 -0.4909
  802MPD2    N111875   2.707   0.625  17.517 -0.5619  0.3589  0.7562
  802MPD2    H711876   2.778   0.604  17.586 -1.1850  1.2832  1.6702
  803MPD2     C11877   4.061   3.210  12.140  0.4974  0.1745 -0.4757
  803MPD2    C111878   3.989   3.302  12.224 -0.4265 -0.1397 -0.1379
  803MPD2    C211879   3.898   3.254  12.315 -0.2918 -0.4047 -0.8048
  803MPD2    C311880   3.892   3.116  12.340 -0.3401 -0.7270  0.1561
  803MPD2    C411881   3.971   3.033  12.272 -0.5532  0.7286 -0.3831
  803MPD2    C511882   4.058   3.079  12.174 -0.0096  0.5701  0.3654
  803MPD2     H11883   3.830   3.326  12.360  1.4852  0.6515  0.1887
  803MPD2    H111884   3.975   2.927  12.292  0.0646  0.4642 -1.9188
  803MPD2    H211885   4.136   3.245  12.070 -0.7890  0.0015 -1.9398
  803MPD2    H311886   4.111   3.003  12.118 -0.5393 -0.2385  0.9680
  803MPD2     N11887   3.807   3.056  12.432  0.8401  0.1927 -0.1519
  803MPD2    H511888   3.820   2.958  12.455 -1.6201 -0.0956 -0.0154
  803MPD2    N111889   4.004   3.438  12.217  0.2260  0.2439 -0.1300
  803MPD2    H711890   3.981   3.496  12.297  2.4520  0.9791 -0.0462
  804MPD2     C11891   3.338   4.322  16.969 -0.5666  0.9024 -0.2720
  804MPD2    C111892   3.357   4.286  17.101 -0.0783  0.0828 -0.2965
  804MPD2    C211893   3.428   4.374  17.184 -0.5113  0.1030 -0.1683
  804MPD2    C311894   3.507   4.474  17.123  0.0550  0.2752  0.7868
  804MPD2    C411895   3.486   4.511  16.987 -0.1756  0.2680  0.4682
  804MPD2    C511896   3.392   4.441  16.918  1.2279  0.1401 -0.2523
  804MPD2     H11897   3.450   4.347  17.286  0.8906 -0.3264 -0.5798
  804MPD2    H111898   3.531   4.592  16.932  0.8005 -1.1550 -0.8246
  804MPD2    H211899   3.268   4.263  16.912 -0.9587  0.1852  0.9553
  804MPD2    H311900   3.370   4.463  16.814  0.5606 -2.4675 -0.6527
  804MPD2     N11901   3.598   4.539  17.207 -0.0262 -0.5742  0.4155
  804MPD2    H511902   3.591   4.520  17.307  1.3035 -0.3235  0.5614
  804MPD2    N111903   3.304   4.169  17.162 -0.3160  0.4807 -0.0958
  804MPD2    H711904   3.293   4.174  17.263  2.3473  1.5317  0.1543
  805MPD2     C11905   2.937   2.530  15.008  0.0704  0.2278 -0.2881
  805MPD2    C111906   2.898   2.662  15.002 -0.2596 -1.1801 -0.0373
  805MPD2    C211907   2.950   2.746  15.095  0.4581 -0.6845 -1.0439
  805MPD2    C311908   3.032   2.704  15.193 -0.0998 -0.0753  0.0262
  805MPD2    C411909   3.082   2.578  15.191 -0.3739 -0.9206  0.5189
  805MPD2    C511910   3.021   2.489  15.103 -0.1788 -0.0508 -0.8121
  805MPD2     H11911   2.907   2.845  15.096 -0.1838 -0.9634 -0.4603
  805MPD2    H111912   3.153   2.538  15.262 -0.4258  0.1891  1.1914
  805MPD2    H211913   2.900   2.454  14.939  2.9110 -1.6789  0.2909
  805MPD2    H311914   3.065   2.390  15.100  0.8031  0.4198 -2.5623
  805MPD2     N11915   3.066   2.797  15.297  0.0283 -0.7327  0.4455
  805MPD2    H511916   3.025   2.890  15.288  1.6148 -0.1799 -1.0972
  805MPD2    N111917   2.802   2.712  14.910 -0.1600  0.0952 -0.2214
  805MPD2    H711918   2.784   2.812  14.909 -0.1143  0.0995 -0.6120
  806MPD2     C11919   2.667   2.600   0.403 -0.4181 -1.0026 -0.0952
  806MPD2    C111920   2.781   2.600   0.484  0.5286 -0.1506  0.1975
  806MPD2    C211921   2.881   2.698   0.458  0.5292 -0.7299 -0.9086
  806MPD2    C311922   2.856   2.801   0.371  0.0918  0.3792 -0.0359
  806MPD2    C411923   2.745   2.791   0.288 -0.2597  0.1704 -0.2615
  806MPD2    C511924   2.648   2.695   0.310  0.6164  0.3263 -0.3672
  806MPD2     H11925   2.974   2.694   0.514 -0.8755  0.8032  1.5030
  806MPD2    H111926   2.732   2.869   0.213  0.9039  0.9621  0.3486
  806MPD2    H211927   2.603   2.513   0.396  0.9629 -2.0281  0.1388
  806MPD2    H311928   2.564   2.668   0.247  0.1396  0.6511  0.1325
  806MPD2     N11929   2.945   2.916   0.356 -0.4824 -0.3635  0.1967
  806MPD2    H511930   2.911   2.986   0.292 -1.2533 -1.4356 -0.5692
  806MPD2    N111931   2.808   2.477   0.559  0.8891 -0.0732  0.6970
  806MPD2    H711932   2.738   2.404   0.556  2.1116 -1.2426  0.4541
  807MPD2     C11933   2.565   1.768   0.695  0.1706  0.3922 -0.4037
  807MPD2    C111934   2.702   1.764   0.717 -0.2141 -0.1931  0.1252
  807MPD2    C211935   2.758   1.643   0.745 -0.3625  0.5604 -0.9476
  807MPD2    C311936   2.684   1.531   0.777  0.3674 -0.2248 -0.6752
  807MPD2    C411937   2.548   1.532   0.742  0.1424 -1.1337  0.7552
  807MPD2    C511938   2.488   1.653   0.704  0.2741 -1.1413  0.0152
  807MPD2     H11939   2.863   1.638   0.770 -0.5813  2.4944  0.3826
  807MPD2    H111940   2.485   1.446   0.761  0.6790 -1.4233  1.2268
  807MPD2    H211941   2.522   1.866   0.677 -0.2810  0.5736  1.6521
  807MPD2    H311942   2.385   1.662   0.671  0.1927  0.6695  0.7632
  807MPD2     N11943   2.753   1.406   0.803 -0.0945 -0.7471 -0.2309
  807MPD2    H511944   2.851   1.427   0.786 -0.0491 -0.6272  0.1794
  807MPD2    N111945   2.789   1.874   0.721 -0.1981 -0.2817  0.6203
  807MPD2    H711946   2.881   1.849   0.757 -0.2758 -1.3091  0.1159
  808MPD2     C11947   3.043   4.062   9.261 -0.0617  0.0352  0.0468
  808MPD2    C111948   3.040   4.028   9.393 -0.2495 -0.4481 -0.6971
  808MPD2    C211949   3.121   4.098   9.484  0.5031  0.3695  0.2732
  808MPD2    C311950   3.194   4.211   9.439 -0.1297 -0.0993  0.1431
  808MPD2    C411951   3.195   4.244   9.307 -0.6370  0.4841  0.4653
  808MPD2    C511952   3.115   4.170   9.219  0.2607 -0.3131 -0.8957
  808MPD2     H11953   3.117   4.073   9.589  1.2492 -0.8158  0.0160
  808MPD2    H111954   3.228   4.337   9.264 -0.2366  0.9728  1.8481
  808MPD2    H211955   2.985   4.005   9.189  1.4065 -0.1236 -1.0218
  808MPD2    H311956   3.098   4.206   9.118  0.5659 -0.7915 -1.1198
  808MPD2     N11957   3.256   4.305   9.523  0.2444 -0.1106 -0.3631
  808MPD2    H511958   3.288   4.389   9.476 -1.3260  0.3635 -0.5993
  808MPD2    N111959   2.954   3.931   9.447 -0.2372  0.3158  0.1442
  808MPD2    H711960   2.955   3.892   9.540 -0.1073 -0.3985 -0.1527
  809MPD2     C11961   4.022   4.692   9.360 -0.1520  0.2446  0.3080
  809MPD2    C111962   4.015   4.663   9.491  0.1546  0.0646  0.1190
  809MPD2    C211963   3.895   4.623   9.557  0.2524 -0.0197  0.3230
  809MPD2    C311964   3.779   4.621   9.480 -0.3008 -0.3669 -0.2839
  809MPD2    C411965   3.791   4.651   9.347 -0.1808 -0.0381 -0.0226
  809MPD2    C511966   3.906   4.695   9.287 -0.2621  0.3367  0.0624
  809MPD2     H11967   3.904   4.593   9.661 -0.6433 -2.8613 -0.4368
  809MPD2    H111968   3.699   4.646   9.290  0.5372  0.3716 -1.2339
  809MPD2    H211969   4.115   4.702   9.305  1.4929  0.1578  3.0624
  809MPD2    H311970   3.922   4.723   9.183 -1.0442  1.1207  0.1512
  809MPD2     N11971   3.654   4.602   9.542 -0.4070  0.9505 -0.1196
  809MPD2    H511972   3.573   4.589   9.483 -0.9731  2.6076  0.3056
  809MPD2    N111973   4.128   4.673   9.577  0.6633 -0.3744  0.7027
  809MPD2    H711974   4.130   4.626   9.667 -1.7294 -1.9357 -0.0646
  810MPD2     C11975   2.956   3.596  11.261 -0.2484 -0.0041 -0.0441
  810MPD2    C111976   2.935   3.480  11.192 -0.2912  0.6517  0.1252
  810MPD2    C211977   2.847   3.393  11.255 -0.3476  0.3089  0.6013
  810MPD2    C311978   2.780   3.420  11.372  0.3637 -0.6803 -0.0527
  810MPD2    C411979   2.791   3.540  11.428  0.1008 -0.1747  0.5347
  810MPD2    C511980   2.890   3.621  11.382 -1.0289  0.0608  0.0024
  810MPD2     H11981   2.832   3.299  11.203 -2.3742 -0.2428  2.1900
  810MPD2    H111982   2.735   3.579  11.512  2.2336  1.9215  1.0125
  810MPD2    H211983   3.030   3.669  11.229  1.3602 -1.7713 -0.3148
  810MPD2    H311984   2.911   3.711  11.438  2.0763 -0.8220  0.2312
  810MPD2     N11985   2.696   3.322  11.424  0.1809  0.4427  0.0890
  810MPD2    H511986   2.642   3.353  11.505  0.6691  0.7915  0.2821
  810MPD2    N111987   2.979   3.475  11.058  0.2785  0.1681  0.2208
  810MPD2    H711988   3.038   3.552  11.027  0.7839  0.4951  1.9768
  811MPD2     C11989   2.795   3.630  10.255 -0.2614  0.1029 -0.2400
  811MPD2    C111990   2.845   3.698  10.369  0.4823 -0.0014 -0.3310
  811MPD2    C211991   2.794   3.817  10.415 -0.5618  0.7778 -0.2047
  811MPD2    C311992   2.687   3.871  10.341 -0.8194  0.3008 -0.1084
  811MPD2    C411993   2.642   3.803  10.227  0.1543 -0.7685 -0.0930
  811MPD2    C511994   2.696   3.687  10.183  0.2675  1.0299 -0.2756
  811MPD2     H11995   2.833   3.863  10.505  3.2571  0.7822 -1.8589
  811MPD2    H111996   2.562   3.845  10.168 -1.3521 -2.4699  0.7249
  811MPD2    H211997   2.829   3.534  10.218  0.1039  0.1840 -0.1144
  811MPD2    H311998   2.650   3.644  10.095 -0.4918 -2.0946  1.6504
  811MPD2     N11999   2.640   4.003  10.368 -0.5532  0.0840  0.0217
  811MPD2    H512000   2.691   4.050  10.443 -1.9990 -2.6685  2.7578
  811MPD2    N112001   2.938   3.618  10.443 -0.5253  0.1766  0.1006
  811MPD2    H712002   2.990   3.545  10.395 -1.1465 -0.6765  0.7213
  812MPD2     C12003   1.682   3.553  12.227  0.5269 -0.2950  0.0881
  812MPD2    C112004   1.572   3.536  12.297  0.0821 -0.2588  0.2254
  812MPD2    C212005   1.556   3.430  12.384  0.2447 -0.5694  0.1236
  812MPD2    C312006   1.655   3.336  12.397 -0.0421  0.0547  0.7721
  812MPD2    C412007   1.768   3.361  12.311  0.2860  0.7076 -0.6204
  812MPD2    C512008   1.785   3.467  12.227  0.2231  0.8879 -0.0722
  812MPD2     H12009   1.468   3.420  12.447  0.8504  0.5963  1.1380
  812MPD2    H112010   1.855   3.297  12.316 -0.4947 -0.3545 -0.6338
  812MPD2    H212011   1.680   3.639  12.160  0.2728 -0.9383 -0.7248
  812MPD2    H312012   1.875   3.501  12.176  0.4354 -0.5246 -0.6179
  812MPD2     N12013   1.656   3.229  12.491  0.0258 -0.0738 -0.5391
  812MPD2    H512014   1.564   3.206  12.526  0.0570  2.2191  1.0527
  812MPD2    N112015   1.476   3.642  12.283 -0.0355 -0.7877  0.4964
  812MPD2    H712016   1.508   3.722  12.230 -0.4238  0.0765  1.5758
  813MPD2     C12017   1.365   0.301  12.820 -0.2035 -0.3858 -0.2301
  813MPD2    C112018   1.374   0.399  12.918  0.4020  0.5016  0.0381
  813MPD2    C212019   1.283   0.405  13.020 -0.3538  0.2235 -0.0975
  813MPD2    C312020   1.166   0.333  13.007  0.1304 -0.4456  0.5328
  813MPD2    C412021   1.157   0.241  12.909 -0.3010  0.1310  0.8508
  813MPD2    C512022   1.263   0.220  12.825  0.1203 -0.7054 -0.8660
  813MPD2     H12023   1.286   0.473  13.104  1.7344  0.3118 -0.2496
  813MPD2    H112024   1.073   0.175  12.896  0.2688 -0.3370 -0.4562
  813MPD2    H212025   1.441   0.291  12.743  0.4342 -0.2198  0.3802
  813MPD2    H312026   1.257   0.156  12.738  1.2143  1.0107 -2.2007
  813MPD2     N12027   1.073   0.353  13.108  0.5764 -0.2805 -0.6738
  813MPD2    H512028   1.086   0.434  13.166  2.0546 -0.4003 -0.8328
  813MPD2    N112029   1.480   0.496  12.923 -0.7729 -0.1871 -0.4763
  813MPD2    H712030   1.478   0.562  13.000 -0.5070 -2.0492  1.1387
  814MPD2     C12031   1.804   1.743  12.437  0.6287  0.7423  0.3559
  814MPD2    C112032   1.809   1.813  12.319  0.4695 -0.4503  0.1590
  814MPD2    C212033   1.846   1.948  12.324 -0.5403  0.1714  0.0608
  814MPD2    C312034   1.883   2.006  12.442  0.0389 -0.0169 -0.0218
  814MPD2    C412035   1.876   1.936  12.556  0.3804 -1.0003  0.1182
  814MPD2    C512036   1.842   1.802  12.554 -0.4857 -0.1260 -0.3795
  814MPD2     H12037   1.847   2.004  12.231  0.4169 -1.3457 -0.8320
  814MPD2    H112038   1.897   1.984  12.651 -3.5177  0.7053  0.1421
  814MPD2    H212039   1.770   1.639  12.438 -1.3774  1.3920  1.3704
  814MPD2    H312040   1.831   1.735  12.639  0.1234 -1.1158 -1.0837
  814MPD2     N12041   1.920   2.140  12.451 -0.3516  0.6970 -0.6153
  814MPD2    H512042   1.939   2.177  12.544  1.7463  1.3823 -1.3151
  814MPD2    N112043   1.780   1.753  12.192  0.9152 -0.4805 -0.0241
  814MPD2    H712044   1.808   1.811  12.114 -1.7940  2.1172  0.9333
  815MPD2     C12045   1.601   0.236  12.224 -0.8829  0.5577 -0.1725
  815MPD2    C112046   1.636   0.153  12.118 -0.4093 -0.1349 -0.0753
  815MPD2    C212047   1.539   0.073  12.066  0.1392 -0.3819  0.3212
  815MPD2    C312048   1.414   0.064  12.128 -0.7459  0.3995 -1.1063
  815MPD2    C412049   1.378   0.147  12.231  0.4279 -0.0436  0.1937
  815MPD2    C512050   1.473   0.236  12.285 -0.1624 -0.2355  1.4764
  815MPD2     H12051   1.562   0.008  11.982 -1.9906  0.2239 -0.7251
  815MPD2    H112052   1.282   0.147  12.280  0.3035  0.2405 -0.0451
  815MPD2    H212053   1.676   0.292  12.278  0.9449 -1.9900 -0.0734
  815MPD2    H312054   1.446   0.292  12.374 -2.6703  1.7625 -0.5493
  815MPD2     N12055   1.325   4.710  12.070 -0.8077 -0.1697 -0.4426
  815MPD2    H512056   1.344   4.680  11.975  0.3471 -1.3699  0.1702
  815MPD2    N112057   1.761   0.147  12.068  0.2439  0.1079  0.8406
  815MPD2    H712058   1.780   0.077  11.997  1.6362  0.4516  0.8724
  816MPD2     C12059   1.915   4.080  17.058  0.1366  0.1128  0.1779
  816MPD2    C112060   2.030   4.155  17.053  0.4023 -0.5941 -0.5445
  816MPD2    C212061   2.146   4.084  17.023 -1.2421 -0.2260 -0.0107
  816MPD2    C312062   2.147   3.949  16.987  0.1677  0.5033  0.3037
  816MPD2    C412063   2.032   3.874  17.010  0.7231  0.1071 -0.3417
  816MPD2    C512064   1.922   3.940  17.054  0.9038 -0.4145  0.2010
  816MPD2     H12065   2.243   4.132  17.023 -0.6129 -1.4798  0.3756
  816MPD2    H112066   2.034   3.768  16.986 -0.7177  0.3138 -1.3774
  816MPD2    H212067   1.819   4.130  17.073  0.5130  0.4492  1.5346
  816MPD2    H312068   1.831   3.882  17.068  1.6859 -1.0946  2.4778
  816MPD2     N12069   2.266   3.893  16.927  0.3832 -0.3543 -0.1991
  816MPD2    H512070   2.350   3.949  16.921  0.8805 -1.2945 -2.0165
  816MPD2    N112071   2.021   4.292  17.086  0.2192  0.2761 -0.0034
  816MPD2    H712072   1.929   4.334  17.100 -0.4981 -2.0894  2.2566
  817MPD2     C12073   1.630   0.922   9.295  0.8669 -0.2390 -0.2099
  817MPD2    C112074   1.565   0.806   9.250 -0.5221  0.1326 -0.5116
  817MPD2    C212075   1.432   0.825   9.200 -0.8206  0.1235 -0.2776
  817MPD2    C312076   1.381   0.951   9.183 -0.2965  0.1280 -0.0272
  817MPD2    C412077   1.452   1.062   9.223  0.1735 -0.0083  0.7359
  817MPD2    C512078   1.573   1.046   9.280  0.3833  0.3228 -0.6160
  817MPD2     H12079   1.377   0.739   9.163 -1.9543  1.1658 -1.0177
  817MPD2    H112080   1.415   1.163   9.205  1.4648  0.3131 -0.1829
  817MPD2    H212081   1.731   0.919   9.332  0.1390 -2.8222  1.5480
  817MPD2    H312082   1.620   1.142   9.295  0.0961  0.4943 -0.8237
  817MPD2     N12083   1.249   0.955   9.129 -0.2817  0.0006 -0.0318
  817MPD2    H512084   1.218   0.868   9.086  1.3732 -0.7287  0.2372
  817MPD2    N112085   1.613   0.674   9.269  0.1190  0.3818 -0.1281
  817MPD2    H712086   1.564   0.597   9.224 -0.2810  0.9558 -0.6662
  818MPD2     C12087   0.612   0.888   9.937  0.3317  0.1871  0.2055
  818MPD2    C112088   0.483   0.907   9.987 -0.4119  0.0572  0.0419
  818MPD2    C212089   0.408   0.798  10.006  0.1339  0.8114 -0.3835
  818MPD2    C312090   0.467   0.676   9.998 -0.4365  0.6767  0.0670
  818MPD2    C412091   0.590   0.654   9.957  0.1511  0.7147 -0.8361
  818MPD2    C512092   0.664   0.765   9.914 -0.5712  0.2308  0.3147
  818MPD2     H12093   0.308   0.806  10.047  0.4019  1.9090  0.0410
  818MPD2    H112094   0.637   0.556   9.966 -2.4330 -0.4718 -0.3043
  818MPD2    H212095   0.682   0.970   9.924  0.9945 -0.2361  1.0420
  818MPD2    H312096   0.768   0.760   9.883 -0.2107  3.2773  1.0115
  818MPD2     N12097   0.401   0.555  10.035 -0.4668 -0.1259  0.5505
  818MPD2    H512098   0.451   0.470  10.011 -0.2510 -0.5621  2.4875
  818MPD2    N112099   0.432   1.042  10.013  0.1943  0.2932 -0.4558
  818MPD2    H712100   0.336   1.060  10.039 -0.3323 -0.5928 -1.8333
  819MPD2     C12101   3.461   3.081  15.408  0.0927  0.2021 -0.4741
  819MPD2    C112102   3.485   2.971  15.326 -0.2054  0.9350 -0.1756
  819MPD2    C212103   3.573   2.873  15.382  0.4457  0.3687  0.4592
  819MPD2    C312104   3.631   2.880  15.503  0.2978 -0.1803  0.2607
  819MPD2    C412105   3.607   2.987  15.583 -0.8093 -0.1841 -0.1748
  819MPD2    C512106   3.534   3.087  15.533  0.2518 -0.1798  1.0455
  819MPD2     H12107   3.592   2.776  15.336  1.1131 -0.3565  2.2582
  819MPD2    H112108   3.643   2.997  15.685 -0.3223 -1.6955 -0.2062
  819MPD2    H212109   3.389   3.158  15.382 -1.9284 -1.5698 -0.1549
  819MPD2    H312110   3.514   3.171  15.598 -1.0476  1.1272 -1.0138
  819MPD2     N12111   3.705   2.763  15.548  0.0592 -0.0739 -0.1045
  819MPD2    H512112   3.707   2.676  15.496 -0.0228  0.3205 -0.7591
  819MPD2    N112113   3.415   2.954  15.207 -0.9438  0.7295  0.1259
  819MPD2    H712114   3.344   3.023  15.183 -2.1697 -1.0518 -1.4058
  820MPD2     C12115   2.754   3.062  14.476  0.3399 -0.7343 -0.0615
  820MPD2    C112116   2.753   3.062  14.613 -0.0206  0.2756 -0.4617
  820MPD2    C212117   2.874   3.064  14.674 -0.3056 -0.5943 -0.3851
  820MPD2    C312118   2.990   3.077  14.603 -0.2168 -0.4466  0.5429
  820MPD2    C412119   2.991   3.074  14.464  0.3067 -1.7023  0.2832
  820MPD2    C512120   2.873   3.079  14.405 -0.0397 -0.2459  0.3894
  820MPD2     H12121   2.878   3.057  14.782  0.4179 -0.6281 -0.4163
  820MPD2    H112122   3.081   3.088  14.406 -0.5354 -1.9758 -1.0858
  820MPD2    H212123   2.659   3.064  14.424 -0.6685  0.5851  1.8301
  820MPD2    H312124   2.864   3.069  14.297 -3.8943 -1.7910  0.8567
  820MPD2     N12125   3.113   3.048  14.662  0.2845  0.0645 -0.5778
  820MPD2    H512126   3.197   3.033  14.607 -0.6359  1.8180 -2.4339
  820MPD2    N112127   2.647   3.041  14.704 -0.4595  0.1780  0.2189
  820MPD2    H712128   2.671   3.033  14.802  2.2462 -0.7204 -0.5263
  821MPD2     C12129   3.761   3.854  13.337  0.3259 -0.4043 -0.0012
  821MPD2    C112130   3.808   3.903  13.459 -0.6581  0.1386 -0.4549
  821MPD2    C212131   3.917   3.990  13.458  0.1032  0.8078 -0.6899
  821MPD2    C312132   3.977   4.020  13.340  0.1472  0.4585 -0.0571
  821MPD2    C412133   3.930   3.972  13.213  0.0598  0.1882  0.1206
  821MPD2    C512134   3.820   3.884  13.221 -0.8525 -0.5109  0.0703
  821MPD2     H12135   3.946   4.035  13.552  0.9208 -0.8769 -0.1333
  821MPD2    H112136   3.978   3.987  13.117  1.1545  0.6706  0.7412
  821MPD2    H212137   3.683   3.779  13.335 -0.5984  0.6446 -2.9939
  821MPD2    H312138   3.780   3.839  13.130  1.4591 -0.1160 -1.1509
  821MPD2     N12139   4.099   4.093  13.337  0.0627  0.3691  0.6737
  821MPD2    H512140   4.137   4.114  13.246 -0.7960  3.0559  0.9446
  821MPD2    N112141   3.755   3.865  13.586  0.1311  0.4735  0.5813
  821MPD2    H712142   3.799   3.890  13.673 -0.9887 -0.4864  1.4267
  822MPD2     C12143   4.527   3.909  15.977  0.4917 -0.4061  0.4408
  822MPD2    C112144   4.458   3.853  16.085  0.5674  0.5293  0.0166
  822MPD2    C212145   4.346   3.919  16.129 -0.1218 -0.2933  0.8536
  822MPD2    C312146   4.302   4.034  16.065 -0.0449  0.5634 -0.2821
  822MPD2    C412147   4.371   4.084  15.954  1.3217 -0.6384  1.0493
  822MPD2    C512148   4.480   4.018  15.917 -0.6886  0.3995 -0.4249
  822MPD2     H12149   4.291   3.871  16.209  0.4720 -1.3833  0.6099
  822MPD2    H112150   4.340   4.165  15.890 -2.1365 -2.4434  0.4319
  822MPD2    H212151   4.612   3.861  15.931  0.9498 -0.6148  1.4852
  822MPD2    H312152   4.531   4.049  15.826 -0.6962  0.8403 -0.2793
  822MPD2     N12153   4.196   4.099  16.122 -0.7247  0.2165  0.4572
  822MPD2    H512154   4.158   4.051  16.202 -1.7062  0.3243  0.0572
  822MPD2    N112155   4.514   3.753  16.165 -0.0936  0.3463 -1.0845
  822MPD2    H712156   4.460   3.724  16.246 -0.8158  1.3180 -1.2098
  823MPD2     C12157   3.747   4.260  16.805  0.0675  0.2711  0.6342
  823MPD2    C112158   3.833   4.187  16.723 -0.2113 -0.0391  0.0613
  823MPD2    C212159   3.903   4.078  16.774 -0.5511 -0.8727 -0.0214
  823MPD2    C312160   3.879   4.027  16.901  0.3105 -0.1571  0.4782
  823MPD2    C412161   3.795   4.102  16.986  0.1594  0.6309  0.2261
  823MPD2    C512162   3.744   4.215  16.934  0.0081  0.6201  0.2660
  823MPD2     H12163   3.976   4.029  16.712 -1.2331 -1.0383 -0.6951
  823MPD2    H112164   3.785   4.073  17.090 -1.4045 -0.9490 -0.3765
  823MPD2    H212165   3.689   4.345  16.772 -1.3914 -0.2666  1.8043
  823MPD2    H312166   3.670   4.266  16.995 -1.7322 -1.1779 -0.3419
  823MPD2     N12167   3.942   3.919  16.961  0.3132  0.2137 -0.0905
  823MPD2    H512168   3.913   3.886  17.053 -0.1180  0.0987 -0.2685
  823MPD2    N112169   3.847   4.232  16.593  0.1702 -0.1532  0.3728
  823MPD2    H712170   3.812   4.324  16.567 -0.9811 -0.4492  0.8883
  824MPD2     C12171   0.339   3.087  16.208  0.8853  0.0196 -0.9356
  824MPD2    C112172   0.260   3.140  16.113  0.0506  0.6174  0.2436
  824MPD2    C212173   0.283   3.111  15.985  0.5485  0.3544  0.1917
  824MPD2    C312174   0.399   3.037  15.946  0.5922 -0.2828  0.1865
  824MPD2    C412175   0.481   2.978  16.044 -1.1865 -0.2543 -0.2014
  824MPD2    C512176   0.448   3.007  16.176 -0.0647 -0.4533  0.5023
  824MPD2     H12177   0.230   3.160  15.904 -2.1860  0.2825  1.9221
  824MPD2    H112178   0.576   2.931  16.023  0.1574  1.8270  1.3120
  824MPD2    H212179   0.325   3.108  16.313  1.9426 -1.3930 -0.5189
  824MPD2    H312180   0.513   2.964  16.251 -1.7196 -2.7555  0.6146
  824MPD2     N12181   0.429   3.017  15.812  0.1657  0.2124 -0.2768
  824MPD2    H512182   0.360   3.055  15.748 -1.0491 -0.8731  0.3958
  824MPD2    N112183   0.164   3.243  16.136 -0.1082  0.7342 -0.1349
  824MPD2    H712184   0.114   3.288  16.060 -1.8726  0.6710  0.9747
  825MPD2     C12185   0.840   3.332  15.130 -0.6572  1.0338 -0.6053
  825MPD2    C112186   0.784   3.343  15.252 -1.0332  0.2794  1.0348
  825MPD2    C212187   0.782   3.465  15.315 -0.2311 -0.0059 -0.0529
  825MPD2    C312188   0.832   3.579  15.253  0.3667 -0.4411 -0.5758
  825MPD2    C412189   0.876   3.561  15.126  0.1200  0.1794  0.1308
  825MPD2    C512190   0.885   3.439  15.065  0.2007 -0.2340 -0.0613
  825MPD2     H12191   0.747   3.466  15.417  0.3970 -0.4814  0.1647
  825MPD2    H112192   0.917   3.648  15.076 -0.8598  1.0458  0.8211
  825MPD2    H212193   0.847   3.238  15.078  0.6068  0.9448 -0.2571
  825MPD2    H312194   0.934   3.433  14.968 -0.9495  0.4863 -0.6889
  825MPD2     N12195   0.853   3.703  15.311  0.6293 -0.7683 -0.2274
  825MPD2    H512196   0.874   3.781  15.249  0.7585 -0.1348  0.6132
  825MPD2    N112197   0.708   3.230  15.300  0.2457  0.3421  0.3059
  825MPD2    H712198   0.706   3.148  15.239 -2.4994 -0.2319  1.1466
  826MPD2     C12199   0.218   3.453  14.280 -0.2244  0.5546 -0.1297
  826MPD2    C112200   0.231   3.470  14.146 -0.0415 -0.3004  1.1352
  826MPD2    C212201   0.138   3.550  14.072  0.7618  0.9974 -0.4741
  826MPD2    C312202   0.040   3.623  14.146 -0.0533  0.1483 -0.3629
  826MPD2    C412203   0.046   3.624  14.287 -0.2872  0.1021 -0.2575
  826MPD2    C512204   0.133   3.534  14.351  0.0421  0.3566  0.1643
  826MPD2     H12205   0.138   3.557  13.964 -0.4494 -1.9329 -0.6548
  826MPD2    H112206   4.710   3.675  14.349  0.1745 -2.0487  2.0519
  826MPD2    H212207   0.275   3.380  14.336  0.8881  1.5232  0.0000
  826MPD2    H312208   0.133   3.526  14.459 -0.4992  0.4697  0.1737
  826MPD2     N12209   4.672   3.706  14.089  0.3774 -0.1996 -0.9396
  826MPD2    H512210   4.610   3.741  14.162  0.1516 -0.2593 -1.1045
  826MPD2    N112211   0.323   3.379  14.080  0.1056 -0.1287 -0.6005
  826MPD2    H712212   0.381   3.319  14.138 -0.2381  1.0558  0.9414
  827MPD2     C12213   0.751   4.567   9.952 -0.2274 -0.2512 -0.3487
  827MPD2    C112214   0.732   4.461  10.029  0.5976 -0.1283 -0.4187
  827MPD2    C212215   0.625   4.369  10.002 -0.5245  0.6191  0.2210
  827MPD2    C312216   0.533   4.403   9.906 -0.2316  0.2217  0.1499
  827MPD2    C412217   0.554   4.522   9.834 -0.0460 -0.3192 -0.4006
  827MPD2    C512218   0.665   4.596   9.848 -0.3551 -0.0265 -0.3242
  827MPD2     H12219   0.619   4.277  10.058  0.5642  0.7226  0.5111
  827MPD2    H112220   0.474   4.551   9.767 -2.6599  0.1127  2.9623
  827MPD2    H212221   0.829   4.640   9.967 -0.5860  0.0730 -0.0664
  827MPD2    H312222   0.668   4.694   9.803  1.5957 -0.0623 -0.2552
  827MPD2     N12223   0.429   4.303   9.884 -0.3318 -0.7708 -0.3048
  827MPD2    H512224   0.431   4.216   9.936 -1.7602 -1.0015 -0.6459
  827MPD2    N112225   0.834   4.432  10.126 -0.1290  0.4426 -0.7739
  827MPD2    H712226   0.910   4.499  10.125  0.2148  0.0546 -0.9020
  828MPD2     C12227   4.193   4.203  12.427  0.5149 -0.2549 -0.6135
  828MPD2    C112228   4.073   4.233  12.363 -0.2994 -0.0101 -0.3256
  828MPD2    C212229   4.074   4.226  12.228 -0.4911  0.4844 -0.5293
  828MPD2    C312230   4.180   4.179  12.155 -0.4115 -0.6124 -1.0508
  828MPD2    C412231   4.290   4.132  12.223 -0.8950 -0.6278 -0.7537
  828MPD2    C512232   4.292   4.141  12.360  0.3726  0.1575 -0.2958
  828MPD2     H12233   3.985   4.254  12.173  0.6245  0.3698 -2.3916
  828MPD2    H112234   4.377   4.096  12.168 -1.0619 -2.3888  0.1317
  828MPD2    H212235   4.218   4.230  12.529  2.0490 -1.2109 -0.7365
  828MPD2    H312236   4.386   4.114  12.407  0.3437 -0.2281 -0.4616
  828MPD2     N12237   4.186   4.166  12.011 -0.3430  0.0572 -0.3290
  828MPD2    H512238   4.256   4.104  11.970 -0.1085 -0.5961  1.0880
  828MPD2    N112239   3.965   4.284  12.433 -0.1019 -0.8249  0.2889
  828MPD2    H712240   3.881   4.314  12.385 -0.1468 -2.4525 -0.6310
  829MPD2     C12241   3.311   4.636  12.000 -0.4911  1.0496  0.2858
  829MPD2    C112242   3.248   4.615  12.124  0.5528  0.1106  0.6922
  829MPD2    C212243   3.319   4.562  12.231 -0.4452  0.6487 -0.0795
  829MPD2    C312244   3.451   4.525  12.228  0.7812  0.1843  0.4077
  829MPD2    C412245   3.515   4.546  12.106 -0.5106 -0.0420  0.3546
  829MPD2    C512246   3.446   4.599  11.996 -0.5364 -0.5979  0.1285
  829MPD2     H12247   3.268   4.540  12.325 -0.5769 -0.3046 -0.3724
  829MPD2    H112248   3.617   4.514  12.087 -0.1727 -0.1978  2.4266
  829MPD2    H212249   3.269   4.681  11.911 -0.4914  0.3731 -0.0619
  829MPD2    H312250   3.487   4.595  11.895  0.5941 -1.1681  0.6047
  829MPD2     N12251   3.537   4.482  12.341  0.6057 -0.0528 -0.2563
  829MPD2    H512252   3.635   4.461  12.325  0.8300  1.3551 -0.7582
  829MPD2    N112253   3.116   4.660  12.143  0.0800 -0.1597  0.2045
  829MPD2    H712254   3.068   4.703  12.064 -1.2296 -1.0294  0.5339
  830MPD2     C12255   4.173   2.117  15.296 -0.4673 -0.3400  0.3400
  830MPD2    C112256   4.057   2.191  15.306  0.6417  0.0868 -0.4565
  830MPD2    C212257   3.973   2.190  15.190  0.4919  0.2321 -0.0602
  830MPD2    C312258   4.015   2.123  15.073 -0.3107 -0.4971 -0.4902
  830MPD2    C412259   4.128   2.057  15.079 -0.7466  0.2399  0.4343
  830MPD2    C512260   4.200   2.045  15.196 -0.3932 -0.1064  0.0017
  830MPD2     H12261   3.884   2.251  15.199 -0.2575 -1.0786  1.3704
  830MPD2    H112262   4.156   1.994  14.996  1.2397  1.3547  0.2702
  830MPD2    H212263   4.241   2.114  15.380  0.9419 -1.0304 -0.8370
  830MPD2    H312264   4.294   1.991  15.195 -1.3742 -1.8426  0.6881
  830MPD2     N12265   3.947   2.137  14.946 -0.0969  0.7503  0.2648
  830MPD2    H512266   3.985   2.090  14.864  1.8448 -0.8145  2.0462
  830MPD2    N112267   4.027   2.269  15.428 -0.0446 -0.1851  0.1844
  830MPD2    H712268   4.099   2.271  15.499 -1.5053  1.1540  1.6426
  831MPD2     C12269   4.402   4.240  16.464 -0.5400 -0.3682 -0.3862
  831MPD2    C112270   4.462   4.129  16.405  0.2705  0.2840  0.1733
  831MPD2    C212271   4.408   4.001  16.431  0.9283 -0.4816  0.4282
  831MPD2    C312272   4.293   3.987  16.509  0.9209  0.9872  0.1626
  831MPD2    C412273   4.233   4.104  16.560 -0.5337 -1.0775 -0.6214
  831MPD2    C512274   4.291   4.227  16.541  0.6347 -0.5835  0.0134
  831MPD2     H12275   4.457   3.910  16.397  0.7977 -0.8994  1.3430
  831MPD2    H112276   4.144   4.101  16.622  0.4271 -0.2975  0.7806
  831MPD2    H212277   4.439   4.341  16.453 -1.8535  0.4268  2.3789
  831MPD2    H312278   4.246   4.317  16.580  0.0722 -1.6244  1.7419
  831MPD2     N12279   4.213   3.871  16.504 -0.4122 -0.3768  0.0341
  831MPD2    H512280   4.117   3.878  16.534 -0.3818  1.7767 -0.4046
  831MPD2    N112281   4.587   4.143  16.328  0.1922 -0.2606 -1.2008
  831MPD2    H712282   4.597   4.235  16.287  1.2039 -0.9411 -2.4640
  832MPD2     C12283   2.968   0.546  17.230  0.6604  0.2435 -0.5994
  832MPD2    C112284   2.955   0.679  17.223  0.3587 -0.2431  0.2415
  832MPD2    C212285   2.861   0.742  17.134  0.4589  0.0426 -0.3564
  832MPD2    C312286   2.769   0.664  17.062  0.2719  0.3983  0.7132
  832MPD2    C412287   2.785   0.527  17.076  0.2522 -0.2454 -0.7466
  832MPD2    C512288   2.878   0.474  17.158 -0.0091  0.5955  0.3458
  832MPD2     H12289   2.851   0.849  17.122 -0.7659  0.0133  0.4710
  832MPD2    H112290   2.727   0.458  17.016  1.8026 -0.1964 -2.3325
  832MPD2    H212291   3.049   0.499  17.285  0.9004 -0.3525 -1.4717
  832MPD2    H312292   2.882   0.366  17.160  1.9084  0.6357 -1.1973
  832MPD2     N12293   2.678   0.716  16.967 -0.4203 -0.0451 -0.1136
  832MPD2    H512294   2.618   0.643  16.930 -1.2192  0.2417  0.6045
  832MPD2    N112295   3.033   0.747  17.318  0.0124 -0.1398  0.6825
  832MPD2    H712296   3.078   0.698  17.395 -1.2778  1.9178  2.7475
  833MPD2     C12297   0.602   2.158  12.580  0.1784 -0.6740  0.1526
  833MPD2    C112298   0.556   2.189  12.451  0.5611  0.4792 -0.7048
  833MPD2    C212299   0.634   2.140  12.346  0.1019 -0.5244 -0.0720
  833MPD2    C312300   0.747   2.056  12.365  0.0980 -0.4585  0.4709
  833MPD2    C412301   0.782   2.027  12.490 -0.2358  0.1648  0.5927
  833MPD2    C512302   0.712   2.081  12.593  0.2355  0.5773 -0.7234
  833MPD2     H12303   0.596   2.169  12.249 -0.7042 -2.2193 -0.2591
  833MPD2    H112304   0.869   1.963  12.502 -0.4127 -0.1414  0.2468
  833MPD2    H212305   0.550   2.202  12.665  1.2970 -0.9643  0.9932
  833MPD2    H312306   0.731   2.048  12.694 -0.4172 -0.7312 -1.0341
  833MPD2     N12307   0.817   2.004  12.254 -0.4673 -0.3998  0.1128
  833MPD2    H512308   0.890   1.935  12.261 -1.4270 -1.4649 -0.4421
  833MPD2    N112309   0.440   2.269  12.436  0.2665 -0.0729  0.3037
  833MPD2    H712310   0.380   2.278  12.517 -0.5555 -0.1916 -0.2994
  834MPD2     C12311   0.658   1.272  11.633  0.9120 -0.2779  0.2507
  834MPD2    C112312   0.633   1.380  11.552 -0.0992 -0.0945 -0.1729
  834MPD2    C212313   0.667   1.511  11.595 -0.1845 -0.3410 -0.2332
  834MPD2    C312314   0.748   1.527  11.707  0.3024  0.8733  0.2820
  834MPD2    C412315   0.782   1.411  11.783 -0.1376 -0.3681  0.3221
  834MPD2    C512316   0.730   1.289  11.747  0.9012  0.3597 -0.7409
  834MPD2     H12317   0.670   1.595  11.525  0.2897  0.4226  0.7087
  834MPD2    H112318   0.827   1.422  11.881  1.2948 -0.7075 -0.2977
  834MPD2    H212319   0.633   1.170  11.605 -0.3613  0.0045  0.3522
  834MPD2    H312320   0.740   1.200  11.807  0.9096  0.6189 -0.3553
  834MPD2     N12321   0.775   1.654  11.754  0.3129 -0.1732  0.1080
  834MPD2    H512322   0.741   1.729  11.695  0.6475  0.5946  0.8893
  834MPD2    N112323   0.554   1.357  11.435  0.1140 -0.4046  0.2387
  834MPD2    H712324   0.532   1.262  11.407 -0.9683  0.0575 -0.4818
  835MPD2     C12325   4.618   0.098  11.014 -0.3185  0.0636  0.1940
  835MPD2    C112326   4.564   0.102  11.145  0.4207  0.2885  0.2430
  835MPD2    C212327   4.639   0.047  11.247  0.5608  0.2677  0.3967
  835MPD2    C312328   0.027   4.717  11.229 -0.4013 -0.6153 -0.3826
  835MPD2    C412329   0.086   4.722  11.104 -0.3068  0.2337  0.4849
  835MPD2    C512330   0.009   0.038  10.993 -0.7787 -0.7316  0.6885
  835MPD2     H12331   4.592   0.063  11.343 -2.3295  2.3113 -1.3762
  835MPD2    H112332   0.184   4.683  11.080  0.2338  1.6411  0.3775
  835MPD2    H212333   4.579   0.140  10.922  0.5214  3.2832  1.2881
  835MPD2    H312334   0.060   0.055  10.899 -0.7034  3.2372  1.4508
  835MPD2     N12335   0.086   4.648  11.338  0.0272  0.2200  0.1324
  835MPD2    H512336   0.047   4.666  11.430 -1.2320  0.7281 -0.4865
  835MPD2    N112337   4.443   0.159  11.177 -0.5815 -0.1182 -0.3107
  835MPD2    H712338   4.422   0.159  11.277 -0.8838 -0.7312 -0.3726
  836MPD2     C12339   4.336   4.493  11.582 -0.4425 -0.6623  0.1380
  836MPD2    C112340   4.433   4.456  11.671  0.0664 -0.2528 -0.1367
  836MPD2    C212341   4.395   4.464  11.807 -0.2105  0.0543  0.3991
  836MPD2    C312342   4.267   4.503  11.847 -0.1040  0.2120 -0.9921
  836MPD2    C412343   4.178   4.534  11.750 -0.1119 -0.0611  0.6435
  836MPD2    C512344   4.206   4.530  11.617  0.4474  0.3238  0.0243
  836MPD2     H12345   4.473   4.442  11.879  0.4054  2.6021  0.5213
  836MPD2    H112346   4.075   4.548  11.782  0.5703  2.4423  1.7177
  836MPD2    H212347   4.365   4.498  11.478 -0.9843 -2.2605 -0.0941
  836MPD2    H312348   4.130   4.545  11.540 -0.6204  0.4369  1.0945
  836MPD2     N12349   4.236   4.534  11.981  0.0550  0.2609  0.5805
  836MPD2    H512350   4.140   4.562  11.999 -0.5277 -1.6141  0.3876
  836MPD2    N112351   4.565   4.423  11.623 -0.5137  0.6437 -0.5325
  836MPD2    H712352   4.578   4.423  11.522 -1.7955 -1.7245 -0.6910
  837MPD2     C12353   2.892   4.731  10.530 -0.3038 -0.3418  0.1575
  837MPD2    C112354   2.826   4.727  10.410  0.3801  0.1798 -0.4519
  837MPD2    C212355   2.814   0.100  10.326 -0.8199 -0.1022 -0.0015
  837MPD2    C312356   2.855   0.222  10.358  0.2841  0.8962  1.2197
  837MPD2    C412357   2.928   0.235  10.479 -0.2767  0.0428 -0.9386
  837MPD2    C512358   2.948   0.120  10.550 -0.1055  0.5666  0.8023
  837MPD2     H12359   2.751   0.092  10.237 -1.5832  0.2275  0.5067
  837MPD2    H112360   2.981   0.322  10.516 -0.0371 -0.0999 -0.9433
  837MPD2    H212361   2.891   4.646  10.597 -1.3986 -0.3449  0.1372
  837MPD2    H312362   3.017   0.139  10.631  0.0089 -0.1070  0.8645
  837MPD2     N12363   2.815   0.331  10.280  0.1467  0.2245  0.1174
  837MPD2    H512364   2.778   0.311  10.188 -0.0681 -0.3840  0.3327
  837MPD2    N112365   2.759   4.615  10.356  0.0351 -0.1708  0.6435
  837MPD2    H712366   2.706   4.630  10.271 -0.7201 -2.3222  0.7268
  838MPD2     C12367   1.022   3.110  11.951 -0.1683 -0.2414  0.1411
  838MPD2    C112368   1.124   3.023  11.977 -0.1845  0.0356 -0.2201
  838MPD2    C212369   1.107   2.943  12.086  0.2018  0.0314  0.0012
  838MPD2    C312370   0.994   2.928  12.158  0.8605  0.7662  0.3000
  838MPD2    C412371   0.897   3.023  12.132  0.5164 -0.5289 -0.2204
  838MPD2    C512372   0.910   3.111  12.028 -0.5882 -0.1681  0.7947
  838MPD2     H12373   1.190   2.877  12.109  1.2797  1.4307  0.0913
  838MPD2    H112374   0.797   3.012  12.173  0.4408  1.7378  0.1878
  838MPD2    H212375   1.022   3.177  11.866 -1.4136  0.0598  0.3819
  838MPD2    H312376   0.827   3.174  11.999 -0.0507 -0.4857 -1.3885
  838MPD2     N12377   0.983   2.809  12.236 -0.1238 -0.1551  0.1378
  838MPD2    H512378   1.063   2.747  12.226  0.1782  0.3786 -0.7373
  838MPD2    N112379   1.227   2.998  11.889  0.5414  0.4037  0.6481
  838MPD2    H712380   1.282   2.917  11.914 -1.3210 -1.5365 -1.6179
  839MPD2     C12381   1.705   2.276  11.880 -1.0375 -0.9029 -0.0184
  839MPD2    C112382   1.642   2.278  11.757  0.5901 -0.2822  0.8167
  839MPD2    C212383   1.588   2.402  11.711 -0.0872 -0.4944 -0.1383
  839MPD2    C312384   1.603   2.520  11.792 -0.0471  0.2856  1.4838
  839MPD2    C412385   1.671   2.515  11.913 -0.1577 -0.5074  0.2076
  839MPD2    C512386   1.710   2.395  11.959 -0.1158 -0.2199 -0.4854
  839MPD2     H12387   1.533   2.412  11.618 -0.3121  1.0306  0.1629
  839MPD2    H112388   1.702   2.601  11.972  0.4507  0.9314 -2.2043
  839MPD2    H212389   1.748   2.192  11.933  1.6246  0.7356  0.4455
  839MPD2    H312390   1.770   2.392  12.049 -0.7190 -0.3560 -0.0955
  839MPD2     N12391   1.553   2.644  11.755 -0.6369 -0.2280  0.1490
  839MPD2    H512392   1.569   2.715  11.826  0.9725 -0.1552 -0.2723
  839MPD2    N112393   1.605   2.160  11.682  0.4323  0.1431  0.3235
  839MPD2    H712394   1.564   2.176  11.590 -0.6162  0.4463  0.8413
  840MPD2     C12395   1.457   4.581  10.104  0.7984 -0.1524  0.3230
  840MPD2    C112396   1.410   4.591  10.232 -0.0120 -1.3464 -0.0322
  840MPD2    C212397   1.449   4.695  10.306  0.4355 -0.2489 -0.0033
  840MPD2    C312398   1.541   0.055  10.256  0.7414  0.0381 -0.0182
  840MPD2    C412399   1.602   0.042  10.131  0.1471  0.0945 -0.8319
  840MPD2    C512400   1.548   4.675  10.053  0.5880 -0.2684 -0.6189
  840MPD2     H12401   1.409   4.705  10.406  1.8765  3.4783  0.1926
  840MPD2    H112402   1.683   0.104  10.096 -0.3180  1.1290 -0.0777
  840MPD2    H212403   1.439   4.489  10.051 -0.5741 -0.7609  1.8133
  840MPD2    H312404   1.585   4.649   9.955 -1.4833 -0.0608 -1.4499
  840MPD2     N12405   1.597   0.157  10.341 -0.2032  0.1914  0.4107
  840MPD2    H512406   1.652   0.226  10.293 -1.0131  2.7410  3.1496
  840MPD2    N112407   1.316   4.495  10.270 -0.5282  0.5220 -0.5026
  840MPD2    H712408   1.286   4.431  10.198  1.5433 -0.3636 -0.5825
  841MPD2     C12409   1.200   0.136  14.484 -0.0251  0.5820  0.1949
  841MPD2    C112410   1.252   0.017  14.526  0.2026 -1.0647  0.0463
  841MPD2    C212411   1.371   0.015  14.598 -0.3001  0.8759  0.2486
  841MPD2    C312412   1.436   0.137  14.624  0.5709 -0.0544  0.2410
  841MPD2    C412413   1.376   0.255  14.588  0.1811  0.3682  0.0782
  841MPD2    C512414   1.259   0.257  14.521 -0.3314  0.1058 -0.1057
  841MPD2     H12415   1.420   4.656  14.613  0.7882  0.8570 -3.3424
  841MPD2    H112416   1.425   0.349  14.611  1.6308 -0.0300 -1.3482
  841MPD2    H212417   1.108   0.147  14.428  0.9182  1.6186 -1.1461
  841MPD2    H312418   1.208   0.348  14.493 -1.9000 -0.1967  1.7884
  841MPD2     N12419   1.558   0.129  14.692 -0.1735  0.5906  0.1973
  841MPD2    H512420   1.591   0.034  14.705  2.3722  1.0660 -2.7978
  841MPD2    N112421   1.220   4.628  14.468  0.0159 -0.3879  0.3701
  841MPD2    H712422   1.280   4.556  14.507  0.0642 -1.1706 -1.1699
  842MPD2     C12423   2.118   1.270  16.829 -0.6866  0.4860 -0.4289
  842MPD2    C112424   2.049   1.182  16.746  0.4738 -0.3856  0.3573
  842MPD2    C212425   2.014   1.056  16.792 -0.2645  0.1278 -0.3756
  842MPD2    C312426   2.060   1.013  16.915  0.5529 -0.0406  0.0024
  842MPD2    C412427   2.131   1.104  16.999 -0.3772 -0.2229 -0.6296
  842MPD2    C512428   2.156   1.227  16.948  0.2651 -0.0200 -0.1795
  842MPD2     H12429   1.961   0.984  16.731 -0.0752  0.7382 -1.2612
  842MPD2    H112430   2.180   1.075  17.091  0.3734  1.8918 -0.3539
  842MPD2    H212431   2.156   1.362  16.786  1.4339  0.6315  1.7255
  842MPD2    H312432   2.212   1.301  17.005 -1.4169  0.4279  0.9238
  842MPD2     N12433   2.025   0.888  16.961  0.3654 -0.1228 -0.8965
  842MPD2    H512434   2.033   0.869  17.061 -1.6681 -1.5108 -0.9935
  842MPD2    N112435   2.018   1.223  16.614 -0.4122 -0.7298  0.4554
  842MPD2    H712436   2.069   1.304  16.581 -0.7117 -1.0796 -0.8782
  843MPD2     C12437   3.658   1.333   0.148  0.2945 -0.5990  0.4470
  843MPD2    C112438   3.741   1.299   0.038 -0.4923 -0.0162 -0.4660
  843MPD2    C212439   3.853   1.375   0.020 -0.7743 -0.0878  0.1341
  843MPD2    C312440   3.876   1.491   0.095  0.3015  0.0078 -0.4636
  843MPD2    C412441   3.787   1.528   0.191  0.4727 -0.2391 -0.1387
  843MPD2    C512442   3.685   1.447   0.216 -0.4879 -0.6058  0.4304
  843MPD2     H12443   3.923   1.339  17.688 -0.2223  1.5581 -0.1481
  843MPD2    H112444   3.804   1.626   0.234  0.5031  1.0974 -3.2022
  843MPD2    H212445   3.571   1.270   0.167 -1.4279  0.3831 -4.0319
  843MPD2    H312446   3.629   1.480   0.302 -0.7945  0.7842 -0.3037
  843MPD2     N12447   3.999   1.561   0.077  0.0758 -0.1444  0.8417
  843MPD2    H512448   4.012   1.642   0.137 -0.8602  0.3660  0.3554
  843MPD2    N112449   3.699   1.186  17.707 -0.3501  0.0989  1.0072
  843MPD2    H712450   3.615   1.149   0.006 -1.1405 -1.3678 -1.7873
  844MPD2     C12451   2.386   0.115  16.636  0.1091 -0.7413 -0.2047
  844MPD2    C112452   2.481   0.111  16.532 -1.0686 -0.0880  0.9409
  844MPD2    C212453   2.590   0.193  16.545 -0.7852 -0.2266 -0.8338
  844MPD2    C312454   2.589   0.293  16.639  0.1859 -0.1117 -0.1175
  844MPD2    C412455   2.486   0.303  16.731  0.7701 -0.1451  0.2570
  844MPD2    C512456   2.397   0.207  16.740 -0.4305 -0.5356  0.2361
  844MPD2     H12457   2.671   0.196  16.472 -0.5613 -1.5389 -0.6432
  844MPD2    H112458   2.487   0.383  16.805 -1.8728  0.1245 -0.0100
  844MPD2    H212459   2.295   0.057  16.644 -0.2569 -0.0300  0.8630
  844MPD2    H312460   2.322   0.210  16.819  0.8827  1.2354  1.3986
  844MPD2     N12461   2.692   0.387  16.634 -0.7781 -0.7649  0.3796
  844MPD2    H512462   2.776   0.366  16.580 -1.4464 -0.1604 -0.8928
  844MPD2    N112463   2.473   0.018  16.423 -0.0678  0.4224  0.1195
  844MPD2    H712464   2.540   0.036  16.350 -2.5828 -0.8038 -2.4685
  845MPD2     C12465   2.842   1.393  16.838 -0.1515 -0.9579 -0.0480
  845MPD2    C112466   2.897   1.324  16.943 -0.9597 -0.3599 -0.1574
  845MPD2    C212467   2.943   1.194  16.925 -0.1917  0.9633 -0.4653
  845MPD2    C312468   2.936   1.141  16.796  0.1970  0.0844  0.0892
  845MPD2    C412469   2.878   1.214  16.692  0.3678  0.9020  0.4712
  845MPD2    C512470   2.842   1.344  16.713  0.1593 -0.5845 -0.4766
  845MPD2     H12471   2.975   1.137  17.011  0.0617 -0.0451 -1.2158
  845MPD2    H112472   2.865   1.175  16.591 -0.3245  4.0645 -0.6625
  845MPD2    H212473   2.797   1.489  16.858  1.5077 -0.0211 -0.7185
  845MPD2    H312474   2.799   1.403  16.632  0.2202  0.6859  0.4237
  845MPD2     N12475   2.952   1.006  16.788  0.1609 -0.0117  0.0489
  845MPD2    H512476   3.015   0.956  16.851  0.7336  0.3160 -0.2634
  845MPD2    N112477   2.888   1.401  17.063 -0.1307  0.2557  0.0990
  845MPD2    H712478   2.833   1.487  17.059  2.8883  2.1393 -1.1158
  846MPD2     C12479   3.780   1.350  13.355 -0.0108 -0.4739  0.4331
  846MPD2    C112480   3.848   1.461  13.394 -0.4645 -0.4764  0.3419
  846MPD2    C212481   3.808   1.518  13.510 -0.0811 -0.8093 -0.1024
  846MPD2    C312482   3.715   1.469  13.594  0.0504  0.4881  0.0635
  846MPD2    C412483   3.655   1.351  13.554 -0.4278 -0.1629 -0.2878
  846MPD2    C512484   3.686   1.291  13.436  0.2206 -0.6201  0.1562
  846MPD2     H12485   3.864   1.608  13.533 -1.1516  0.7499 -3.6048
  846MPD2    H112486   3.572   1.320  13.618  0.5657 -0.3452  0.9022
  846MPD2    H212487   3.789   1.297  13.261 -0.4241 -0.4062  0.3533
  846MPD2    H312488   3.638   1.199  13.404  0.5647 -0.4926 -0.7456
  846MPD2     N12489   3.681   1.545  13.713 -0.4457 -0.0110  0.6147
  846MPD2    H512490   3.728   1.633  13.731  0.5705 -0.7376  1.4994
  846MPD2    N112491   3.950   1.518  13.314 -0.0360  0.4103  0.4019
  846MPD2    H712492   4.005   1.596  13.349  0.7410 -0.4683  1.1581
  847MPD2     C12493   4.350   2.494  14.137  0.0315 -0.1949 -0.3561
  847MPD2    C112494   4.445   2.492  14.244  0.1992  0.0802  0.1847
  847MPD2    C212495   4.520   2.381  14.266  0.4993 -0.3425 -0.3342
  847MPD2    C312496   4.505   2.268  14.181  0.2405  0.1335 -0.2379
  847MPD2    C412497   4.427   2.275  14.070 -0.0086  0.8600 -0.3152
  847MPD2    C512498   4.346   2.383  14.051 -0.1527 -0.3389  0.9731
  847MPD2     H12499   4.590   2.380  14.349 -0.1666 -0.1392  0.2322
  847MPD2    H112500   4.423   2.192  14.001  0.9374  0.7212 -0.2049
  847MPD2    H212501   4.295   2.580  14.101  0.6548  0.6706  0.7509
  847MPD2    H312502   4.271   2.376  13.973 -0.1715  0.7185  0.8856
  847MPD2     N12503   4.554   2.137  14.215  0.7127 -0.0159 -0.2916
  847MPD2    H512504   4.526   2.066  14.147  0.3142 -1.9275  1.8659
  847MPD2    N112505   4.457   2.596  14.337  0.4059  0.0127 -0.9606
  847MPD2    H712506   4.524   2.581  14.412 -0.4417 -4.7041 -1.1015
  848MPD2     C12507   2.306   1.111  16.302 -0.7350 -0.4858  0.0102
  848MPD2    C112508   2.404   1.137  16.395  0.3777 -0.2190 -0.4416
  848MPD2    C212509   2.508   1.222  16.373  0.3529  0.1751 -0.3711
  848MPD2    C312510   2.526   1.278  16.248 -0.3250  0.3935 -0.1414
  848MPD2    C412511   2.431   1.252  16.150 -0.3341  0.5356 -0.4672
  848MPD2    C512512   2.319   1.172  16.175  0.1443  0.0697  0.3606
  848MPD2     H12513   2.572   1.253  16.455  0.7662 -1.2066 -0.1726
  848MPD2    H112514   2.448   1.296  16.052  2.3220 -2.3035 -1.2957
  848MPD2    H212515   2.214   1.059  16.327  0.4056 -1.2722  2.6209
  848MPD2    H312516   2.244   1.154  16.099  0.7694  0.6297 -0.3967
  848MPD2     N12517   2.619   1.384  16.225 -0.6118  0.1579  0.2078
  848MPD2    H512518   2.598   1.431  16.138  1.3160  1.9570  0.7151
  848MPD2    N112519   2.413   1.082  16.525  0.3411 -0.0875  0.0785
  848MPD2    H712520   2.473   1.129  16.592  0.8842 -0.1417 -0.3688
  849MPD2     C12521   1.343   0.441  14.123  0.1399 -0.0611 -0.2573
  849MPD2    C112522   1.369   0.363  14.016 -0.0994 -0.1121 -0.0566
  849MPD2    C212523   1.483   0.285  14.013  0.6504  1.3652  0.3644
  849MPD2    C312524   1.568   0.295  14.125  0.5902 -0.0040  0.3026
  849MPD2    C412525   1.548   0.372  14.238 -0.1030  0.6936 -0.2062
  849MPD2    C512526   1.431   0.450  14.230 -0.8101  0.3282 -0.7819
  849MPD2     H12527   1.486   0.212  13.933  0.8354  2.2225 -0.4050
  849MPD2    H112528   1.616   0.387  14.320  0.4321 -0.5924 -0.4242
  849MPD2    H212529   1.244   0.485  14.130  0.1172  0.0504 -1.4069
  849MPD2    H312530   1.410   0.504  14.322 -2.0315  0.7278 -1.2942
  849MPD2     N12531   1.694   0.225  14.112  0.7473  0.2488 -0.3025
  849MPD2    H512532   1.717   0.164  14.034 -0.9944 -0.7988 -0.0011
  849MPD2    N112533   1.278   0.335  13.905 -0.1592  0.1574  0.0700
  849MPD2    H712534   1.302   0.261  13.840 -1.9518 -1.1938  0.9458
  850MPD2     C12535   4.726   2.902  14.953  0.4103  0.8108  0.1559
  850MPD2    C112536   4.674   3.009  15.029 -0.4861  0.5704  0.2032
  850MPD2    C212537   0.028   3.106  15.066 -0.5027 -0.4629  0.0998
  850MPD2    C312538   0.164   3.102  15.033 -0.0403 -0.2624 -0.7828
  850MPD2    C412539   0.210   2.992  14.961  0.0060  0.1958 -0.6829
  850MPD2    C512540   0.121   2.905  14.917  0.7859  0.7150  0.0400
  850MPD2     H12541   4.722   3.195  15.111 -1.9480 -1.3645  0.5035
  850MPD2    H112542   0.309   2.975  14.920  0.2824  3.8818 -1.5460
  850MPD2    H212543   4.669   2.814  14.924 -0.4625  0.8130  1.8405
  850MPD2    H312544   0.158   2.822  14.859  0.8397  0.8573 -0.1297
  850MPD2     N12545   0.269   3.192  15.081  0.0974  0.6164  0.6902
  850MPD2    H512546   0.363   3.183  15.044  0.3404 -0.8578  1.6784
  850MPD2    N112547   4.535   3.010  15.058 -0.1847  0.4389  0.5879
  850MPD2    H712548   4.489   2.920  15.043  1.0623  0.0145 -0.7659
  851MPD2     C12549   4.056   2.898  14.523 -0.2710  0.2778 -0.4355
  851MPD2    C112550   4.054   2.851  14.653 -0.4939  0.4956 -0.5696
  851MPD2    C212551   4.026   2.716  14.671 -0.2061 -0.2285 -0.2538
  851MPD2    C312552   4.008   2.631  14.563 -0.4709 -0.4930 -0.2256
  851MPD2    C412553   4.004   2.687  14.435  0.0537 -0.5082  0.1111
  851MPD2    C512554   4.028   2.821  14.418 -0.2123  0.2972  0.1349
  851MPD2     H12555   4.012   2.671  14.769 -1.0245 -3.4866 -1.8755
  851MPD2    H112556   3.995   2.626  14.346  1.9410 -0.9982  0.2554
  851MPD2    H212557   4.085   2.999  14.496 -1.4726  0.3555 -1.4730
  851MPD2    H312558   4.023   2.867  14.320  0.0721 -0.7248 -0.3607
  851MPD2     N12559   3.975   2.497  14.599  0.1688  0.4568 -0.2821
  851MPD2    H512560   3.997   2.475  14.695 -0.6734 -0.2791 -0.2640
  851MPD2    N112561   4.096   2.933  14.755  0.1610 -0.3224  0.0402
  851MPD2    H712562   4.110   3.031  14.733 -0.0888  0.0066  1.3511
  852MPD2     C12563   4.028   0.854  10.250  0.4772 -0.1816  0.0319
  852MPD2    C112564   4.146   0.907  10.288 -0.4208 -0.8354  0.0800
  852MPD2    C212565   4.176   1.035  10.244 -0.3670  0.3590  0.2444
  852MPD2    C312566   4.092   1.108  10.155  0.4290 -0.2741  0.4969
  852MPD2    C412567   3.973   1.047  10.119  0.4672 -0.5269  0.2198
  852MPD2    C512568   3.939   0.927  10.172 -0.0260 -0.1621 -0.0699
  852MPD2     H12569   4.264   1.088  10.279  1.7173 -1.3020 -2.4989
  852MPD2    H112570   3.894   1.088  10.056  0.2906 -0.1782  0.6688
  852MPD2    H212571   3.985   0.768  10.301 -0.0080  0.1561  0.1886
  852MPD2    H312572   3.840   0.887  10.153 -0.2463  0.6789 -0.6827
  852MPD2     N12573   4.136   1.239  10.122  0.2992  0.8638 -0.4467
  852MPD2    H512574   4.226   1.270  10.156 -0.9048  1.5158  2.1306
  852MPD2    N112575   4.229   0.838  10.381  0.2631 -0.1508  0.5457
  852MPD2    H712576   4.201   0.743  10.403 -2.4808  0.4585 -0.3681
  853MPD2     C12577   1.342   0.692  12.408 -0.1797 -0.1015 -0.4161
  853MPD2    C112578   1.262   0.792  12.354  0.1786  0.3850  0.1703
  853MPD2    C212579   1.208   0.773  12.226  0.3830  0.3798  0.1021
  853MPD2    C312580   1.225   0.651  12.161 -0.1131 -0.0735  0.2450
  853MPD2    C412581   1.297   0.549  12.218 -0.5337 -0.4781 -0.6818
  853MPD2    C512582   1.354   0.574  12.336  0.3817  0.6062  0.5369
  853MPD2     H12583   1.161   0.857  12.177  3.3005  2.4689  0.9489
  853MPD2    H112584   1.338   0.462  12.169 -1.5644 -1.6344  0.5227
  853MPD2    H212585   1.380   0.696  12.510  0.0590 -1.5713 -0.4442
  853MPD2    H312586   1.409   0.493  12.381  1.1414 -0.0233 -1.5757
  853MPD2     N12587   1.175   0.619  12.031 -0.1784 -0.3883 -0.4054
  853MPD2    H512588   1.187   0.523  12.001 -0.4259 -0.2898 -0.8147
  853MPD2    N112589   1.237   0.905  12.432 -0.2349  0.5962  0.4725
  853MPD2    H712590   1.280   0.907  12.524 -0.5702 -0.7337  0.6605
  854MPD2     C12591   3.443   1.334  12.570 -0.1357  0.7817  0.2389
  854MPD2    C112592   3.329   1.275  12.610 -0.0053  0.0199 -0.2552
  854MPD2    C212593   3.336   1.150  12.665 -0.0071 -0.3743  0.1822
  854MPD2    C312594   3.464   1.096  12.688  0.2670  0.6216 -0.2914
  854MPD2    C412595   3.577   1.162  12.643 -0.8586  0.2609 -0.0869
  854MPD2    C512596   3.565   1.281  12.581 -0.0594 -0.4026 -0.5155
  854MPD2     H12597   3.246   1.113  12.713 -0.1762  1.6526  1.4338
  854MPD2    H112598   3.676   1.119  12.655 -0.8695 -0.0830 -1.1709
  854MPD2    H212599   3.440   1.430  12.521 -0.5582 -0.9629 -3.1845
  854MPD2    H312600   3.651   1.331  12.540 -0.8580  1.5068  0.1446
  854MPD2     N12601   3.487   0.980  12.764 -0.1107  0.0138 -0.0019
  854MPD2    H512602   3.583   0.949  12.770 -0.3251  0.0048  3.2836
  854MPD2    N112603   3.213   1.354  12.588 -0.1246  0.1578  0.0290
  854MPD2    H712604   3.223   1.452  12.563 -0.3759  0.1412 -0.1335
  855MPD2     C12605   3.717   0.439  13.669 -0.6901  0.2459 -0.4655
  855MPD2    C112606   3.614   0.534  13.648  0.1859  0.4706  0.6341
  855MPD2    C212607   3.570   0.559  13.517  0.2589  0.6806 -0.0271
  855MPD2    C312608   3.646   0.513  13.415  0.5520  0.0479 -0.3579
  855MPD2    C412609   3.752   0.421  13.429 -0.0829  0.1761 -0.3747
  855MPD2    C512610   3.791   0.398  13.557  0.1834 -0.7790  0.0654
  855MPD2     H12611   3.486   0.627  13.510  0.3201  0.3338 -3.8441
  855MPD2    H112612   3.799   0.381  13.340 -1.3064  0.8468 -1.3148
  855MPD2    H212613   3.747   0.403  13.767  0.7239 -0.3020 -1.0964
  855MPD2    H312614   3.873   0.331  13.577  0.4116 -0.9878 -1.6196
  855MPD2     N12615   3.608   0.551  13.280  0.0664 -0.0775  0.0246
  855MPD2    H512616   3.664   0.515  13.204 -0.5016 -1.0767  0.0764
  855MPD2    N112617   3.545   0.586  13.760 -0.4988 -0.3270  0.6458
  855MPD2    H712618   3.457   0.635  13.751  0.8137  1.8753 -0.0680
  856MPD2     C12619   0.397   1.713  14.063 -0.3358  0.5081  0.0825
  856MPD2    C112620   0.435   1.846  14.057  0.0141 -0.3438  0.0227
  856MPD2    C212621   0.343   1.937  14.014  0.1890  0.5894 -0.0285
  856MPD2    C312622   0.216   1.909  13.963 -0.2684  0.3545  0.6570
  856MPD2    C412623   0.180   1.774  13.970 -0.1649  0.1862  1.2840
  856MPD2    C512624   0.270   1.682  14.017 -0.2218 -0.6052  0.3639
  856MPD2     H12625   0.385   2.036  14.024 -1.2650  1.1672  0.3156
  856MPD2    H112626   0.079   1.743  13.946 -0.0697 -0.1534  1.3264
  856MPD2    H212627   0.459   1.635  14.106  0.6391  0.5919 -1.1772
  856MPD2    H312628   0.241   1.578  14.020  0.3055 -0.6908  2.4102
  856MPD2     N12629   0.128   2.005  13.905  0.0814  0.1538 -0.0097
  856MPD2    H512630   0.034   1.976  13.880  0.7882 -0.0564 -2.5055
  856MPD2    N112631   0.563   1.898  14.083  0.4393 -1.1418  0.2033
  856MPD2    H712632   0.573   1.999  14.076 -1.2821 -0.8936  1.3720
  857MPD2     C12633   1.868   3.629  13.462  0.2282 -0.4525 -0.1306
  857MPD2    C112634   1.921   3.667  13.340  0.0422  0.1824 -0.9156
  857MPD2    C212635   2.013   3.768  13.342 -0.0180 -0.3006 -0.1806
  857MPD2    C312636   2.065   3.817  13.461 -0.7605 -0.5184 -0.2968
  857MPD2    C412637   2.024   3.768  13.583 -0.1608  0.4912 -0.6060
  857MPD2    C512638   1.917   3.682  13.580  0.4095 -0.2463  0.2256
  857MPD2     H12639   2.054   3.805  13.249  0.6749 -0.9735 -0.1412
  857MPD2    H112640   2.063   3.810  13.675  1.2251  0.7996 -1.3281
  857MPD2    H212641   1.789   3.555  13.473  0.3871 -0.5949  0.0547
  857MPD2    H312642   1.877   3.654  13.677 -0.9637  0.4973 -0.1185
  857MPD2     N12643   2.163   3.910  13.428  0.3148 -0.4932 -0.0644
  857MPD2    H512644   2.179   3.914  13.328  2.6440  0.4493  0.3340
  857MPD2    N112645   1.869   3.604  13.223 -0.3073 -0.1157  0.1184
  857MPD2    H712646   1.794   3.538  13.241 -0.1699 -0.0469  0.9606
  858MPD2     C12647   2.798   3.391  16.334  0.1991  0.4605 -0.4242
  858MPD2    C112648   2.818   3.263  16.386 -1.4153  0.3022 -0.3908
  858MPD2    C212649   2.858   3.246  16.516 -0.2622  0.2216 -0.3700
  858MPD2    C312650   2.856   3.360  16.595  0.0092  0.1303  0.2252
  858MPD2    C412651   2.814   3.478  16.550 -0.1289  0.0956  0.5805
  858MPD2    C512652   2.803   3.506  16.417  0.3895  0.2906 -0.7514
  858MPD2     H12653   2.884   3.151  16.561  2.4613  0.1879 -2.0295
  858MPD2    H112654   2.814   3.568  16.611  1.1721  1.5670 -1.5913
  858MPD2    H212655   2.782   3.403  16.228  0.2485  3.3223 -0.1245
  858MPD2    H312656   2.773   3.602  16.376  1.7793 -0.0404 -2.4947
  858MPD2     N12657   2.880   3.359  16.733  0.1338  0.5726  0.0795
  858MPD2    H512658   2.863   3.438  16.795  1.9769  0.4618  0.7126
  858MPD2    N112659   2.811   3.165  16.288  0.3320 -0.0139  0.4023
  858MPD2    H712660   2.814   3.181  16.188 -1.4125 -1.4570  0.1246
  859MPD2     C12661   1.075   4.479  15.589  0.7405 -0.3094 -0.2852
  859MPD2    C112662   1.166   4.508  15.493  0.1624 -0.2719  0.0354
  859MPD2    C212663   1.261   4.414  15.459 -0.0660  0.5884 -0.6331
  859MPD2    C312664   1.273   4.299  15.529  0.1093 -0.1245 -0.0051
  859MPD2    C412665   1.176   4.258  15.616  0.2587 -0.5343  0.2449
  859MPD2    C512666   1.084   4.353  15.651 -0.4554  0.0455  0.2499
  859MPD2     H12667   1.340   4.443  15.390 -0.1034  0.1720 -0.8519
  859MPD2    H112668   1.187   4.176  15.685  0.6010 -1.4311 -0.8747
  859MPD2    H212669   0.996   4.548  15.616  0.1370 -1.4648  0.8845
  859MPD2    H312670   1.019   4.324  15.733  1.8511  0.5127  2.2212
  859MPD2     N12671   1.379   4.205  15.505 -0.3368  0.0775 -0.3137
  859MPD2    H512672   1.368   4.123  15.564 -1.0309 -1.0926 -2.0834
  859MPD2    N112673   1.163   4.637  15.437 -0.4539  0.1457  0.1507
  859MPD2    H712674   1.084   4.687  15.475  0.8951  1.3323  1.3904
  860MPD2     C12675   4.286   0.676  11.474 -0.1700  0.4433  0.1640
  860MPD2    C112676   4.284   0.663  11.611 -0.0398  0.5592 -0.0857
  860MPD2    C212677   4.169   0.672  11.684 -0.0035  0.2607 -0.3161
  860MPD2    C312678   4.047   0.679  11.622 -0.7646 -0.9266  0.1045
  860MPD2    C412679   4.044   0.693  11.486  0.0547 -0.3729  0.5628
  860MPD2    C512680   4.163   0.691  11.414 -0.5980  0.1659 -0.7873
  860MPD2     H12681   4.172   0.648  11.789 -1.1666  2.4715  0.2105
  860MPD2    H112682   3.953   0.718  11.432  1.5378  3.3273 -0.2236
  860MPD2    H212683   4.373   0.654  11.413 -1.3510 -0.1379 -1.3320
  860MPD2    H312684   4.171   0.703  11.307 -0.0197 -0.1647 -0.7855
  860MPD2     N12685   3.929   0.684  11.696 -0.1115  0.4464  0.2413
  860MPD2    H512686   3.948   0.687  11.795  2.2537  1.5973 -0.2537
  860MPD2    N112687   4.403   0.634  11.682  0.5588 -0.1929 -0.0224
  860MPD2    H712688   4.391   0.633  11.783  3.6105 -0.2676  0.3193
  861MPD2     C12689   2.369   3.927  11.259  0.2656  0.8385 -1.3347
  861MPD2    C112690   2.243   3.929  11.313  0.2529 -0.0048 -0.0023
  861MPD2    C212691   2.141   4.007  11.258 -0.4786  0.1470 -0.2788
  861MPD2    C312692   2.161   4.093  11.158  0.3204 -0.3540 -0.3959
  861MPD2    C412693   2.292   4.096  11.103 -0.8202  0.1060  0.0733
  861MPD2    C512694   2.391   4.010  11.146 -0.4557  0.2252 -0.0147
  861MPD2     H12695   2.046   3.996  11.308 -1.9307 -1.1833 -3.3310
  861MPD2    H112696   2.318   4.158  11.018 -1.0814 -0.6250 -0.5473
  861MPD2    H212697   2.456   3.875  11.297  0.5095  1.0054 -1.6761
  861MPD2    H312698   2.490   4.011  11.102  0.0084 -2.1169  1.0103
  861MPD2     N12699   2.071   4.179  11.105  0.1799  0.2886  0.2021
  861MPD2    H512700   2.101   4.233  11.025  1.1203  0.2883  0.5605
  861MPD2    N112701   2.215   3.875  11.443 -0.2029 -1.1042 -0.0165
  861MPD2    H712702   2.127   3.895  11.491  0.3455 -2.0777  1.4050
  862MPD2     C12703   1.727   4.515  10.600  0.1922  0.1000 -0.0058
  862MPD2    C112704   1.830   4.433  10.627  0.3407 -0.3344  0.7145
  862MPD2    C212705   1.836   4.312  10.563  0.1519 -0.8184  0.3089
  862MPD2    C312706   1.755   4.280  10.455 -0.1578  0.3805  0.4184
  862MPD2    C412707   1.646   4.360  10.435  0.1242  0.1027  0.3219
  862MPD2    C512708   1.635   4.479  10.507  0.2609 -0.7237  0.0834
  862MPD2     H12709   1.911   4.238  10.589 -0.3975 -1.5440 -0.2037
  862MPD2    H112710   1.566   4.347  10.363 -0.8307 -2.1078  1.7786
  862MPD2    H212711   1.720   4.610  10.650  0.7401  0.4218 -0.5416
  862MPD2    H312712   1.552   4.547  10.494  2.3993  1.6428 -1.3084
  862MPD2     N12713   1.766   4.164  10.381  0.1648 -0.7240 -0.0990
  862MPD2    H512714   1.691   4.157  10.313  0.0999  1.1657 -0.2078
  862MPD2    N112715   1.921   4.459  10.735 -0.1731  0.0242 -0.4959
  862MPD2    H712716   1.971   4.376  10.764  0.0706  0.8373  1.3784
  863MPD2     C12717   0.867   2.076  16.651 -0.3417  0.1636  0.4257
  863MPD2    C112718   0.983   2.092  16.565 -0.3243 -0.6029  0.7135
  863MPD2    C212719   1.107   2.081  16.624  0.3234 -0.0506 -0.1289
  863MPD2    C312720   1.116   2.022  16.747 -0.8512 -0.0362 -0.0128
  863MPD2    C412721   1.002   1.981  16.812  0.3642  0.1624  0.2667
  863MPD2    C512722   0.879   2.014  16.766 -0.5093 -0.1604 -0.5811
  863MPD2     H12723   1.190   2.086  16.554 -1.0310 -2.9136 -1.9402
  863MPD2    H112724   1.005   1.941  16.913 -0.8459 -0.2142  0.1614
  863MPD2    H212725   0.767   2.107  16.623 -0.6326  0.5908  1.9331
  863MPD2    H312726   0.788   1.996  16.822  0.1794  0.1760  0.6573
  863MPD2     N12727   1.236   1.992  16.808 -0.3918 -0.4821 -0.7343
  863MPD2    H512728   1.231   1.939  16.894 -0.3254  1.5495  0.5304
  863MPD2    N112729   0.964   2.118  16.425  0.1476  0.4642  0.0132
  863MPD2    H712730   0.869   2.129  16.390  0.4918 -2.1116 -1.7228
  864MPD2     C12731   1.461   3.106  17.151 -0.3887  0.1355 -0.4503
  864MPD2    C112732   1.549   3.033  17.082 -0.4829 -0.1473  0.4527
  864MPD2    C212733   1.632   3.102  16.991 -0.2869 -0.3276  0.7811
  864MPD2    C312734   1.632   3.241  16.983  0.0913 -0.2163 -0.1136
  864MPD2    C412735   1.543   3.309  17.070  0.0684  0.7730 -0.4108
  864MPD2    C512736   1.458   3.239  17.153 -0.3415  0.0988 -0.1194
  864MPD2     H12737   1.698   3.052  16.922 -1.1290  1.2249 -1.1535
  864MPD2    H112738   1.549   3.416  17.058 -0.3312  0.9444  0.9630
  864MPD2    H212739   1.390   3.056  17.217  2.0010  0.2609  2.2192
  864MPD2    H312740   1.393   3.286  17.226 -1.4924 -0.7946 -0.5810
  864MPD2     N12741   1.701   3.313  16.887 -0.0147 -0.3283 -0.5106
  864MPD2    H512742   1.689   3.413  16.886  3.6625  0.1358  3.0807
  864MPD2    N112743   1.546   2.892  17.084  0.0971 -0.2461 -0.4115
  864MPD2    H712744   1.461   2.849  17.119 -0.3316  0.8068 -0.1507
  865MPD2     C12745   1.861   3.554  16.015 -0.4005 -0.0504  0.5304
  865MPD2    C112746   1.839   3.461  16.116 -0.2224 -0.2913  0.2971
  865MPD2    C212747   1.803   3.501  16.244 -0.1903  0.1976  0.3345
  865MPD2    C312748   1.785   3.635  16.262 -0.1509 -0.8597  0.3037
  865MPD2    C412749   1.799   3.723  16.156  0.1924 -0.0422 -0.0976
  865MPD2    C512750   1.833   3.683  16.029 -0.5408  0.1549 -0.3909
  865MPD2     H12751   1.801   3.432  16.328 -0.5726 -1.4026 -0.9808
  865MPD2    H112752   1.775   3.829  16.162 -2.2767 -0.5086 -1.4775
  865MPD2    H212753   1.889   3.530  15.913 -1.4532 -1.7591  0.6330
  865MPD2    H312754   1.844   3.751  15.945 -0.2378 -0.8635 -1.1724
  865MPD2     N12755   1.746   3.694  16.384 -0.2945  0.2808  0.4754
  865MPD2    H512756   1.724   3.793  16.380 -1.4263  0.0456  0.9857
  865MPD2    N112757   1.868   3.326  16.082 -0.0184  0.9342 -0.4991
  865MPD2    H712758   1.905   3.310  15.989 -0.8023  0.8215 -0.7956
  866MPD2     C12759   2.918   4.081  11.820 -0.6653 -0.2229  1.1489
  866MPD2    C112760   2.931   4.095  11.688 -0.1835  0.9152  0.4878
  866MPD2    C212761   2.826   4.154  11.618  0.0077  0.0201  0.0035
  866MPD2    C312762   2.703   4.181  11.670 -0.5073 -0.2059 -0.4134
  866MPD2    C412763   2.685   4.151  11.802 -0.7092 -0.3180 -0.2151
  866MPD2    C512764   2.793   4.101  11.871  0.2616 -0.0168 -0.7115
  866MPD2     H12765   2.847   4.182  11.516 -0.8355 -1.3479 -0.5432
  866MPD2    H112766   2.589   4.166  11.851 -1.1608  1.1376 -1.5174
  866MPD2    H212767   2.981   4.023  11.886  1.3903  1.2238  0.4553
  866MPD2    H312768   2.777   4.085  11.977  1.9521  0.7099 -0.3537
  866MPD2     N12769   2.594   4.237  11.601 -0.3542  0.6958  0.8092
  866MPD2    H512770   2.513   4.271  11.653 -1.2594  0.3122 -0.3550
  866MPD2    N112771   3.056   4.052  11.629  0.4645 -0.6313  0.3123
  866MPD2    H712772   3.124   4.007  11.690 -1.0220 -2.1672  0.8321
  867MPD2     C12773   0.579   3.382  16.664  0.1356  0.6864  0.2208
  867MPD2    C112774   0.653   3.322  16.762 -0.1029  0.1327 -0.2374
  867MPD2    C212775   0.652   3.378  16.887 -0.2652  0.7338 -0.0826
  867MPD2    C312776   0.575   3.489  16.916  0.0495 -0.2334  0.0159
  867MPD2    C412777   0.499   3.543  16.813  0.0810  0.1149  0.0200
  867MPD2    C512778   0.499   3.491  16.686 -1.0087 -0.7802 -0.5502
  867MPD2     H12779   0.721   3.336  16.959  0.3933  0.3000 -0.9663
  867MPD2    H112780   0.435   3.630  16.815 -0.8178 -0.5118 -1.4587
  867MPD2    H212781   0.580   3.340  16.564 -1.6932 -2.5920  1.6088
  867MPD2    H312782   0.441   3.529  16.603 -0.7538  2.6878  0.8536
  867MPD2     N12783   0.577   3.562  17.041 -0.4402 -0.4664  0.6496
  867MPD2    H512784   0.518   3.645  17.041 -0.8954 -0.7930  3.4943
  867MPD2    N112785   0.740   3.217  16.721 -0.3014 -0.0429 -0.4202
  867MPD2    H712786   0.707   3.169  16.638  1.3084 -1.0493 -0.4901
  868MPD2     C12787   2.686   2.739  13.294 -0.3410 -0.0297 -0.4334
  868MPD2    C112788   2.649   2.610  13.253  0.0561  0.1784 -0.6962
  868MPD2    C212789   2.532   2.546  13.299 -0.2451  0.1132  0.2527
  868MPD2    C312790   2.447   2.619  13.374 -0.2527 -0.5378  0.2821
  868MPD2    C412791   2.475   2.748  13.410 -0.2371 -0.0168  0.3291
  868MPD2    C512792   2.593   2.810  13.368 -0.0138  0.0601 -0.6212
  868MPD2     H12793   2.495   2.453  13.258 -1.1042  0.9294 -0.8035
  868MPD2    H112794   2.409   2.809  13.471  0.2034  0.6173  0.1749
  868MPD2    H212795   2.772   2.791  13.253 -0.8295  1.7423  0.7909
  868MPD2    H312796   2.622   2.912  13.388 -0.1499  0.1797 -1.0374
  868MPD2     N12797   2.330   2.551  13.420 -0.0851  0.5813  0.3661
  868MPD2    H512798   2.320   2.454  13.391  0.4239  0.8871 -0.8461
  868MPD2    N112799   2.733   2.542  13.164  0.8400 -0.5899  0.6189
  868MPD2    H712800   2.801   2.592  13.108 -3.3820  1.2954 -2.9206
  869MPD2     C12801   3.027   4.651   0.821 -0.2588 -0.5757 -0.0047
  869MPD2    C112802   3.079   4.696   0.696 -0.0248 -0.1372 -0.0829
  869MPD2    C212803   3.217   4.722   0.678 -0.4446  0.2932 -0.0751
  869MPD2    C312804   3.293   4.716   0.792 -0.0390  0.2172 -0.1270
  869MPD2    C412805   3.247   4.665   0.910  0.1794  0.8354 -0.0632
  869MPD2    C512806   3.120   4.634   0.923 -0.1442  0.3693  0.7453
  869MPD2     H12807   3.254   0.025   0.584 -1.1750  1.8538  0.3027
  869MPD2    H112808   3.312   4.655   0.996 -2.7748  0.6443  2.1553
  869MPD2    H212809   2.922   4.621   0.825 -0.2138 -0.7168  0.1140
  869MPD2    H312810   3.079   4.595   1.016  1.5375  1.2081  1.8326
  869MPD2     N12811   3.427   0.036   0.793 -0.2185 -0.4303 -0.3799
  869MPD2    H512812   3.477   0.031   0.881  0.1378  0.4162 -0.5323
  869MPD2    N112813   2.981   4.734   0.601 -0.0974  0.0187  0.0886
  869MPD2    H712814   2.882   4.735   0.625 -0.5475  0.4285 -1.8252
  870MPD2     C12815   2.482   3.391   1.818 -0.3994 -0.6370  0.3213
  870MPD2    C112816   2.599   3.417   1.748 -0.3278 -0.9855 -0.7031
  870MPD2    C212817   2.607   3.527   1.664  0.0656 -0.1937  0.4558
  870MPD2    C312818   2.507   3.623   1.666  0.5656 -0.1062 -0.1335
  870MPD2    C412819   2.399   3.602   1.751 -0.8950 -0.0057 -0.6476
  870MPD2    C512820   2.390   3.486   1.826  0.6212  0.0675 -0.4470
  870MPD2     H12821   2.682   3.532   1.586 -0.7324 -0.6970 -0.3447
  870MPD2    H112822   2.311   3.666   1.749 -1.2889 -0.4857  1.3052
  870MPD2    H212823   2.471   3.305   1.883 -0.2618 -0.1759  0.9500
  870MPD2    H312824   2.300   3.472   1.885  1.2230 -0.1420  0.4181
  870MPD2     N12825   2.515   3.735   1.582 -0.1649 -0.0018 -0.0927
  870MPD2    H512826   2.573   3.720   1.500  0.2348 -0.7742  0.3314
  870MPD2    N112827   2.702   3.317   1.752  0.1409  0.0956  0.9564
  870MPD2    H712828   2.672   3.228   1.790  1.2103 -1.6046 -2.2203
  871MPD2     C12829   4.331   3.395  16.548  0.1433  0.6047  1.2053
  871MPD2    C112830   4.276   3.331  16.664  0.5310  0.5607 -0.3436
  871MPD2    C212831   4.256   3.190  16.662  0.2356 -0.1447 -0.2642
  871MPD2    C312832   4.303   3.116  16.557  0.0451 -0.1246 -0.2694
  871MPD2    C412833   4.362   3.181  16.453  0.3691  0.0714  0.8105
  871MPD2    C512834   4.371   3.318  16.443 -0.2343  0.3610  0.1347
  871MPD2     H12835   4.213   3.147  16.752 -0.4686 -0.2028 -0.6275
  871MPD2    H112836   4.396   3.117  16.372  0.0880 -1.0802  1.5989
  871MPD2    H212837   4.342   3.502  16.544  2.5041  0.3112  0.3627
  871MPD2    H312838   4.412   3.363  16.353 -1.3209  0.5692 -0.2543
  871MPD2     N12839   4.299   2.973  16.564  0.0303 -0.0928  0.1657
  871MPD2    H512840   4.244   2.933  16.639 -1.6665  1.2717 -0.3542
  871MPD2    N112841   4.227   3.417  16.762 -0.4211 -0.6960  0.0314
  871MPD2    H712842   4.255   3.513  16.743 -1.3889 -0.5738 -0.7222
  872MPD2     C12843   0.240   0.844  14.026  0.1954 -0.6397  0.1185
  872MPD2    C112844   0.229   0.980  14.036 -0.7555 -0.6327 -0.8466
  872MPD2    C212845   0.107   1.028  14.074  0.0339  0.2953  0.3112
  872MPD2    C312846   4.723   0.958  14.085  0.0814 -0.1809  0.0427
  872MPD2    C412847   4.735   0.823  14.063  1.0341  0.0339  0.5254
  872MPD2    C512848   0.125   0.768  14.040  0.1188  0.5661 -0.4972
  872MPD2     H12849   0.108   1.135  14.093 -0.8969  0.1028  1.3957
  872MPD2    H112850   4.654   0.754  14.082  0.4238  1.5101  3.2352
  872MPD2    H212851   0.333   0.792  14.008 -0.4710 -1.3560 -1.2675
  872MPD2    H312852   0.134   0.660  14.042  0.9893  0.6043 -1.8640
  872MPD2     N12853   4.596   1.008  14.130  1.1237  0.3789 -0.1633
  872MPD2    H512854   4.523   0.955  14.176  0.5817 -0.3297 -1.8344
  872MPD2    N112855   0.335   1.072  14.037  0.4084  0.4002  0.1985
  872MPD2    H712856   0.323   1.168  14.067 -2.3469  0.4213 -0.9401
  873MPD2     C12857   1.102   1.180   0.727 -0.3634 -0.6901  0.0031
  873MPD2    C112858   1.232   1.131   0.756 -0.7523  0.6757  0.7968
  873MPD2    C212859   1.298   1.067   0.661  0.6594  0.1625  0.5899
  873MPD2    C312860   1.233   1.043   0.536  0.3827 -0.2191 -0.0280
  873MPD2    C412861   1.109   1.096   0.515  0.5919  0.4022  0.1785
  873MPD2    C512862   1.039   1.162   0.608 -0.3290 -0.8141 -0.3449
  873MPD2     H12863   1.398   1.028   0.676  1.1215  1.2820  0.4573
  873MPD2    H112864   1.057   1.097   0.419  0.8220  1.1633  0.0583
  873MPD2    H212865   1.053   1.239   0.804  0.3534  0.1137 -0.1546
  873MPD2    H312866   0.941   1.205   0.592  0.7516  1.5054 -0.7222
  873MPD2     N12867   1.298   0.982   0.431 -0.4789  0.2250  0.2445
  873MPD2    H512868   1.249   0.974   0.342 -0.1443  0.2376  0.0559
  873MPD2    N112869   1.283   1.163   0.882 -0.0945 -0.4205 -0.1860
  873MPD2    H712870   1.241   1.235   0.940 -0.0112  1.5806 -2.5637
  874MPD2     C12871   2.169   1.521  15.835  0.7245 -0.2558 -0.3761
  874MPD2    C112872   2.181   1.526  15.971 -0.2441  0.6696 -0.0817
  874MPD2    C212873   2.292   1.580  16.023  0.1823 -0.0214 -0.5570
  874MPD2    C312874   2.397   1.624  15.939 -0.0410 -0.5277  0.0831
  874MPD2    C412875   2.389   1.607  15.806  0.1570 -0.1026  0.1375
  874MPD2    C512876   2.268   1.567  15.750 -0.0841  0.3145  0.0593
  874MPD2     H12877   2.307   1.605  16.128 -2.4446 -0.9916  0.0374
  874MPD2    H112878   2.478   1.627  15.748  1.0413 -1.3651  1.0525
  874MPD2    H212879   2.072   1.488  15.798  1.1196  0.6499 -2.2503
  874MPD2    H312880   2.254   1.569  15.643  0.3730  1.8878  0.0334
  874MPD2     N12881   2.513   1.689  15.986 -0.5495 -0.3863  0.0751
  874MPD2    H512882   2.590   1.699  15.920 -1.4755  0.4106 -0.8980
  874MPD2    N112883   2.091   1.461  16.056 -0.4665 -0.0754 -0.1779
  874MPD2    H712884   2.016   1.413  16.007  1.0670 -0.8900 -1.7317
  875MPD2     C12885   2.541   3.819  14.748  0.9010 -0.0256 -0.4004
  875MPD2    C112886   2.507   3.948  14.721  0.4256 -0.5278  0.5658
  875MPD2    C212887   2.530   4.052  14.806 -0.5333 -0.1179  0.2098
  875MPD2    C312888   2.600   4.022  14.925 -0.2853 -0.5772  1.3374
  875MPD2    C412889   2.634   3.890  14.954  0.3029 -0.6837  0.0782
  875MPD2    C512890   2.605   3.788  14.867 -0.0902  0.1384  0.2837
  875MPD2     H12891   2.492   4.151  14.785  0.7385  0.7144  1.9021
  875MPD2    H112892   2.701   3.867  15.036 -0.7200 -0.7942  0.8860
  875MPD2    H212893   2.512   3.736  14.685  0.7490 -1.4955  1.6364
  875MPD2    H312894   2.643   3.688  14.883  0.2978  0.3819  0.8934
  875MPD2     N12895   2.632   4.118  15.019 -1.0271  0.5161  0.4121
  875MPD2    H512896   2.687   4.087  15.099 -2.4962 -2.0135  0.4436
  875MPD2    N112897   2.430   3.988  14.606 -0.2083 -0.5145 -0.2449
  875MPD2    H712898   2.417   4.088  14.598 -1.4532 -0.6527  0.0460
  876MPD2     C12899   1.957   0.889  15.977 -0.0151 -0.6199  0.2593
  876MPD2    C112900   1.959   0.785  15.884 -0.3021  0.4257 -0.0044
  876MPD2    C212901   1.937   0.656  15.928 -0.1589 -0.3074  0.3409
  876MPD2    C312902   1.913   0.621  16.061 -0.0783 -0.2007  0.8201
  876MPD2    C412903   1.906   0.725  16.152 -0.0200 -0.5901 -0.0898
  876MPD2    C512904   1.943   0.852  16.110  0.2653  0.1189 -0.5689
  876MPD2     H12905   1.928   0.576  15.854  1.8556 -0.5367  0.3340
  876MPD2    H112906   1.884   0.715  16.258  1.9906  0.6716  0.4507
  876MPD2    H212907   1.976   0.991  15.947  0.7663 -1.0137 -0.6056
  876MPD2    H312908   1.960   0.936  16.177  0.4333 -0.5847  0.2645
  876MPD2     N12909   1.893   0.483  16.090 -0.2726 -0.1992 -1.0047
  876MPD2    H512910   1.920   0.410  16.024  1.0812  0.2553 -0.9685
  876MPD2    N112911   1.992   0.811  15.747  0.3507 -0.5361 -0.1466
  876MPD2    H712912   1.966   0.735  15.684  0.2816 -1.1324  0.6030
  877MPD2     C12913   2.288   1.292  15.060  0.0220  0.8173 -0.6227
  877MPD2    C112914   2.232   1.172  15.027  0.2851  0.7488 -0.0805
  877MPD2    C212915   2.251   1.129  14.900 -0.3795  0.4339 -0.7150
  877MPD2    C312916   2.312   1.212  14.801  0.1444 -0.2090 -0.3238
  877MPD2    C412917   2.378   1.327  14.838  0.3244 -0.6612 -0.2951
  877MPD2    C512918   2.354   1.371  14.971 -0.3067  0.2533  0.1543
  877MPD2     H12919   2.201   1.036  14.874 -0.4110  0.6967 -1.6018
  877MPD2    H112920   2.428   1.394  14.769  1.3334 -2.1141 -0.9728
  877MPD2    H212921   2.268   1.334  15.158  3.2215 -2.7333  1.5346
  877MPD2    H312922   2.394   1.462  15.013 -1.0726 -0.4446  2.3761
  877MPD2     N12923   2.322   1.180  14.664  0.2447 -0.3763  0.3736
  877MPD2    H512924   2.365   1.256  14.613  1.9194 -0.5623  1.4656
  877MPD2    N112925   2.146   1.101  15.123 -0.1673 -0.0488  0.4506
  877MPD2    H712926   2.099   1.018  15.089 -1.5929  0.7949  0.3785
  878MPD2     C12927   1.208   1.022  13.266 -0.5111 -0.6623 -0.0193
  878MPD2    C112928   1.279   0.909  13.233 -0.7974  0.3632 -0.3546
  878MPD2    C212929   1.254   0.795  13.309 -0.3255 -0.2096 -0.6271
  878MPD2    C312930   1.148   0.789  13.401  0.8514  1.4536 -0.2448
  878MPD2    C412931   1.093   0.905  13.440 -0.6498  0.3768 -0.2642
  878MPD2    C512932   1.121   1.020  13.368 -0.7851  0.0720  0.0894
  878MPD2     H12933   1.318   0.708  13.295  0.0244 -0.2131  0.9677
  878MPD2    H112934   1.003   0.904  13.502 -1.2524 -0.8968 -1.1544
  878MPD2    H212935   1.197   1.115  13.212  0.7936 -1.1954 -1.2000
  878MPD2    H312936   1.061   1.110  13.382 -1.1152 -0.1879  0.3239
  878MPD2     N12937   1.107   0.669  13.464 -0.1632 -0.2754  0.3025
  878MPD2    H512938   1.046   0.687  13.543  0.7788  1.4684  0.6236
  878MPD2    N112939   1.371   0.912  13.123  0.4465 -0.0936 -0.6212
  878MPD2    H712940   1.396   1.001  13.081 -0.3042  0.5258  0.2481
  879MPD2     C12941   1.940   2.134  16.869  0.1454 -0.1237  0.2925
  879MPD2    C112942   1.963   2.006  16.920 -0.5557 -0.1808  0.8001
  879MPD2    C212943   1.906   1.895  16.851 -0.0748  0.3161  0.3590
  879MPD2    C312944   1.819   1.916  16.743  0.2704 -0.7659  0.8170
  879MPD2    C412945   1.786   2.050  16.705 -0.1222  0.4255  0.2805
  879MPD2    C512946   1.848   2.154  16.766 -0.0457  0.7942  0.0229
  879MPD2     H12947   1.938   1.796  16.879  0.1185 -0.4533 -2.5355
  879MPD2    H112948   1.712   2.069  16.628  0.1695 -0.7983 -0.3030
  879MPD2    H212949   1.994   2.216  16.914 -1.1936  0.3492  1.0452
  879MPD2    H312950   1.837   2.252  16.720  1.1861 -0.1384 -2.2632
  879MPD2     N12951   1.761   1.820  16.657 -0.2237  0.9877 -0.2697
  879MPD2    H512952   1.700   1.857  16.585  2.0697  1.0044 -2.2056
  879MPD2    N112953   2.050   1.979  17.027  0.3030  0.0842 -0.1298
  879MPD2    H712954   2.108   2.054  17.062 -0.9141  0.5504  0.9088
  880MPD2     C12955   2.715   3.252   0.288  0.2522  0.4155 -0.6468
  880MPD2    C112956   2.781   3.252   0.415  0.1985  0.6146 -0.5834
  880MPD2    C212957   2.752   3.154   0.505  0.9236  0.1580 -0.0608
  880MPD2    C312958   2.652   3.063   0.467  0.0352 -0.1272 -0.2420
  880MPD2    C412959   2.584   3.063   0.342 -0.2882 -0.4110 -0.3443
  880MPD2    C512960   2.629   3.154   0.250  0.3742  0.2138  0.1168
  880MPD2     H12961   2.800   3.147   0.601  2.5335  1.1563 -0.7912
  880MPD2    H112962   2.519   2.981   0.312 -0.5629 -0.5426  0.6025
  880MPD2    H212963   2.725   3.332   0.215 -1.9269  0.4965 -0.8714
  880MPD2    H312964   2.596   3.144   0.147  0.6390  0.4075  0.0138
  880MPD2     N12965   2.621   2.979   0.574 -0.0906 -0.2296 -0.3479
  880MPD2    H512966   2.687   2.981   0.651  0.5058 -0.4774 -0.8490
  880MPD2    N112967   2.875   3.359   0.449  0.2530  0.5552  0.4103
  880MPD2    H712968   2.871   3.441   0.390  1.8217 -0.9136 -1.7185
  881MPD2     C12969   3.093   4.180  17.732 -0.1721 -0.4872 -0.5618
  881MPD2    C112970   3.150   4.056  17.723 -0.0337  0.1781 -0.4020
  881MPD2    C212971   3.119   3.963   0.078  0.4893 -0.1408  1.0654
  881MPD2    C312972   3.029   3.992   0.180  0.2089  0.1721 -0.7725
  881MPD2    C412973   2.958   4.112   0.172 -0.2316  0.4675  0.2980
  881MPD2    C512974   3.004   4.206   0.087  0.1187 -0.3453 -0.2615
  881MPD2     H12975   3.163   3.864   0.076 -0.2706 -0.4624  0.2492
  881MPD2    H112976   2.878   4.141   0.239  0.3378 -1.2153  1.6818
  881MPD2    H212977   3.101   4.262  17.662 -0.4744 -0.8782 -1.0534
  881MPD2    H312978   2.948   4.299   0.093  0.0647 -0.1430 -4.0901
  881MPD2     N12979   2.981   3.896   0.277 -0.1785  0.4609 -0.0202
  881MPD2    H512980   2.907   3.930   0.337  1.3371  1.6422  1.2063
  881MPD2    N112981   3.212   4.032  17.595 -0.1237 -0.0660  0.0661
  881MPD2    H712982   3.227   4.107  17.528  0.0803 -1.9259 -1.9658
  882MPD2     C12983   1.904   1.138  13.935  0.2074  0.8109 -0.6944
  882MPD2    C112984   1.929   1.114  14.068  0.2511 -0.1285  0.0647
  882MPD2    C212985   1.830   1.074  14.156 -0.3024 -0.0259 -0.4318
  882MPD2    C312986   1.704   1.072  14.102 -0.0540 -0.3025  0.5633
  882MPD2    C412987   1.678   1.092  13.970  0.7814 -0.6939 -0.1687
  882MPD2    C512988   1.783   1.116  13.881  0.4409 -0.6803 -0.1336
  882MPD2     H12989   1.848   1.062  14.262  0.2995 -0.0408 -0.5360
  882MPD2    H112990   1.574   1.085  13.940  0.8743  0.4758 -0.7347
  882MPD2    H212991   1.980   1.154  13.859 -0.2446 -0.3720 -1.3979
  882MPD2    H312992   1.765   1.128  13.775  0.2483  1.3409  0.1310
  882MPD2     N12993   1.586   1.043  14.176 -0.4878 -0.5138 -0.4445
  882MPD2    H512994   1.492   1.052  14.137 -0.1046  0.6057 -1.0939
  882MPD2    N112995   2.067   1.137  14.113  0.1200  0.3400 -0.4882
  882MPD2    H712996   2.146   1.135  14.049  0.2716 -1.4181 -0.2563
  883MPD2     C12997   3.417   1.532  16.330 -0.8247 -0.3689 -0.2840
  883MPD2    C112998   3.494   1.448  16.252  0.2205 -0.5018 -0.1279
  883MPD2    C212999   3.593   1.376  16.312 -0.0919 -0.4346  0.3472
  883MPD2    C313000   3.620   1.387  16.445 -0.3980 -0.7395 -0.4026
  883MPD2    C413001   3.541   1.477  16.522 -0.4464 -0.0127  0.5804
  883MPD2    C513002   3.438   1.546  16.462  0.4165  0.1492  0.5443
  883MPD2     H13003   3.661   1.305  16.266 -1.9007 -2.1551  0.3163
  883MPD2    H113004   3.571   1.502  16.623  0.7480 -0.5088  0.3507
  883MPD2    H213005   3.339   1.594  16.288 -0.6794 -2.1889 -3.2097
  883MPD2    H313006   3.386   1.620  16.522  2.1408 -0.4735  2.7983
  883MPD2     N13007   3.738   1.325  16.496 -0.6965  0.0416 -0.4442
  883MPD2    H513008   3.810   1.296  16.431 -0.6713 -1.6778  0.3380
  883MPD2    N113009   3.494   1.440  16.113  0.6755  0.3620 -0.4900
  883MPD2    H713010   3.550   1.369  16.066 -3.3317 -0.4370 -4.0442
  884MPD2     C13011   1.141   1.864  14.699  0.5613  0.6708 -0.2114
  884MPD2    C113012   1.123   1.987  14.758  1.3228  0.0576 -0.1576
  884MPD2    C213013   1.015   2.005  14.843 -0.2719  0.7837 -0.2735
  884MPD2    C313014   0.925   1.898  14.865  0.2229  0.1313 -0.2967
  884MPD2    C413015   0.946   1.778  14.803 -0.9058 -0.1667  0.2896
  884MPD2    C513016   1.058   1.761  14.728  0.5542 -1.1072 -0.0891
  884MPD2     H13017   0.996   2.098  14.896  1.7890  0.5261  0.9380
  884MPD2    H113018   0.882   1.692  14.818  0.3262 -0.8478  1.6554
  884MPD2    H213019   1.228   1.828  14.646  0.5186 -0.1451  0.2691
  884MPD2    H313020   1.076   1.662  14.689  3.9144 -1.2935  1.9586
  884MPD2     N13021   0.804   1.903  14.946  0.0193 -0.0249 -0.1028
  884MPD2    H513022   0.745   1.822  14.928  0.8873 -0.4305 -1.1334
  884MPD2    N113023   1.217   2.091  14.735 -0.2904  0.2401  0.2057
  884MPD2    H713024   1.210   2.183  14.778  1.2020  1.2617 -1.7670
  885MPD2     C13025   3.627   2.590  17.642 -0.0809  0.4172  0.3931
  885MPD2    C113026   3.666   2.457  17.635  0.3353 -0.1420 -0.4876
  885MPD2    C213027   3.628   2.383  17.529 -0.3494  0.0610  0.5620
  885MPD2    C313028   3.563   2.441  17.425 -0.1164  0.0430 -0.4047
  885MPD2    C413029   3.519   2.568  17.435  0.1292 -0.2170  0.6409
  885MPD2    C513030   3.544   2.649  17.543  0.6077  0.0393 -0.0088
  885MPD2     H13031   3.668   2.282  17.521 -1.2980 -0.3912  1.3887
  885MPD2    H113032   3.450   2.612  17.363 -0.4711 -0.9095  0.8026
  885MPD2    H213033   3.639   2.660  17.724 -0.1652 -0.0460  0.8004
  885MPD2    H313034   3.500   2.747  17.552 -0.6314 -0.7029  2.0360
  885MPD2     N13035   3.538   2.367  17.307  0.1743  0.9745  0.0992
  885MPD2    H513036   3.549   2.267  17.314 -1.2302  0.9312  1.7369
  885MPD2    N113037   3.752   2.410  17.737 -0.8465 -0.0771 -0.5087
  885MPD2    H713038   3.773   2.477   0.067  1.2725  0.4952 -1.6668
  886MPD2     C13039   0.533   0.850  15.561 -0.4275 -0.0068 -0.6119
  886MPD2    C113040   0.667   0.840  15.546  0.4809 -0.4234  0.5544
  886MPD2    C213041   0.731   0.939  15.474  0.4638 -0.1284  0.0724
  886MPD2    C313042   0.657   1.045  15.415 -0.2447 -0.4312  0.4950
  886MPD2    C413043   0.519   1.048  15.425  0.3753 -0.1669  0.0122
  886MPD2    C513044   0.465   0.958  15.505  1.0140 -0.0366  0.6868
  886MPD2     H13045   0.836   0.934  15.448  0.4155  1.2613 -0.4259
  886MPD2    H113046   0.453   1.121  15.380  0.9219 -0.8600 -1.9093
  886MPD2    H213047   0.476   0.792  15.633 -0.8699 -1.4045 -2.0888
  886MPD2    H313048   0.360   0.972  15.527  0.8827  3.1978 -2.0306
  886MPD2     N13049   0.730   1.143  15.344  0.3527  0.2143  0.2738
  886MPD2    H513050   0.826   1.112  15.330  1.4109  2.2933  3.0674
  886MPD2    N113051   0.746   0.736  15.598  0.2472  0.3208  0.1579
  886MPD2    H713052   0.845   0.750  15.583  0.8250 -1.2718  2.5498
  887MPD2     C13053   1.441   0.670  15.820  0.0194 -0.4126 -0.0291
  887MPD2    C113054   1.358   0.728  15.726 -0.2722 -0.2710  0.1435
  887MPD2    C213055   1.390   0.842  15.657  0.1820 -0.2950 -0.2193
  887MPD2    C313056   1.516   0.898  15.685 -0.9349 -0.6993 -0.4451
  887MPD2    C413057   1.600   0.843  15.782 -0.3041 -0.3254 -0.3239
  887MPD2    C513058   1.559   0.732  15.851 -0.7705  0.2394  0.3324
  887MPD2     H13059   1.318   0.875  15.582 -1.8196 -3.2968  0.3622
  887MPD2    H113060   1.691   0.894  15.811 -0.3633 -1.1148  1.2628
  887MPD2    H213061   1.425   0.583  15.881 -0.9794 -0.2622 -0.0726
  887MPD2    H313062   1.621   0.690  15.929 -1.3289 -0.5514  0.3551
  887MPD2     N13063   1.548   1.019  15.618  0.2999 -0.5656  0.0408
  887MPD2    H513064   1.483   1.052  15.547 -1.0012 -0.3474  1.3286
  887MPD2    N113065   1.229   0.676  15.708 -0.8374 -0.5202 -0.5679
  887MPD2    H713066   1.165   0.734  15.656  0.7241  0.8140 -0.9984
  888MPD2     C13067   2.859   0.705  14.994  0.0868 -0.3621 -0.1206
  888MPD2    C113068   2.866   0.770  15.119  0.1471 -0.1936 -0.6241
  888MPD2    C213069   2.915   0.900  15.118  0.2080  0.8973  0.2399
  888MPD2    C313070   2.983   0.949  15.006 -0.2071 -0.0200  0.3007
  888MPD2    C413071   2.992   0.874  14.890  0.2920 -0.4781 -0.6993
  888MPD2    C513072   2.927   0.752  14.888  0.0030 -0.3145 -0.7549
  888MPD2     H13073   2.917   0.960  15.208  0.9887  1.9577 -0.4915
  888MPD2    H113074   3.040   0.919  14.804 -1.8055  2.5718 -0.2501
  888MPD2    H213075   2.811   0.608  14.987 -0.7173 -0.1009  1.8652
  888MPD2    H313076   2.931   0.695  14.796 -0.5827 -1.2152 -0.2279
  888MPD2     N13077   3.029   1.082  15.004 -0.2607 -0.1852  0.3808
  888MPD2    H513078   3.020   1.133  15.091  0.3410  0.3267  0.1463
  888MPD2    N113079   2.830   0.719  15.246  0.2391  0.3305  0.0620
  888MPD2    H713080   2.863   0.760  15.333  0.0825  1.2436 -0.3051
  889MPD2     C13081   2.383   4.410  12.868 -0.6498  0.0313 -0.2013
  889MPD2    C113082   2.458   4.442  12.980 -0.4380 -0.1178  0.2519
  889MPD2    C213083   2.574   4.507  12.962  0.1253 -0.2567  0.5041
  889MPD2    C313084   2.593   4.581  12.844  0.1627 -0.0124  0.0637
  889MPD2    C413085   2.507   4.560  12.736  0.5478  0.0079  0.0542
  889MPD2    C513086   2.400   4.482  12.753  0.3992 -0.2079 -0.5661
  889MPD2     H13087   2.637   4.531  13.047  1.2341  1.1358 -0.7068
  889MPD2    H113088   2.523   4.604  12.638  0.8684 -3.2475 -1.3700
  889MPD2    H213089   2.300   4.342  12.878 -1.7693  1.1724 -1.6934
  889MPD2    H313090   2.330   4.478  12.670  1.4050  2.0373 -1.5272
  889MPD2     N13091   2.710   4.665  12.838 -0.7748 -0.8755 -0.1036
  889MPD2    H513092   2.768   4.667  12.921 -3.2574  0.0971  1.6304
  889MPD2    N113093   2.445   4.371  13.106 -0.0828  0.6055 -0.2481
  889MPD2    H713094   2.519   4.401  13.168  0.5011  0.7670 -1.0216
  890MPD2     C13095   1.677   2.212  14.226 -1.2872 -0.1454  0.1178
  890MPD2    C113096   1.779   2.166  14.145  0.3842  0.1865  0.3869
  890MPD2    C213097   1.834   2.037  14.167  0.2461  0.2999  0.9690
  890MPD2    C313098   1.790   1.976  14.286  0.1839 -0.4387  0.2723
  890MPD2    C413099   1.699   2.036  14.373  0.4012  0.0064 -0.2479
  890MPD2    C513100   1.631   2.154  14.341 -0.6431 -0.2958  0.6856
  890MPD2     H13101   1.913   1.989  14.109 -0.2590 -0.4107  0.8677
  890MPD2    H113102   1.665   1.983  14.461 -0.3275 -0.9099 -1.0867
  890MPD2    H213103   1.649   2.315  14.206 -0.7745 -0.2368 -1.0735
  890MPD2    H313104   1.567   2.208  14.409 -2.0238 -1.0774  0.0109
  890MPD2     N13105   1.846   1.844  14.308 -0.1084 -0.2927 -0.4863
  890MPD2    H513106   1.917   1.810  14.244  1.1254  3.7474 -1.2769
  890MPD2    N113107   1.810   2.247  14.036 -0.4341  0.3843 -0.0045
  890MPD2    H713108   1.771   2.340  14.041 -0.9823  0.1928 -0.7466
  891MPD2     C13109   4.684   0.388  16.757  0.2752 -0.3865 -0.3708
  891MPD2    C113110   4.580   0.305  16.784 -0.2463 -0.4320  0.3692
  891MPD2    C213111   4.608   0.177  16.841 -0.1596  0.7244 -0.2450
  891MPD2    C313112   0.006   0.149  16.879  0.5286  0.0857  0.1208
  891MPD2    C413113   0.105   0.238  16.833 -0.1900  0.2228 -0.2707
  891MPD2    C513114   0.076   0.352  16.763  0.0107  0.1469 -1.0193
  891MPD2     H13115   4.525   0.112  16.868  0.5822  1.2154  3.2016
  891MPD2    H113116   0.213   0.237  16.837 -0.3054  1.2367  2.6845
  891MPD2    H213117   4.666   0.490  16.727  1.0822 -0.4853 -1.2212
  891MPD2    H313118   0.152   0.422  16.731 -0.7879  1.3101 -0.3561
  891MPD2     N13119   0.030   0.018  16.932  0.7120  0.2553 -0.7582
  891MPD2    H513120   4.686   4.694  16.948  1.2097 -0.5428 -1.2608
  891MPD2    N113121   4.453   0.356  16.747 -0.2809  0.1741 -0.7239
  891MPD2    H713122   4.455   0.444  16.696  0.1616  0.8788  0.5124
  892MPD2     C13123   0.912   1.477  14.128  0.0324 -0.4115 -0.7739
  892MPD2    C113124   0.887   1.432  14.254  0.7890  0.7401 -0.1713
  892MPD2    C213125   0.973   1.325  14.302 -0.1053 -0.2743  0.4412
  892MPD2    C313126   1.050   1.252  14.214  0.4273 -0.1671 -0.7428
  892MPD2    C413127   1.067   1.303  14.088 -0.3951  0.2810 -0.0729
  892MPD2    C513128   1.006   1.413  14.051 -0.0638  0.2829  0.0458
  892MPD2     H13129   0.966   1.276  14.398 -0.7777 -1.3726 -0.1728
  892MPD2    H113130   1.134   1.260  14.015  0.7612 -1.3033  1.9183
  892MPD2    H213131   0.863   1.566  14.090 -0.0455 -0.8730 -1.7579
  892MPD2    H313132   1.024   1.453  13.952  2.0869  1.5005  0.9217
  892MPD2     N13133   1.128   1.142  14.239  0.7763 -0.2567 -0.3396
  892MPD2    H513134   1.200   1.119  14.171  0.8773  0.1271 -0.3621
  892MPD2    N113135   0.793   1.505  14.330 -0.3527  0.3387 -0.2163
  892MPD2    H713136   0.740   1.577  14.282 -0.0283  0.4627 -0.3885
  893MPD2     C13137   1.722   4.731   0.953  0.0797  0.3068  0.5264
  893MPD2    C113138   1.742   4.710   1.088  0.4078  0.4988  0.0817
  893MPD2    C213139   1.637   4.718   1.180 -0.3735  0.1690  0.3427
  893MPD2    C313140   1.513   0.019   1.130 -0.3027 -0.6206 -0.6640
  893MPD2    C413141   1.501   0.025   0.986 -0.1566 -0.6591 -0.2538
  893MPD2    C513142   1.599   0.007   0.895  0.0874  0.1917 -0.1179
  893MPD2     H13143   1.650   4.699   1.286  1.4554 -0.5321 -0.0129
  893MPD2    H113144   1.403   0.035   0.942 -0.6589 -2.5083  0.4252
  893MPD2    H213145   1.799   4.693   0.887 -2.0338 -3.6531  0.3448
  893MPD2    H313146   1.563   4.717   0.796  1.0436  3.7455 -1.3980
  893MPD2     N13147   1.392   0.021   1.201 -0.2813  0.1337  0.4572
  893MPD2    H513148   1.309   0.028   1.143 -2.2590 -0.9565  3.1572
  893MPD2    N113149   1.876   4.695   1.115 -0.4044 -0.9067  0.0988
  893MPD2    H713150   1.940   4.699   1.036  0.8331  1.1699  1.2036
  894MPD2     C13151   0.017   1.401   0.688 -0.6330 -0.1462 -0.0528
  894MPD2    C113152   0.008   1.543   0.690  0.0343 -0.4165 -0.4979
  894MPD2    C213153   0.121   1.616   0.657 -0.6358  0.0892 -0.1724
  894MPD2    C313154   0.241   1.561   0.627  0.6729  0.0642 -0.4970
  894MPD2    C413155   0.243   1.426   0.619 -0.1673 -0.4184  0.5611
  894MPD2    C513156   0.136   1.348   0.649  0.3700 -0.2651 -0.0705
  894MPD2     H13157   0.119   1.724   0.655  1.6043  0.1230 -0.5040
  894MPD2    H113158   0.332   1.372   0.591 -0.8939 -1.5950  0.5224
  894MPD2    H213159   4.673   1.331   0.706 -0.6083 -0.4933 -1.2479
  894MPD2    H313160   0.137   1.239   0.652  0.7370 -0.2216  1.8520
  894MPD2     N13161   0.343   1.646   0.585  0.2243 -0.2931 -0.4234
  894MPD2    H513162   0.331   1.745   0.602  2.7706 -0.1440  0.5120
  894MPD2    N113163   4.629   1.617   0.715 -0.2758 -0.4550 -0.1628
  894MPD2    H713164   4.628   1.718   0.705  0.8789 -0.3901  0.4051
  895MPD2     C13165   0.207   0.735  13.666 -0.0764  0.4305  0.1413
  895MPD2    C113166   0.206   0.736  13.527  1.3208 -0.0440  0.5849
  895MPD2    C213167   0.258   0.629  13.460  0.4406 -0.3534  0.1561
  895MPD2    C313168   0.290   0.513  13.526 -0.1432 -0.0712 -0.4710
  895MPD2    C413169   0.296   0.508  13.668  0.0660 -0.4951 -0.5111
  895MPD2    C513170   0.248   0.621  13.730  0.3235  0.0020 -0.4095
  895MPD2     H13171   0.252   0.620  13.352  0.9090 -2.3631  0.2911
  895MPD2    H113172   0.325   0.415  13.715  2.7914  0.1286 -0.9124
  895MPD2    H213173   0.174   0.809  13.738 -3.1411  1.4398 -2.2638
  895MPD2    H313174   0.224   0.613  13.836  1.1955 -1.2046 -0.3040
  895MPD2     N13175   0.312   0.393  13.455  0.0989  0.1100 -0.1962
  895MPD2    H513176   0.325   0.401  13.355 -0.0755  0.4889 -0.1905
  895MPD2    N113177   0.155   0.838  13.442 -0.0920 -0.2818  0.3718
  895MPD2    H713178   0.158   0.823  13.342 -1.6228 -0.1067  0.2934
  896MPD2     C13179   1.732   2.721   1.177 -0.2667 -0.5348  0.3706
  896MPD2    C113180   1.794   2.686   1.059  0.5085  0.0343 -0.2956
  896MPD2    C213181   1.725   2.610   0.969 -0.3194  0.3659 -0.1400
  896MPD2    C313182   1.593   2.566   0.986  0.5039 -0.4645  0.2525
  896MPD2    C413183   1.537   2.587   1.111 -0.5151  0.2467 -0.4733
  896MPD2    C513184   1.607   2.664   1.204 -0.1711 -0.3628  0.0691
  896MPD2     H13185   1.767   2.604   0.869 -2.3742  1.0292 -1.0416
  896MPD2    H113186   1.437   2.553   1.131 -0.0593  0.2671  1.8522
  896MPD2    H213187   1.775   2.791   1.247 -2.0725  2.1312 -1.1259
  896MPD2    H313188   1.554   2.687   1.296  0.7731 -1.3331  0.8643
  896MPD2     N13189   1.520   2.495   0.893  0.7504  0.0561  0.2494
  896MPD2    H513190   1.421   2.484   0.912  0.4819  2.2928  0.1920
  896MPD2    N113191   1.919   2.741   1.035 -0.0356  0.2599 -0.4328
  896MPD2    H713192   1.960   2.795   1.111  0.1529 -0.1033 -0.2772
  897MPD2     C13193   3.405   0.429  10.865  0.2882  0.5972 -0.7326
  897MPD2    C113194   3.306   0.451  10.770 -0.1149 -0.1627  0.1916
  897MPD2    C213195   3.176   0.416  10.797  0.2389  0.2294 -0.2956
  897MPD2    C313196   3.136   0.359  10.921 -0.1062 -0.2948 -0.6336
  897MPD2    C413197   3.237   0.342  11.011 -0.4113  0.0394  0.5402
  897MPD2    C513198   3.364   0.383  10.986 -0.5054  0.0762 -0.3533
  897MPD2     H13199   3.102   0.444  10.722 -1.4522  0.6765  1.5439
  897MPD2    H113200   3.226   0.325  11.117  0.2730 -0.6038  0.5052
  897MPD2    H213201   3.506   0.458  10.837  0.2170 -0.1657 -1.7701
  897MPD2    H313202   3.441   0.371  11.061 -0.5735  0.2371 -0.2568
  897MPD2     N13203   2.997   0.326  10.940 -0.0735 -0.3377  0.7798
  897MPD2    H513204   2.927   0.337  10.867  1.7362  1.7712 -0.6162
  897MPD2    N113205   3.343   0.521  10.652 -0.7394 -0.3974  0.1016
  897MPD2    H713206   3.440   0.551  10.650 -0.6119 -0.7227  1.4014
  898MPD2     C13207   1.201   0.697  16.780 -0.5650 -0.4734 -0.0563
  898MPD2    C113208   1.114   0.593  16.765  0.3983  0.3603 -0.6759
  898MPD2    C213209   0.985   0.610  16.714 -0.3438 -0.2170  0.2143
  898MPD2    C313210   0.947   0.741  16.685 -0.3050 -0.5828  0.2605
  898MPD2    C413211   1.040   0.846  16.711 -0.2062 -0.1510  0.2836
  898MPD2    C513212   1.166   0.822  16.760  0.5272  0.0810  0.3954
  898MPD2     H13213   0.923   0.521  16.708 -0.2867 -0.1202 -2.0513
  898MPD2    H113214   1.023   0.952  16.697  1.2141 -0.2827 -2.3683
  898MPD2    H213215   1.290   0.688  16.841 -1.6123 -1.9427  1.2611
  898MPD2    H313216   1.222   0.911  16.784  1.9977 -1.4815  2.6332
  898MPD2     N13217   0.821   0.758  16.626  0.5139 -0.8063  0.6668
  898MPD2    H513218   0.760   0.677  16.633  2.9173 -2.8203 -1.8268
  898MPD2    N113219   1.150   0.465  16.815  0.1563  0.5396  0.4387
  898MPD2    H713220   1.076   0.396  16.803  2.2495 -0.6965 -5.3891
  899MPD2     C13221   1.790   1.590  17.329 -0.7255  0.4291 -0.5428
  899MPD2    C113222   1.687   1.593  17.233 -0.8780  0.0765  0.8339
  899MPD2    C213223   1.599   1.481  17.233  0.0466 -0.0820 -0.0202
  899MPD2    C313224   1.605   1.386  17.333  0.6740  0.4275 -0.6208
  899MPD2    C413225   1.701   1.397  17.428 -0.0405  0.2830 -0.2697
  899MPD2    C513226   1.795   1.492  17.425  0.7736  1.1615  0.3866
  899MPD2     H13227   1.528   1.474  17.151 -0.2077 -0.3724  0.2231
  899MPD2    H113228   1.706   1.321  17.505 -3.4584 -1.3646 -1.6853
  899MPD2    H213229   1.856   1.676  17.330 -0.0314 -0.1167  0.4156
  899MPD2    H313230   1.882   1.497  17.489 -0.2713 -2.0083  2.0445
  899MPD2     N13231   1.504   1.289  17.348  0.2386 -0.7520 -0.0852
  899MPD2    H513232   1.495   1.234  17.432  2.0860  0.5841  0.9916
  899MPD2    N113233   1.665   1.703  17.152 -0.0108 -0.3529  0.1954
  899MPD2    H713234   1.727   1.779  17.177 -0.6889  0.2910 -0.0665
  900MPD2     C13235   1.116   3.111  12.906  0.5115 -0.0629 -0.2941
  900MPD2    C113236   1.018   3.015  12.899  0.6352  0.8062  0.5005
  900MPD2    C213237   0.880   3.042  12.906  0.1101  0.3607  0.4136
  900MPD2    C313238   0.838   3.172  12.910 -0.7968  0.4903  0.3341
  900MPD2    C413239   0.931   3.270  12.909 -0.2158  0.1476  0.0060
  900MPD2    C513240   1.069   3.243  12.917 -1.0317  0.8323 -0.1364
  900MPD2     H13241   0.815   2.957  12.924  1.2243 -0.5894 -0.1136
  900MPD2    H113242   0.912   3.377  12.914  1.4033  0.4110  0.5371
  900MPD2    H213243   1.223   3.094  12.915  0.5568 -0.3258 -1.2523
  900MPD2    H313244   1.143   3.322  12.909  0.1267 -0.0053  2.3792
  900MPD2     N13245   0.703   3.203  12.915 -0.2756  0.2672  0.2634
  900MPD2    H513246   0.634   3.131  12.894 -0.2753  1.0543 -2.4197
  900MPD2    N113247   1.070   2.882  12.880  0.0155 -0.2574  0.3583
  900MPD2    H713248   1.163   2.873  12.841 -1.2407  0.1057 -2.7752
  901MPD2     C13249   1.090   1.787  12.813  0.1034  0.5548  0.7553
  901MPD2    C113250   1.077   1.835  12.686 -0.1267  0.2061 -0.1433
  901MPD2    C213251   1.071   1.974  12.665 -0.0976  0.3436  0.4821
  901MPD2    C313252   1.087   2.058  12.771 -0.1081  0.4900  0.4762
  901MPD2    C413253   1.101   2.007  12.900 -0.8911  0.3768  0.2296
  901MPD2    C513254   1.097   1.868  12.926  0.0067 -0.1900  0.0083
  901MPD2     H13255   1.068   2.009  12.562  0.0009  1.6027  0.9134
  901MPD2    H113256   1.106   2.070  12.988  0.6322 -1.6149  1.5493
  901MPD2    H213257   1.099   1.680  12.830  1.3064  0.3217 -1.3096
  901MPD2    H313258   1.099   1.831  13.028 -0.8377  3.1415  1.2353
  901MPD2     N13259   1.096   2.197  12.741 -0.0810 -0.1829 -0.4770
  901MPD2    H513260   1.081   2.221  12.643  1.8335  0.8387 -0.5164
  901MPD2    N113261   1.072   1.737  12.582 -0.8997  0.1778  0.1195
  901MPD2    H713262   1.064   1.641  12.614  2.2750  0.2561  1.1599
  902MPD2     C13263   0.570   1.363  12.825  0.7055 -1.0019 -0.6786
  902MPD2    C113264   0.550   1.353  12.693 -0.5788 -0.2417 -0.0177
  902MPD2    C213265   0.601   1.245  12.625  0.3516 -0.1098  0.1908
  902MPD2    C313266   0.670   1.145  12.687 -0.3296 -0.8813  0.3095
  902MPD2    C413267   0.690   1.160  12.825  0.1716 -0.0265  0.8639
  902MPD2    C513268   0.643   1.271  12.889 -0.0676  0.1499  0.4497
  902MPD2     H13269   0.572   1.240  12.521  0.0168  0.3251  0.2590
  902MPD2    H113270   0.726   1.070  12.874 -0.1121 -0.8122 -0.3712
  902MPD2    H213271   0.536   1.447  12.884 -3.8495 -2.7149 -0.8534
  902MPD2    H313272   0.663   1.275  12.995  2.3579  0.0254 -0.0089
  902MPD2     N13273   0.720   1.031  12.617 -0.0971  0.1699  0.1541
  902MPD2    H513274   0.760   0.958  12.675 -0.9414 -1.2028 -1.0238
  902MPD2    N113275   0.478   1.463  12.630  0.2132 -0.0390 -0.6761
  902MPD2    H713276   0.452   1.544  12.686 -1.1572 -0.7014 -0.3582
  903MPD2     C13277   0.574   1.041  11.955 -0.4435  0.3660  0.1144
  903MPD2    C113278   0.581   0.915  12.013 -0.4175 -0.3975 -0.1788
  903MPD2    C213279   0.479   0.824  11.995  0.1191 -0.8650  0.3563
  903MPD2    C313280   0.365   0.855  11.925 -0.4739  0.0584 -0.2852
  903MPD2    C413281   0.347   0.982  11.885  0.9583 -0.2310  0.1887
  903MPD2    C513282   0.449   1.077  11.901 -0.2613  0.4553  0.8287
  903MPD2     H13283   0.488   0.721  12.027 -1.2642 -1.7077 -1.9150
  903MPD2    H113284   0.253   1.011  11.840 -0.4883 -1.5859  2.3497
  903MPD2    H213285   0.655   1.111  11.970  0.0502 -0.5619  1.6708
  903MPD2    H313286   0.439   1.177  11.859  1.0062 -0.4582 -1.7010
  903MPD2     N13287   0.267   0.757  11.924  0.4502 -0.3621  0.0399
  903MPD2    H513288   0.276   0.676  11.985 -1.9739 -0.2848  0.5017
  903MPD2    N113289   0.699   0.894  12.078  0.4483 -0.1734  0.1787
  903MPD2    H713290   0.744   0.978  12.112  2.1356  0.1361 -2.7911
  904MPD2     C13291   4.431   4.679  14.505 -0.7019  0.0291  0.2522
  904MPD2    C113292   4.496   0.047  14.456  0.3614  0.3420 -0.2687
  904MPD2    C213293   4.629   0.045  14.427 -0.4204 -0.6121  0.3825
  904MPD2    C313294   4.698   4.656  14.438 -0.0350  0.1049  0.4225
  904MPD2    C413295   4.635   4.545  14.488 -0.1465 -0.0066  0.3470
  904MPD2    C513296   4.503   4.561  14.524 -0.1259 -0.6851  0.4726
  904MPD2     H13297   4.690   0.123  14.384  0.2984  0.4238  3.2647
  904MPD2    H113298   4.681   4.449  14.505  0.0423  0.2833  1.4452
  904MPD2    H213299   4.327   4.682  14.535 -1.0046 -1.7232 -0.5974
  904MPD2    H313300   4.454   4.474  14.566 -1.9663 -0.4629 -1.1874
  904MPD2     N13301   0.098   4.656  14.395 -0.2854 -0.3486 -0.0710
  904MPD2    H513302   0.123   0.001  14.339  2.2690 -1.2364 -0.2134
  904MPD2    N113303   4.416   0.161  14.430 -0.1907 -0.4460 -0.1828
  904MPD2    H713304   4.318   0.148  14.454  0.2327 -0.1048  1.6840
  905MPD2     C13305   4.356   0.703  13.809 -0.7259 -0.2447  0.2972
  905MPD2    C113306   4.356   0.583  13.874  0.2029 -0.2902  0.1296
  905MPD2    C213307   4.436   0.485  13.818 -0.1497 -0.1291 -0.2770
  905MPD2    C313308   4.507   0.517  13.709 -0.1759 -1.0469 -0.7993
  905MPD2    C413309   4.509   0.640  13.647  0.4753  0.2055  0.5423
  905MPD2    C513310   4.435   0.743  13.701 -0.3262 -0.1446 -0.1885
  905MPD2     H13311   4.435   0.386  13.861  0.6668  0.3076  0.7430
  905MPD2    H113312   4.556   0.660  13.552 -0.6215 -1.2944 -0.3192
  905MPD2    H213313   4.297   0.788  13.843 -2.6204 -0.7184 -1.8150
  905MPD2    H313314   4.436   0.847  13.673 -2.3254 -0.3982 -1.2357
  905MPD2     N13315   4.586   0.414  13.651 -0.5340  0.8994  0.2028
  905MPD2    H513316   4.613   0.432  13.554 -0.1459  1.3836  0.4040
  905MPD2    N113317   4.280   0.566  13.986  0.3351 -0.2309 -0.1733
  905MPD2    H713318   4.215   0.638  14.017 -1.0731 -0.7372 -1.9389
  906MPD2     C13319   1.838   0.321  11.170  0.2185 -0.0031 -0.5386
  906MPD2    C113320   1.764   0.239  11.087  0.2542 -0.0715  0.0177
  906MPD2    C213321   1.703   0.126  11.146  0.7637 -0.1884  0.3292
  906MPD2    C313322   1.699   0.101  11.286  0.4732  0.5214  0.5163
  906MPD2    C413323   1.766   0.186  11.358 -0.2185 -0.3804  0.3545
  906MPD2    C513324   1.834   0.291  11.301 -0.2118 -0.4839 -0.5663
  906MPD2     H13325   1.646   0.065  11.077  0.0766 -0.5353  1.2023
  906MPD2    H113326   1.757   0.179  11.466 -3.7791  1.0716  0.1488
  906MPD2    H213327   1.907   0.398  11.137 -0.7594 -0.1647 -2.9878
  906MPD2    H313328   1.892   0.348  11.372  0.2988 -0.1972 -1.2209
  906MPD2     N13329   1.618   0.006  11.346  0.1244  0.6859  0.2225
  906MPD2    H513330   1.600   0.012  11.445  0.1797 -0.5946  0.2989
  906MPD2    N113331   1.748   0.254  10.943  0.1207  0.1492  0.5112
  906MPD2    H713332   1.693   0.188  10.889  1.1416 -2.2677  2.4498
  907MPD2     C13333   0.886   4.031  16.099  0.2578  0.6432 -0.2315
  907MPD2    C113334   0.962   3.942  16.020 -0.2701  0.3656  0.0894
  907MPD2    C213335   1.047   3.861  16.090  0.3062 -0.3219 -0.0798
  907MPD2    C313336   1.049   3.859  16.226  0.5663  0.4863 -0.8702
  907MPD2    C413337   0.965   3.938  16.300 -0.3434  0.4442  0.3649
  907MPD2    C513338   0.882   4.029  16.236  0.0519 -0.1754 -0.9674
  907MPD2     H13339   1.110   3.791  16.035 -0.4557 -0.3551 -0.9030
  907MPD2    H113340   0.964   3.943  16.408  1.0722  1.2428  0.3390
  907MPD2    H213341   0.817   4.101  16.052  2.0408  3.5870  1.4879
  907MPD2    H313342   0.822   4.095  16.296  0.7197  1.0339 -1.6387
  907MPD2     N13343   1.142   3.771  16.284 -0.2458  0.4435 -0.2568
  907MPD2    H513344   1.194   3.710  16.222 -1.6702 -0.1812 -0.8279
  907MPD2    N113345   0.958   3.930  15.879  0.5163 -0.0738 -0.6661
  907MPD2    H713346   1.015   3.854  15.844  0.7886  1.3312 -3.2830
  908MPD2     C13347   2.899   0.600   9.742  0.2725 -0.7938 -0.9209
  908MPD2    C113348   2.903   0.500   9.834  0.1661  0.3097 -0.6116
  908MPD2    C213349   2.985   0.515   9.946 -0.0493 -0.3453  0.2924
  908MPD2    C313350   3.059   0.628   9.965 -0.0480  0.3471 -0.7490
  908MPD2    C413351   3.050   0.729   9.871 -0.5263  0.3194 -0.2729
  908MPD2    C513352   2.982   0.714   9.760 -0.5803  0.0316 -0.6605
  908MPD2     H13353   2.984   0.438  10.022 -0.6928 -0.8008 -0.1822
  908MPD2    H113354   3.093   0.827   9.887 -0.5611  0.2425  0.2946
  908MPD2    H213355   2.843   0.587   9.650 -1.7358  1.3504 -0.0079
  908MPD2    H313356   2.969   0.798   9.693  2.0020  1.8334  1.1530
  908MPD2     N13357   3.142   0.642  10.076 -0.9195  0.4458 -0.0296
  908MPD2    H513358   3.141   0.553  10.124 -1.6987 -0.0553 -0.9783
  908MPD2    N113359   2.828   0.385   9.800 -0.0226  0.0551 -0.2627
  908MPD2    H713360   2.773   0.391   9.715 -1.6489 -2.3123  0.6258
  909MPD2     C13361   3.486   2.919  12.319 -0.1323 -0.1014 -0.3036
  909MPD2    C113362   3.444   3.029  12.246 -0.4814  0.1930 -1.0293
  909MPD2    C213363   3.332   3.099  12.289  0.3441  0.0261 -0.3411
  909MPD2    C313364   3.244   3.046  12.384  0.4265 -0.0340  0.1665
  909MPD2    C413365   3.287   2.928  12.447  0.2347  0.7912 -0.7519
  909MPD2    C513366   3.400   2.863  12.410  0.3507  0.4113 -0.5544
  909MPD2     H13367   3.315   3.198  12.249 -1.4634  0.0065  0.3683
  909MPD2    H113368   3.217   2.882  12.515  0.3769  3.3618  1.1594
  909MPD2    H213369   3.574   2.862  12.292 -0.8780 -2.4037  2.1569
  909MPD2    H313370   3.426   2.769  12.457  1.3979  0.3635 -1.2436
  909MPD2     N13371   3.121   3.113  12.415 -0.2212 -0.2886 -0.8611
  909MPD2    H513372   3.104   3.199  12.364 -3.2161 -0.4830 -0.2072
  909MPD2    N113373   3.527   3.093  12.150 -0.2932 -0.0641 -0.2859
  909MPD2    H713374   3.506   3.191  12.137  1.1863  0.0510 -1.7929
  910MPD2     C13375   0.082   4.388  16.393  0.0014 -0.3630  0.1259
  910MPD2    C113376   0.194   4.397  16.313  0.0532 -0.5333 -0.2476
  910MPD2    C213377   0.187   4.494  16.214  0.0103  0.0676 -0.5569
  910MPD2    C313378   0.067   4.556  16.177 -0.1365  0.0190  0.1017
  910MPD2    C413379   4.695   4.539  16.261 -0.6725 -0.0919 -0.0746
  910MPD2    C513380   4.706   4.454  16.367  0.4944 -0.2877 -0.6406
  910MPD2     H13381   0.277   4.507  16.155  0.3858 -0.5397 -0.1237
  910MPD2    H113382   4.599   4.584  16.239 -0.0517  1.6829  0.8614
  910MPD2    H213383   0.077   4.317  16.475  0.1500 -0.1831  0.2936
  910MPD2    H313384   4.620   4.438  16.430 -0.5607 -0.1595 -2.0477
  910MPD2     N13385   0.039   4.623  16.051  0.0474 -0.7692  0.5554
  910MPD2    H513386   4.685   4.666  16.035  0.5638  0.0736 -0.1418
  910MPD2    N113387   0.315   4.313  16.326  0.6060  0.1753  0.4336
  910MPD2    H713388   0.376   4.323  16.247 -0.7282  0.7721 -0.5256
  911MPD2     C13389   2.802   0.229  16.058  0.1163  0.0237 -0.5769
  911MPD2    C113390   2.824   0.255  16.195  0.9224 -0.1034  0.0469
  911MPD2    C213391   2.749   0.354  16.256  0.4950  0.3320 -0.0297
  911MPD2    C313392   2.643   0.415  16.183 -0.2892  0.7485 -0.0319
  911MPD2    C413393   2.628   0.400  16.046 -0.6400  0.4458  0.0888
  911MPD2    C513394   2.710   0.310  15.984 -0.2225  0.2588  0.0387
  911MPD2     H13395   2.775   0.390  16.355  1.2211  1.6713 -0.7107
  911MPD2    H113396   2.552   0.459  15.995 -0.8005  0.1741  0.0120
  911MPD2    H213397   2.855   0.149  16.006 -0.6986  0.1761 -1.6520
  911MPD2    H313398   2.692   0.295  15.878  0.3946 -1.1987  0.1453
  911MPD2     N13399   2.551   0.503  16.241 -0.1066  0.0425  0.2380
  911MPD2    H513400   2.464   0.513  16.190 -0.4263 -2.1056  0.3847
  911MPD2    N113401   2.929   0.192  16.257 -0.2990  0.0801  0.4801
  911MPD2    H713402   2.976   0.120  16.203 -1.3985 -0.4450  0.2118
  912MPD2     C13403   2.313   0.502  15.849  0.3634  0.2113 -0.0097
  912MPD2    C113404   2.272   0.473  15.974 -0.8112  0.2763  0.1000
  912MPD2    C213405   2.276   0.346  16.017  1.1842  0.2653 -0.1661
  912MPD2    C313406   2.326   0.245  15.935 -0.0502 -0.1051  0.3516
  912MPD2    C413407   2.363   0.275  15.813  0.6937  0.3905  0.3156
  912MPD2    C513408   2.344   0.402  15.762  0.5267  0.6590  0.2062
  912MPD2     H13409   2.263   0.316  16.121  2.1756  0.4415  0.0113
  912MPD2    H113410   2.406   0.204  15.743 -1.1374  0.5541 -0.9510
  912MPD2    H213411   2.324   0.604  15.814  0.1788  0.5992  1.0664
  912MPD2    H313412   2.373   0.415  15.658  0.1278  1.7582  0.2302
  912MPD2     N13413   2.347   0.129  15.995  0.2163 -0.4016  0.5491
  912MPD2    H513414   2.318   0.118  16.092 -0.4686 -1.2476  0.2423
  912MPD2    N113415   2.251   0.576  16.058 -0.0719  0.5666  0.1960
  912MPD2    H713416   2.281   0.667  16.023  1.7721  0.2030  0.8464
  913MPD2     C13417   3.322   2.311  11.379 -0.2705 -0.4283  0.2048
  913MPD2    C113418   3.326   2.247  11.259  0.4593 -0.8547  0.4077
  913MPD2    C213419   3.291   2.316  11.142 -0.4932  0.5491 -0.6928
  913MPD2    C313420   3.251   2.447  11.151  0.5691  0.4351 -0.5851
  913MPD2    C413421   3.251   2.512  11.277 -0.3889 -0.4911  0.2523
  913MPD2    C513422   3.291   2.448  11.386 -0.4457  0.0433  0.3572
  913MPD2     H13423   3.297   2.270  11.044 -2.0098 -1.4575  0.1583
  913MPD2    H113424   3.232   2.619  11.278  1.7781 -0.1058  1.0318
  913MPD2    H213425   3.356   2.265  11.471 -3.4438 -1.0582  1.0518
  913MPD2    H313426   3.320   2.497  11.478  0.3463 -4.1113  2.3491
  913MPD2     N13427   3.208   2.522  11.039 -0.0264  0.0443 -0.6391
  913MPD2    H513428   3.170   2.614  11.054  0.5058  0.3983 -1.4575
  913MPD2    N113429   3.369   2.109  11.258 -0.3531 -0.0981 -0.3171
  913MPD2    H713430   3.381   2.068  11.350 -0.6849  0.9266  0.1862
  914MPD2     C13431   1.227   2.268  12.060  0.3362  0.0183  0.4494
  914MPD2    C113432   1.153   2.233  12.173 -0.2475 -0.0127 -0.4691
  914MPD2    C213433   1.176   2.107  12.226  0.4887  0.4047  0.1827
  914MPD2    C313434   1.248   2.018  12.149 -0.8134 -0.2243  0.1295
  914MPD2    C413435   1.313   2.055  12.035  0.2583 -0.3454  0.1860
  914MPD2    C513436   1.307   2.182  11.993 -0.0280 -0.3784  0.1542
  914MPD2     H13437   1.116   2.065  12.306  0.0394  2.2061  0.7951
  914MPD2    H113438   1.358   1.979  11.972  2.3214 -0.2771  1.5829
  914MPD2    H213439   1.219   2.362  12.006  0.1534  0.2825  0.9342
  914MPD2    H313440   1.353   2.208  11.898  3.6968  0.9338  2.3201
  914MPD2     N13441   1.238   1.885  12.193  0.2115 -0.5257  0.2971
  914MPD2    H513442   1.170   1.870  12.267  0.4993 -2.6421  0.1458
  914MPD2    N113443   1.072   2.337  12.231  0.3860 -0.3149 -0.1109
  914MPD2    H713444   1.041   2.412  12.169 -0.3581  0.1546  0.8302
  915MPD2     C13445   4.013   1.859  15.531 -0.3121  0.5405  0.1274
  915MPD2    C113446   3.899   1.934  15.509 -0.0491 -0.2679 -0.2676
  915MPD2    C213447   3.857   2.015  15.614  0.4831  0.0347 -0.1739
  915MPD2    C313448   3.925   2.012  15.737 -0.1234  0.1925  0.5499
  915MPD2    C413449   4.042   1.936  15.746  0.1908 -0.4662  0.0930
  915MPD2    C513450   4.082   1.857  15.646 -0.1776 -0.0917 -0.7494
  915MPD2     H13451   3.767   2.074  15.603  0.5770 -0.0087 -1.1442
  915MPD2    H113452   4.088   1.926  15.843  0.5618 -0.3005 -0.0693
  915MPD2    H213453   4.039   1.784  15.458 -0.8207  0.7647 -0.2827
  915MPD2    H313454   4.166   1.790  15.657 -0.8545 -0.5817  1.5003
  915MPD2     N13455   3.877   2.089  15.842 -0.2868 -0.0071  0.1788
  915MPD2    H513456   3.792   2.144  15.831 -0.2208 -0.3835 -2.2152
  915MPD2    N113457   3.837   1.923  15.381 -0.2775  0.7490 -0.0261
  915MPD2    H713458   3.872   1.852  15.317 -0.2099 -0.8170  1.7199
  916MPD2     C13459   1.910   0.029  15.738 -0.3394  0.2007  0.2358
  916MPD2    C113460   1.975   4.706  15.840  0.9614 -0.0340 -0.2247
  916MPD2    C213461   2.031   4.584  15.821 -0.1522  0.2864 -0.4142
  916MPD2    C313462   2.008   4.511  15.711 -0.1485 -0.3720 -0.2180
  916MPD2    C413463   1.931   4.567  15.613 -0.0415 -0.3733 -0.7670
  916MPD2    C513464   1.880   4.692  15.627  0.5895 -0.1922  0.0218
  916MPD2     H13465   2.100   4.546  15.896  1.4131  2.4965 -0.7200
  916MPD2    H113466   1.902   4.523  15.518  2.0556 -1.1987 -1.0094
  916MPD2    H213467   1.867   0.128  15.748  0.0047  0.6696 -2.8920
  916MPD2    H313468   1.815   4.730  15.548  1.7359  2.5703  0.4295
  916MPD2     N13469   2.078   4.381  15.696 -0.0470 -0.1152  0.3019
  916MPD2    H513470   2.137   4.353  15.773  0.0994  0.5030  0.4172
  916MPD2    N113471   2.003   0.051  15.956 -0.3040 -0.9124 -0.7212
  916MPD2    H713472   1.973   0.147  15.946  1.2453 -0.3074  0.4986
  917MPD2     C13473   1.749   2.657  11.275 -0.6132  0.0807 -0.8450
  917MPD2    C113474   1.818   2.720  11.372  0.0885 -0.1179  0.0688
  917MPD2    C213475   1.832   2.861  11.369  0.4740  1.1839  0.2212
  917MPD2    C313476   1.791   2.933  11.253  0.8945  0.1175 -0.8036
  917MPD2    C413477   1.722   2.866  11.156 -0.2696 -0.4231 -0.3638
  917MPD2    C513478   1.709   2.729  11.164  0.2409 -0.2818 -0.0657
  917MPD2     H13479   1.895   2.910  11.442 -0.9638  1.0041  1.5864
  917MPD2    H113480   1.695   2.907  11.060 -2.5621  1.6267  1.1515
  917MPD2    H213481   1.741   2.549  11.284 -0.2033  0.0209 -1.1881
  917MPD2    H313482   1.658   2.686  11.079 -0.0771  1.6272 -0.8570
  917MPD2     N13483   1.805   3.073  11.243  0.5227  0.1983  0.2208
  917MPD2    H513484   1.789   3.106  11.148  1.2505 -0.7036 -0.2155
  917MPD2    N113485   1.862   2.634  11.481 -0.0978  0.0510  0.6519
  917MPD2    H713486   1.870   2.535  11.459  1.4102  0.3170  0.0244
  918MPD2     C13487   2.437   2.933  12.215  0.1131  0.2897 -0.1821
  918MPD2    C113488   2.504   2.821  12.175  0.1828  0.1044 -0.4951
  918MPD2    C213489   2.425   2.720  12.124  0.1995 -0.0830  0.5206
  918MPD2    C313490   2.286   2.728  12.116  0.1020 -0.1474 -0.1210
  918MPD2    C413491   2.221   2.834  12.175 -0.4460  0.1238 -0.1304
  918MPD2    C513492   2.302   2.932  12.225  0.6291 -0.1510  0.7901
  918MPD2     H13493   2.466   2.635  12.070 -1.6996  0.0320 -1.1027
  918MPD2    H113494   2.113   2.848  12.170 -0.4500  0.2449  0.2585
  918MPD2    H213495   2.496   3.021  12.241  1.7595 -0.7901 -0.2980
  918MPD2    H313496   2.265   3.024  12.269 -0.1269 -0.1413  0.1301
  918MPD2     N13497   2.222   2.623  12.047 -0.2390  0.1257 -0.1620
  918MPD2    H513498   2.279   2.560  11.991 -1.4665 -2.6632  1.6830
  918MPD2    N113499   2.649   2.813  12.171  0.4520  0.1110 -0.2772
  918MPD2    H713500   2.684   2.718  12.159 -0.4956 -0.3994  0.9749
  919MPD2     C13501   3.315   2.001  11.795 -0.1662 -0.2907 -0.1169
  919MPD2    C113502   3.193   1.937  11.778  0.5325  0.4823 -0.5046
  919MPD2    C213503   3.107   1.991  11.681 -0.5201  0.2001  0.3538
  919MPD2    C313504   3.118   2.120  11.635 -0.7036 -0.3664  0.8783
  919MPD2    C413505   3.227   2.192  11.679 -0.1354 -0.1347  0.2997
  919MPD2    C513506   3.329   2.126  11.746 -0.1073 -0.4415 -0.8287
  919MPD2     H13507   3.020   1.928  11.664  0.7428 -0.7939 -2.4586
  919MPD2    H113508   3.241   2.292  11.641  2.5696  0.7868  3.7568
  919MPD2    H213509   3.399   1.963  11.851  0.1761 -0.0788 -0.4947
  919MPD2    H313510   3.411   2.183  11.788  0.6431 -1.6801 -0.5965
  919MPD2     N13511   3.021   2.171  11.548  0.1713 -0.0852  0.0419
  919MPD2    H513512   3.026   2.271  11.532 -3.7912 -0.2303 -1.9847
  919MPD2    N113513   3.171   1.807  11.825  0.7405  0.5871 -0.3001
  919MPD2    H713514   3.076   1.772  11.825  0.4790  1.2768  0.3425
  920MPD2     C13515   2.386   1.893  10.718 -0.3189  0.1893 -0.1692
  920MPD2    C113516   2.401   2.027  10.703  0.4441  0.0384  0.1487
  920MPD2    C213517   2.480   2.094  10.796  0.2113  0.3628  0.2952
  920MPD2    C313518   2.531   2.022  10.905 -0.1761 -0.8771  0.2971
  920MPD2    C413519   2.514   1.888  10.911 -1.0712 -0.1452 -0.2620
  920MPD2    C513520   2.444   1.819  10.817 -0.5396  0.0462 -0.2610
  920MPD2     H13521   2.485   2.202  10.792  3.4727  0.1960 -0.1561
  920MPD2    H113522   2.558   1.832  10.993 -3.2937 -0.1406  0.9207
  920MPD2    H213523   2.333   1.839  10.639 -0.8010 -0.0180  0.2984
  920MPD2    H313524   2.437   1.712  10.826 -0.1911  0.0127 -0.3852
  920MPD2     N13525   2.600   2.098  11.003  0.5627  0.6381  0.5510
  920MPD2    H513526   2.603   2.199  10.998 -1.9501  0.5939 -2.0717
  920MPD2    N113527   2.357   2.107  10.597 -0.0912  0.0332 -0.0723
  920MPD2    H713528   2.366   2.207  10.611  0.0684 -0.3314  2.3798
  921MPD2     C13529   3.693   0.215  16.990  0.4330  0.0218  0.2877
  921MPD2    C113530   3.706   0.265  16.860  0.1438 -0.1834 -0.4314
  921MPD2    C213531   3.591   0.260  16.779  1.0231  0.3995 -0.2424
  921MPD2    C313532   3.477   0.192  16.815 -0.2397  0.4227  0.8375
  921MPD2    C413533   3.469   0.134  16.938 -0.3265  1.0284 -0.0866
  921MPD2    C513534   3.578   0.148  17.023 -0.3853  0.4128 -0.3683
  921MPD2     H13535   3.585   0.305  16.681 -1.0740  1.5337  0.4116
  921MPD2    H113536   3.380   0.084  16.973  0.2391  0.2733  0.2910
  921MPD2    H213537   3.772   0.222  17.064 -0.5711  1.9072  1.1782
  921MPD2    H313538   3.570   0.101  17.121 -0.8398  2.3669  0.5331
  921MPD2     N13539   3.365   0.181  16.730  0.3830 -0.9855 -0.0075
  921MPD2    H513540   3.365   0.243  16.650 -3.2050  0.4491  1.1084
  921MPD2    N113541   3.829   0.328  16.833  0.0024 -0.2465  0.5797
  921MPD2    H713542   3.902   0.320  16.902  0.9065 -1.2626 -0.5094
  922MPD2     C13543   4.415   2.779   0.168 -0.3444  0.0069 -0.5984
  922MPD2    C113544   4.412   2.846   0.048 -0.2022 -0.0493  0.0783
  922MPD2    C213545   4.317   2.811  17.701  0.3351 -0.2282  0.7929
  922MPD2    C313546   4.227   2.707  17.728 -0.0556 -0.4687  0.4364
  922MPD2    C413547   4.237   2.639   0.103  0.7465  0.3814 -0.7706
  922MPD2    C513548   4.324   2.683   0.200 -0.0047  0.6273 -0.0465
  922MPD2     H13549   4.313   2.870  17.610 -1.0569 -1.2343  0.2031
  922MPD2    H113550   4.175   2.554   0.128  0.5259  0.2391 -1.7821
  922MPD2    H213551   4.475   2.803   0.255 -2.4605 -0.5286  1.0108
  922MPD2    H313552   4.339   2.627   0.292  1.0921  0.6212 -0.2300
  922MPD2     N13553   4.122   2.679  17.636  0.0201 -0.5899 -0.2857
  922MPD2    H513554   4.110   2.740  17.556  1.5556 -1.4692 -1.1927
  922MPD2    N113555   4.493   2.956   0.014 -0.1685 -0.3202  0.4361
  922MPD2    H713556   4.504   2.983  17.661  0.4453 -2.8752 -0.2098
  923MPD2     C13557   0.692   4.541   9.121  0.7275 -0.2604  0.7938
  923MPD2    C113558   0.683   4.674   9.161  0.5667 -0.1401  0.0613
  923MPD2    C213559   0.796   4.733   9.207 -0.5213 -0.2143 -0.0145
  923MPD2    C313560   0.922   4.673   9.206  0.6725  0.0401  0.1309
  923MPD2    C413561   0.935   4.541   9.158  0.3971  0.5649  0.5857
  923MPD2    C513562   0.820   4.473   9.117 -0.0039 -0.3851  0.0040
  923MPD2     H13563   0.789   0.099   9.241  1.2617 -0.0279 -0.2052
  923MPD2    H113564   1.028   4.485   9.149 -0.8815 -1.0093 -2.4799
  923MPD2    H213565   0.606   4.482   9.091  1.3142 -0.3580 -0.6896
  923MPD2    H313566   0.829   4.370   9.084  1.3840 -1.4754  3.7287
  923MPD2     N13567   1.041   4.725   9.256 -0.2911  0.3974 -0.2578
  923MPD2    H513568   1.119   4.661   9.256 -2.3638 -2.1292  0.2207
  923MPD2    N113569   0.564   0.009   9.136 -0.0932  0.2915  0.4899
  923MPD2    H713570   0.492   4.690   9.089 -0.1229  1.0577 -0.3625
  924MPD2     C13571   1.350   2.926  16.093 -0.2915 -0.2109  0.5864
  924MPD2    C113572   1.270   3.037  16.071  0.2611 -0.4519  0.3743
  924MPD2    C213573   1.303   3.159  16.127  0.0258 -0.9528 -0.9501
  924MPD2    C313574   1.422   3.175  16.199 -0.1169 -0.8205 -0.2471
  924MPD2    C413575   1.490   3.062  16.223 -0.2063 -0.5356 -0.0802
  924MPD2    C513576   1.464   2.945  16.170  0.4692 -0.5585  0.5139
  924MPD2     H13577   1.238   3.245  16.118  1.7477  0.4433  0.0701
  924MPD2    H113578   1.589   3.072  16.268 -0.9983  2.9242  0.9296
  924MPD2    H213579   1.325   2.822  16.072  0.1707 -0.8188  3.1342
  924MPD2    H313580   1.524   2.861  16.200 -1.4149 -2.6983 -1.7193
  924MPD2     N13581   1.460   3.296  16.255 -0.0746  0.1840  0.0053
  924MPD2    H513582   1.542   3.281  16.312  0.0414 -1.9928 -0.7399
  924MPD2    N113583   1.149   3.029  16.004 -0.1454  0.2348  0.0247
  924MPD2    H713584   1.099   3.116  15.986  0.0257  0.8085  2.3867
  925MPD2     C13585   4.104   1.260  14.707  0.5663  0.0337  0.2691
  925MPD2    C113586   4.161   1.139  14.705 -0.0344  0.0130 -0.0091
  925MPD2    C213587   4.155   1.058  14.815  0.3301  0.0541  0.0268
  925MPD2    C313588   4.091   1.103  14.929  0.0748  0.0346 -0.1931
  925MPD2    C413589   4.029   1.225  14.931 -0.1704 -0.9046 -0.4031
  925MPD2    C513590   4.035   1.307  14.822 -0.0374 -0.5866  0.7063
  925MPD2     H13591   4.184   0.953  14.813  0.4405  0.0935 -0.4939
  925MPD2    H113592   3.972   1.260  15.017 -0.0465  1.7855 -1.4283
  925MPD2    H213593   4.097   1.325  14.620 -0.6283 -0.9841 -0.3943
  925MPD2    H313594   3.990   1.405  14.818 -1.3299 -1.2270 -0.3028
  925MPD2     N13595   4.072   1.029  15.046 -0.6152  0.4622 -0.3374
  925MPD2    H513596   3.998   1.052  15.111 -0.4502 -1.4697  0.5328
  925MPD2    N113597   4.219   1.090  14.578  0.2058  0.2583 -0.4580
  925MPD2    H713598   4.229   0.991  14.559 -2.6374 -0.2336  0.5917
  926MPD2     C13599   3.570   4.372  13.930  0.1625  0.0173  0.6233
  926MPD2    C113600   3.496   4.444  13.834  0.0199  0.2863 -0.2609
  926MPD2    C213601   3.569   4.513  13.738 -0.1322  0.0360  0.0084
  926MPD2    C313602   3.707   4.513  13.746  0.1204 -0.2658 -0.3461
  926MPD2    C413603   3.771   4.438  13.838 -0.3913  0.5477  0.1985
  926MPD2    C513604   3.707   4.366  13.936 -0.0835  0.0496  0.4401
  926MPD2     H13605   3.518   4.555  13.652 -2.8870 -2.0193  0.6593
  926MPD2    H113606   3.879   4.435  13.846 -0.1025  0.7482 -3.6518
  926MPD2    H213607   3.525   4.326  14.017 -0.8489  1.4492  0.8584
  926MPD2    H313608   3.766   4.312  14.009 -0.7949  0.1160  1.0658
  926MPD2     N13609   3.793   4.574  13.648 -0.1921 -0.2441 -0.2889
  926MPD2    H513610   3.891   4.552  13.632 -0.2506 -0.3707 -0.4849
  926MPD2    N113611   3.361   4.461  13.822  0.0402  0.1273  0.1177
  926MPD2    H713612   3.326   4.512  13.742 -0.6961  1.2792  1.1834
  927MPD2     C13613   3.099   1.591   0.580  0.3635 -0.2098  0.8865
  927MPD2    C113614   3.060   1.680   0.478  0.4234 -0.5885 -0.2962
  927MPD2    C213615   3.156   1.756   0.410  0.0803  0.0436 -0.2514
  927MPD2    C313616   3.290   1.743   0.442 -0.9035  0.7386  0.0271
  927MPD2    C413617   3.329   1.652   0.533  0.4996 -0.3204  0.1914
  927MPD2    C513618   3.237   1.571   0.598  0.1382 -0.2613 -0.6066
  927MPD2     H13619   3.120   1.805   0.320  1.6949 -1.2099 -1.5666
  927MPD2    H113620   3.434   1.630   0.548  0.7427  0.6988 -0.0222
  927MPD2    H213621   3.027   1.534   0.638 -0.8586 -0.7203 -1.1294
  927MPD2    H313622   3.273   1.510   0.680 -0.9976 -0.9035 -0.5882
  927MPD2     N13623   3.375   1.818   0.359 -0.1972  0.1155  0.3159
  927MPD2    H513624   3.330   1.870   0.284 -0.0705 -1.1699 -0.6498
  927MPD2    N113625   2.925   1.695   0.453 -0.2211  1.1920  0.4325
  927MPD2    H713626   2.863   1.627   0.495  0.2588  0.5226  0.0574
  928MPD2     C13627   1.091   4.401   0.664  0.8002  0.4991  0.1244
  928MPD2    C113628   1.037   4.521   0.631 -0.2957 -0.5362 -0.7209
  928MPD2    C213629   1.070   4.583   0.514 -0.4016  0.4955  0.6839
  928MPD2    C313630   1.170   4.537   0.432  0.1494  0.4086  0.3664
  928MPD2    C413631   1.227   4.414   0.472  0.4371  0.4126  0.2840
  928MPD2    C513632   1.190   4.346   0.587  0.3108 -0.7444  0.3138
  928MPD2     H13633   1.031   4.679   0.479  1.9317  1.0537 -0.4115
  928MPD2    H113634   1.304   4.366   0.413 -0.0848  0.4827 -0.4636
  928MPD2    H213635   1.051   4.346   0.748 -1.3100  1.7341 -0.0653
  928MPD2    H313636   1.226   4.246   0.611  0.4460 -0.8914 -0.5215
  928MPD2     N13637   1.218   4.616   0.327  0.1017 -0.6691  0.3554
  928MPD2    H513638   1.173   4.705   0.310  1.5918  0.2543  1.2330
  928MPD2    N113639   0.930   4.573   0.716  0.2404  0.3699  0.4587
  928MPD2    H713640   0.917   4.523   0.803 -1.0990  2.7138  1.5990
  929MPD2     C13641   0.645   0.368   9.765  0.2837  0.1545  0.4368
  929MPD2    C113642   0.616   0.283   9.871 -0.4239 -1.0323  0.1855
  929MPD2    C213643   0.493   0.223   9.870  0.1688 -0.3387 -0.4428
  929MPD2    C313644   0.408   0.223   9.761 -0.6446 -0.1465  0.0379
  929MPD2    C413645   0.451   0.294   9.650  0.3033  0.9002 -0.4116
  929MPD2    C513646   0.571   0.365   9.650 -0.5185  0.5525 -0.2553
  929MPD2     H13647   0.485   0.139   9.938 -0.3720  0.9998  1.1588
  929MPD2    H113648   0.394   0.299   9.558 -1.0769  2.4887  0.5198
  929MPD2    H213649   0.739   0.422   9.764  0.6619 -0.5609 -2.4053
  929MPD2    H313650   0.591   0.415   9.556  0.2258 -0.7290 -0.7836
  929MPD2     N13651   0.289   0.153   9.759  0.1680  0.8994 -0.6771
  929MPD2    H513652   0.255   0.128   9.666 -2.0294  1.7419 -0.1102
  929MPD2    N113653   0.715   0.277   9.971 -0.2552 -0.0723 -0.5376
  929MPD2    H713654   0.799   0.334   9.965  1.3890 -2.4629 -0.2643
  930MPD2     C13655   2.882   2.683  13.720  0.2477 -0.1008  0.0671
  930MPD2    C113656   2.999   2.618  13.702  0.4324 -0.3788  0.4150
  930MPD2    C213657   2.991   2.484  13.658 -0.1815  0.0903  0.2687
  930MPD2    C313658   2.870   2.432  13.614 -0.7993 -0.1982  0.1251
  930MPD2    C413659   2.758   2.502  13.641 -0.1587  0.0853 -0.6694
  930MPD2    C513660   2.762   2.623  13.702 -0.6849  0.4801  0.0935
  930MPD2     H13661   3.079   2.420  13.648  1.1664  2.0524 -0.3494
  930MPD2    H113662   2.660   2.461  13.616 -0.3584 -0.0163  0.2625
  930MPD2    H213663   2.883   2.788  13.747  1.8681 -0.5121  1.6107
  930MPD2    H313664   2.675   2.688  13.699 -0.5786  0.6356  0.3119
  930MPD2     N13665   2.859   2.300  13.548 -0.8367 -0.3083 -0.3212
  930MPD2    H513666   2.767   2.256  13.551  0.4399 -2.7955  2.5634
  930MPD2    N113667   3.120   2.691  13.730  0.8796 -0.2970 -1.1815
  930MPD2    H713668   3.109   2.783  13.771 -0.1181 -0.1413 -1.8066
  931MPD2     C13669   2.115   1.433   0.453  0.2735  0.0951 -0.4966
  931MPD2    C113670   2.250   1.420   0.454 -0.0548  0.3029  0.2495
  931MPD2    C213671   2.291   1.295   0.503  0.1092 -0.3301 -1.3134
  931MPD2    C313672   2.204   1.205   0.556  0.1254  0.3994  0.9378
  931MPD2    C413673   2.070   1.218   0.555 -0.0065  0.0610 -0.2145
  931MPD2    C513674   2.024   1.338   0.505 -0.3278 -0.2472  0.1975
  931MPD2     H13675   2.398   1.282   0.517  0.3832  1.2605 -1.9475
  931MPD2    H113676   1.995   1.150   0.593  0.0893 -0.3173 -0.6978
  931MPD2    H213677   2.069   1.526   0.420 -0.8548 -0.0912  0.5496
  931MPD2    H313678   1.918   1.357   0.513 -0.1113  0.9206  0.3669
  931MPD2     N13679   2.258   1.099   0.627 -0.3683  1.0704 -0.7375
  931MPD2    H513680   2.190   1.047   0.683  0.2689  2.3963  1.2609
  931MPD2    N113681   2.338   1.531   0.412  0.0481  0.0847 -0.0779
  931MPD2    H713682   2.295   1.622   0.395 -1.8501 -0.4941  1.5926
  932MPD2     C13683   4.709   0.994  11.216 -0.4048 -0.8342 -0.0172
  932MPD2    C113684   0.104   0.999  11.241 -0.5687 -0.0056 -0.8876
  932MPD2    C213685   0.175   0.885  11.293  0.3388 -1.1951 -0.3398
  932MPD2    C313686   0.108   0.766  11.312  0.4068 -0.6321  0.3909
  932MPD2    C413687   4.712   0.761  11.291 -0.2310  0.2607  0.2956
  932MPD2    C513688   4.644   0.872  11.242  0.8248 -0.2553 -0.1058
  932MPD2     H13689   0.284   0.886  11.298  0.3502 -2.6457 -0.3060
  932MPD2    H113690   4.663   0.668  11.317 -0.2836  0.4199  0.7775
  932MPD2    H213691   4.651   1.076  11.175  0.9505  0.1698  0.0740
  932MPD2    H313692   4.536   0.862  11.239  0.9703 -1.7432 -0.3301
  932MPD2     N13693   0.174   0.650  11.356 -0.2136 -0.3118 -0.3383
  932MPD2    H513694   0.120   0.564  11.362 -2.1394  0.6839 -2.9426
  932MPD2    N113695   0.187   1.110  11.216  0.3355  0.7828  0.3354
  932MPD2    H713696   0.283   1.099  11.245  0.7838  0.8456 -1.1352
  933MPD2     C13697   0.462   0.573   1.089 -0.2797 -0.4574 -0.4362
  933MPD2    C113698   0.489   0.522   0.968 -0.0942 -0.1333 -0.2604
  933MPD2    C213699   0.436   0.590   0.858 -0.8826 -0.2036  0.1118
  933MPD2    C313700   0.359   0.701   0.864 -0.4414 -0.7577 -0.1284
  933MPD2    C413701   0.339   0.756   0.987  0.1085 -0.5406 -0.0670
  933MPD2    C513702   0.391   0.689   1.095 -0.1136 -0.1426  0.0516
  933MPD2     H13703   0.464   0.556   0.759  0.7922 -0.7830  0.7887
  933MPD2    H113704   0.296   0.854   1.008  1.0140 -0.0964 -0.3130
  933MPD2    H213705   0.499   0.516   1.173  1.3316 -2.4184 -2.4827
  933MPD2    H313706   0.399   0.748   1.186  0.7466 -0.1399 -0.0341
  933MPD2     N13707   0.311   0.761   0.749 -0.2926 -0.7905  0.2465
  933MPD2    H513708   0.328   0.717   0.659  0.8334  2.0933 -0.9411
  933MPD2    N113709   0.567   0.397   0.965 -0.2113  0.3513  0.4919
  933MPD2    H713710   0.606   0.364   1.053  2.5296 -0.0101 -0.8545
  934MPD2     C13711   1.235   2.366   1.835 -0.6328 -0.0407  0.3857
  934MPD2    C113712   1.358   2.312   1.795  0.2863 -0.5290  0.5926
  934MPD2    C213713   1.368   2.210   1.692  0.2615  0.4011 -0.3705
  934MPD2    C313714   1.254   2.169   1.626  0.1959 -1.1255 -0.0253
  934MPD2    C413715   1.134   2.225   1.664  0.6954  0.1398 -0.1186
  934MPD2    C513716   1.125   2.323   1.765 -0.3225 -0.5186 -0.1769
  934MPD2     H13717   1.470   2.178   1.675 -0.0487  0.2629 -1.9742
  934MPD2    H113718   1.044   2.202   1.608  0.2800 -0.4429  0.7933
  934MPD2    H213719   1.226   2.441   1.912  1.1739 -0.5441  1.0748
  934MPD2    H313720   1.025   2.356   1.790 -0.3678 -0.6184 -0.2288
  934MPD2     N13721   1.252   2.086   1.509 -0.7300 -0.2795 -0.0578
  934MPD2    H513722   1.163   2.072   1.462 -0.1051 -0.0021 -1.3152
  934MPD2    N113723   1.479   2.352   1.860  0.0999 -0.4782 -0.2408
  934MPD2    H713724   1.565   2.316   1.819 -0.3866 -1.5120 -0.3445
  935MPD2     C13725   1.820   1.379   1.052 -0.4863 -0.1868 -0.7571
  935MPD2    C113726   1.711   1.401   0.970  0.2399  0.2668  0.0977
  935MPD2    C213727   1.616   1.491   1.004 -0.7784  0.0830 -0.0494
  935MPD2    C313728   1.625   1.561   1.122  0.5315  0.2668 -0.3906
  935MPD2    C413729   1.743   1.557   1.189 -0.2783 -0.3840  0.5423
  935MPD2    C513730   1.834   1.465   1.159 -0.0633  0.2414  0.8000
  935MPD2     H13731   1.532   1.502   0.937 -1.6625 -1.6303  0.7843
  935MPD2    H113732   1.758   1.626   1.272  1.1050  0.4555 -0.3956
  935MPD2    H213733   1.900   1.311   1.030  1.3805  1.9389 -0.5913
  935MPD2    H313734   1.932   1.458   1.203  0.2961  1.0984  0.1482
  935MPD2     N13735   1.523   1.648   1.171 -0.4336 -0.1152  0.1188
  935MPD2    H513736   1.553   1.711   1.244 -1.5885  0.5542  0.0142
  935MPD2    N113737   1.690   1.322   0.859 -0.2608 -0.2260 -0.0069
  935MPD2    H713738   1.609   1.339   0.801 -0.6267  0.1007  0.5899
  936MPD2     C13739   0.542   3.623  12.616 -0.4436  0.1500 -0.6727
  936MPD2    C113740   0.482   3.751  12.615 -0.5239  0.5769  0.9681
  936MPD2    C213741   0.376   3.790  12.533  0.1032  0.4391  0.1648
  936MPD2    C313742   0.343   3.702  12.432 -0.1087  0.4076 -0.0078
  936MPD2    C413743   0.403   3.585  12.426  0.2420  0.7635 -0.1775
  936MPD2    C513744   0.491   3.542  12.516  0.3249 -0.0645 -0.6747
  936MPD2     H13745   0.316   3.876  12.560 -0.4938 -0.1919  0.8641
  936MPD2    H113746   0.373   3.512  12.351  0.5043 -1.1012  1.5335
  936MPD2    H213747   0.615   3.598  12.693 -0.8211 -1.2388 -0.7562
  936MPD2    H313748   0.533   3.442  12.510  0.1349 -0.1251 -1.0002
  936MPD2     N13749   0.246   3.748  12.345 -0.2824 -0.0945  0.2168
  936MPD2    H513750   0.199   3.834  12.369  2.1414  1.2808  0.0661
  936MPD2    N113751   0.515   3.840  12.719 -0.6829  0.4420 -0.2053
  936MPD2    H713752   0.478   3.934  12.726  1.1030  1.0532  1.2247
  937MPD2     C13753   3.322   1.017  11.657  0.3795  0.0514  0.6190
  937MPD2    C113754   3.405   1.122  11.695 -0.0708 -0.2530  0.8203
  937MPD2    C213755   3.518   1.138  11.617  0.1916  0.3060  0.2271
  937MPD2    C313756   3.556   1.046  11.521  0.5368 -0.4750  0.3029
  937MPD2    C413757   3.473   0.940  11.489 -1.0181  0.7806  0.7725
  937MPD2    C513758   3.363   0.923  11.568  0.1282  0.6103  0.5361
  937MPD2     H13759   3.562   1.236  11.631 -0.0131  0.3368  0.6439
  937MPD2    H113760   3.509   0.872  11.413 -2.1046 -1.7307  2.4924
  937MPD2    H213761   3.224   0.991  11.696 -0.3312 -0.4639 -1.5178
  937MPD2    H313762   3.293   0.844  11.542  0.2068  0.6589  0.1670
  937MPD2     N13763   3.677   1.070  11.453  0.5210 -0.1352 -0.4281
  937MPD2    H513764   3.730   1.152  11.483  0.2102  0.0534 -0.3931
  937MPD2    N113765   3.359   1.227  11.777  0.5893  0.1947  0.2192
  937MPD2    H713766   3.427   1.300  11.798 -0.0557  1.6082 -2.7256
  938MPD2     C13767   0.700   1.031   0.406 -0.3735  0.0824 -0.7328
  938MPD2    C113768   0.650   1.152   0.449 -0.4470 -0.0037  0.3913
  938MPD2    C213769   0.596   1.160   0.574  0.8258 -0.1332  0.3639
  938MPD2    C313770   0.580   1.053   0.656 -0.4702 -0.1597 -0.1132
  938MPD2    C413771   0.636   0.934   0.621  0.0883  0.6380 -0.1179
  938MPD2    C513772   0.698   0.928   0.497 -0.4468 -0.0564  0.7124
  938MPD2     H13773   0.550   1.255   0.601 -0.7047 -0.6665 -0.3375
  938MPD2    H113774   0.634   0.846   0.685 -0.9217 -0.8502 -2.2086
  938MPD2    H213775   0.732   1.017   0.303  0.8771  1.4300 -0.5294
  938MPD2    H313776   0.738   0.832   0.468 -0.5880  0.2706 -0.5595
  938MPD2     N13777   0.533   1.056   0.786 -0.4957  0.2220 -0.1458
  938MPD2    H513778   0.547   0.972   0.841  1.1067 -0.8423 -2.1969
  938MPD2    N113779   0.661   1.277   0.372 -0.0511 -0.2976  0.3529
  938MPD2    H713780   0.624   1.366   0.402 -0.6447 -1.2212  2.3282
  939MPD2     C13781   1.751   2.701   0.548 -0.4510  0.4126  0.1153
  939MPD2    C113782   1.746   2.831   0.507  0.1073  0.8952  0.6522
  939MPD2    C213783   1.783   2.862   0.375 -0.6494 -0.2652  0.2593
  939MPD2    C313784   1.826   2.768   0.286 -0.1235 -0.3417 -0.3891
  939MPD2    C413785   1.834   2.638   0.327  0.0011 -0.0059 -0.1832
  939MPD2    C513786   1.793   2.608   0.452  0.1931  0.0492 -0.0600
  939MPD2     H13787   1.782   2.969   0.361  0.1526 -0.3914 -0.7181
  939MPD2    H113788   1.864   2.562   0.256  3.9738  1.2066  0.1937
  939MPD2    H213789   1.724   2.670   0.648  1.0379  1.1463  0.7530
  939MPD2    H313790   1.795   2.504   0.484  2.4068  0.9558  2.8314
  939MPD2     N13791   1.867   2.816   0.162 -0.6133 -0.1984  0.9419
  939MPD2    H513792   1.866   2.917   0.156  1.3235 -0.1204  1.8512
  939MPD2    N113793   1.707   2.931   0.597 -0.8353 -0.3317 -0.5900
  939MPD2    H713794   1.740   3.022   0.568 -0.4049  0.1191  1.2793
  940MPD2     C13795   0.969   4.031  12.665  0.0628  0.5610 -0.4056
  940MPD2    C113796   0.974   3.938  12.763 -0.2681 -0.2618 -0.3524
  940MPD2    C213797   0.981   3.805  12.726  0.6507  0.4265  0.4499
  940MPD2    C313798   0.976   3.768  12.590  0.2354 -0.3973  0.8673
  940MPD2    C413799   0.963   3.865  12.498  0.1530 -0.8880 -0.3335
  940MPD2    C513800   0.958   3.994  12.535  0.0403  0.3870  0.0977
  940MPD2     H13801   0.991   3.732  12.805  0.9873 -0.2344 -0.2017
  940MPD2    H113802   0.971   3.836  12.394  1.4554 -0.7172 -0.2811
  940MPD2    H213803   0.964   4.137  12.691 -1.4728  0.6063 -0.8782
  940MPD2    H313804   0.949   4.072  12.460  0.3788  1.9755  1.7119
  940MPD2     N13805   0.985   3.641  12.534 -0.2074 -0.0378  0.1771
  940MPD2    H513806   0.962   3.629  12.436  1.5407  1.6609 -0.4328
  940MPD2    N113807   0.980   3.967  12.898  0.1134  0.3169  0.2052
  940MPD2    H713808   0.990   3.882  12.954  1.9321  0.8668  0.6991
  941MPD2     C13809   0.600   3.661  10.590 -0.0539  0.6145 -0.6254
  941MPD2    C113810   0.570   3.673  10.458  0.6745  0.4153  1.2696
  941MPD2    C213811   0.489   3.580  10.396  0.3372  0.2096 -0.3673
  941MPD2    C313812   0.424   3.482  10.462 -0.1084 -0.2246  0.0922
  941MPD2    C413813   0.449   3.472  10.592 -0.0985  0.2593 -0.5680
  941MPD2    C513814   0.534   3.559  10.657  0.0242 -0.0197 -0.6486
  941MPD2     H13815   0.468   3.601  10.292  1.8673 -2.6752 -1.2657
  941MPD2    H113816   0.414   3.387  10.650  0.3690 -0.3789 -1.2347
  941MPD2    H213817   0.667   3.727  10.644  0.9905 -0.4132 -0.6563
  941MPD2    H313818   0.542   3.560  10.765 -0.4931 -0.7404 -0.6026
  941MPD2     N13819   0.339   3.390  10.395  0.8157  0.0089 -0.1508
  941MPD2    H513820   0.289   3.332  10.462  2.0229  1.4867  2.0529
  941MPD2    N113821   0.628   3.778  10.380  0.2748  0.5459 -0.3739
  941MPD2    H713822   0.609   3.766  10.281  0.9303  2.7945 -0.7685
  942MPD2     C13823   3.623   4.043   8.845  0.1450 -0.1280 -0.2675
  942MPD2    C113824   3.678   4.053   8.974  1.6199 -0.2552 -0.8544
  942MPD2    C213825   3.810   4.094   8.975  0.4776  0.1057  0.3397
  942MPD2    C313826   3.882   4.141   8.865 -0.7215  0.3254  0.5220
  942MPD2    C413827   3.832   4.107   8.741  0.5820  0.1340 -0.2942
  942MPD2    C513828   3.707   4.050   8.740 -0.0713 -0.0058 -0.1613
  942MPD2     H13829   3.862   4.105   9.069 -0.7724  0.1312  1.0240
  942MPD2    H113830   3.898   4.113   8.656 -0.8311  3.3157 -1.1851
  942MPD2    H213831   3.526   3.999   8.831  0.5054 -1.0684  0.1620
  942MPD2    H313832   3.667   4.021   8.644 -0.3529  1.5514 -0.5273
  942MPD2     N13833   4.008   4.204   8.874  0.1932  0.0990  0.4221
  942MPD2    H513834   4.053   4.221   8.785  0.0485 -0.7033  0.1962
  942MPD2    N113835   3.605   4.026   9.089 -0.3841  0.2126 -0.1093
  942MPD2    H713836   3.662   4.003   9.171 -0.5786 -2.1797 -0.6447
  943MPD2     C13837   4.231   2.511   9.603 -0.1166  0.5158 -0.0657
  943MPD2    C113838   4.129   2.588   9.644  0.2965  0.0784 -0.4974
  943MPD2    C213839   4.136   2.726   9.636 -0.2904 -0.7259 -0.1224
  943MPD2    C313840   4.250   2.797   9.586 -0.2864  0.5146  0.5196
  943MPD2    C413841   4.354   2.714   9.549  0.4079 -0.2934 -0.2702
  943MPD2    C513842   4.345   2.577   9.562 -0.4092 -0.2063  0.8476
  943MPD2     H13843   4.049   2.784   9.666 -1.0796 -0.8589 -2.1757
  943MPD2    H113844   4.452   2.748   9.518 -1.1746  3.4326 -1.2201
  943MPD2    H213845   4.235   2.404   9.622  2.0580  0.3180 -1.6234
  943MPD2    H313846   4.435   2.516   9.556 -0.6696 -0.5541  0.5261
  943MPD2     N13847   4.253   2.930   9.547  0.2976  0.5894 -0.1061
  943MPD2    H513848   4.343   2.969   9.522 -0.3325  1.5020 -0.9286
  943MPD2    N113849   4.026   2.518   9.709  0.0634 -0.2106 -0.2028
  943MPD2    H713850   4.027   2.417   9.716 -0.2300 -0.2553 -0.7823
  944MPD2     C13851   3.815   1.910  11.388  0.3932  0.3023 -0.3121
  944MPD2    C113852   3.878   1.983  11.288  0.7217  0.4120  0.4728
  944MPD2    C213853   3.845   2.111  11.264  1.0027 -1.1342 -0.2485
  944MPD2    C313854   3.748   2.174  11.341 -0.4541  0.2233 -0.0417
  944MPD2    C413855   3.683   2.099  11.444 -0.6513 -0.1986  0.1927
  944MPD2    C513856   3.709   1.969  11.463 -0.0075  0.0345  0.4145
  944MPD2     H13857   3.908   2.177  11.206 -0.9291 -0.8216 -1.9847
  944MPD2    H113858   3.597   2.138  11.498  0.1034 -0.3772  1.5004
  944MPD2    H213859   3.852   1.808  11.399  2.0872  1.0876  1.3027
  944MPD2    H313860   3.661   1.918  11.545 -0.8017 -0.1117 -0.1422
  944MPD2     N13861   3.716   2.307  11.316  0.3577  0.4079 -0.1796
  944MPD2    H513862   3.762   2.350  11.237  0.1408  0.2131 -0.4149
  944MPD2    N113863   3.988   1.918  11.220 -0.3604 -0.6544 -0.2038
  944MPD2    H713864   4.018   1.828  11.256  0.3917 -0.0266  0.7301
    1TMC1    C113865   1.800   3.665  15.307 -0.3771 -0.0386 -0.1103
    1TMC1    C213866   1.766   3.577  15.406 -0.1290  0.5544 -0.2852
    1TMC1    C313867   1.866   3.549  15.490  0.6386 -0.8542 -0.0656
    1TMC1    C413868   1.918   3.724  15.298  0.1519  0.4895 -0.3272
    1TMC1    C513869   2.018   3.686  15.380 -0.6803  0.1677  0.6137
    1TMC1    C613870   1.993   3.595  15.476 -0.1927 -0.0033  0.5469
    1TMC1     C13871   1.684   3.734  15.248  0.0099 -0.7841  0.4800
    1TMC1     O13872   1.579   3.727  15.308  0.3924 -0.1551  0.3386
    1TMC1     H13873   1.669   3.532  15.419  0.8470 -0.4762  3.3628
    1TMC1    H113874   1.935   3.803  15.226  1.7227  0.9584  0.5586
    1TMC1    H213875   2.067   3.550  15.540  0.0255  0.5609  0.6869
    1TMC1    C713876   2.158   3.728  15.368  0.2780  0.3549 -0.1905
    1TMC1    C813877   1.842   3.480  15.616  0.0462  0.1026 -0.2329
    1TMC1    O113878   2.236   3.713  15.463 -0.0315  0.1362  0.2369
    1TMC1    O213879   1.930   3.403  15.655  0.0045  0.1680 -0.1702
    1TMC1    O313880   2.191   3.765  15.242  0.6569  0.0871 -0.0033
    1TMC1    H313881   2.113   3.780  15.184 -0.1973  0.3484  1.2002
    1TMC1    O513882   1.723   3.510  15.670 -0.2703  0.1849  0.4126
    1TMC1    H513883   1.683   3.591  15.632 -0.4532 -1.1465 -2.2907
    2MPD2     C13884   1.505   4.134  14.986 -1.5969  1.2952  0.0674
    2MPD2    C113885   1.630   4.111  14.943  0.1379  0.4790 -0.8000
    2MPD2    C213886   1.701   3.998  14.987 -0.2121 -0.5230 -0.1366
    2MPD2    C313887   1.648   3.915  15.083 -0.1121  0.1231  0.2626
    2MPD2    C413888   1.515   3.941  15.125 -0.0458 -0.0048  0.5242
    2MPD2    C513889   1.449   4.054  15.076  0.3060  0.4458  0.1278
    2MPD2     H13890   1.798   3.969  14.949 -0.5043 -0.4031 -0.9859
    2MPD2    H113891   1.455   3.874  15.184 -2.1316 -0.7566 -2.4453
    2MPD2    H213892   1.438   4.208  14.943 -1.7502  1.2710  0.2675
    2MPD2    H313893   1.346   4.073  15.104 -0.1329 -2.1078  0.3070
    2MPD2     N13894   1.719   3.807  15.138 -0.1015  0.0485  0.7046
    2MPD2    H513895   1.815   3.803  15.106 -0.8509  0.6056 -1.5861
    2MPD2    N113896   1.671   4.188  14.834 -0.4294 -0.5056  0.0644
    2MPD2    H713897   1.614   4.269  14.811  1.7927  0.5943 -1.6464
    3TMC2    C113898   1.811   4.299  14.673 -0.1950  0.4797  0.0121
    3TMC2    C213899   1.938   4.327  14.631 -0.4368 -0.7324  0.7679
    3TMC2    C313900   1.957   4.415  14.527  0.1031 -0.2865 -0.3877
    3TMC2    C413901   1.701   4.350  14.616  0.1803 -0.4484  0.3563
    3TMC2    C513902   1.719   4.428  14.504 -0.3800 -0.4098 -0.1133
    3TMC2    C613903   1.846   4.459  14.460  0.1696  0.1752  0.0648
    3TMC2     C13904   1.799   4.191  14.777  0.1763  0.1356 -0.3742
    3TMC2     O13905   1.896   4.120  14.802 -0.1232  0.2440  0.5936
    3TMC2     H13906   2.020   4.288  14.691  0.2394  0.6776  0.7519
    3TMC2    H113907   1.600   4.326  14.647  0.1529  0.6169  1.1062
    3TMC2    H213908   1.856   4.537  14.385  1.2720  0.8613  0.9283
    3TMC2    C713909   1.610   4.465  14.421  0.3623 -0.2623 -0.4014
    3TMC2    C813910   2.091   4.431  14.479 -0.5033 -0.6823 -0.3677
    3TMC2    O113911   1.501   4.462  14.473  0.0261  0.0955  0.0104
    3TMC2    O213912   2.190   4.411  14.550  0.5243 -0.3458  0.3085
    3TMC2    O513913   2.092   4.430  14.344  0.0689  0.1380  0.0341
    3TMC2    H513914   2.013   4.428  14.286  1.7162  1.4628 -2.2682
    4TMC2    C113915   1.442   4.561  13.457  0.3434 -0.3929  0.6417
    4TMC2    C213916   1.544   4.529  13.369  0.3109  0.4036  0.1450
    4TMC2    C313917   1.668   4.509  13.415  0.0605  0.0443  0.5928
    4TMC2    C413918   1.469   4.584  13.592  0.1084  0.3447  0.1953
    4TMC2    C513919   1.598   4.580  13.625 -0.4258  0.3252 -0.1368
    4TMC2    C613920   1.702   4.531  13.545  0.3578 -0.5986  0.2235
    4TMC2     C13921   1.307   4.535  13.427 -0.5995  0.0268  0.2407
    4TMC2     O13922   1.225   4.542  13.519 -0.0621 -0.1439 -0.9697
    4TMC2     H13923   1.522   4.508  13.265 -0.7940 -0.5540  0.5637
    4TMC2    H113924   1.394   4.595  13.669 -2.3718  1.5256 -2.3672
    4TMC2    H213925   1.803   4.518  13.581  0.7263 -2.7120 -1.6117
    4TMC2    C713926   1.640   4.599  13.764 -0.2444 -0.2777 -0.4665
    4TMC2    C813927   1.780   4.500  13.322  0.2961  0.3583  0.0395
    4TMC2    O113928   1.752   4.569  13.800  0.6703 -0.0743 -0.2300
    4TMC2    O213929   1.888   4.556  13.352  0.2153 -0.4980 -0.7992
    4TMC2    O513930   1.734   4.474  13.197 -0.3041 -0.5088  0.6762
    4TMC2    H513931   1.662   4.408  13.200 -2.0360  1.2891 -0.6335
    5MPD2     C13932   0.904   4.458  13.112  0.6081 -0.0799  0.0097
    5MPD2    C113933   1.002   4.506  13.038  0.7712 -0.0177  0.5520
    5MPD2    C213934   1.128   4.523  13.094  0.3517  0.4110 -0.0388
    5MPD2    C313935   1.151   4.505  13.232 -0.1936  0.4292 -0.1823
    5MPD2    C413936   1.047   4.454  13.303  0.4348 -0.2777 -0.0161
    5MPD2    C513937   0.932   4.427  13.244  0.2298  0.2751 -0.0813
    5MPD2     H13938   1.208   4.535  13.021  0.5792 -1.1699 -0.0643
    5MPD2    H113939   1.061   4.419  13.405  2.5090 -0.0408 -0.2083
    5MPD2    H213940   0.812   4.430  13.062  1.6441  1.0347 -2.4927
    5MPD2    H313941   0.854   4.380  13.303 -1.7370  1.6100 -1.6128
    5MPD2     N13942   1.280   4.525  13.291 -0.3570 -0.6315 -0.6327
    5MPD2    H513943   1.355   4.555  13.229 -1.4159  0.5950 -1.3252
    5MPD2    N113944   0.973   4.528  12.902  0.1608  0.1301  0.7201
    5MPD2    H713945   0.878   4.502  12.879  0.7141 -2.2556  1.0839
    6MPD1     C13946   0.302   1.362  13.256 -0.1428 -0.6494 -0.8462
    6MPD1    C113947   0.358   1.270  13.341 -0.8582  0.2350 -0.6721
    6MPD1    C213948   0.407   1.156  13.281  0.5829  0.3096  0.5173
    6MPD1    C313949   0.396   1.136  13.143 -0.2912 -0.5878  0.6292
    6MPD1    C413950   0.361   1.241  13.066 -0.4262  0.3483 -0.1320
    6MPD1    C513951   0.305   1.351  13.123 -0.3595  0.2579  0.6654
    6MPD1     H13952   0.434   1.073  13.346  1.1608  2.5534  3.1705
    6MPD1    H113953   0.361   1.246  12.958 -0.5386  0.0426 -0.1468
    6MPD1    H213954   0.266   1.454  13.300 -2.4408 -1.1945 -1.6002
    6MPD1    H313955   0.268   1.432  13.062  0.2229 -0.1246 -0.2082
    6MPD1     N13956   0.424   1.008  13.079 -0.1715  0.1533 -0.0294
    6MPD1    H513957   0.431   1.006  12.978 -2.8203  0.2515 -0.2159
    6MPD1    N113958   0.340   1.270  13.481  0.0442 -0.0979  0.0819
    6MPD1    H613959   0.419   1.229  13.531  1.5205  1.3807 -1.0290
    6MPD1    H713960   0.318   1.360  13.523  0.4515  0.0754 -0.0764
    7MPD2     C13961   0.326   0.113  13.017  0.0891  0.7683  0.1419
    7MPD2    C113962   0.404   0.194  12.937  0.2616 -0.2978  0.6933
    7MPD2    C213963   0.468   0.127  12.834  0.4407 -0.5262 -0.8024
    7MPD2    C313964   0.471   4.728  12.819  0.5929 -0.2305  0.2080
    7MPD2    C413965   0.407   4.643  12.907  0.1207  0.4647  0.3527
    7MPD2    C513966   0.333   4.712  13.003  0.1774  0.4212  0.3955
    7MPD2     H13967   0.531   0.190  12.771  1.3674 -0.3153  0.3324
    7MPD2    H113968   0.412   4.536  12.895 -2.2308  0.7862 -3.3244
    7MPD2    H213969   0.277   0.153  13.105 -2.0224  0.2977 -0.8273
    7MPD2    H313970   0.292   4.654  13.085  0.5246 -0.9647 -0.4165
    7MPD2     N13971   0.571   4.664  12.732  0.3454 -0.6686 -0.1419
    7MPD2    H513972   0.583   4.564  12.741  0.8894 -0.3452  2.6442
    7MPD2    N113973   0.427   0.332  12.946  0.2586  0.2901  0.3006
    7MPD2    H713974   0.478   0.372  12.867 -0.2615 -1.4376 -0.9108
    8TMC3    C113975   0.766   4.659  12.589 -0.1949 -0.0071  0.8865
    8TMC3    C213976   0.840   4.598  12.685 -0.3146 -1.0252  0.4946
    8TMC3    C313977   0.977   4.609  12.686  0.9039  0.4195 -0.3016
    8TMC3    C413978   0.835   0.001  12.501 -0.0059 -0.3500  0.0959
    8TMC3    C513979   0.975   0.006  12.499 -0.6223 -0.5416  0.6040
    8TMC3    C613980   1.048   4.681  12.592  0.0769 -0.4676 -0.1801
    8TMC3     C13981   0.651   4.732  12.647 -0.0343  0.1558  0.7101
    8TMC3     O13982   0.645   0.107  12.601  0.6135  0.5064 -0.4521
    8TMC3     H13983   0.781   4.565  12.769  1.8205 -0.6837  2.1199
    8TMC3    H113984   0.775   0.035  12.418 -1.1788 -0.4332  0.9063
    8TMC3    H213985   1.153   4.705  12.599 -0.2700  1.8054 -2.4122
    8TMC3    C713986   1.028   0.133  12.469 -0.4931  0.6687  0.4808
    8TMC3    C813987   1.053   4.576  12.806 -1.0830 -0.0093  0.1815
    8TMC3    O113988   1.149   0.147  12.465  0.6134 -0.5468 -0.0611
    8TMC3    O213989   1.171   4.609  12.811  0.4002 -0.8659 -0.4475
    9TMC3    C113990   0.462   0.776  13.053  0.2111 -0.4415  0.5663
    9TMC3    C213991   0.547   0.799  12.954 -0.0633 -0.0980  0.1294
    9TMC3    C313992   0.599   0.679  12.903 -0.6092 -0.2024 -0.0299
    9TMC3    C413993   0.431   0.651  13.098  0.0806  0.0446  0.2326
    9TMC3    C513994   0.468   0.541  13.032 -0.7458 -0.1202  0.6020
    9TMC3    C613995   0.555   0.553  12.932  0.1241 -0.1518 -0.3299
    9TMC3     C13996   0.441   0.885  13.148 -0.4450 -0.6029 -0.7260
    9TMC3     O13997   0.403   0.852  13.261 -0.2062 -0.1415 -0.3838
    9TMC3     H13998   0.581   0.897  12.922  1.9898 -0.6431  0.6077
    9TMC3    H113999   0.352   0.635  13.171 -0.0495 -1.8106 -0.3163
    9TMC3    H214000   0.609   0.465  12.899  1.7835 -0.1458  2.3632
    9TMC3    C714001   0.389   0.415  13.048  0.3747 -0.1084  0.3769
    9TMC3    C814002   0.708   0.692  12.811  0.5172 -0.1893  0.2185
    9TMC3    O114003   0.316   0.406  13.150 -0.2724 -0.8440  0.7631
    9TMC3    O214004   0.756   0.800  12.793 -0.0813  0.3951  0.0801
   10MPD2     C14005   1.069   0.419  12.553 -0.2678  0.2795  0.4410
   10MPD2    C114006   0.946   0.357  12.557 -0.7595 -0.3319  0.4512
   10MPD2    C214007   0.839   0.419  12.608 -0.2990  0.4445 -0.2890
   10MPD2    C314008   0.849   0.539  12.666 -0.5717 -1.0135  0.0455
   10MPD2    C414009   0.970   0.595  12.683 -0.3478 -0.3657 -0.1155
   10MPD2    C514010   1.081   0.542  12.617 -0.0255 -0.3152  0.4693
   10MPD2     H14011   0.744   0.366  12.605 -0.3199  0.4003  1.1603
   10MPD2    H114012   0.981   0.693  12.727  1.8714 -0.7804  0.2915
   10MPD2    H214013   1.156   0.376  12.505  0.0711  2.0696 -0.5682
   10MPD2    H314014   1.177   0.592  12.614 -0.7839  1.1308  0.1991
   10MPD2     N14015   0.733   0.579  12.735  0.2366  0.0191  0.1602
   10MPD2    H514016   0.653   0.519  12.714 -0.2298  0.0112  1.9774
   10MPD2    N114017   0.928   0.223  12.513  0.2986  0.2966  0.2180
   10MPD2    H714018   0.836   0.185  12.534  0.6283 -0.7532 -0.2441
   11MPD2     C14019   1.458   4.646  14.247  0.0797  0.7773 -0.1752
   11MPD2    C114020   1.570   4.571  14.203 -0.1263 -0.5603  0.2153
   11MPD2    C214021   1.607   4.576  14.071  0.7522  0.0799  0.5938
   11MPD2    C314022   1.524   4.639  13.982 -0.1483 -0.1923 -1.4518
   11MPD2    C414023   1.412   4.704  14.029  0.5547 -0.0301  0.9384
   11MPD2    C514024   1.384   4.711  14.162 -0.1042  0.3435  0.1085
   11MPD2     H14025   1.692   4.518  14.037  0.8805  0.2437  0.6365
   11MPD2    H114026   1.345   0.028  13.968  1.9262  0.3542 -0.1893
   11MPD2    H214027   1.420   4.639  14.349 -0.3589  1.5557 -0.2873
   11MPD2    H314028   1.304   0.040  14.197 -0.7020  0.1539 -0.9079
   11MPD2     N14029   1.538   4.651  13.846  0.2352  0.6974 -0.0832
   11MPD2    H514030   1.469   4.705  13.793 -0.0669 -2.1544 -2.5796
   11MPD2    N114031   1.648   4.498  14.293 -0.3409 -0.1211  0.6854
   11MPD2    H714032   1.738   4.458  14.265 -0.1276 -0.0820  1.3228
    1MPD1     C14033   0.392   0.813  16.910  0.3079  0.2693  0.3478
    1MPD1    C114034   0.281   0.891  16.916 -0.0942 -0.6372 -0.1753
    1MPD1    C214035   0.158   0.840  16.921  0.5634  0.1499 -0.0919
    1MPD1    C314036   0.144   0.703  16.932  0.1516  0.0150 -0.4935
    1MPD1    C414037   0.258   0.627  16.925 -0.4965  0.0135 -0.1774
    1MPD1    C514038   0.382   0.678  16.906  0.1839  0.3801  0.1050
    1MPD1     H14039   0.072   0.900  16.950  0.7535 -0.5684  1.9647
    1MPD1    H114040   0.250   0.520  16.935  0.6419 -0.3159 -2.7090
    1MPD1    H214041   0.494   0.851  16.911  0.4129  0.0812 -1.6599
    1MPD1    H314042   0.470   0.616  16.893  1.1021  1.5276  0.8452
    1MPD1     N14043   0.021   0.638  16.955 -0.1967 -0.0241  0.0808
    1MPD1    H514044   0.029   0.543  16.988  4.4360 -0.5325 -2.4180
    1MPD1    N114045   0.294   1.029  16.920 -0.5811  0.2810 -0.5310
    1MPD1    H614046   0.220   1.079  16.871 -1.1238 -1.9154 -1.9364
    1MPD1    H714047   0.383   1.072  16.894  0.2674 -0.4383  1.1469
    2MPD1     C14048   3.784   0.830  16.720 -0.1200 -0.2996  0.7438
    2MPD1    C114049   3.901   0.866  16.661  0.1942 -0.4259  0.7908
    2MPD1    C214050   4.017   0.833  16.727 -0.0157  0.3579  0.0199
    2MPD1    C314051   4.023   0.773  16.854  0.1450 -0.6134  0.0370
    2MPD1    C414052   3.903   0.751  16.913  0.3022  0.1113 -0.1481
    2MPD1    C514053   3.791   0.774  16.843 -0.2070  0.5717  0.5015
    2MPD1     H14054   4.106   0.852  16.669  0.9014  0.0229  1.3073
    2MPD1    H114055   3.890   0.713  17.014  0.0009 -0.8596 -0.5448
    2MPD1    H214056   3.690   0.858  16.674  0.4593  0.1670 -0.1796
    2MPD1    H314057   3.694   0.753  16.886 -0.3597 -0.4544 -0.3137
    2MPD1     N14058   4.144   0.747  16.921 -0.9176  0.3165 -0.8258
    2MPD1    H514059   4.234   0.774  16.882 -0.5448 -1.2897 -1.0856
    2MPD1    N114060   3.916   0.893  16.521  0.1905 -0.1567 -0.0682
    2MPD1    H614061   3.837   0.942  16.479 -0.0797  0.3741  1.0490
    2MPD1    H714062   3.998   0.952  16.509 -0.6912  1.1838  0.4661
    3TMC3    C114063   4.301   0.645  17.077  0.6184 -0.4505 -0.6215
    3TMC3    C214064   4.315   0.524  17.146 -0.0547 -0.2949  0.6255
    3TMC3    C314065   4.436   0.460  17.136 -0.0900 -1.2413 -0.0480
    3TMC3    C414066   4.402   0.689  16.997 -0.6254 -0.8499  0.2942
    3TMC3    C514067   4.525   0.625  16.993 -0.6023  0.4170  0.9105
    3TMC3    C614068   4.544   0.498  17.052 -0.3297 -0.6188 -0.3119
    3TMC3     C14069   4.164   0.691  17.047  0.0406  0.0894 -0.0014
    3TMC3     O14070   4.083   0.640  17.121 -0.2287  0.0979 -0.5828
    3TMC3     H14071   4.247   0.490  17.224 -0.3168  1.1009  1.0012
    3TMC3    H114072   4.390   0.776  16.934 -1.2973 -1.5001 -0.4604
    3TMC3    H214073   4.631   0.436  17.039 -0.7809 -1.1273 -0.8999
    3TMC3    C714074   4.635   0.690  16.929 -0.1021  0.0091  0.0945
    3TMC3    C814075   4.438   0.321  17.185  0.3193 -1.2563  0.2258
    3TMC3    O114076   4.603   0.790  16.867  0.6439 -0.6617  0.7150
    3TMC3    O214077   4.333   0.280  17.220 -0.3281  0.0642  0.3747
    4MPD1     C14078   4.688   4.651  17.395 -0.0707 -0.5081  0.2495
    4MPD1    C114079   0.044   0.002  17.345  0.2491 -0.8063 -0.0658
    4MPD1    C214080   4.734   0.125  17.288  0.1036  0.3220 -0.4137
    4MPD1    C314081   4.603   0.158  17.280  0.4945  0.8688 -0.1197
    4MPD1    C414082   4.514   0.067  17.333 -0.0694 -0.6427 -0.1146
    4MPD1    C514083   4.557   4.687  17.390 -0.1343 -0.0034  0.0822
    4MPD1     H14084   0.071   0.188  17.239 -0.6928  0.6146 -1.2270
    4MPD1    H114085   4.408   0.087  17.324 -0.6170 -1.7251  4.1268
    4MPD1    H214086   4.699   4.547  17.422 -1.0573 -0.3505  1.2811
    4MPD1    H314087   4.477   4.630  17.437 -0.1131 -1.8413 -2.1346
    4MPD1     N14088   4.568   0.273  17.202  0.1686 -0.4580 -0.0594
    4MPD1    H514089   4.652   0.322  17.173 -0.1972  0.4615  0.4265
    4MPD1    N114090   0.179   4.712  17.347  0.1217 -0.7521 -0.3430
    4MPD1    H614091   0.215   4.679  17.436 -1.6428 -1.1410  0.2168
    4MPD1    H714092   0.234   0.061  17.342 -1.2349  0.2562  2.4333
    1TCq1    O114093   0.628   4.608  11.892  0.0636 -0.4445  0.2602
    1TCq1    C114094   0.625   0.001  11.857  1.0505  0.1950 -0.0207
    1TCq1    O214095   0.724   0.075  11.856 -0.7119 -0.6891 -0.5683
    1TCq1    C214096   0.531   0.003  11.749 -0.0054  0.5823  0.1653
    1TCq1    C314097   0.402   4.697  11.778 -0.0129 -0.2473  0.1534
    1TCq1    C414098   0.316   4.698  11.675 -0.1745  0.1894 -0.2103
    1TCq1    C514099   0.355   0.019  11.556  0.5885  0.7835 -0.1267
    1TCq1    C614100   0.487   0.046  11.525 -0.3526 -0.3232  0.3294
    1TCq1    C714101   0.578   0.035  11.628  0.1728 -0.2746 -0.3138
    1TCq1    C814102   0.517   0.088  11.386  0.2009 -0.4515 -0.0078
    1TCq1    O414103   0.418   0.101  11.314 -0.0266  0.4247  0.0618
    1TCq1    C914104   0.173   4.693  11.707  0.0390  0.7052  0.1893
    1TCq1    O514105   0.150   4.685  11.829 -0.4107  0.0929 -0.0739
    1TCq1    O614106   0.090   0.004  11.614 -0.0640 -0.5880  0.1670
    1TCq1    H114107   0.541   4.565  11.877 -0.0111  0.3266 -1.4378
    1TCq1    H214108   0.370   4.670  11.878  1.9575 -1.5967  0.4367
    1TCq1    H314109   0.279   0.043  11.483  0.3938  1.3696  0.2669
    1TCq1    H414110   0.685   0.034  11.613  0.1676 -2.5936 -0.1889
    2MPD1     C14111   0.815   0.362  11.084 -0.2702  0.0039  0.3970
    2MPD1    C114112   0.895   0.324  11.188  0.7851 -0.7556 -0.0262
    2MPD1    C214113   0.836   0.237  11.280  0.3933 -0.1171 -0.2270
    2MPD1    C314114   0.702   0.205  11.272  0.2028  0.8431 -0.0732
    2MPD1    C414115   0.628   0.249  11.163  0.4202  0.4047 -0.5577
    2MPD1    C514116   0.689   0.322  11.074  0.0180 -1.0041 -0.0456
    2MPD1     H14117   0.892   0.196  11.363  0.1339  0.2277  0.1178
    2MPD1    H114118   0.522   0.230  11.145  0.0438 -0.2178  2.3765
    2MPD1    H214119   0.849   0.424  11.002  0.0608 -2.7526 -1.5187
    2MPD1    H314120   0.641   0.356  10.982 -2.9369  0.6420  2.0856
    2MPD1     N14121   0.644   0.130  11.375 -0.3085  0.6604  0.5223
    2MPD1    H514122   0.714   0.107  11.444  1.3149  0.8757 -1.0475
    2MPD1    N114123   1.032   0.358  11.189  0.3870  0.6479 -0.2621
    2MPD1    H614124   1.049   0.455  11.164  2.0237  0.5630  0.4850
    2MPD1    H714125   1.076   0.342  11.280 -2.2852  3.2457  1.5008
    1TMC1    C114126   3.124   4.707  10.205 -0.6495 -0.0444  0.0011
    1TMC1    C214127   3.168   4.642  10.323 -0.2579  0.4293 -0.3258
    1TMC1    C314128   3.228   4.716  10.423 -0.1101  0.3976 -0.2472
    1TMC1    C414129   3.139   0.106  10.194 -0.4241 -0.2917 -0.5589
    1TMC1    C514130   3.204   0.167  10.290 -0.0834  0.4445  0.1992
    1TMC1    C614131   3.237   0.116  10.409 -0.6472  0.0293 -1.1251
    1TMC1     C14132   3.058   4.635  10.085  0.3870 -0.3269  0.3040
    1TMC1     O14133   3.037   4.513  10.104 -0.2864 -0.5167 -0.0209
    1TMC1     H14134   3.168   4.534  10.318  1.2321  0.3430  1.5547
    1TMC1    H114135   3.095   0.167  10.115  1.5850  1.7858 -0.0812
    1TMC1    H214136   3.276   0.180  10.487 -1.3323 -2.1105  0.9766
    1TMC1    C714137   3.211   0.312  10.277 -0.0027  0.1207  0.1746
    1TMC1    C814138   3.293   4.662  10.543  0.2945  0.2297 -0.3217
    1TMC1    O114139   3.136   0.382  10.208  0.3302  0.3473  0.0206
    1TMC1    O214140   3.349   0.004  10.620 -0.1171 -0.3175 -0.4214
    1TMC1    O314141   3.345   0.334  10.286  0.5463 -1.0260  0.8713
    1TMC1    H314142   3.393   0.251  10.309  1.3649 -1.1650 -1.3554
    1TMC1    O514143   3.230   4.550  10.584  0.3614 -0.5853  0.3090
    1TMC1    H514144   3.175   4.504  10.517 -2.0627  2.8056 -0.0310
    2MPD1     C14145   2.995   4.571   9.588  0.0833 -0.7483  0.6066
    2MPD1    C114146   3.056   4.695   9.600 -0.3065 -0.6506  0.5518
    2MPD1    C214147   3.089   4.732   9.729 -0.0073  0.2367  0.6312
    2MPD1    C314148   3.049   4.651   9.836 -0.1649 -0.3766 -0.4643
    2MPD1    C414149   2.985   4.532   9.818 -0.8518  0.8298 -0.1552
    2MPD1    C514150   2.962   4.492   9.691  0.4507 -0.5062 -0.2811
    2MPD1     H14151   3.138   0.092   9.739  1.5946 -0.5176  0.0108
    2MPD1    H114152   2.961   4.467   9.902  0.1554 -0.4172 -0.8263
    2MPD1    H214153   2.987   4.530   9.489  0.8641 -1.4707  0.8484
    2MPD1    H314154   2.928   4.390   9.675  0.1201 -0.9073  2.9368
    2MPD1     N14155   3.087   4.705   9.968  0.3302 -0.7746 -0.4428
    2MPD1    H514156   3.122   0.064   9.974  1.1911 -1.2754  2.2696
    2MPD1    N114157   3.108   0.014   9.486 -0.4624 -0.3594 -0.0179
    2MPD1    H614158   3.040   0.021   9.410  0.4515  2.0893 -0.6268
    2MPD1    H714159   3.136   0.112   9.495 -0.9803 -0.1164 -0.9653
    1MPD1     C14160   3.424   2.270  10.519 -0.1504 -0.2724 -0.3501
    1MPD1    C114161   3.425   2.195  10.407  0.7433  0.7890  0.3767
    1MPD1    C214162   3.451   2.063  10.418  0.1160 -0.3785 -0.0264
    1MPD1    C314163   3.483   2.004  10.537 -0.1397  0.3032  0.3682
    1MPD1    C414164   3.493   2.082  10.652  0.2980 -0.1132  0.0164
    1MPD1    C514165   3.455   2.214  10.639  0.8955 -0.0682 -0.6139
    1MPD1     H14166   3.471   2.008  10.327 -1.7380 -0.7775 -0.1909
    1MPD1    H114167   3.511   2.036  10.748 -0.3610  0.3498  0.3628
    1MPD1    H214168   3.394   2.374  10.515 -0.9817 -0.5661 -1.7725
    1MPD1    H314169   3.435   2.277  10.725 -0.7003  0.4674 -1.3874
    1MPD1     N14170   3.512   1.864  10.536 -0.3633 -0.8526 -0.3619
    1MPD1    H514171   3.512   1.817  10.446  0.7400 -1.2672 -0.1330
    1MPD1    N114172   3.361   2.234  10.294  0.2940  0.1665  0.4373
    1MPD1    H614173   3.399   2.182  10.216  2.9623  1.4513  0.8725
    1MPD1    H714174   3.376   2.331  10.266 -0.4493  0.5753  1.4442
    2MPD1     C14175   1.620   0.854  11.180  0.3185 -0.6399  0.4434
    2MPD1    C114176   1.582   0.812  11.056 -0.0448 -0.1645  0.4558
    2MPD1    C214177   1.676   0.792  10.956  0.7451  0.6411  0.1649
    2MPD1    C314178   1.813   0.821  10.982  0.0474  0.2515  0.4712
    2MPD1    C414179   1.851   0.840  11.114  0.2036  0.1344 -0.1463
    2MPD1    C514180   1.752   0.861  11.209 -0.1621 -0.7009 -0.3369
    2MPD1     H14181   1.643   0.774  10.854  1.1665  0.2491  0.0986
    2MPD1    H114182   1.953   0.850  11.148  0.6546 -1.7846 -0.9742
    2MPD1    H214183   1.541   0.880  11.250 -1.5096  0.1925 -1.9400
    2MPD1    H314184   1.778   0.873  11.313  0.1183  1.3287 -0.6359
    2MPD1     N14185   1.921   0.805  10.888  0.5737 -0.1831  0.2854
    2MPD1    H514186   2.015   0.818  10.925  0.3984 -0.0077  0.6706
    2MPD1    N114187   1.447   0.804  11.022  0.4231  0.9044 -0.1268
    2MPD1    H614188   1.386   0.784  11.102  0.3020  0.9842 -0.1988
    2MPD1    H714189   1.429   0.727  10.959  0.0127  2.2710 -1.6801
    3MPD1     C14190   1.994   0.998   9.891 -0.2592 -0.2285 -0.0967
    3MPD1    C114191   1.906   1.036   9.989 -0.2461 -0.2616  0.1934
    3MPD1    C214192   1.928   0.984  10.118  0.5101  0.9018  0.7497
    3MPD1    C314193   2.044   0.931  10.153 -0.6315  0.3937  0.1893
    3MPD1    C414194   2.147   0.919  10.058  0.2864  0.7601 -0.1994
    3MPD1    C514195   2.112   0.941   9.933  0.2363 -0.1321 -0.1210
    3MPD1     H14196   1.848   0.993  10.191 -0.5106 -2.7962  0.0899
    3MPD1    H114197   2.246   0.882  10.083  1.2434  3.6749  0.3576
    3MPD1    H214198   1.974   1.010   9.786  3.3655  0.0667 -0.7642
    3MPD1    H314199   2.186   0.922   9.856  0.7945 -0.4296  0.4947
    3MPD1     N14200   2.053   0.879  10.287  0.3691  0.0839  0.2840
    3MPD1    H514201   1.963   0.874  10.334  0.2998 -2.9488 -0.1726
    3MPD1    N114202   1.782   1.097   9.954 -0.1286  0.3930  0.3296
    3MPD1    H614203   1.800   1.171   9.887  0.6333 -0.4837 -0.4450
    3MPD1    H714204   1.736   1.140  10.034  0.3163 -0.2520  0.9388
    4MPD2     C14205   3.332   1.163  10.295  0.3711 -0.0229  0.3222
    4MPD2    C114206   3.383   1.181  10.424 -0.3794  0.2367  0.7904
    4MPD2    C214207   3.338   1.094  10.517  0.6115  0.2942 -0.4648
    4MPD2    C314208   3.242   0.999  10.491  0.3537 -0.4090  0.5068
    4MPD2    C414209   3.189   0.991  10.370  0.0525 -0.7995  0.5382
    4MPD2    C514210   3.237   1.069  10.269  0.0195  0.1479 -0.8187
    4MPD2     H14211   3.386   1.101  10.614 -0.6755 -0.9128  0.2615
    4MPD2    H114212   3.105   0.927  10.347  0.5578 -1.0929 -0.5182
    4MPD2    H214213   3.364   1.220  10.209  0.2799  0.2811  0.4882
    4MPD2    H314214   3.207   1.073  10.165  2.0145 -0.8297 -1.4321
    4MPD2     N14215   3.217   0.893  10.584  0.4553  0.5319 -0.1622
    4MPD2    H514216   3.128   0.845  10.569  0.9213 -0.4571  0.2886
    4MPD2    N114217   3.475   1.277  10.465  0.9704 -0.0305 -0.3391
    4MPD2    H714218   3.511   1.266  10.560 -0.2465  3.7651  0.5412
    5TMC3    C114219   3.611   1.466  10.478 -0.0848  0.4011  0.0179
    5TMC3    C214220   3.564   1.590  10.498 -0.4959 -0.6680 -0.2758
    5TMC3    C314221   3.562   1.642  10.625  0.1122 -0.6159  0.0461
    5TMC3    C414222   3.675   1.401  10.579 -0.0747 -0.1151  0.5496
    5TMC3    C514223   3.682   1.454  10.705 -0.6276 -1.1859 -0.7610
    5TMC3    C614224   3.617   1.572  10.731 -0.6017  0.5822 -0.4322
    5TMC3     C14225   3.520   1.382  10.390 -0.4661  0.0139  0.0874
    5TMC3     O14226   3.464   1.443  10.297 -0.3141 -0.3775 -0.0353
    5TMC3     H14227   3.512   1.647  10.421  1.0140 -0.2377 -0.9766
    5TMC3    H114228   3.720   1.303  10.563  0.8516  0.8759 -2.8976
    5TMC3    H214229   3.603   1.606  10.833  1.1439 -1.2200  0.3888
    5TMC3    C714230   3.631   1.339  10.780 -0.8110  0.2945 -0.5193
    5TMC3    C814231   3.517   1.780  10.650  0.3578  0.1165 -0.1964
    5TMC3    O114232   3.547   1.276  10.720  0.3093  0.2014  0.6257
    5TMC3    O214233   3.514   1.808  10.769  0.3977  0.1080 -0.7460
    6TMC3    C114234   2.026   0.778  10.687  0.2525 -1.2653 -0.0097
    6TMC3    C214235   2.029   0.821  10.555  0.4465 -0.3178  0.5134
    6TMC3    C314236   2.156   0.817  10.498 -0.3547 -0.2649  0.6386
    6TMC3    C414237   2.126   0.723  10.761  0.6178 -0.2215 -0.4341
    6TMC3    C514238   2.253   0.724  10.696 -0.4319  0.4806 -0.8171
    6TMC3    C614239   2.267   0.770  10.569 -1.0651 -1.2360  1.0036
    6TMC3     C14240   1.902   0.773  10.754  0.1793  0.3449 -0.3523
    6TMC3     O14241   1.802   0.765  10.681 -0.1073 -0.0293 -0.3312
    6TMC3     H14242   1.943   0.851  10.496  0.6991 -1.8966 -0.6429
    6TMC3    H114243   2.124   0.685  10.862  2.6827  1.4006  0.2414
    6TMC3    H214244   2.361   0.765  10.514 -2.0154  0.7397 -0.8124
    6TMC3    C714245   2.379   0.725  10.769 -0.0391 -0.4518  0.4041
    6TMC3    C814246   2.166   0.837  10.352  0.0644 -0.2380 -0.1632
    6TMC3    O114247   2.470   0.790  10.719 -0.1405  0.1921 -0.3769
    6TMC3    O214248   2.272   0.816  10.299 -0.0545 -0.3575 -0.0301
    7MPD2     C14249   3.411   1.167  11.212  0.4363 -0.0340  1.5174
    7MPD2    C114250   3.403   1.118  11.082 -0.1463 -0.1841 -0.0577
    7MPD2    C214251   3.484   1.179  10.980 -0.2121  0.6759  0.2908
    7MPD2    C314252   3.568   1.284  11.014  0.2812  0.3805 -0.2062
    7MPD2    C414253   3.579   1.320  11.145 -0.4052 -0.4180  0.2170
    7MPD2    C514254   3.495   1.267  11.244  0.2126 -0.2987  0.0527
    7MPD2     H14255   3.460   1.150  10.879  2.9937 -1.9097  0.2895
    7MPD2    H114256   3.634   1.411  11.164  0.9531 -1.5923  1.8409
    7MPD2    H214257   3.350   1.125  11.292  1.0185 -0.7784  1.5683
    7MPD2    H314258   3.501   1.297  11.348  0.4183  0.1940 -0.1002
    7MPD2     N14259   3.644   1.358  10.921 -0.3034  0.7165  0.3724
    7MPD2    H514260   3.709   1.428  10.955  1.5230 -1.3441  1.1116
    7MPD2    N114261   3.336   0.997  11.039 -0.4689  0.0265  0.0779
    7MPD2    H714262   3.344   0.979  10.939 -0.6312 -0.4297  0.1471
    8TMC3    C114263   3.223   0.803  11.030  0.5168 -0.0176 -0.3028
    8TMC3    C214264   3.089   0.773  11.026  0.1547 -0.6660  0.2520
    8TMC3    C314265   3.036   0.737  10.904 -0.2288 -0.4471 -0.4945
    8TMC3    C414266   3.305   0.794  10.917  0.3673 -0.2944 -0.4284
    8TMC3    C514267   3.241   0.783  10.799 -0.2468 -0.7271 -0.0587
    8TMC3    C614268   3.107   0.753  10.793  0.8854  0.2278 -1.0266
    8TMC3     C14269   3.254   0.914  11.114  0.3491  0.0200 -0.4674
    8TMC3     O14270   3.188   0.938  11.218  0.6798 -0.2543  0.0503
    8TMC3     H14271   3.033   0.789  11.117  0.3240 -1.6821  0.5409
    8TMC3    H114272   3.414   0.795  10.920  0.2853 -1.0447  3.0496
    8TMC3    H214273   3.069   0.744  10.692  0.6368 -0.0934 -0.9033
    8TMC3    C714274   3.303   0.863  10.691 -1.4670  0.1536 -0.5897
    8TMC3    C814275   2.898   0.700  10.893  0.0524  0.3694 -0.4333
    8TMC3    O114276   3.419   0.896  10.711  0.4289 -0.2774 -0.4187
    8TMC3    O214277   2.857   0.702  10.780  0.0970  0.3605  0.9030
    9MPD2     C14278   2.685   0.566  11.157  0.1608  0.0697 -0.1089
    9MPD2    C114279   2.714   0.625  11.031 -0.6473 -0.0467  0.0275
    9MPD2    C214280   2.610   0.655  10.942  0.2648 -0.1941 -0.0999
    9MPD2    C314281   2.480   0.616  10.967  0.2789  0.2880 -0.8331
    9MPD2    C414282   2.456   0.551  11.083 -0.0694  0.1693  0.2387
    9MPD2    C514283   2.551   0.533  11.180  0.8792 -0.6586 -0.7856
    9MPD2     H14284   2.637   0.693  10.844  3.7256 -0.5703  0.6960
    9MPD2    H114285   2.357   0.525  11.117  1.2054 -3.2149  1.3771
    9MPD2    H214286   2.766   0.534  11.221  1.2327  1.3113 -0.8440
    9MPD2    H314287   2.538   0.473  11.269 -2.3012 -0.9905 -1.4794
    9MPD2     N14288   2.378   0.639  10.878 -0.5445 -0.3380  0.6072
    9MPD2    H514289   2.296   0.581  10.893 -1.4036  0.8331  0.4203
    9MPD2    N114290   2.846   0.649  11.007  0.3186  0.4484 -0.5092
    9MPD2    H714291   2.910   0.625  11.082  1.1023  0.6969 -1.0999
    1MPD1     C14292   2.083   4.022  16.636 -0.1799 -1.5164  0.5491
    1MPD1    C114293   1.972   3.945  16.608  0.1687 -0.6069  0.2549
    1MPD1    C214294   1.893   3.991  16.515 -0.3754 -0.6462  0.2297
    1MPD1    C314295   1.920   4.093  16.427  0.0267 -0.9732 -0.3207
    1MPD1    C414296   2.031   4.164  16.449 -0.0080  0.1560  0.4167
    1MPD1    C514297   2.115   4.126  16.552 -0.3111  0.1023  0.1683
    1MPD1     H14298   1.794   3.947  16.521 -0.5886 -0.0065  1.2881
    1MPD1    H114299   2.062   4.242  16.380 -0.4446  0.2308  0.3041
    1MPD1    H214300   2.135   4.008  16.731  0.3452 -1.4134  0.2775
    1MPD1    H314301   2.200   4.191  16.567 -0.3803  0.3650 -0.5491
    1MPD1     N14302   1.827   4.130  16.330  0.3688  0.5103  0.3402
    1MPD1    H514303   1.858   4.211  16.277 -1.4630 -0.0179 -1.5279
    1MPD1    N114304   1.924   3.851  16.695  0.5834 -0.4199 -0.1820
    1MPD1    H614305   1.866   3.775  16.661 -3.7550  1.7825  2.3003
    1MPD1    H714306   2.003   3.803  16.737  2.0840  0.3701 -2.0986
    2TMC2    C114307   1.579   4.345  16.104 -0.1193  0.4640  0.5903
    2TMC2    C214308   1.477   4.281  16.030  0.1306 -0.8438 -0.3790
    2TMC2    C314309   1.458   4.147  16.037 -0.0895  0.0337 -0.3435
    2TMC2    C414310   1.658   4.273  16.183 -0.6985 -0.3893  0.1997
    2TMC2    C514311   1.631   4.139  16.195  0.0624 -0.1577  0.1504
    2TMC2    C614312   1.531   4.075  16.126 -0.5562  0.1529  0.0797
    2TMC2     C14313   1.622   4.476  16.064  0.6287  0.3243 -0.1364
    2TMC2     O14314   1.743   4.493  16.077 -0.0377 -0.1210  0.5282
    2TMC2     H14315   1.408   4.337  15.968 -1.0410 -1.1736  0.6245
    2TMC2    H114316   1.726   4.317  16.256  0.6602 -1.3965 -0.4506
    2TMC2    H214317   1.526   3.966  16.128  2.7135  0.0160  0.1489
    2TMC2    C714318   1.714   4.067  16.287  0.1219  0.5929  0.2113
    2TMC2    C814319   1.369   4.101  15.934 -0.6500  0.3209  0.3894
    2TMC2    O114320   1.677   3.960  16.331  0.6202 -0.1921  0.3083
    2TMC2    O214321   1.391   4.129  15.820  0.1487  0.4808 -0.2246
    2TMC2    O514322   1.250   4.111  15.992 -0.0250 -0.3027 -0.2114
    2TMC2    H514323   1.247   4.103  16.089 -0.1009 -0.1747 -0.2028
    3MPD1     C14324   1.526   0.228  15.958  0.0896 -0.4963  0.1264
    3MPD1    C114325   1.404   0.160  15.963 -0.6792  0.9614 -0.5113
    3MPD1    C214326   1.410   0.029  16.000  0.4258 -0.0755  0.4439
    3MPD1    C314327   1.524   4.693  16.012  0.4698 -0.2788 -0.3481
    3MPD1    C414328   1.639   0.032  15.999  0.0372 -0.4382 -0.8391
    3MPD1    C514329   1.646   0.165  15.978  0.1853 -0.5512  0.0851
    3MPD1     H14330   1.316   4.714  16.021 -0.1580  0.4771 -0.8398
    3MPD1    H114331   1.736   4.723  16.016 -0.4508 -0.1969  2.4937
    3MPD1    H214332   1.530   0.335  15.941 -1.5604 -0.4772 -0.1997
    3MPD1    H314333   1.740   0.220  15.976 -2.3485  3.6689 -1.6931
    3MPD1     N14334   1.517   4.559  16.035  0.0762  0.1850 -0.3414
    3MPD1    H514335   1.424   4.526  16.058  0.9068 -0.5582  1.9446
    3MPD1    N114336   1.281   0.230  15.956 -0.1968  0.0968  0.9756
    3MPD1    H614337   1.302   0.306  15.891 -0.2823 -0.8007 -0.0987
    3MPD1    H714338   1.204   0.172  15.925  0.5709  0.2005 -1.1307
    1TMC1    C114339   0.049   3.573  13.256 -0.3558  0.3719 -0.1305
    1TMC1    C214340   0.005   3.604  13.124  0.2725 -0.0318  0.4298
    1TMC1    C314341   4.606   3.590  13.099  0.2644 -0.1948 -0.0375
    1TMC1    C414342   4.693   3.522  13.345  0.2048 -0.1745 -0.0735
    1TMC1    C514343   4.560   3.516  13.316  0.2931 -0.1384 -0.0999
    1TMC1    C614344   4.514   3.543  13.187 -0.2919 -0.6664  0.8007
    1TMC1     C14345   0.173   3.641  13.290  0.3680 -0.2657 -0.1007
    1TMC1     O14346   0.239   3.673  13.191  0.2317  0.6375 -0.0696
    1TMC1     H14347   0.060   3.660  13.049  1.7582 -0.4969  1.1791
    1TMC1    H114348   4.718   3.497  13.448 -1.4237 -1.9904 -0.1400
    1TMC1    H214349   4.408   3.546  13.166 -0.1072  1.7219  0.1951
    1TMC1    C714350   4.472   3.478  13.419  0.7456  0.0701 -0.2594
    1TMC1    C814351   4.554   3.669  12.991  0.0601 -0.0539 -0.0150
    1TMC1    O114352   4.361   3.435  13.393 -0.3983  0.3099  0.2708
    1TMC1    O214353   4.604   3.778  12.967  0.2886  0.7811  0.4196
    1TMC1    O314354   4.503   3.554  13.528 -0.1187  0.4271 -0.4064
    1TMC1    H314355   4.584   3.607  13.516 -0.4429  1.1876  0.7361
    1TMC1    O514356   4.460   3.610  12.924  0.2373 -0.1012 -0.4221
    1TMC1    H514357   4.452   3.516  12.952  0.4939  0.3307  1.0570
    2MPD2     C14358   0.453   3.679  13.395 -0.1625  0.6056 -0.1260
    2MPD2    C114359   0.344   3.669  13.476  0.6049 -0.1433 -0.0886
    2MPD2    C214360   0.372   3.676  13.613  0.2142  0.4175 -0.2780
    2MPD2    C314361   0.502   3.681  13.658 -0.0685 -0.2021 -0.2552
    2MPD2    C414362   0.608   3.683  13.573  0.4483 -0.7217  0.0774
    2MPD2    C514363   0.582   3.682  13.441  0.2296 -0.6164 -0.4630
    2MPD2     H14364   0.284   3.685  13.676  0.0025 -1.6047 -0.2712
    2MPD2    H114365   0.712   3.693  13.602 -0.4279  1.4589  2.4722
    2MPD2    H214366   0.444   3.670  13.288  0.8425 -0.2111 -0.1484
    2MPD2    H314367   0.666   3.688  13.373 -1.2438  0.4955 -2.1881
    2MPD2     N14368   0.518   3.691  13.801 -0.1280 -0.3580 -0.0939
    2MPD2    H514369   0.433   3.695  13.856 -0.5843 -1.1770 -0.7343
    2MPD2    N114370   0.208   3.649  13.423  0.7648  0.4263  0.3688
    2MPD2    H714371   0.142   3.630  13.498 -0.7716  1.6580 -0.6643
    3TCq1    O114372   0.379   3.735  14.405  0.0393  0.5421  0.0973
    3TCq1    C114373   0.397   3.755  14.270  0.3531  0.2341 -0.6735
    3TCq1    O214374   0.325   3.814  14.192  0.0009  0.0511  0.1599
    3TCq1    C214375   0.497   3.676  14.201  0.1267  0.6704  0.0139
    3TCq1    C314376   0.546   3.558  14.252 -0.5368 -0.0387 -0.0491
    3TCq1    C414377   0.638   3.495  14.184 -0.3847 -0.0203 -0.0740
    3TCq1    C514378   0.670   3.530  14.056  0.1865  0.0848 -0.2420
    3TCq1    C614379   0.622   3.643  14.005 -0.2494 -0.4549  0.1483
    3TCq1    C714380   0.528   3.721  14.077  0.0190 -0.0513  0.4999
    3TCq1    C814381   0.632   3.654  13.863 -0.4041 -0.6598  0.0389
    3TCq1    O414382   0.730   3.607  13.811  0.5857  0.0797  0.2825
    3TCq1    C914383   0.699   3.378  14.244 -0.0635  0.1152 -0.3074
    3TCq1    O514384   0.637   3.300  14.321  0.5368  0.2724  0.1452
    3TCq1    O614385   0.812   3.353  14.201 -0.0974 -0.2830  0.0026
    3TCq1    H114386   0.451   3.676  14.438  0.8908  2.4816  1.7219
    3TCq1    H214387   0.523   3.536  14.356 -2.0345 -1.6564 -0.7362
    3TCq1    H314388   0.742   3.474  13.997 -0.7219 -1.4096  0.0874
    3TCq1    H414389   0.486   3.810  14.032  1.4397  0.5026  0.2498
    1MPD2     C14390   0.071   4.719  15.079 -0.4744 -1.0069 -0.0247
    1MPD2    C114391   4.708   4.634  15.126 -0.0525  0.1528 -0.4095
    1MPD2    C214392   0.006   4.512  15.185  0.0728 -0.8282  0.4130
    1MPD2    C314393   0.137   4.465  15.188  0.3945 -0.3750 -0.3736
    1MPD2    C414394   0.236   4.544  15.145 -0.3482  0.2031  0.5123
    1MPD2    C514395   0.201   4.670  15.101 -0.0696 -0.0177  0.3431
    1MPD2     H14396   4.667   4.447  15.228  0.2910 -0.7501  0.9205
    1MPD2    H114397   0.340   4.514  15.137 -0.1722  1.3763 -1.7084
    1MPD2    H214398   0.062   0.082  15.037 -2.0991 -0.0636  2.6160
    1MPD2    H314399   0.280   0.001  15.071  1.4663 -1.4581  1.1276
    1MPD2     N14400   0.168   4.332  15.235 -0.3772  0.0888 -0.1726
    1MPD2    H514401   0.261   4.297  15.256  0.3158  1.0558 -1.5574
    1MPD2    N114402   4.572   4.685  15.120  0.1884  0.0702  0.2696
    1MPD2    H714403   4.563   0.046  15.089  0.5658  0.5108  1.5386
    2TMC3    C114404   4.338   4.677  15.155 -0.4846 -0.3133 -0.4228
    2TMC3    C214405   4.245   4.588  15.200  0.3642  0.6185  0.5292
    2TMC3    C314406   4.135   4.571  15.126  0.1221 -0.4695 -0.8100
    2TMC3    C414407   4.313   0.026  15.049 -0.2719 -0.0651 -0.3285
    2TMC3    C514408   4.194   0.017  14.976  0.6086  0.3944 -0.0965
    2TMC3    C614409   4.113   4.649  15.012  0.5692 -0.7092 -1.3837
    2TMC3     C14410   4.464   4.613  15.166  0.9282 -0.4759  0.0615
    2TMC3     O14411   4.458   4.510  15.235 -0.0448 -0.1201  0.9931
    2TMC3     H14412   4.256   4.543  15.297  3.0417 -3.4027 -1.6629
    2TMC3    H114413   4.399   0.085  15.017  0.4804 -0.5059  0.9227
    2TMC3    H214414   4.015   4.651  14.967  0.7626  0.4153 -1.7499
    2TMC3    C714415   4.149   0.120  14.889  0.1340 -0.8713  0.2637
    2TMC3    C814416   4.114   4.429  15.100 -0.1870 -0.3557 -0.5355
    2TMC3    O114417   4.036   0.103  14.849  0.3467  0.1765  0.1273
    2TMC3    O214418   4.003   4.394  15.054  0.6934  0.2980 -0.7651
    3TCq1    O114419   0.062   1.187  14.636 -0.0431  0.0446  0.0238
    3TCq1    C114420   4.696   1.126  14.568  0.2636  0.1602 -0.0502
    3TCq1    O214421   4.624   1.184  14.486  0.3407 -0.1402  0.2430
    3TCq1    C214422   4.639   1.029  14.668  0.1086  0.2484  0.2885
    3TCq1    C314423   4.688   1.029  14.796  0.1354  0.0005  0.7570
    3TCq1    C414424   4.630   0.952  14.892 -0.5022  0.2762 -0.2674
    3TCq1    C514425   4.523   0.873  14.854  0.0884  0.1186 -0.1693
    3TCq1    C614426   4.477   0.873  14.727 -0.5363  0.0381  0.5602
    3TCq1    C714427   4.527   0.956  14.630  0.3919  0.2513  0.3912
    3TCq1    C814428   4.368   0.785  14.690  0.0407  0.6148 -0.5621
    3TCq1    O414429   4.302   0.819  14.588 -0.0797  0.3464  0.2715
    3TCq1    C914430   4.687   0.932  15.021 -0.1050 -0.0090  0.4717
    3TCq1    O514431   4.633   0.843  15.092  0.6347  0.1693  0.3878
    3TCq1    O614432   0.036   1.015  15.061  0.0409  0.1596  0.1720
    3TCq1    H114433   0.106   1.115  14.685 -3.4754 -1.8040  0.4032
    3TCq1    H214434   0.043   1.078  14.830 -0.5646  0.9874  1.1741
    3TCq1    H314435   4.466   0.828  14.935  2.4695 -1.2468  0.7816
    3TCq1    H414436   4.500   0.950  14.526 -0.6017  1.8406  0.5559
    4MPD2     C14437   4.164   0.581  14.669  0.8964  0.7712 -0.0709
    4MPD2    C114438   4.278   0.567  14.750  0.3947  0.7720 -0.6696
    4MPD2    C214439   4.300   0.448  14.818 -0.5247 -0.4548  0.2885
    4MPD2    C314440   4.213   0.347  14.810 -0.0081  0.3858  0.7780
    4MPD2    C414441   4.110   0.353  14.716  0.3245  0.2159 -0.1020
    4MPD2    C514442   4.079   0.472  14.651 -0.2425 -0.1177  0.3557
    4MPD2     H14443   4.383   0.440  14.887  0.0427 -2.7444 -0.6535
    4MPD2    H114444   4.042   0.269  14.707  0.9443 -0.3514  0.4740
    4MPD2    H214445   4.153   0.668  14.604 -1.0685 -0.8495 -1.9006
    4MPD2    H314446   3.992   0.484  14.589  0.0110  0.1480  0.0531
    4MPD2     N14447   4.235   0.228  14.878 -0.3946 -0.2914  0.5015
    4MPD2    H514448   4.318   0.228  14.936  0.2796 -1.0682 -0.4715
    4MPD2    N114449   4.371   0.672  14.764 -0.6869  0.1372  0.8920
    4MPD2    H714450   4.451   0.652  14.822 -0.5048 -0.7309  0.3432
    5TMC2    C114451   4.734   3.921  15.311 -0.3866  0.1307 -0.1258
    5TMC2    C214452   0.036   3.902  15.439 -0.3127 -0.3327  0.2446
    5TMC2    C314453   0.129   3.988  15.487 -0.5928 -0.7207  0.2795
    5TMC2    C414454   0.042   4.015  15.230  0.2285 -0.3855 -0.5150
    5TMC2    C514455   0.125   4.112  15.286 -0.5372  0.5791 -0.9651
    5TMC2    C614456   0.163   4.099  15.415  0.0009  0.4911 -0.0369
    5TMC2     C14457   4.586   3.903  15.297  0.2786 -0.3618  0.2841
    5TMC2     O14458   4.530   3.808  15.354  0.1426 -0.3611 -0.6171
    5TMC2     H14459   0.010   3.816  15.501 -1.2000  0.4442  0.9549
    5TMC2    H114460   0.013   4.029  15.127 -0.5564  0.2776 -0.2102
    5TMC2    H214461   0.229   4.176  15.455  0.5083 -0.4967  1.0348
    5TMC2    C714462   0.072   4.239  15.247 -0.0189  0.3033  0.0569
    5TMC2    C814463   0.178   3.970  15.621 -0.7553 -0.4883  0.1692
    5TMC2    O114464   4.696   4.235  15.202  0.0558 -0.3936 -0.3071
    5TMC2    O214465   0.293   3.968  15.653 -0.0295 -0.1212  0.1856
    5TMC2    O514466   0.073   3.938  15.700 -0.2403 -0.1555  0.1318
    5TMC2    H514467   4.722   3.956  15.659 -0.2158 -0.3570 -0.0145
    6MPD2     C14468   4.149   4.130  15.117  1.0048  0.5382  0.0389
    6MPD2    C114469   4.251   4.223  15.130  0.3996 -0.3093 -0.9151
    6MPD2    C214470   4.374   4.180  15.169  0.5424  0.1986  0.3527
    6MPD2    C314471   4.405   4.049  15.199  0.6983 -0.2107 -0.2179
    6MPD2    C414472   4.304   3.958  15.188 -0.2698  0.1445  0.7426
    6MPD2    C514473   4.180   4.001  15.140 -0.1027 -1.1013  0.7694
    6MPD2     H14474   4.455   4.251  15.177  1.1605 -0.4450 -0.2285
    6MPD2    H114475   4.316   3.853  15.208 -1.5142 -0.0767  0.3592
    6MPD2    H214476   4.049   4.151  15.082  1.3085  2.7489  0.4732
    6MPD2    H314477   4.110   3.924  15.110 -0.3596 -0.2723 -0.7471
    6MPD2     N14478   4.531   4.015  15.239 -0.7469  0.1216  0.1983
    6MPD2    H514479   4.594   4.095  15.242 -1.2843  0.5971 -1.0217
    6MPD2    N114480   4.228   4.361  15.119 -0.3885 -0.1735 -0.1150
    6MPD2    H714481   4.312   4.416  15.135 -0.8434  0.0685  1.4593
  945NH4     N114482   2.508   0.934   9.689  0.1316 -0.3225  0.4414
  945NH4     H214483   2.573   0.968   9.616  0.0590 -0.1097  0.4772
  945NH4     H314484   2.438   1.005   9.717  0.0657 -0.0752 -0.3537
  945NH4     H414485   2.564   0.902   9.771 -1.8939 -3.5734  0.6021
  945NH4     H514486   2.470   0.848   9.643  0.2739 -0.5020  0.6560
  946SOD     NA14487   2.506   3.906  14.012  0.0622  0.8382  0.1317
  947SOD     NA14488   1.668   0.659  16.378 -0.2320  0.0124  0.3190
  948SOD     NA14489   2.371   2.062  13.510  0.2767 -0.1664  0.2448
  949SOD     NA14490   0.651   1.628  16.168  0.0682 -0.1907 -0.5722
  950SOD     NA14491   4.300   3.020   2.630 -0.1652  0.0357  0.0751
  951SOD     NA14492   4.489   1.414   7.800  0.0641  0.5015  0.7923
  952SOD     NA14493   2.325   0.498  13.815  0.0652 -0.2773 -0.1971
  953SOL     OW14494   4.252   0.242   0.281 -0.2338  0.1731 -0.1405
  953SOL    HW114495   4.321   0.190   0.322 -0.0493 -1.3179 -2.3223
  953SOL    HW214496   4.279   0.332   0.297 -0.4433 -0.0060  1.2068
  954SOL     OW14497   4.499   2.917  17.259 -0.2975 -0.0045 -0.5317
  954SOL    HW114498   4.570   2.972  17.227 -0.5647  0.6336 -0.0524
  954SOL    HW214499   4.447   2.893  17.182 -0.0427 -1.9163 -0.1142
  955SOL     OW14500   2.040   3.485  16.917  0.5393  0.3532  1.1273
  955SOL    HW114501   2.081   3.564  16.882  1.1897 -1.4520 -2.1925
  955SOL    HW214502   2.111   3.447  16.969  0.8311 -2.5134 -1.2864
  956SOL     OW14503   1.744   0.500  13.486 -0.5837  0.3226 -0.2060
  956SOL    HW114504   1.659   0.469  13.456 -0.6217 -1.2086  1.5190
  956SOL    HW214505   1.735   0.479  13.578 -1.7977  2.7968  0.2276
  957SOL     OW14506   4.347   1.795   8.211  0.4199 -0.4163 -0.3959
  957SOL    HW114507   4.252   1.796   8.213  0.4487  0.8519  0.7860
  957SOL    HW214508   4.367   1.776   8.303  0.3988  0.3084 -0.2370
  958SOL     OW14509   4.181   1.360   4.697 -0.4400 -0.1469  0.3053
  958SOL    HW114510   4.184   1.288   4.634  1.4900  0.9808 -0.9096
  958SOL    HW214511   4.276   1.372   4.690 -0.4230 -0.0940  0.6526
  959SOL     OW14512   1.805   1.475   1.986 -0.7524 -0.0931 -0.4415
  959SOL    HW114513   1.898   1.464   1.966 -0.4785  1.8490 -0.2160
  959SOL    HW214514   1.803   1.541   2.056  0.2681 -0.6178  0.0974
  960SOL     OW14515   4.546   1.417   8.959  0.3720 -0.0898 -0.0410
  960SOL    HW114516   4.614   1.419   8.891  1.7582  2.6403  1.4180
  960SOL    HW214517   4.497   1.337   8.940  0.3284 -0.5469  2.0042
  961SOL     OW14518   0.176   1.663  16.901 -0.6857  0.4178  0.4136
  961SOL    HW114519   0.241   1.732  16.913  1.2938 -1.3330 -0.1629
  961SOL    HW214520   0.203   1.601  16.970 -0.6866 -2.1555 -1.8886
  962SOL     OW14521   0.922   3.224   1.083 -0.3651  0.3991  0.3842
  962SOL    HW114522   0.869   3.271   1.019 -1.2163 -1.6089 -0.3770
  962SOL    HW214523   0.879   3.239   1.168 -1.7821 -1.2803 -0.0487
  963SOL     OW14524   4.707   2.341   7.719 -0.0603  0.4596  0.1355
  963SOL    HW114525   4.622   2.381   7.698 -0.0815  0.5537  0.3964
  963SOL    HW214526   4.697   2.263   7.665  1.6743  0.4324 -0.1229
  964SOL     OW14527   2.129   1.263   5.802 -0.7045  0.3871 -0.6178
  964SOL    HW114528   2.085   1.178   5.791  0.2033 -0.0675 -0.8276
  964SOL    HW214529   2.091   1.304   5.879  1.4491  2.5155 -0.7176
  965SOL     OW14530   1.705   3.228  11.010  0.1698  0.3152 -0.4544
  965SOL    HW114531   1.707   3.230  10.914  0.3157  2.6272 -0.3937
  965SOL    HW214532   1.709   3.323  11.015  1.6120  0.3032 -1.4897
  966SOL     OW14533   1.908   4.104   4.196  0.5242 -0.2985 -0.1024
  966SOL    HW114534   1.966   4.030   4.213  1.8541  0.2525 -2.2759
  966SOL    HW214535   1.924   4.148   4.280 -0.3557  1.6949 -0.9765
  967SOL     OW14536   0.371   1.264   9.065  0.0358 -0.5625  0.2498
  967SOL    HW114537   0.375   1.355   9.036 -0.9931 -0.6866 -0.2796
  967SOL    HW214538   0.466   1.252   9.072  0.0173 -1.1118 -0.4320
  968SOL     OW14539   3.395   0.929   4.798  0.3345  0.0326  0.1594
  968SOL    HW114540   3.426   0.969   4.880  1.8040 -0.4661 -0.1547
  968SOL    HW214541   3.374   1.007   4.747 -1.4178 -0.6862 -0.2041
  969SOL     OW14542   3.716   0.575   3.257  0.1017 -0.3856  0.4005
  969SOL    HW114543   3.787   0.513   3.273 -1.4116 -1.9008  1.2660
  969SOL    HW214544   3.646   0.510   3.247 -1.2628  1.1639 -0.1073
  970SOL     OW14545   1.512   4.346  17.318  0.0243  0.1353  0.3769
  970SOL    HW114546   1.513   4.430  17.364  2.8251 -1.8601  4.0081
  970SOL    HW214547   1.502   4.378  17.228  3.2354 -1.9893 -0.7174
  971SOL     OW14548   4.136   1.540   5.400  0.5285  0.1798 -0.0298
  971SOL    HW114549   4.171   1.452   5.387  0.4106 -0.1388  1.8511
  971SOL    HW214550   4.056   1.531   5.349 -0.6341  0.9660  1.6610
  972SOL     OW14551   3.309   1.570   7.389  1.0841  0.1611 -0.4255
  972SOL    HW114552   3.392   1.533   7.419 -0.0952 -2.2430 -0.0960
  972SOL    HW214553   3.268   1.495   7.345  0.4909  1.2449 -1.7437
  973SOL     OW14554   4.148   2.279   7.247  0.0821  0.8155 -0.4047
  973SOL    HW114555   4.239   2.264   7.218  1.4199  3.5740  2.3777
  973SOL    HW214556   4.128   2.201   7.298  0.1102  0.7040 -0.5634
  974SOL     OW14557   3.348   1.290   3.923  0.3596  0.5274  0.1189
  974SOL    HW114558   3.410   1.275   3.852 -0.5902  0.0466 -0.6106
  974SOL    HW214559   3.358   1.384   3.931 -4.0855  1.2187 -2.7025
  975SOL     OW14560   1.834   0.346   1.560  0.0805 -0.2449 -0.1250
  975SOL    HW114561   1.855   0.341   1.653 -0.1544  2.2106  0.0459
  975SOL    HW214562   1.773   0.420   1.560  0.7069  0.2753 -2.3232
  976SOL     OW14563   4.575   1.310   5.054 -0.1175 -0.2799 -0.0068
  976SOL    HW114564   4.544   1.368   5.124 -0.8391  0.4462 -0.9185
  976SOL    HW214565   4.487   1.274   5.044 -1.4830  2.9603  0.3567
  977SOL     OW14566   3.421   3.802  13.181  0.0376  0.1984 -0.8328
  977SOL    HW114567   3.359   3.738  13.149 -0.6704  1.1875 -1.4342
  977SOL    HW214568   3.458   3.758  13.258 -2.6395 -0.4912  0.0358
  978SOL     OW14569   1.566   1.300  16.906 -0.6878  0.1757 -0.5828
  978SOL    HW114570   1.560   1.386  16.946  1.7750 -0.0057  0.1231
  978SOL    HW214571   1.582   1.240  16.979  0.5542 -0.0333 -1.0362
  979SOL     OW14572   3.461   3.334  15.944 -0.3111 -0.0979  0.2517
  979SOL    HW114573   3.402   3.392  15.896  1.4118  0.3459 -1.3132
  979SOL    HW214574   3.449   3.249  15.901 -2.3994 -0.5987  1.8070
  980SOL     OW14575   2.235   2.170   6.256  0.3583  0.0151  0.0299
  980SOL    HW114576   2.277   2.214   6.182 -1.6627 -0.0406 -1.1479
  980SOL    HW214577   2.287   2.216   6.322  0.2491 -2.0282  1.5394
  981SOL     OW14578   3.134   0.818   2.584 -0.0705 -0.2420 -0.1063
  981SOL    HW114579   3.093   0.736   2.558 -1.8027  0.4787  0.3690
  981SOL    HW214580   3.084   0.841   2.662  1.9197 -4.8878  2.5013
  982SOL     OW14581   1.155   1.099   4.912  0.0722  0.1707  0.6571
  982SOL    HW114582   1.160   1.136   4.824  1.0154  0.7680  0.9589
  982SOL    HW214583   1.160   1.007   4.888  0.3741  0.8068 -1.7229
  983SOL     OW14584   0.758   2.627   3.841 -0.2124  0.5268  0.2994
  983SOL    HW114585   0.738   2.625   3.935  1.6812 -1.2211  0.6506
  983SOL    HW214586   0.730   2.715   3.816 -1.9185 -0.0243  0.3061
  984SOL     OW14587   3.788   0.535   7.663  0.4225  0.1572 -0.7137
  984SOL    HW114588   3.782   0.448   7.623  0.2920  0.1137 -0.6004
  984SOL    HW214589   3.752   0.589   7.592  0.4774 -1.9519 -2.3545
  985SOL     OW14590   1.586   4.034  10.721  0.3243 -0.5573 -0.2052
  985SOL    HW114591   1.521   4.043  10.651 -0.9348  1.2582  1.1996
  985SOL    HW214592   1.579   4.119  10.765  0.3415 -0.2387 -0.8151
  986SOL     OW14593   3.066   0.442   4.968 -0.5700  0.2006 -0.3605
  986SOL    HW114594   3.020   0.483   4.895 -0.4060 -0.2879 -0.7420
  986SOL    HW214595   3.144   0.493   4.986 -1.0148  0.9430 -0.5565
  987SOL     OW14596   3.071   4.111  13.223  0.3120  0.4207 -0.2960
  987SOL    HW114597   3.123   4.191  13.236  1.0134  0.1454 -1.3686
  987SOL    HW214598   3.061   4.115  13.128 -0.5624  2.5507 -0.1043
  988SOL     OW14599   2.113   3.481  12.112  0.2015  0.3001 -0.0510
  988SOL    HW114600   2.187   3.489  12.172 -0.5378  2.3436  0.5761
  988SOL    HW214601   2.108   3.386  12.099  0.0342  0.5181 -1.5183
  989SOL     OW14602   4.218   1.948  12.915  0.4244 -0.4714  0.2154
  989SOL    HW114603   4.163   1.911  12.983 -0.0546 -1.8402 -0.9108
  989SOL    HW214604   4.171   2.029  12.896  1.7755  0.5101  1.0114
  990SOL     OW14605   2.093   1.817   3.756 -0.2969 -0.3402 -0.2066
  990SOL    HW114606   2.180   1.776   3.761  0.5476  1.5190  0.3933
  990SOL    HW214607   2.077   1.852   3.668 -0.6177 -0.7049 -0.2935
  991SOL     OW14608   4.734   0.846   5.511 -0.1235  0.3790  0.2116
  991SOL    HW114609   4.704   0.864   5.422 -0.7801  0.2293  0.3985
  991SOL    HW214610   4.704   0.922   5.561 -2.9497 -0.8181  0.3433
  992SOL     OW14611   1.469   0.647   5.097 -0.2393  0.3036  0.0719
  992SOL    HW114612   1.423   0.730   5.084  0.5492  0.9451  1.4244
  992SOL    HW214613   1.550   0.672   5.142  0.2230  0.4803 -0.8521
  993SOL     OW14614   1.818   3.556   7.552  0.5501  0.2620  0.0692
  993SOL    HW114615   1.778   3.576   7.468  1.6626  3.0573  0.2001
  993SOL    HW214616   1.827   3.461   7.542 -2.2051 -0.0146  0.3622
  994SOL     OW14617   4.652   1.561  12.693  0.1961 -0.0647  0.3146
  994SOL    HW114618   4.564   1.579  12.725  0.1142  0.9677 -0.5160
  994SOL    HW214619   4.643   1.475  12.652 -1.7088 -0.0001  0.5942
  995SOL     OW14620   1.983   3.367   2.320 -0.2341 -0.1648 -0.3961
  995SOL    HW114621   2.038   3.445   2.316 -0.8610  0.2741 -0.5571
  995SOL    HW214622   2.008   3.334   2.406  0.6400  1.9494  0.1507
  996SOL     OW14623   1.395   3.533   4.431 -0.1355  0.7118 -0.7156
  996SOL    HW114624   1.440   3.485   4.500  2.5426  0.6571 -2.5023
  996SOL    HW214625   1.458   3.605   4.434  1.8175 -1.0067 -0.1249
  997SOL     OW14626   0.644   1.729   7.266 -0.1882 -0.3085  0.2334
  997SOL    HW114627   0.719   1.678   7.236  0.9772  1.0398  0.8295
  997SOL    HW214628   0.586   1.674   7.318  1.3597 -1.9767  0.2303
  998SOL     OW14629   3.383   0.053  10.896 -0.0934 -0.3426 -0.1492
  998SOL    HW114630   3.318   0.020  10.834 -1.4405  0.7471  0.6729
  998SOL    HW214631   3.426   0.115  10.837  0.8700 -1.3949 -0.5533
  999SOL     OW14632   1.858   4.682   3.586  0.2795 -0.0459  0.2145
  999SOL    HW114633   1.825   4.597   3.559  1.1614 -0.7375  1.2996
  999SOL    HW214634   1.785   0.005   3.566 -0.4634 -1.0153  0.0885
 1000SOL     OW14635   3.714   2.950   6.787  0.0176 -0.6818 -0.2401
 1000SOL    HW114636   3.773   2.886   6.827  0.9062 -0.3264 -0.9670
 1000SOL    HW214637   3.774   3.022   6.766 -1.6898  0.7176 -0.3030
 1001SOL     OW14638   1.242   0.302   6.678  0.1903  0.1472 -0.3155
 1001SOL    HW114639   1.161   0.298   6.729 -0.0224 -1.7936 -0.8177
 1001SOL    HW214640   1.204   0.314   6.590 -1.2750 -1.1853  0.1414
 1002SOL     OW14641   0.971   2.495   7.423  0.3656  0.7376  0.0220
 1002SOL    HW114642   0.942   2.409   7.392  0.6495  0.9424 -0.8112
 1002SOL    HW214643   1.045   2.520   7.368  0.5868 -2.7924 -1.3067
 1003SOL     OW14644   3.511   0.682   2.054 -0.4537  0.2601  0.4665
 1003SOL    HW114645   3.461   0.757   2.085 -1.9864 -0.3734 -0.4268
 1003SOL    HW214646   3.493   0.691   1.960 -1.1395 -0.0892  0.5591
 1004SOL     OW14647   3.378   3.227   0.947  0.2323  0.3165 -0.3694
 1004SOL    HW114648   3.471   3.214   0.930 -0.1357 -2.2519 -0.2939
 1004SOL    HW214649   3.344   3.140   0.967  0.2391  0.2752 -0.5393
 1005SOL     OW14650   2.270   2.897   3.405 -0.0130  0.1771  0.0286
 1005SOL    HW114651   2.347   2.847   3.432  0.2308  0.6512  0.2024
 1005SOL    HW214652   2.286   2.922   3.314 -3.1326 -0.8144 -0.7822
 1006SOL     OW14653   3.060   4.547   1.298 -0.6204 -0.4754  0.7541
 1006SOL    HW114654   3.154   4.531   1.306 -0.6681 -1.4839 -0.6155
 1006SOL    HW214655   3.047   4.580   1.386  0.3849  4.5531 -0.9786
 1007SOL     OW14656   3.229   4.506   6.124 -0.5009 -0.0160 -0.1083
 1007SOL    HW114657   3.237   4.595   6.159 -2.2202 -0.2773  0.9162
 1007SOL    HW214658   3.168   4.521   6.052  0.7727  1.0758 -0.9602
 1008SOL     OW14659   0.031   3.091   8.962  1.3148  0.3559 -0.2288
 1008SOL    HW114660   4.704   3.033   9.005  2.5625  0.9324  2.3927
 1008SOL    HW214661   0.007   3.183   8.973 -1.0126 -0.1999 -0.6634
 1009SOL     OW14662   2.910   1.239   7.607  0.5297 -0.0457 -0.4166
 1009SOL    HW114663   2.859   1.218   7.529 -0.3110  1.4630 -0.2662
 1009SOL    HW214664   2.861   1.317   7.634  2.4912  1.3721 -0.9304
 1010SOL     OW14665   3.306   4.468  13.229 -0.5032  0.0018 -0.4452
 1010SOL    HW114666   3.369   4.540  13.228  0.3713 -0.7556  0.7315
 1010SOL    HW214667   3.354   4.390  13.256  0.4021  0.8495  0.3687
 1011SOL     OW14668   2.167   0.054   5.946 -0.1964  0.4068  0.3012
 1011SOL    HW114669   2.233   4.729   5.976  0.5273  1.4320  0.7759
 1011SOL    HW214670   2.221   0.100   5.881  0.6035  0.0941  0.7502
 1012SOL     OW14671   0.081   0.999   7.581  0.1647 -0.4881 -0.7333
 1012SOL    HW114672   0.024   1.055   7.528  1.2253  0.6194 -0.6946
 1012SOL    HW214673   0.150   1.050   7.622 -1.0211  0.7074 -0.2192
 1013SOL     OW14674   1.586   2.007   7.087 -0.0971 -0.1012  0.0845
 1013SOL    HW114675   1.532   1.950   7.032  1.4160  0.0772 -1.5721
 1013SOL    HW214676   1.552   1.978   7.172 -0.1801  1.0004  0.4301
 1014SOL     OW14677   3.065   4.025   7.189 -0.1568 -0.2371  0.4566
 1014SOL    HW114678   3.048   3.942   7.234  0.4473 -0.5680  0.0847
 1014SOL    HW214679   3.082   4.000   7.098 -2.0932  1.4955 -0.3657
 1015SOL     OW14680   2.930   3.084   3.472 -0.3364 -0.4209  0.1566
 1015SOL    HW114681   2.996   3.038   3.525 -0.2739 -2.6427 -1.8396
 1015SOL    HW214682   2.959   3.071   3.382 -0.2342  0.3206  0.0881
 1016SOL     OW14683   3.123   2.177   7.997 -0.3219  0.7128 -0.3568
 1016SOL    HW114684   3.080   2.092   7.984  1.5774 -0.2671 -0.2872
 1016SOL    HW214685   3.056   2.235   7.960  0.4184  1.7332 -0.0905
 1017SOL     OW14686   3.336   0.688   1.664  0.0240  0.1831 -0.5011
 1017SOL    HW114687   3.358   0.771   1.705  0.0668  0.6238 -1.4085
 1017SOL    HW214688   3.322   0.630   1.738  0.4199  1.8849  0.8958
 1018SOL     OW14689   3.567   4.054   5.959  0.2114  0.0699 -0.2451
 1018SOL    HW114690   3.576   4.026   6.050  1.1844  1.2961  0.0361
 1018SOL    HW214691   3.638   4.117   5.946  1.1142 -0.8566  0.1859
 1019SOL     OW14692   2.731   1.835   1.697  0.2544 -0.4873 -0.4732
 1019SOL    HW114693   2.757   1.782   1.773 -1.8829  2.1492  2.0942
 1019SOL    HW214694   2.660   1.778   1.667  1.3388 -1.5168 -1.0760
 1020SOL     OW14695   0.800   1.529   6.647  0.8570 -0.3521 -0.0229
 1020SOL    HW114696   0.866   1.464   6.672 -0.0897 -1.1611  0.3637
 1020SOL    HW214697   0.820   1.594   6.714 -0.2951  1.0206 -0.9999
 1021SOL     OW14698   1.979   2.205   5.667 -0.4511 -0.3428 -0.3166
 1021SOL    HW114699   1.887   2.181   5.653 -0.6844  0.0946  0.4487
 1021SOL    HW214700   1.978   2.242   5.755  1.4805 -4.3284  1.3633
 1022SOL     OW14701   2.820   2.517   3.011  0.3419  0.4337  0.4221
 1022SOL    HW114702   2.911   2.497   2.986 -0.4779 -0.0316 -2.1539
 1022SOL    HW214703   2.830   2.596   3.064 -0.4297  1.1570 -0.5112
 1023SOL     OW14704   4.073   0.512   6.101  0.1036  0.3106 -0.0277
 1023SOL    HW114705   4.029   0.596   6.111 -0.4694  0.0373 -0.1986
 1023SOL    HW214706   4.015   0.484   6.029 -1.9148  0.7810  1.4087
 1024SOL     OW14707   3.570   3.617   8.840  0.4719  0.3361  0.5006
 1024SOL    HW114708   3.603   3.645   8.925 -0.6696  1.4007  0.5946
 1024SOL    HW214709   3.518   3.542   8.870 -1.2893  1.2244 -0.3251
 1025SOL     OW14710   3.731   4.242  15.617  0.2299  0.7676  0.0030
 1025SOL    HW114711   3.792   4.288  15.559  1.2997 -2.1453 -1.2022
 1025SOL    HW214712   3.674   4.315  15.641  0.5209  1.0390 -0.1352
 1026SOL     OW14713   3.525   3.322   7.999 -0.1522 -0.4435  0.1870
 1026SOL    HW114714   3.443   3.275   7.980 -1.4605  1.9433 -0.1283
 1026SOL    HW214715   3.572   3.262   8.057 -1.3113 -1.4220  0.1253
 1027SOL     OW14716   3.986   2.315   6.776 -0.4478  0.2493  0.2002
 1027SOL    HW114717   3.957   2.405   6.790 -0.3386  0.5832 -1.8603
 1027SOL    HW214718   4.081   2.328   6.782 -0.6986  3.0978 -2.1939
 1028SOL     OW14719   2.491   3.569   3.248 -0.0813 -0.4467 -0.3701
 1028SOL    HW114720   2.447   3.626   3.311  1.7108  0.0082  0.4376
 1028SOL    HW214721   2.453   3.485   3.274 -0.2626 -0.2361  0.0357
 1029SOL     OW14722   4.646   4.458   3.250  0.3061 -0.3111 -0.2184
 1029SOL    HW114723   4.583   4.393   3.281  0.1181 -0.9139 -1.8649
 1029SOL    HW214724   4.651   4.505   3.333  0.5036  0.8029 -0.8465
 1030SOL     OW14725   4.598   0.787   4.453  0.6435  0.3561 -0.7864
 1030SOL    HW114726   4.632   0.856   4.510 -1.2982  0.9407 -0.3344
 1030SOL    HW214727   4.683   0.744   4.440  0.8501 -0.0771  2.0610
 1031SOL     OW14728   0.304   0.050   3.236 -0.1159 -0.4803 -0.1176
 1031SOL    HW114729   0.297   0.126   3.178  1.8039 -0.2811 -0.0892
 1031SOL    HW214730   0.348   4.727   3.175 -0.5360 -0.6052 -0.3010
 1032SOL     OW14731   4.731   1.832   9.093  0.3536 -0.4425 -0.1457
 1032SOL    HW114732   0.063   1.804   9.032  0.7241 -1.4276  0.7210
 1032SOL    HW214733   4.675   1.755   9.100 -1.4431  0.8617 -0.0352
 1033SOL     OW14734   2.061   0.174  10.757 -0.6941 -0.0145  0.2666
 1033SOL    HW114735   2.110   0.137  10.830 -0.6836  3.2235  1.9083
 1033SOL    HW214736   1.990   0.110  10.757 -0.2505 -0.5059  0.0568
 1034SOL     OW14737   3.219   2.668   7.461  0.3664 -0.3147 -0.2444
 1034SOL    HW114738   3.263   2.737   7.511 -1.0427  0.1095  0.3857
 1034SOL    HW214739   3.295   2.613   7.442  0.1115 -1.4198  1.9983
 1035SOL     OW14740   1.932   1.036   5.470 -0.0437  0.0613 -0.3573
 1035SOL    HW114741   1.919   1.041   5.376  0.4234 -2.1745 -0.5552
 1035SOL    HW214742   1.843   1.020   5.503  0.3215  1.1308  1.1721
 1036SOL     OW14743   3.172   2.058  12.684  1.4930  0.0186  0.4876
 1036SOL    HW114744   3.149   2.114  12.609  1.1393  0.1829  0.7158
 1036SOL    HW214745   3.262   2.033  12.661  0.8038 -0.7440 -1.4117
 1037SOL     OW14746   3.042   0.836   6.487 -0.7080  0.4770 -0.0724
 1037SOL    HW114747   3.119   0.891   6.502 -1.8398  1.6481  1.4215
 1037SOL    HW214748   3.034   0.810   6.579 -1.0075 -1.6627 -0.6889
 1038SOL     OW14749   0.898   1.633   5.976 -0.2693 -1.1005 -0.2740
 1038SOL    HW114750   0.949   1.567   6.023  1.3902  0.4897  0.1580
 1038SOL    HW214751   0.925   1.711   6.026 -1.8547 -0.2461 -0.7498
 1039SOL     OW14752   2.285   2.581   3.760 -0.0342 -0.4086 -0.3300
 1039SOL    HW114753   2.218   2.648   3.770  0.8130 -0.0405  2.7819
 1039SOL    HW214754   2.295   2.548   3.850 -1.0906 -0.8763 -0.3804
 1040SOL     OW14755   4.675   0.389   3.673  0.2830  0.3613 -0.1639
 1040SOL    HW114756   4.586   0.360   3.651  0.6306 -1.5843  0.9654
 1040SOL    HW214757   4.672   0.341   3.756 -0.7204 -0.1686 -0.5123
 1041SOL     OW14758   1.496   4.257  12.879 -0.3776  0.4956  0.6008
 1041SOL    HW114759   1.479   4.350  12.862 -0.5713  0.5525  1.1096
 1041SOL    HW214760   1.465   4.214  12.799 -0.9894  0.4979  0.8401
 1042SOL     OW14761   0.783   0.014  12.954  1.1045  0.2378 -0.2030
 1042SOL    HW114762   0.732   4.713  13.026  0.0811 -1.2026 -1.6795
 1042SOL    HW214763   0.863   0.034  13.003  1.5337 -0.3344 -0.6685
 1043SOL     OW14764   2.339   3.197   6.844  0.1983 -0.1755 -0.1480
 1043SOL    HW114765   2.258   3.182   6.797  0.9877  0.6366 -1.7826
 1043SOL    HW214766   2.395   3.125   6.814 -1.8509 -1.6472 -0.4019
 1044SOL     OW14767   0.681   1.482   6.284 -0.2360 -0.8684  0.0930
 1044SOL    HW114768   0.590   1.473   6.257  0.7949 -0.3070 -3.5242
 1044SOL    HW214769   0.669   1.574   6.310 -1.1822 -1.1204  0.5329
 1045SOL     OW14770   0.083   4.393   5.749 -1.4190 -0.4474 -0.2337
 1045SOL    HW114771   0.067   4.424   5.659 -0.3965 -0.3320 -0.3723
 1045SOL    HW214772   0.011   4.330   5.753 -0.7259 -1.2398 -0.3539
 1046SOL     OW14773   3.728   3.786   5.427  0.5262  0.9512 -0.0007
 1046SOL    HW114774   3.684   3.744   5.501 -0.6227 -0.1421 -1.2909
 1046SOL    HW214775   3.699   3.877   5.431 -2.9164 -0.0200 -1.8505
 1047SOL     OW14776   3.111   3.395  11.653  0.0136  0.0404  0.0939
 1047SOL    HW114777   3.158   3.362  11.730  2.4771 -0.1089 -1.4958
 1047SOL    HW214778   3.159   3.372  11.574  0.7750 -2.5950  1.3070
 1048SOL     OW14779   2.177   3.717  12.843 -0.4267  0.6954  0.0210
 1048SOL    HW114780   2.104   3.711  12.906  0.1348  2.7549  0.8562
 1048SOL    HW214781   2.128   3.709  12.761 -0.0324 -2.8896  0.1170
 1049SOL     OW14782   2.428   3.272   2.931 -0.4584 -0.0041  0.4095
 1049SOL    HW114783   2.471   3.189   2.952 -0.0277 -0.1819 -1.1749
 1049SOL    HW214784   2.475   3.327   2.993  1.3207 -0.4753 -0.5378
 1050SOL     OW14785   1.425   0.468   2.721 -0.3541  0.0610  0.8982
 1050SOL    HW114786   1.503   0.434   2.677 -0.3787  0.9166  0.1927
 1050SOL    HW214787   1.388   0.523   2.652  1.4137 -0.5781 -0.5709
 1051SOL     OW14788   3.126   0.099  11.321  0.2891  0.4587  0.1786
 1051SOL    HW114789   3.080   0.148  11.253  0.0471 -1.7811 -1.2824
 1051SOL    HW214790   3.050   0.061  11.365  0.7088 -2.1322 -1.2869
 1052SOL     OW14791   4.578   2.966   4.340 -0.4304 -0.3631 -0.3513
 1052SOL    HW114792   4.634   2.889   4.345  0.3084  0.2161  0.1257
 1052SOL    HW214793   4.623   3.033   4.391 -2.5867  1.4615 -0.8011
 1053SOL     OW14794   4.513   3.136   2.080  0.3279 -0.7806 -0.1695
 1053SOL    HW114795   4.463   3.061   2.047  1.2832 -1.9464  1.0470
 1053SOL    HW214796   4.597   3.119   2.038 -1.4122 -1.5829 -3.3518
 1054SOL     OW14797   2.514   3.283   6.202  0.2866 -0.3238  0.0057
 1054SOL    HW114798   2.483   3.304   6.113 -0.5034  0.5243  0.4847
 1054SOL    HW214799   2.606   3.310   6.204  0.3360 -0.5351  0.4240
 1055SOL     OW14800   2.791   2.128   4.508  0.0714  0.6115 -0.0169
 1055SOL    HW114801   2.827   2.196   4.450 -1.5884  1.1351 -0.4300
 1055SOL    HW214802   2.866   2.070   4.518 -0.7025 -0.5427 -0.9790
 1056SOL     OW14803   2.704   3.346   3.088  0.1814  0.2422 -0.2001
 1056SOL    HW114804   2.787   3.387   3.064  0.4556  0.1059  0.5224
 1056SOL    HW214805   2.731   3.294   3.164 -1.9761  2.6475  2.2068
 1057SOL     OW14806   0.124   2.134   5.602  0.3482  0.2077 -0.3236
 1057SOL    HW114807   0.124   2.198   5.673 -2.4941 -1.1056  0.8668
 1057SOL    HW214808   0.066   2.169   5.534  0.6610 -1.0623 -1.2524
 1058SOL     OW14809   2.731   0.237   7.982  0.1578  0.2939  0.5155
 1058SOL    HW114810   2.652   0.187   7.999 -1.7804  3.1219 -0.1173
 1058SOL    HW214811   2.713   0.258   7.890 -0.2060 -0.7310  0.3626
 1059SOL     OW14812   2.524   2.101   9.831  0.0235  0.1410 -0.0292
 1059SOL    HW114813   2.440   2.067   9.860  0.1881  0.2981  0.6358
 1059SOL    HW214814   2.574   2.097   9.913  0.5931  1.5296 -0.3159
 1060SOL     OW14815   2.967   1.730   9.144  0.3599 -0.2846  0.0700
 1060SOL    HW114816   2.920   1.667   9.199  0.8140 -2.6309 -2.2346
 1060SOL    HW214817   3.055   1.704   9.169  0.6867  0.8553  0.1091
 1061SOL     OW14818   1.603   0.094  11.641 -0.4316  0.1288  0.1318
 1061SOL    HW114819   1.673   0.062  11.697  0.0531 -0.0697 -0.5904
 1061SOL    HW214820   1.592   0.185  11.670 -1.7740 -0.6771  2.1054
 1062SOL     OW14821   0.945   4.206  11.620 -0.1268 -0.0971 -0.1688
 1062SOL    HW114822   0.883   4.146  11.579  1.0068 -0.7789 -0.8887
 1062SOL    HW214823   0.990   4.248  11.548  0.2590 -2.1899 -1.1635
 1063SOL     OW14824   3.354   2.811   6.794 -0.8353  0.9371  0.2516
 1063SOL    HW114825   3.349   2.717   6.774  1.1089  1.1860 -1.4252
 1063SOL    HW214826   3.262   2.830   6.813 -0.7452  0.5240  1.1250
 1064SOL     OW14827   0.162   0.482   4.119  0.1472 -0.3173 -0.0659
 1064SOL    HW114828   0.147   0.422   4.193  0.1112  0.6281  0.7013
 1064SOL    HW214829   0.258   0.488   4.114  0.1977 -1.5478 -0.7131
 1065SOL     OW14830   0.951   4.498   1.989 -0.6280  0.1252 -0.2277
 1065SOL    HW114831   1.017   4.519   1.922 -1.5812 -1.8198 -1.7871
 1065SOL    HW214832   0.867   4.514   1.946 -1.7133 -0.2196  1.7987
 1066SOL     OW14833   3.544   3.951  16.923 -0.0869  0.1910  1.0581
 1066SOL    HW114834   3.565   3.945  16.830 -1.9124  0.5805  0.6156
 1066SOL    HW214835   3.451   3.970  16.906 -0.0517  0.1076  0.7792
 1067SOL     OW14836   2.355   0.724   4.918  0.3248  0.7826 -0.4419
 1067SOL    HW114837   2.298   0.647   4.926 -1.3407  1.9208 -1.5571
 1067SOL    HW214838   2.430   0.686   4.871  0.3459 -0.0665  0.2743
 1068SOL     OW14839   0.400   0.136  17.692 -0.3369 -0.2518  0.8220
 1068SOL    HW114840   0.423   0.078  17.620  1.1284 -0.9707  1.8739
 1068SOL    HW214841   0.441   0.082   0.016 -0.3890  0.7369  1.6536
 1069SOL     OW14842   3.364   3.837  10.781  0.5262  0.9373  0.7712
 1069SOL    HW114843   3.418   3.836  10.703  0.0648  1.4317  0.4433
 1069SOL    HW214844   3.333   3.928  10.782 -0.7573  0.5285 -1.3669
 1070SOL     OW14845   3.280   3.970   4.328 -0.0984  0.5218  0.8712
 1070SOL    HW114846   3.370   3.942   4.311 -0.1707  1.5908 -1.1862
 1070SOL    HW214847   3.275   4.002   4.418 -2.8442  0.8604  0.6100
 1071SOL     OW14848   3.471   0.144   2.307  0.1983 -0.0185 -0.1396
 1071SOL    HW114849   3.425   0.092   2.241 -1.2144 -0.2307  1.0124
 1071SOL    HW214850   3.427   0.224   2.279  0.0260 -1.1614 -3.1697
 1072SOL     OW14851   1.059   3.862   4.811  0.3058  0.0944  0.2648
 1072SOL    HW114852   1.032   3.951   4.832 -0.2214 -0.0016 -0.0120
 1072SOL    HW214853   1.149   3.855   4.844  0.4745 -2.0997 -0.6450
 1073SOL     OW14854   4.097   3.402   4.889 -0.5159 -0.1662  0.0848
 1073SOL    HW114855   4.079   3.316   4.852 -0.5328 -0.2043  0.1832
 1073SOL    HW214856   4.120   3.377   4.978  2.4621  0.4192 -0.5112
 1074SOL     OW14857   1.757   1.338   5.550  0.5532  0.1565 -0.1967
 1074SOL    HW114858   1.706   1.305   5.476 -2.4186  0.5942  1.6800
 1074SOL    HW214859   1.831   1.376   5.501 -0.7364  2.0509 -0.6670
 1075SOL     OW14860   3.875   2.771   5.537  0.3867  0.3070  0.0705
 1075SOL    HW114861   3.798   2.820   5.507  0.3813  0.6229  0.5968
 1075SOL    HW214862   3.879   2.801   5.628 -0.6430  0.1572  0.1595
 1076SOL     OW14863   1.977   2.422   4.285  0.5597  0.0236 -0.3533
 1076SOL    HW114864   1.949   2.406   4.375 -0.3007  0.2077 -0.5821
 1076SOL    HW214865   2.072   2.422   4.293  0.4623  0.7046  0.8696
 1077SOL     OW14866   3.415   0.425   3.710 -0.5145  0.3746 -0.5035
 1077SOL    HW114867   3.377   0.442   3.624 -0.7524  1.1680 -0.2326
 1077SOL    HW214868   3.505   0.409   3.680 -0.3756  0.7687 -0.2974
 1078SOL     OW14869   1.758   2.262   9.852 -0.2983 -0.1895  0.0614
 1078SOL    HW114870   1.704   2.240   9.928  1.5411 -0.0286  1.4081
 1078SOL    HW214871   1.843   2.275   9.895  0.4720 -0.8129 -1.2609
 1079SOL     OW14872   3.681   0.626   9.757 -0.0425 -0.4265 -0.1585
 1079SOL    HW114873   3.589   0.652   9.755 -0.4525 -1.6347  2.5021
 1079SOL    HW214874   3.717   0.714   9.757 -0.7923 -0.1312 -2.2401
 1080SOL     OW14875   0.617   0.088   2.429  0.4985 -0.5339 -0.2659
 1080SOL    HW114876   0.651   0.142   2.500  2.8718  0.1831 -1.9324
 1080SOL    HW214877   0.609   0.004   2.473  1.7890  1.0181  2.8696
 1081SOL     OW14878   3.055   4.485  13.048  0.1880 -0.0865  0.1240
 1081SOL    HW114879   3.105   4.453  13.123  2.0484  0.0420 -1.0683
 1081SOL    HW214880   3.060   4.415  12.983 -0.1339 -0.7952  0.8626
 1082SOL     OW14881   0.226   2.204   4.755 -0.0463  0.2301  0.5271
 1082SOL    HW114882   0.170   2.195   4.678  0.9927 -0.6576 -0.1108
 1082SOL    HW214883   0.167   2.214   4.829  0.2466  2.0297  0.5138
 1083SOL     OW14884   3.916   4.701   1.894 -0.1437 -0.1128  0.0728
 1083SOL    HW114885   3.870   4.617   1.898 -0.0707 -0.1835 -0.5947
 1083SOL    HW214886   3.848   0.032   1.889  1.4909  1.5327 -0.1416
 1084SOL     OW14887   2.451   1.917   4.996  0.1218 -0.3199  0.2668
 1084SOL    HW114888   2.542   1.896   4.977 -0.2239 -1.5768 -0.0144
 1084SOL    HW214889   2.453   2.013   4.986  0.9230 -0.2511  1.1603
 1085SOL     OW14890   1.782   0.152   4.442  0.1406  0.7197 -0.2646
 1085SOL    HW114891   1.845   0.177   4.375  1.5563 -0.5461  0.5987
 1085SOL    HW214892   1.698   0.156   4.396  1.1844  0.3025 -2.1889
 1086SOL     OW14893   0.210   1.899   6.760 -0.1852 -0.1994 -0.3836
 1086SOL    HW114894   0.284   1.960   6.755 -0.0287 -0.5045 -1.8116
 1086SOL    HW214895   0.250   1.824   6.715 -0.1794 -0.1731 -0.4220
 1087SOL     OW14896   3.208   3.225   2.501  0.0724  0.0302  0.3656
 1087SOL    HW114897   3.277   3.160   2.516  0.3971  0.5131  0.9485
 1087SOL    HW214898   3.215   3.234   2.406  0.5165  0.6470  0.4562
 1088SOL     OW14899   0.637   0.901   8.703  0.6550  0.4926 -0.4764
 1088SOL    HW114900   0.594   0.913   8.788 -1.7039 -0.4021 -1.5704
 1088SOL    HW214901   0.617   0.975   8.646 -0.9234 -1.8527 -2.9436
 1089SOL     OW14902   1.571   3.046   2.544  0.8274 -0.6772 -0.1777
 1089SOL    HW114903   1.621   2.990   2.604 -0.0533 -0.0037  1.1640
 1089SOL    HW214904   1.630   3.117   2.519 -1.4961  1.0303 -0.8190
 1090SOL     OW14905   0.328   2.167   8.453 -0.3932  0.0338 -0.1115
 1090SOL    HW114906   0.310   2.113   8.376  2.0489  0.1137 -0.7371
 1090SOL    HW214907   0.293   2.242   8.404 -0.0727 -0.3653 -0.9506
 1091SOL     OW14908   1.829   3.828  13.936  0.0998  0.3860 -0.1451
 1091SOL    HW114909   1.882   3.749  13.936  1.4295  1.2809  1.2611
 1091SOL    HW214910   1.883   3.880  13.875 -0.5804  3.8454  2.1899
 1092SOL     OW14911   3.852   1.573   0.562  0.2974 -0.6646 -0.4010
 1092SOL    HW114912   3.872   1.505   0.626 -2.3223  1.0044  2.2249
 1092SOL    HW214913   3.769   1.539   0.528 -0.6895  2.2062 -0.8290
 1093SOL     OW14914   3.300   0.601   5.702 -0.2700  0.4112  0.7223
 1093SOL    HW114915   3.322   0.587   5.609  0.5628  0.6310  0.8830
 1093SOL    HW214916   3.301   0.696   5.695  0.5716  0.2366 -1.5724
 1094SOL     OW14917   3.325   2.582   5.193  0.5015  0.0328 -0.0305
 1094SOL    HW114918   3.402   2.550   5.146 -0.1620  0.5156 -1.4681
 1094SOL    HW214919   3.368   2.637   5.257  1.8110 -1.7329  0.5899
 1095SOL     OW14920   2.254   0.798   2.379 -0.1523 -0.2417 -0.0655
 1095SOL    HW114921   2.295   0.828   2.298  0.6791  0.2349  0.5333
 1095SOL    HW214922   2.261   0.871   2.440 -1.9338  0.0297 -0.1823
 1096SOL     OW14923   4.182   1.071   9.679  0.1741 -0.2466 -0.5856
 1096SOL    HW114924   4.186   0.998   9.617 -0.8385 -0.0517 -0.8950
 1096SOL    HW214925   4.168   1.023   9.760 -0.1453  2.9676  1.2597
 1097SOL     OW14926   0.864   0.110   6.527 -0.2529  0.1195 -0.2741
 1097SOL    HW114927   0.803   0.064   6.469 -1.0304 -1.1627  1.5376
 1097SOL    HW214928   0.843   0.203   6.517  2.3760  0.8583  1.0398
 1098SOL     OW14929   1.566   4.615   5.570  0.2904  0.3492  0.4905
 1098SOL    HW114930   1.588   4.694   5.619  0.3740  0.5396  0.1484
 1098SOL    HW214931   1.504   4.576   5.632  0.8480  1.1294  1.5330
 1099SOL     OW14932   3.380   0.028   8.640 -1.0977 -0.2294  0.1383
 1099SOL    HW114933   3.449   0.094   8.645 -0.1544 -1.3070  1.4437
 1099SOL    HW214934   3.396   4.724   8.554 -0.1073 -0.2873  0.3493
 1100SOL     OW14935   1.996   0.384   4.653  0.3735 -0.0538  0.3107
 1100SOL    HW114936   2.067   0.340   4.607  0.1981  0.6737 -0.6389
 1100SOL    HW214937   1.986   0.474   4.623  0.3381 -0.6424 -1.4283
 1101SOL     OW14938   3.536   2.250   2.807 -1.0977 -0.2456  0.0744
 1101SOL    HW114939   3.460   2.268   2.751 -0.5768  0.1154 -0.5125
 1101SOL    HW214940   3.504   2.168   2.844  0.8420 -0.9780  0.1125
 1102SOL     OW14941   4.722   0.468   8.855  0.4425  0.3377  0.2281
 1102SOL    HW114942   4.655   0.493   8.791  1.3385  1.6194 -0.2061
 1102SOL    HW214943   4.674   0.504   8.930  0.0292 -0.1211  0.1850
 1103SOL     OW14944   1.107   1.347  15.393 -0.0825  0.5557  0.1953
 1103SOL    HW114945   1.196   1.360  15.426 -0.0731 -1.9153  1.1956
 1103SOL    HW214946   1.075   1.437  15.390 -0.2538  0.4959  0.2555
 1104SOL     OW14947   0.678   2.308   2.464  0.1664  0.2107 -0.2082
 1104SOL    HW114948   0.644   2.318   2.375  0.4956 -0.9259 -0.4643
 1104SOL    HW214949   0.763   2.268   2.443 -0.8946 -2.3224  0.3362
 1105SOL     OW14950   2.583   3.922   9.108  0.3395  0.1546  0.3307
 1105SOL    HW114951   2.644   3.935   9.180 -0.8395  0.7377  1.2170
 1105SOL    HW214952   2.528   3.997   9.127 -1.3377 -1.3759  1.5230
 1106SOL     OW14953   1.242   1.162   5.188 -0.1232  0.0889  0.2861
 1106SOL    HW114954   1.277   1.102   5.255 -1.0862  1.6882  2.2298
 1106SOL    HW214955   1.254   1.105   5.112 -0.5495 -0.3967  0.5752
 1107SOL     OW14956   1.848   1.430   9.199  0.3101 -0.4631 -0.3140
 1107SOL    HW114957   1.830   1.337   9.211  1.6928 -0.4355  1.9804
 1107SOL    HW214958   1.854   1.460   9.290  1.4266  0.4007 -0.6816
 1108SOL     OW14959   0.323   2.481   6.695 -0.5333 -0.3011 -0.1141
 1108SOL    HW114960   0.324   2.526   6.780  2.0185  1.0652 -0.8530
 1108SOL    HW214961   0.284   2.545   6.636  0.1291  0.3099  0.1176
 1109SOL     OW14962   3.682   4.599   0.715  0.4842 -0.4204  0.5488
 1109SOL    HW114963   3.659   4.692   0.714 -0.9129 -0.7480  1.9003
 1109SOL    HW214964   3.607   4.547   0.685  1.1210 -0.5086 -0.8816
 1110SOL     OW14965   3.560   0.846   6.109  0.4903  0.6785  0.5455
 1110SOL    HW114966   3.478   0.812   6.146  0.6716  0.0379  0.3655
 1110SOL    HW214967   3.617   0.774   6.138  3.2287  1.6787 -2.4077
 1111SOL     OW14968   3.148   3.164   2.916  0.1163 -0.1616  0.0424
 1111SOL    HW114969   3.103   3.085   2.886 -0.7230  0.2113  0.3069
 1111SOL    HW214970   3.105   3.233   2.866 -2.2698 -0.7813  1.2540
 1112SOL     OW14971   1.336   0.300   4.416 -0.1285 -0.5078  0.1210
 1112SOL    HW114972   1.350   0.384   4.460 -0.4055  0.5765 -1.8825
 1112SOL    HW214973   1.271   0.255   4.470 -0.2207 -0.1918  0.2744
 1113SOL     OW14974   0.908   2.616   0.320 -0.1540 -0.2274 -0.2552
 1113SOL    HW114975   0.857   2.686   0.279 -2.6746 -1.2286  1.1657
 1113SOL    HW214976   0.975   2.667   0.365  0.3610 -2.1567  1.1708
 1114SOL     OW14977   1.053   2.446   7.994  0.5929 -0.4285  0.1434
 1114SOL    HW114978   1.012   2.516   8.045 -1.0178 -1.2388 -0.0476
 1114SOL    HW214979   1.118   2.496   7.945 -2.0232  2.5737 -0.1834
 1115SOL     OW14980   0.709   0.832   7.645  0.2460  0.0949 -0.1145
 1115SOL    HW114981   0.798   0.834   7.681  1.6057 -2.8437 -3.3500
 1115SOL    HW214982   0.696   0.740   7.622  0.7177  0.2759 -1.0817
 1116SOL     OW14983   3.989   3.799   1.734  0.3834 -0.3950  0.4627
 1116SOL    HW114984   4.063   3.858   1.719  0.0955  0.5132  2.4636
 1116SOL    HW214985   4.023   3.710   1.735  0.9671 -0.1755 -2.7681
 1117SOL     OW14986   3.040   3.976   8.446  0.3242  0.1121  0.2847
 1117SOL    HW114987   3.104   3.949   8.511  0.8520  0.3380 -0.1449
 1117SOL    HW214988   3.104   3.971   8.375 -1.1734 -1.7021 -0.9474
 1118SOL     OW14989   0.364   0.375   4.324  0.3819  0.0123 -0.1377
 1118SOL    HW114990   0.277   0.335   4.331  1.0460 -1.2880  0.8112
 1118SOL    HW214991   0.345   0.467   4.342 -1.3827 -0.2716 -0.5554
 1119SOL     OW14992   4.132   1.624   2.931  0.4410  0.2213  0.1466
 1119SOL    HW114993   4.147   1.624   2.837 -0.9628 -0.9587 -0.0853
 1119SOL    HW214994   4.037   1.630   2.932  0.3993 -0.3611 -0.0008
 1120SOL     OW14995   0.781   2.497   7.872  0.2777 -0.3478 -0.4656
 1120SOL    HW114996   0.874   2.494   7.853  0.0289 -0.5573 -1.6887
 1120SOL    HW214997   0.755   2.488   7.780  1.5910  1.2237 -0.9794
 1121SOL     OW14998   0.727   3.758   8.186  0.5032  0.2885  0.1211
 1121SOL    HW114999   0.682   3.706   8.119 -0.1195 -0.0029  0.7634
 1121SOL    HW215000   0.706   3.700   8.259  0.5019  1.6371  1.1936
 1122SOL     OW15001   2.392   3.456   6.837  0.2254 -0.6267 -0.0770
 1122SOL    HW115002   2.361   3.368   6.860 -0.3336  0.5268  3.5146
 1122SOL    HW215003   2.312   3.507   6.832  0.4491 -0.5679 -3.2043
 1123SOL     OW15004   0.335   4.507  17.266  0.4072  0.6710  0.6606
 1123SOL    HW115005   0.272   4.579  17.274  0.6808  0.9600  0.1959
 1123SOL    HW215006   0.381   4.520  17.183  0.7969 -0.0506  0.7646
 1124SOL     OW15007   2.137   4.502   8.251  0.4730 -0.1788 -0.2450
 1124SOL    HW115008   2.189   4.568   8.297  0.1466  0.5071 -0.8658
 1124SOL    HW215009   2.093   4.458   8.324  0.6213 -1.5640 -1.0026
 1125SOL     OW15010   0.224   2.565   1.753  0.1897  0.0154 -0.5028
 1125SOL    HW115011   0.187   2.651   1.774 -0.7759  0.5103 -4.3147
 1125SOL    HW215012   0.318   2.575   1.767  0.8979 -3.6557 -2.6331
 1126SOL     OW15013   1.303   0.178   6.338  0.0546  0.1668 -0.2201
 1126SOL    HW115014   1.249   0.107   6.372 -0.0370  0.4249  0.1720
 1126SOL    HW215015   1.380   0.163   6.393  0.0440 -1.7105 -0.7116
 1127SOL     OW15016   2.814   3.050   9.203  0.1520 -0.3139  0.4795
 1127SOL    HW115017   2.734   3.096   9.228 -0.1681 -0.8071  0.3462
 1127SOL    HW215018   2.789   3.054   9.111  1.0860 -2.5209  0.1428
 1128SOL     OW15019   3.818   3.338  11.282 -0.2454 -0.4449  0.3027
 1128SOL    HW115020   3.808   3.248  11.252 -1.9140 -0.1116 -0.1283
 1128SOL    HW215021   3.914   3.340  11.285 -0.2128 -0.1061 -0.7258
 1129SOL     OW15022   3.667   3.078   2.933  0.2908 -0.4445  0.4531
 1129SOL    HW115023   3.664   3.064   3.027 -1.7023 -1.2215  0.2820
 1129SOL    HW215024   3.752   3.118   2.916  0.1797 -1.3917 -2.4403
 1130SOL     OW15025   2.669   1.116   4.348 -0.0360 -0.1310 -0.0661
 1130SOL    HW115026   2.574   1.106   4.344 -0.1511  0.2209  1.5672
 1130SOL    HW215027   2.688   1.035   4.396 -1.4509  0.0585  0.8451
 1131SOL     OW15028   1.896   3.943  12.810  0.1692 -0.2140  0.1815
 1131SOL    HW115029   1.904   3.960  12.903  3.7507 -0.9423  0.0022
 1131SOL    HW215030   1.988   3.944  12.783 -0.3541 -2.4836 -1.7488
 1132SOL     OW15031   1.058   2.680   8.958 -0.0966 -0.3931 -0.3694
 1132SOL    HW115032   0.977   2.651   8.999  0.3833  0.1145  0.9362
 1132SOL    HW215033   1.064   2.776   8.953  0.5676 -0.3343  1.3753
 1133SOL     OW15034   2.699   1.325   5.147 -0.5642  0.1497  0.6762
 1133SOL    HW115035   2.771   1.334   5.085 -0.1859 -1.2735  0.8992
 1133SOL    HW215036   2.650   1.253   5.109 -1.7092  1.7066 -0.7986
 1134SOL     OW15037   1.709   2.101   7.977 -0.6054  0.5018 -0.0039
 1134SOL    HW115038   1.750   2.027   7.932 -0.5564  0.4369  0.1471
 1134SOL    HW215039   1.710   2.164   7.906  1.7200 -0.3187 -0.7178
 1135SOL     OW15040   1.011   1.362   7.868  0.0908  0.2107  0.0966
 1135SOL    HW115041   0.916   1.348   7.869 -0.2579  2.3485 -0.9069
 1135SOL    HW215042   1.049   1.278   7.844 -1.7326 -1.2621  2.4173
 1136SOL     OW15043   3.599   2.022   4.010 -0.6327  0.6325 -0.2894
 1136SOL    HW115044   3.633   2.097   3.962 -2.9111 -0.6805 -3.9739
 1136SOL    HW215045   3.651   2.033   4.090 -1.7322  0.1059  0.5051
 1137SOL     OW15046   3.083   2.762   2.630  0.4875 -0.8984 -0.4837
 1137SOL    HW115047   3.006   2.706   2.619 -0.1225 -0.3459  0.9852
 1137SOL    HW215048   3.079   2.804   2.545 -0.1378 -0.5027 -0.2593
 1138SOL     OW15049   2.548   4.631  15.591  0.1477  0.0395  0.0570
 1138SOL    HW115050   2.579   4.716  15.560  0.6904  0.4161  1.6235
 1138SOL    HW215051   2.562   4.640  15.685  0.7770 -0.0561 -0.0279
 1139SOL     OW15052   2.179   1.960  13.897  0.1108  0.0811 -0.2819
 1139SOL    HW115053   2.115   1.907  13.945  0.4671 -0.0833  0.0115
 1139SOL    HW215054   2.127   2.041  13.894  0.1074  0.0507 -1.0594
 1140SOL     OW15055   1.514   3.859  10.079 -0.1176  0.3439 -0.0792
 1140SOL    HW115056   1.460   3.928  10.039  1.3254  0.8863 -1.1026
 1140SOL    HW215057   1.483   3.858  10.169  0.7699 -0.6465  0.2108
 1141SOL     OW15058   2.752   3.340   1.018 -0.1799  0.0846  0.6594
 1141SOL    HW115059   2.721   3.273   1.079  0.3166  0.3770  1.2324
 1141SOL    HW215060   2.780   3.281   0.948  0.5927 -1.1179  1.9754
 1142SOL     OW15061   1.882   0.352  12.698  0.3847  0.5551  0.5209
 1142SOL    HW115062   1.840   0.294  12.762  0.7844  0.7167  0.9247
 1142SOL    HW215063   1.821   0.426  12.702  0.1650  0.5897 -2.7848
 1143SOL     OW15064   1.785   0.054  14.487  0.4681  0.2778  0.9244
 1143SOL    HW115065   1.757   0.127  14.432 -0.8349 -0.4673  0.5838
 1143SOL    HW215066   1.880   0.061  14.497  0.3509 -0.2304  2.4467
 1144SOL     OW15067   2.664   0.333   5.908 -0.2025  0.2227  0.1813
 1144SOL    HW115068   2.643   0.241   5.895 -0.5231  0.6360 -2.2499
 1144SOL    HW215069   2.718   0.345   5.830  1.0561  0.1543  1.0245
 1145SOL     OW15070   1.549   0.676   4.036 -0.2449  0.8450 -0.0404
 1145SOL    HW115071   1.538   0.668   3.941 -0.1022 -0.8314  0.0928
 1145SOL    HW215072   1.590   0.763   4.035 -1.1733  1.2686 -1.2304
 1146SOL     OW15073   3.230   1.068   0.287  0.2076  0.4778  0.0818
 1146SOL    HW115074   3.189   1.047   0.370 -1.3063 -0.9118 -1.0255
 1146SOL    HW215075   3.192   0.994   0.240 -0.0149  0.1992  0.6998
 1147SOL     OW15076   2.977   3.625   2.342  0.1333  0.0719 -0.1481
 1147SOL    HW115077   2.923   3.628   2.263 -1.2993  0.0903  0.8312
 1147SOL    HW215078   3.057   3.665   2.307 -0.3650 -0.3046 -1.7325
 1148SOL     OW15079   3.901   3.781   9.318 -0.0964 -0.0528 -0.2721
 1148SOL    HW115080   3.948   3.723   9.379 -0.3822  2.2625  2.1443
 1148SOL    HW215081   3.897   3.726   9.240 -0.2308 -0.2536 -0.1256
 1149SOL     OW15082   3.530   2.244   9.042 -0.3847  0.5872 -0.0411
 1149SOL    HW115083   3.602   2.209   9.095 -1.2260 -0.4706  0.4161
 1149SOL    HW215084   3.506   2.165   8.992  0.6112 -0.2021  0.7297
 1150SOL     OW15085   1.162   3.587   5.154 -0.4781  0.3078  0.4929
 1150SOL    HW115086   1.215   3.606   5.231 -0.4424  0.0896  0.5220
 1150SOL    HW215087   1.220   3.605   5.080 -1.4937  1.7647  0.0638
 1151SOL     OW15088   0.475   2.503   1.853 -0.0455 -0.1193 -0.1645
 1151SOL    HW115089   0.560   2.520   1.895  0.3778 -0.7237 -0.7801
 1151SOL    HW215090   0.435   2.467   1.932  0.5592 -0.1396  0.1362
 1152SOL     OW15091   3.994   1.290   2.886 -0.0353  0.1622  0.0822
 1152SOL    HW115092   4.065   1.258   2.830  2.0362 -0.6220  3.1495
 1152SOL    HW215093   4.004   1.385   2.879  0.6935  0.0218 -0.7799
 1153SOL     OW15094   3.957   3.798   7.733  0.3522  0.2936  0.2499
 1153SOL    HW115095   3.972   3.829   7.644 -0.0353  0.3074  0.1905
 1153SOL    HW215096   4.042   3.758   7.750  0.3568  1.5702  3.3302
 1154SOL     OW15097   2.455   2.201  13.306 -0.0465 -0.5859 -0.5206
 1154SOL    HW115098   2.467   2.143  13.230  2.3617 -0.2254 -0.4112
 1154SOL    HW215099   2.545   2.232  13.319  0.3285 -2.2163  0.6629
 1155SOL     OW15100   1.247   0.326  10.150  0.7356 -0.3872  0.4644
 1155SOL    HW115101   1.269   0.353  10.239  1.8563  1.2781 -0.3357
 1155SOL    HW215102   1.318   0.369  10.104 -0.8996  0.6668 -1.0860
 1156SOL     OW15103   0.851   3.438   4.460  0.3800 -1.1479  0.4772
 1156SOL    HW115104   0.833   3.483   4.378 -1.8639 -0.1291  1.5397
 1156SOL    HW215105   0.800   3.493   4.519 -1.7495 -2.4811 -0.1030
 1157SOL     OW15106   0.725   1.054   3.388  0.0457 -0.1173 -0.2278
 1157SOL    HW115107   0.685   0.976   3.351  0.1007  0.6653 -1.9197
 1157SOL    HW215108   0.659   1.086   3.450 -0.4190 -0.3319 -0.6113
 1158SOL     OW15109   1.736   3.080   5.742 -0.2509 -0.6288 -0.1480
 1158SOL    HW115110   1.792   3.082   5.820 -1.7579  0.4872  0.9036
 1158SOL    HW215111   1.715   2.987   5.735 -3.5178  0.1848 -1.0859
 1159SOL     OW15112   4.168   4.236   5.706  0.3482  0.3436 -0.0237
 1159SOL    HW115113   4.219   4.314   5.730  1.2484  0.7735 -3.2802
 1159SOL    HW215114   4.242   4.180   5.684  1.6357  1.2503  2.1308
 1160SOL     OW15115   4.702   2.993   5.626  0.5389  0.6747 -0.4288
 1160SOL    HW115116   0.056   2.997   5.594  0.2593  1.4318 -1.1216
 1160SOL    HW215117   4.668   2.926   5.567  2.0380 -2.6123  2.4592
 1161SOL     OW15118   1.284   2.551   7.860  0.1777  0.1276 -0.3712
 1161SOL    HW115119   1.319   2.468   7.891 -1.6947 -0.2821  0.6132
 1161SOL    HW215120   1.356   2.586   7.807  0.5911 -1.3222 -0.7495
 1162SOL     OW15121   0.167   3.424  16.833  0.0077  0.0578 -0.2478
 1162SOL    HW115122   0.202   3.369  16.903  1.4058  0.9761 -0.2285
 1162SOL    HW215123   0.074   3.399  16.834  0.3735 -1.3586 -0.6345
 1163SOL     OW15124   4.581   3.917   1.671  0.0361  0.1488 -0.3983
 1163SOL    HW115125   4.578   3.835   1.621  1.6878  0.6479 -1.3240
 1163SOL    HW215126   4.623   3.885   1.751  2.0149 -0.1474 -1.5522
 1164SOL     OW15127   0.409   1.889   3.101  0.0866  0.7230  0.5238
 1164SOL    HW115128   0.503   1.881   3.088  0.1737  0.9705  1.0069
 1164SOL    HW215129   0.372   1.818   3.049  2.2170  2.3577 -3.2239
 1165SOL     OW15130   4.503   0.779   3.789  0.0354  0.0427  0.1259
 1165SOL    HW115131   4.457   0.765   3.707  0.5485 -1.1399  0.0369
 1165SOL    HW215132   4.471   0.710   3.847 -1.4038  0.5252 -0.1067
 1166SOL     OW15133   3.907   0.722   2.591 -0.0964 -0.2788  0.0871
 1166SOL    HW115134   3.944   0.706   2.678  0.7322  2.5648  0.2592
 1166SOL    HW215135   3.867   0.809   2.601  3.4567  1.3095  0.6830
 1167SOL     OW15136   4.669   1.640   2.969  0.0436 -0.7103  0.5665
 1167SOL    HW115137   4.599   1.596   2.921 -0.1107 -0.0261  0.1667
 1167SOL    HW215138   0.009   1.596   2.932 -1.5926 -0.8072 -2.6739
 1168SOL     OW15139   2.165   2.707   8.748  0.2130  0.6632 -0.1467
 1168SOL    HW115140   2.224   2.725   8.822 -0.5803  2.6442 -0.0029
 1168SOL    HW215141   2.213   2.727   8.667 -1.0869  0.1709 -1.0410
 1169SOL     OW15142   2.121   1.782   4.041 -0.3325 -0.2740 -0.5019
 1169SOL    HW115143   2.094   1.789   3.950  0.6820 -1.5471 -0.8864
 1169SOL    HW215144   2.041   1.815   4.083 -0.0201 -0.0976 -0.0442
 1170SOL     OW15145   1.574   1.913  16.464 -0.0273  0.0020 -1.0482
 1170SOL    HW115146   1.506   1.845  16.469  0.3448 -0.0250  3.9639
 1170SOL    HW215147   1.571   1.946  16.374  0.7252 -0.7045 -1.3254
 1171SOL     OW15148   3.464   2.481   4.181  0.4079 -0.4277 -0.4218
 1171SOL    HW115149   3.506   2.448   4.260  0.2620 -1.0877 -0.6174
 1171SOL    HW215150   3.509   2.429   4.114 -1.9604 -1.9485 -0.8406
 1172SOL     OW15151   0.102   0.468   3.213  0.0917 -0.0328  0.1556
 1172SOL    HW115152   0.144   0.520   3.145 -1.3161  2.4227  1.1393
 1172SOL    HW215153   0.030   0.426   3.166 -0.4359 -1.0417  1.8408
 1173SOL     OW15154   1.702   0.614   1.961 -0.1756 -0.3977 -0.0474
 1173SOL    HW115155   1.753   0.669   1.901 -0.7214 -0.3935 -0.5060
 1173SOL    HW215156   1.699   0.654   2.048 -1.8480  0.4588 -0.4916
 1174SOL     OW15157   4.663   3.698   4.530 -0.5916 -0.2655 -0.3345
 1174SOL    HW115158   4.596   3.640   4.566 -0.1195 -0.8149 -0.3407
 1174SOL    HW215159   4.641   3.683   4.438  1.7418 -1.8305 -0.6166
 1175SOL     OW15160   2.431   3.125   7.087  1.1265  0.3534  0.5365
 1175SOL    HW115161   2.391   3.177   7.017 -0.4792 -1.3603  0.1801
 1175SOL    HW215162   2.522   3.153   7.079  0.5859  2.3945  1.3248
 1176SOL     OW15163   4.452   4.371   2.710  0.1497 -0.2484 -0.6085
 1176SOL    HW115164   4.441   4.392   2.803 -0.5764  0.0686 -0.7614
 1176SOL    HW215165   4.367   4.333   2.688 -0.4832  0.8316 -0.0228
 1177SOL     OW15166   2.260   4.003   9.301 -0.0324  0.7393 -0.0147
 1177SOL    HW115167   2.303   4.062   9.239  0.9460 -0.7466 -0.7495
 1177SOL    HW215168   2.201   4.065   9.343  0.3454  2.3629 -1.9133
 1178SOL     OW15169   3.067   3.611   6.691 -0.2301  0.4636 -0.2757
 1178SOL    HW115170   3.160   3.620   6.711  0.2563 -1.8127 -1.5135
 1178SOL    HW215171   3.083   3.567   6.608  1.4338  2.6536 -1.1041
 1179SOL     OW15172   3.488   1.526   9.742  0.4096 -0.2512 -0.0807
 1179SOL    HW115173   3.488   1.478   9.825 -2.8051  0.4299  0.3016
 1179SOL    HW215174   3.429   1.597   9.769  0.8599  0.8807 -2.1002
 1180SOL     OW15175   3.081   4.673   4.540  0.5154 -0.3415  0.0205
 1180SOL    HW115176   3.015   4.693   4.474  0.4529 -0.2133  0.1220
 1180SOL    HW215177   3.027   4.695   4.616 -1.1558  0.2498 -1.3541
 1181SOL     OW15178   2.185   2.261  14.207  0.4960  0.3566  0.0063
 1181SOL    HW115179   2.121   2.329  14.229  0.6063  0.1533  0.9789
 1181SOL    HW215180   2.124   2.206  14.157 -1.3546  0.2966  2.3196
 1182SOL     OW15181   1.928   1.111   5.207 -0.1450  0.4134  0.3295
 1182SOL    HW115182   1.927   1.191   5.260  0.8956  0.6523 -0.0053
 1182SOL    HW215183   2.017   1.108   5.170  0.0100 -2.3276  0.8857
 1183SOL     OW15184   2.870   0.991   6.258 -0.1928  0.2141  0.0274
 1183SOL    HW115185   2.909   1.018   6.175 -0.1217  0.6038  0.1863
 1183SOL    HW215186   2.930   0.928   6.298 -0.0101  2.1042  2.7434
 1184SOL     OW15187   4.147   3.601   7.859  0.1221 -0.3185  0.1670
 1184SOL    HW115188   4.070   3.583   7.912  1.6241  0.1902  2.5197
 1184SOL    HW215189   4.199   3.638   7.930  1.5873 -1.8771 -0.0713
 1185SOL     OW15190   3.334   3.387  14.929  0.0115  0.3678  0.0283
 1185SOL    HW115191   3.270   3.437  14.879  0.2272 -0.1903 -0.8043
 1185SOL    HW215192   3.416   3.432  14.911 -0.4657  0.1156 -2.7000
 1186SOL     OW15193   1.977   3.754   8.740 -0.2331  0.0465 -0.1341
 1186SOL    HW115194   1.921   3.690   8.695 -0.1055  1.2139 -1.9531
 1186SOL    HW215195   2.058   3.703   8.747 -0.1602  0.1805  0.0074
 1187SOL     OW15196   2.751   4.011  11.310 -0.5887 -0.0840  0.0871
 1187SOL    HW115197   2.728   3.957  11.386  0.1824  1.9352  1.7473
 1187SOL    HW215198   2.730   4.098  11.343 -0.0737  0.5563 -1.2706
 1188SOL     OW15199   2.829   1.165  11.077 -0.8006  0.0187 -0.5749
 1188SOL    HW115200   2.868   1.227  11.016  1.7442 -1.2149 -0.1773
 1188SOL    HW215201   2.896   1.169  11.146 -0.2121 -0.1416 -1.1423
 1189SOL     OW15202   1.803   2.971   6.511 -0.5297  0.3573 -0.2164
 1189SOL    HW115203   1.716   2.934   6.523 -0.7714  1.7625  2.4430
 1189SOL    HW215204   1.783   3.065   6.507  2.5053  1.0309  0.3750
 1190SOL     OW15205   0.242   1.507  17.167 -0.1968 -0.6843 -0.0793
 1190SOL    HW115206   0.147   1.492  17.169 -0.2425 -0.5617 -1.4255
 1190SOL    HW215207   0.274   1.418  17.150  0.3514 -0.5679  0.3602
 1191SOL     OW15208   3.236   4.206  14.972  0.1812 -0.9060  0.4314
 1191SOL    HW115209   3.305   4.242  15.027 -1.5919 -0.9849  2.7184
 1191SOL    HW215210   3.284   4.179  14.894 -1.9328 -1.1698 -0.7684
 1192SOL     OW15211   0.592   4.543   2.221 -0.0207 -0.0863  0.0308
 1192SOL    HW115212   0.655   4.476   2.248  1.4360  0.8091 -1.1204
 1192SOL    HW215213   0.534   4.491   2.165 -0.2607  0.6349 -0.3991
 1193SOL     OW15214   3.232   0.769   0.368  0.1612 -0.2342 -1.0162
 1193SOL    HW115215   3.291   0.699   0.339  1.2637  1.0495 -1.8642
 1193SOL    HW215216   3.146   0.729   0.373  0.2702 -0.4333 -0.7232
 1194SOL     OW15217   3.788   1.513   6.392 -0.6240 -0.5116 -0.6014
 1194SOL    HW115218   3.845   1.541   6.321 -0.2698 -0.3156 -0.2402
 1194SOL    HW215219   3.846   1.459   6.446 -0.3803  0.1756 -0.1748
 1195SOL     OW15220   0.771   1.543   1.238 -0.3843 -0.1176  0.0355
 1195SOL    HW115221   0.693   1.487   1.231  1.2667 -2.3886 -0.4545
 1195SOL    HW215222   0.789   1.520   1.329 -2.0918  1.6871  0.8291
 1196SOL     OW15223   3.759   0.052   7.030 -0.1197  0.2615 -0.3392
 1196SOL    HW115224   3.786   0.142   7.010 -0.2274  0.5638  0.8630
 1196SOL    HW215225   3.817   4.733   6.976 -1.4252 -1.2221 -0.2223
 1197SOL     OW15226   0.415   4.466   3.419 -0.2202  0.2834  0.0828
 1197SOL    HW115227   0.356   4.447   3.346  1.7431  0.3988 -1.5330
 1197SOL    HW215228   0.437   4.373   3.430  4.3375  1.2786 -0.4226
 1198SOL     OW15229   3.854   1.412  11.813  0.8023 -0.4417  0.7153
 1198SOL    HW115230   3.832   1.503  11.792  0.5843 -0.7127 -0.2258
 1198SOL    HW215231   3.936   1.406  11.764  0.9704 -0.8797  1.0560
 1199SOL     OW15232   0.037   3.438   8.772 -0.6824 -0.5612 -0.5198
 1199SOL    HW115233   0.080   3.523   8.783  0.6766 -1.2514 -0.5523
 1199SOL    HW215234   4.721   3.433   8.853  1.0905 -1.0324  0.5856
 1200SOL     OW15235   1.184   4.215   7.397  0.0146  0.0513  0.0391
 1200SOL    HW115236   1.206   4.122   7.402  0.4852  0.1666  0.0451
 1200SOL    HW215237   1.147   4.232   7.484  0.4963  0.9819  0.0612
 1201SOL     OW15238   2.997   2.426   6.612  0.0314 -0.1180  0.2187
 1201SOL    HW115239   2.961   2.362   6.551  0.6132 -0.4176  0.1903
 1201SOL    HW215240   3.018   2.380   6.693  0.2757 -0.7168 -0.1921
 1202SOL     OW15241   1.431   0.631   4.800 -0.1574  0.1873  0.0641
 1202SOL    HW115242   1.480   0.618   4.881  0.0002  0.9038  0.0877
 1202SOL    HW215243   1.343   0.610   4.833 -0.0028 -0.8821 -0.2128
 1203SOL     OW15244   3.433   0.653   4.831  0.7085 -0.2649 -0.8061
 1203SOL    HW115245   3.526   0.632   4.822  1.6092  2.1428  2.9589
 1203SOL    HW215246   3.435   0.748   4.841 -0.7312 -0.2943 -0.2272
 1204SOL     OW15247   1.611   0.670  10.508  0.2519 -0.1818 -0.4217
 1204SOL    HW115248   1.556   0.594  10.526 -0.2005 -0.6190 -3.6756
 1204SOL    HW215249   1.682   0.659  10.571  1.3639  1.8594 -1.3140
 1205SOL     OW15250   1.066   1.252   5.393  0.1945  0.0369  0.3228
 1205SOL    HW115251   1.142   1.273   5.339 -1.1725 -1.2374 -2.0980
 1205SOL    HW215252   1.075   1.157   5.399 -0.5882  0.0142  1.0017
 1206SOL     OW15253   1.947   4.391   0.284  0.7055  0.3754 -0.3151
 1206SOL    HW115254   2.042   4.382   0.276  0.5083 -1.0683 -1.0636
 1206SOL    HW215255   1.926   4.321   0.223 -0.4581 -0.7056  1.3056
 1207SOL     OW15256   0.752   0.641   6.070 -0.1313 -0.1220 -0.0018
 1207SOL    HW115257   0.737   0.621   6.163 -0.5396  0.7588  0.1135
 1207SOL    HW215258   0.778   0.732   6.080  3.3673 -1.0556 -0.6218
 1208SOL     OW15259   2.944   1.429   7.388 -0.5879  0.6101 -0.0345
 1208SOL    HW115260   3.029   1.431   7.344 -0.9845  0.1686 -0.8151
 1208SOL    HW215261   2.914   1.346   7.351 -0.3988  0.3908  0.3028
 1209SOL     OW15262   2.585   3.727  15.274 -0.2963 -0.5086 -0.0931
 1209SOL    HW115263   2.548   3.814  15.259 -0.8661 -0.7349 -0.0140
 1209SOL    HW215264   2.504   3.678  15.261 -0.1258 -1.1205  1.2100
 1210SOL     OW15265   3.568   1.480   7.478 -0.3730  0.3921 -0.0651
 1210SOL    HW115266   3.631   1.435   7.534 -1.5973  0.3860  1.3273
 1210SOL    HW215267   3.626   1.531   7.422 -0.2504  1.6698  1.2422
 1211SOL     OW15268   4.171   4.021   7.534  0.0139  0.2776  0.2658
 1211SOL    HW115269   4.202   3.988   7.618  0.2561 -2.0678 -0.7591
 1211SOL    HW215270   4.090   3.972   7.529 -0.2579  0.6488  1.0663
 1212SOL     OW15271   2.350   2.143   7.338  0.1038 -0.2983 -0.1109
 1212SOL    HW115272   2.342   2.234   7.365 -0.6824 -0.2393 -0.5421
 1212SOL    HW215273   2.436   2.147   7.296  0.2985 -0.1043  0.3140
 1213SOL     OW15274   4.376   4.474   7.775 -0.1405  0.0129 -0.2466
 1213SOL    HW115275   4.456   4.434   7.739 -0.6879 -0.0606 -1.3997
 1213SOL    HW215276   4.404   4.505   7.861 -1.1346 -1.7493  0.6861
 1214SOL     OW15277   1.964   1.275   7.083 -0.1985  0.1729  0.1619
 1214SOL    HW115278   2.000   1.358   7.051  1.3243  0.1683  1.9169
 1214SOL    HW215279   1.974   1.274   7.178  0.7156 -1.0321  0.0543
 1215SOL     OW15280   2.908   2.900   4.385 -0.2255  0.0413 -0.2321
 1215SOL    HW115281   2.882   2.821   4.338  2.2416 -0.4406 -0.7868
 1215SOL    HW215282   3.001   2.910   4.365 -0.4045 -1.0827 -1.6207
 1216SOL     OW15283   0.565   4.372   1.324 -0.2634  0.2085  0.0236
 1216SOL    HW115284   0.577   4.306   1.255  2.0838 -1.6893  2.2258
 1216SOL    HW215285   0.568   4.312   1.399  0.9949  1.8595  1.2755
 1217SOL     OW15286   0.033   1.261   6.045 -0.2823 -0.1751 -0.1284
 1217SOL    HW115287   0.105   1.310   6.008 -0.2912 -0.3358 -0.3613
 1217SOL    HW215288   0.013   1.307   6.127  0.0659  2.1877 -1.3753
 1218SOL     OW15289   4.441   2.447   7.369 -0.3204  0.5770 -0.3530
 1218SOL    HW115290   4.349   2.463   7.389 -0.5599  0.7856 -1.6066
 1218SOL    HW215291   4.477   2.477   7.453 -0.7438  1.6555 -0.5581
 1219SOL     OW15292   4.567   4.291  12.255 -0.0209  0.1437 -0.4089
 1219SOL    HW115293   4.658   4.314  12.232 -0.3334  2.0380  0.3061
 1219SOL    HW215294   4.519   4.296  12.173  1.4354 -0.2468 -1.2960
 1220SOL     OW15295   3.070   0.110   5.828  0.4218  0.3142 -0.1762
 1220SOL    HW115296   3.149   0.162   5.816  0.2853  0.6629  0.4143
 1220SOL    HW215297   3.041   0.138   5.915 -2.2373  0.1413 -0.9781
 1221SOL     OW15298   4.573   4.715   3.189 -0.1126  0.0054  0.4679
 1221SOL    HW115299   4.641   0.029   3.235 -1.2195  2.4337 -0.5774
 1221SOL    HW215300   4.590   4.633   3.236 -4.3938  0.1034  2.1888
 1222SOL     OW15301   1.050   0.857   1.897  0.2504 -0.4603  0.4174
 1222SOL    HW115302   0.965   0.897   1.878  0.4567  0.0076  0.5020
 1222SOL    HW215303   1.109   0.932   1.898 -1.9122  1.2560  0.3085
 1223SOL     OW15304   2.709   2.184   0.080  0.4935  0.0860  0.0749
 1223SOL    HW115305   2.643   2.155   0.143  1.2391 -0.7009  0.5072
 1223SOL    HW215306   2.684   2.124   0.010  1.8808  1.8091 -1.8855
 1224SOL     OW15307   0.265   2.799  14.315  0.1112 -0.4023 -0.5805
 1224SOL    HW115308   0.257   2.708  14.286 -1.0852 -0.1874 -0.9076
 1224SOL    HW215309   0.311   2.780  14.397 -3.4889 -0.9366  1.2861
 1225SOL     OW15310   0.337   4.404  17.511 -0.3870  0.2479 -0.1086
 1225SOL    HW115311   0.262   4.344  17.518  0.8245 -1.1464  1.1777
 1225SOL    HW215312   0.308   4.447  17.431 -0.9323 -1.0513 -0.6046
 1226SOL     OW15313   0.491   2.137   5.481 -0.3859  0.1551 -0.3112
 1226SOL    HW115314   0.490   2.191   5.560 -1.9977 -1.1040  0.5278
 1226SOL    HW215315   0.533   2.057   5.515 -0.1683 -0.6297 -2.4736
 1227SOL     OW15316   3.787   4.276   9.229  0.2288  0.0372 -0.0370
 1227SOL    HW115317   3.878   4.267   9.201  0.9243  1.4957  1.7739
 1227SOL    HW215318   3.790   4.194   9.279 -1.1944 -1.1969 -1.9658
 1228SOL     OW15319   1.917   1.680   0.171 -0.4259 -0.4235 -0.2632
 1228SOL    HW115320   1.893   1.744   0.237  0.9705 -0.6337  0.4504
 1228SOL    HW215321   2.005   1.715   0.156 -0.4974  0.2653  0.9506
 1229SOL     OW15322   0.360   2.529   3.775 -0.4429  0.3101  0.2125
 1229SOL    HW115323   0.420   2.602   3.763 -0.2697  0.2317  0.5946
 1229SOL    HW215324   0.426   2.463   3.795  0.8453  1.8479  1.0425
 1230SOL     OW15325   3.844   0.294   6.961 -0.2464 -0.1373 -0.1268
 1230SOL    HW115326   3.827   0.334   6.876  0.7159  1.1384  0.2807
 1230SOL    HW215327   3.891   0.359   7.014 -1.6248  0.7210  0.0674
 1231SOL     OW15328   2.356   4.579   8.456  0.6538 -0.3125 -0.2556
 1231SOL    HW115329   2.395   4.643   8.396  0.2193 -0.4577 -0.6868
 1231SOL    HW215330   2.430   4.522   8.478  0.8682  1.2058  2.9888
 1232SOL     OW15331   0.377   4.448   5.459 -0.1890 -0.2595  0.2438
 1232SOL    HW115332   0.312   4.518   5.451  0.6372  0.4286 -0.4931
 1232SOL    HW215333   0.452   4.507   5.458 -1.0922  0.9084  0.9079
 1233SOL     OW15334   1.430   2.419  11.067  0.0095  0.6606  0.2577
 1233SOL    HW115335   1.458   2.500  11.111 -1.3596  2.2004 -1.6929
 1233SOL    HW215336   1.374   2.375  11.131  0.3579  0.8051  0.6569
 1234SOL     OW15337   0.260   4.710   5.361 -0.0146 -0.0190 -0.0198
 1234SOL    HW115338   0.328   0.040   5.372  1.2110 -1.2819  0.1011
 1234SOL    HW215339   0.182   0.024   5.381 -0.2285 -0.7915  1.0898
 1235SOL     OW15340   0.160   3.573   7.571 -0.2114  0.3664 -0.2780
 1235SOL    HW115341   0.140   3.525   7.491  0.2087 -1.5343  0.7557
 1235SOL    HW215342   0.205   3.652   7.541 -2.2686  0.9479 -1.8319
 1236SOL     OW15343   4.688   3.156   6.167  0.2006  0.8983  0.1589
 1236SOL    HW115344   0.013   3.143   6.094 -0.0593  2.5495 -0.3515
 1236SOL    HW215345   4.603   3.140   6.126  0.1093 -0.4161  0.8530
 1237SOL     OW15346   1.143   1.788  14.229 -0.3734 -0.5226 -0.1691
 1237SOL    HW115347   1.199   1.710  14.225  2.0454  1.1709  0.3107
 1237SOL    HW215348   1.095   1.789  14.312  0.5287  0.9513  0.3316
 1238SOL     OW15349   2.256   1.720  16.843 -0.6542  0.0242 -0.3349
 1238SOL    HW115350   2.331   1.711  16.783  0.9904  0.1016  1.6884
 1238SOL    HW215351   2.286   1.668  16.918 -1.1289  0.0836 -0.1104
 1239SOL     OW15352   0.297   2.812   4.419 -0.3459  0.6922  0.1125
 1239SOL    HW115353   0.334   2.813   4.507  0.1577  1.1446 -0.1017
 1239SOL    HW215354   0.270   2.904   4.424 -1.1952  0.5243 -1.2029
 1240SOL     OW15355   2.048   2.844   8.253  0.1565 -0.2560  0.6790
 1240SOL    HW115356   1.985   2.773   8.258  0.3082 -0.3514  1.2902
 1240SOL    HW215357   2.026   2.883   8.168 -1.4014  0.2734  1.3228
 1241SOL     OW15358   1.597   4.180  11.186  0.1785 -0.3301 -0.0155
 1241SOL    HW115359   1.517   4.128  11.180  0.5339 -1.0355  1.3833
 1241SOL    HW215360   1.653   4.128  11.244 -2.0475  0.6606  3.0072
 1242SOL     OW15361   3.056   0.909   5.619  0.5404 -0.5387 -0.0557
 1242SOL    HW115362   2.994   0.889   5.549 -0.7465 -0.3419  1.0506
 1242SOL    HW215363   2.997   0.888   5.691  1.0801  0.0797  0.5653
 1243SOL     OW15364   3.153   2.334   2.731 -0.5681 -0.0655 -0.3739
 1243SOL    HW115365   3.112   2.345   2.645 -2.8821 -3.3930  0.2912
 1243SOL    HW215366   3.243   2.336   2.697 -0.4738 -1.1243 -0.1749
 1244SOL     OW15367   1.327   3.305   5.627  0.1629  0.2761  0.7104
 1244SOL    HW115368   1.273   3.243   5.675 -0.7080  0.0024 -0.6254
 1244SOL    HW215369   1.281   3.386   5.650 -2.1096 -0.6458 -0.5433
 1245SOL     OW15370   1.421   0.122   4.769 -0.4875  0.1710 -0.2981
 1245SOL    HW115371   1.444   0.082   4.685 -1.2060  1.6623 -1.1997
 1245SOL    HW215372   1.506   0.131   4.812 -1.2158 -2.3033  1.6574
 1246SOL     OW15373   1.211   3.546   7.053  0.6335 -0.4415  0.5803
 1246SOL    HW115374   1.265   3.513   7.125 -0.1848 -1.2007  0.8538
 1246SOL    HW215375   1.241   3.636   7.041  0.4881 -0.6341 -1.1874
 1247SOL     OW15376   3.131   0.826   4.453  0.1665 -0.0950  0.2375
 1247SOL    HW115377   3.084   0.759   4.503  0.9117 -0.9729 -0.2445
 1247SOL    HW215378   3.189   0.776   4.396  1.1427  1.1366  0.1562
 1248SOL     OW15379   1.315   4.438   4.008 -0.2026 -0.3783 -0.6677
 1248SOL    HW115380   1.273   4.510   3.960 -0.6407  0.9946  1.8130
 1248SOL    HW215381   1.359   4.479   4.082 -0.2821 -0.7349 -0.4228
 1249SOL     OW15382   3.957   2.315   9.198 -0.9305  0.0170  0.6609
 1249SOL    HW115383   3.910   2.337   9.278 -2.5025  0.8304 -0.5009
 1249SOL    HW215384   3.895   2.258   9.152 -2.1633  0.5126  1.7475
 1250SOL     OW15385   4.115   4.545   4.631 -0.0286  0.3744  0.0817
 1250SOL    HW115386   4.074   4.598   4.699 -0.2898  2.5022 -1.7084
 1250SOL    HW215387   4.088   4.588   4.549  1.5704  0.3547 -0.4635
 1251SOL     OW15388   4.508   2.508   1.895  0.0941 -0.0531  0.3755
 1251SOL    HW115389   4.524   2.418   1.868  0.6345 -0.1218  0.9038
 1251SOL    HW215390   4.437   2.500   1.958  0.4907 -0.4169  0.7808
 1252SOL     OW15391   1.251   3.428   7.870 -0.1702  0.2814 -0.5995
 1252SOL    HW115392   1.253   3.524   7.874 -0.8402  0.2947 -0.5698
 1252SOL    HW215393   1.339   3.399   7.894 -0.5024 -0.1311  0.1181
 1253SOL     OW15394   2.988   3.493  15.788  0.8118  0.3119 -0.2640
 1253SOL    HW115395   2.985   3.428  15.717  0.0228 -1.7113  1.6166
 1253SOL    HW215396   2.898   3.528  15.789  0.2199 -1.2647  2.0449
 1254SOL     OW15397   1.462   4.034   6.988 -0.4402 -0.4339 -0.1485
 1254SOL    HW115398   1.441   4.121   7.022  0.9875 -0.0173 -0.3464
 1254SOL    HW215399   1.462   4.058   6.896  0.2717 -0.4098 -0.1438
 1255SOL     OW15400   4.091   2.075   8.086  0.7910 -0.2199  0.3497
 1255SOL    HW115401   4.020   2.054   8.146 -0.0234  0.9706 -0.2047
 1255SOL    HW215402   4.080   2.013   8.014  0.6133 -0.5935  0.6998
 1256SOL     OW15403   1.236   0.361   4.169 -0.1046  0.4942 -0.5021
 1256SOL    HW115404   1.242   0.455   4.152  0.2329  0.4384 -0.6910
 1256SOL    HW215405   1.284   0.344   4.250  1.2137 -1.0266 -1.6123
 1257SOL     OW15406   2.278   1.498   1.897  0.0725 -0.1344  0.5589
 1257SOL    HW115407   2.331   1.418   1.892  0.1802 -0.1223  1.5544
 1257SOL    HW215408   2.234   1.492   1.813  0.2101 -2.0677  0.6215
 1258SOL     OW15409   3.647   1.352   7.710 -0.7908 -0.5212  0.8465
 1258SOL    HW115410   3.554   1.373   7.713 -0.7724 -0.3170 -0.0387
 1258SOL    HW215411   3.639   1.275   7.767 -0.7562 -0.0861  1.4416
 1259SOL     OW15412   4.720   3.052   3.366  0.2082 -0.5969  0.0900
 1259SOL    HW115413   4.654   3.113   3.333 -1.3509 -3.0657 -1.3232
 1259SOL    HW215414   0.054   3.064   3.303 -0.0637 -0.5480 -0.2027
 1260SOL     OW15415   2.269   1.581   9.897  0.5275 -0.0364  0.1445
 1260SOL    HW115416   2.327   1.610   9.827 -2.5771 -1.4579 -3.0076
 1260SOL    HW215417   2.268   1.485   9.887  0.6973  0.0171 -0.3726
 1261SOL     OW15418   3.999   4.456   7.064 -0.0285 -0.1402  1.1645
 1261SOL    HW115419   4.053   4.405   7.003 -0.0737  0.7009  0.4218
 1261SOL    HW215420   3.960   4.522   7.007 -1.8397 -0.2229  2.3103
 1262SOL     OW15421   0.137   4.341   8.059 -0.0005  0.0074 -0.4197
 1262SOL    HW115422   0.136   4.296   7.974  0.0072 -0.3129 -0.2534
 1262SOL    HW215423   0.145   4.266   8.118 -0.9829  0.6228  0.4715
 1263SOL     OW15424   3.949   0.700   3.378  0.2606  0.4086 -0.1385
 1263SOL    HW115425   3.993   0.638   3.320 -1.1645 -1.8965  1.2617
 1263SOL    HW215426   3.889   0.743   3.317 -2.0367 -1.0885  1.0613
 1264SOL     OW15427   1.974   4.598  11.679  0.4655  0.0235  0.5072
 1264SOL    HW115428   2.028   4.519  11.682  1.1379  0.5150  1.4224
 1264SOL    HW215429   1.944   4.595  11.588  1.3509  0.4079  0.2000
 1265SOL     OW15430   0.332   3.528   3.768  0.1801  0.0028 -0.2342
 1265SOL    HW115431   0.309   3.438   3.789 -0.9691  1.2805  3.9200
 1265SOL    HW215432   0.339   3.563   3.857 -0.0809  1.2852 -0.7178
 1266SOL     OW15433   0.287   1.063  14.773  0.3468  0.0960  0.0736
 1266SOL    HW115434   0.334   0.985  14.745 -1.5548 -0.6891 -0.9073
 1266SOL    HW215435   0.364   1.111  14.803  0.5287 -0.4102  0.4138
 1267SOL     OW15436   4.176   2.039   2.581 -1.1562 -0.2219  0.1932
 1267SOL    HW115437   4.246   2.039   2.515  0.0813 -1.2157  1.4931
 1267SOL    HW215438   4.215   1.993   2.656 -0.5079 -0.2415 -0.1525
 1268SOL     OW15439   2.530   2.055   9.349  0.2341 -0.0447 -0.5256
 1268SOL    HW115440   2.603   2.086   9.403 -0.2253  0.1130  0.0057
 1268SOL    HW215441   2.465   2.041   9.418  0.8423  3.0107  0.6929
 1269SOL     OW15442   0.886   3.711   6.779 -0.2067  0.4525  0.2419
 1269SOL    HW115443   0.924   3.799   6.773  1.4376 -0.3343 -0.9641
 1269SOL    HW215444   0.791   3.711   6.789 -0.2905 -1.2631 -0.5715
 1270SOL     OW15445   4.124   0.140  14.463 -0.8117 -0.3706 -0.0161
 1270SOL    HW115446   4.051   0.120  14.403  2.7225 -2.1292 -3.7626
 1270SOL    HW215447   4.123   0.061  14.516  2.4491 -0.6631 -0.3804
 1271SOL     OW15448   1.667   2.843   8.149  0.2901 -0.0561 -0.5599
 1271SOL    HW115449   1.586   2.793   8.137  0.9734 -1.5605  0.9990
 1271SOL    HW215450   1.727   2.775   8.119  0.0986  0.1485 -1.3878
 1272SOL     OW15451   3.731   3.409   3.670  0.2199  0.6117  0.0132
 1272SOL    HW115452   3.710   3.435   3.760 -0.8212 -0.7308  0.1553
 1272SOL    HW215453   3.675   3.471   3.624  2.5187  2.5252 -0.2432
 1273SOL     OW15454   2.955   0.039   9.256 -0.1560 -0.1069 -0.0180
 1273SOL    HW115455   2.926   4.685   9.245  0.4836 -0.5259  1.7407
 1273SOL    HW215456   2.871   0.077   9.283 -0.4437 -0.6651 -0.1320
 1274SOL     OW15457   0.161   0.566   0.416  0.2029  0.7186 -0.6272
 1274SOL    HW115458   0.094   0.548   0.482 -0.0172 -0.8742 -1.3020
 1274SOL    HW215459   0.117   0.549   0.333  1.7455  1.0187 -1.5061
 1275SOL     OW15460   3.473   1.099   4.209 -0.1063  0.0997 -0.2894
 1275SOL    HW115461   3.440   1.187   4.196  0.1179  0.2775  0.3231
 1275SOL    HW215462   3.420   1.047   4.149 -0.8296  1.2156 -0.5992
 1276SOL     OW15463   1.822   3.464   9.328 -0.0244 -0.0794  0.1504
 1276SOL    HW115464   1.754   3.456   9.394 -2.8613  2.1294 -2.5242
 1276SOL    HW215465   1.781   3.409   9.262  1.0703 -0.3798 -0.2738
 1277SOL     OW15466   2.220   3.842   5.924  0.2665 -0.3396  0.2442
 1277SOL    HW115467   2.252   3.754   5.901 -1.7281 -0.4986 -1.9065
 1277SOL    HW215468   2.176   3.828   6.008  0.4356  0.8827  0.5361
 1278SOL     OW15469   0.139   0.309   2.524 -0.0194 -0.0304 -0.2829
 1278SOL    HW115470   0.138   0.246   2.595 -0.6120  2.3295  1.7871
 1278SOL    HW215471   0.049   0.291   2.495  0.0849  0.3867 -0.8761
 1279SOL     OW15472   2.704   4.004   5.844  0.0365  0.3765  0.3506
 1279SOL    HW115473   2.615   4.003   5.809  1.0748 -0.6531 -2.3038
 1279SOL    HW215474   2.730   3.912   5.852  0.5831  0.5869  0.9382
 1280SOL     OW15475   3.820   3.353   0.310  0.0377  0.0858 -0.5766
 1280SOL    HW115476   3.863   3.267   0.304  1.7804  0.8759  0.4553
 1280SOL    HW215477   3.891   3.388   0.364 -1.3100 -1.4620  2.1959
 1281SOL     OW15478   3.524   1.839  13.687  0.8821 -0.2813  0.3447
 1281SOL    HW115479   3.471   1.784  13.628  0.3682 -0.7465  1.2307
 1281SOL    HW215480   3.456   1.903  13.710  0.3340 -0.7397  0.0205
 1282SOL     OW15481   2.390   4.615  16.870 -0.4258  0.2583 -0.0706
 1282SOL    HW115482   2.401   4.702  16.908 -0.6825  0.7427 -1.0853
 1282SOL    HW215483   2.480   4.582  16.870 -0.5250 -0.0034  0.3258
 1283SOL     OW15484   3.361   4.133  14.165 -0.6421  0.1895  0.3708
 1283SOL    HW115485   3.305   4.061  14.137 -0.3690 -0.0475  0.4275
 1283SOL    HW215486   3.354   4.191  14.090 -1.4455  0.0317  0.3231
 1284SOL     OW15487   4.596   4.012   7.090 -0.1572  0.8917  0.1485
 1284SOL    HW115488   4.527   3.950   7.068  0.6152 -0.8485  2.6375
 1284SOL    HW215489   4.613   3.989   7.181  1.4653 -0.7075 -0.5587
 1285SOL     OW15490   0.896   3.875   2.762  0.0139  0.1820 -0.0550
 1285SOL    HW115491   0.827   3.827   2.718 -0.8637 -0.3411  1.9062
 1285SOL    HW215492   0.950   3.890   2.685 -0.5372  0.1415 -0.4463
 1286SOL     OW15493   4.193   4.436   4.935  0.3405  0.0369 -0.2280
 1286SOL    HW115494   4.111   4.396   4.962 -0.3149  2.5633  1.5095
 1286SOL    HW215495   4.182   4.479   4.851  0.2590  0.2724 -0.0949
 1287SOL     OW15496   3.541   1.546   4.213  0.8754  0.2096 -0.0231
 1287SOL    HW115497   3.492   1.466   4.230 -0.3803  0.9999  0.1742
 1287SOL    HW215498   3.632   1.518   4.204  0.9884  0.8081 -0.7975
 1288SOL     OW15499   4.698   2.749   8.815  0.0695 -0.4130  0.1080
 1288SOL    HW115500   0.001   2.664   8.833  1.9758  0.6978  1.2053
 1288SOL    HW215501   0.043   2.796   8.795  1.1012 -2.6978 -1.0169
 1289SOL     OW15502   2.388   1.691   3.532  0.1652  0.3185  0.1901
 1289SOL    HW115503   2.356   1.602   3.521 -0.3083  0.6437 -1.1029
 1289SOL    HW215504   2.425   1.707   3.445 -0.5306  0.2226 -0.1238
 1290SOL     OW15505   0.629   4.608   2.572 -0.3339  0.0252 -0.0571
 1290SOL    HW115506   0.723   4.591   2.580 -0.5832 -0.6078  1.5351
 1290SOL    HW215507   0.591   4.522   2.556  1.1152 -0.9036  1.4727
 1291SOL     OW15508   1.386   3.157   9.433  0.7800 -0.0190  0.8703
 1291SOL    HW115509   1.376   3.102   9.355 -0.8944 -0.9520  1.7655
 1291SOL    HW215510   1.296   3.174   9.461  0.5386  1.0618 -0.5324
 1292SOL     OW15511   2.217   2.176   2.971  0.3383  0.3761 -0.2598
 1292SOL    HW115512   2.297   2.205   2.928  2.0103 -0.5433  2.2042
 1292SOL    HW215513   2.158   2.148   2.901 -0.2006 -1.8611  1.0907
 1293SOL     OW15514   0.694   2.123  17.021  0.1639 -0.1948  0.0783
 1293SOL    HW115515   0.678   2.032  16.998 -0.8493 -0.7185  2.8648
 1293SOL    HW215516   0.768   2.117  17.081  0.6389  1.4929 -0.3160
 1294SOL     OW15517   1.987   1.559   9.859 -0.3022  0.1602 -0.4607
 1294SOL    HW115518   1.974   1.596   9.771 -1.0902  2.3825  0.5938
 1294SOL    HW215519   2.074   1.592   9.883 -0.2030  0.3989 -1.1262
 1295SOL     OW15520   3.923   3.871   7.481  0.1264  0.3828 -0.4282
 1295SOL    HW115521   3.917   3.919   7.399 -0.0623  1.0487 -0.0271
 1295SOL    HW215522   3.833   3.839   7.489  0.0923  0.9639  1.4688
 1296SOL     OW15523   1.736   2.301  17.551 -0.3479 -0.6722  0.0910
 1296SOL    HW115524   1.729   2.215  17.591 -2.3284  0.0145  1.2356
 1296SOL    HW215525   1.785   2.280  17.472 -1.0872 -0.9930 -0.2881
 1297SOL     OW15526   2.221   3.910  10.214  0.0461  0.0976  0.1546
 1297SOL    HW115527   2.295   3.968  10.199 -0.9098  0.9959 -1.1082
 1297SOL    HW215528   2.269   3.857  10.277  1.2526  0.3267 -0.5761
 1298SOL     OW15529   1.087   2.172   4.528  0.1568  0.0994  0.2279
 1298SOL    HW115530   1.115   2.206   4.614  1.6196  0.2965 -0.3281
 1298SOL    HW215531   1.030   2.239   4.492 -1.0230  0.4379  2.7397
 1299SOL     OW15532   1.690   3.448   3.540  0.5102  0.1115  0.3885
 1299SOL    HW115533   1.610   3.462   3.489  1.4543  1.4932 -0.7014
 1299SOL    HW215534   1.691   3.515   3.607 -0.2826  0.7404 -0.2288
 1300SOL     OW15535   4.629   0.155   1.159 -0.0359 -0.4730 -0.2089
 1300SOL    HW115536   4.664   0.074   1.124 -2.0237 -0.6017 -1.9096
 1300SOL    HW215537   4.591   0.136   1.244 -0.9522  0.7135 -0.3371
 1301SOL     OW15538   4.235   3.675  12.676 -0.1011  0.0676 -0.1360
 1301SOL    HW115539   4.317   3.723  12.690  0.3831 -0.8683  0.2378
 1301SOL    HW215540   4.215   3.702  12.586  0.7020 -3.5410 -1.4142
 1302SOL     OW15541   3.542   0.803   1.806 -0.2278 -0.1388 -0.1388
 1302SOL    HW115542   3.510   0.893   1.804 -1.2446 -0.4507  1.6208
 1302SOL    HW215543   3.632   0.809   1.774 -1.2042  1.0268 -2.6523
 1303SOL     OW15544   2.497   2.690   4.839 -0.6508 -0.0977  0.6653
 1303SOL    HW115545   2.522   2.619   4.899 -0.2423  1.5927  2.4734
 1303SOL    HW215546   2.410   2.652   4.825 -1.0460  0.4131  1.7761
 1304SOL     OW15547   2.304   3.907  13.876  0.2759 -0.0428 -0.3310
 1304SOL    HW115548   2.308   3.818  13.842 -0.6499  1.3010 -3.9025
 1304SOL    HW215549   2.303   3.948  13.790 -0.1023  0.5809 -0.0311
 1305SOL     OW15550   4.000   2.308   1.318 -0.1343 -0.3817  0.3807
 1305SOL    HW115551   4.018   2.222   1.280  0.2682  0.4882 -1.4353
 1305SOL    HW215552   3.929   2.282   1.376 -0.1710  1.7962  1.3097
 1306SOL     OW15553   3.119   4.027   5.368  0.3000 -0.0817  0.5306
 1306SOL    HW115554   3.098   4.047   5.276  0.1656  1.5457  0.9281
 1306SOL    HW215555   3.128   4.115   5.403  1.7162 -0.5283  1.2917
 1307SOL     OW15556   0.887   3.625   7.972  0.3734 -0.1368  0.0356
 1307SOL    HW115557   0.912   3.628   8.064 -0.2936  3.7945  0.0951
 1307SOL    HW215558   0.965   3.593   7.926  0.4527 -2.3141  1.7015
 1308SOL     OW15559   0.700   4.555   8.177  0.7615  0.8788 -0.6713
 1308SOL    HW115560   0.634   4.593   8.120  1.2913  1.6532 -0.7736
 1308SOL    HW215561   0.741   4.493   8.116  0.5255  1.6726 -1.6331
 1309SOL     OW15562   2.645   3.055   5.165  0.0824 -0.1065 -0.1463
 1309SOL    HW115563   2.592   2.981   5.196 -0.1843  0.7328  1.3984
 1309SOL    HW215564   2.681   3.098   5.243 -1.7924  1.2656 -0.0267
 1310SOL     OW15565   2.817   1.782   8.228 -0.3189  0.0548 -0.0470
 1310SOL    HW115566   2.783   1.869   8.251 -2.3236 -1.0885  1.3472
 1310SOL    HW215567   2.825   1.793   8.134  0.5608 -0.1862  0.0039
 1311SOL     OW15568   0.571   1.933   4.799 -0.1260  0.6980 -0.4037
 1311SOL    HW115569   0.570   1.882   4.717 -0.3954 -0.7261  0.4762
 1311SOL    HW215570   0.644   1.897   4.849 -0.9783 -0.9825 -0.3743
 1312SOL     OW15571   3.063   2.801  16.427 -0.6912 -0.4276 -0.4830
 1312SOL    HW115572   3.089   2.893  16.439 -1.4599 -0.0758 -1.5124
 1312SOL    HW215573   3.025   2.779  16.512  0.0209  0.0789 -0.0228
 1313SOL     OW15574   1.409   1.673  16.117  0.2762  0.7071 -0.5175
 1313SOL    HW115575   1.416   1.762  16.083 -0.5664  0.1967 -2.0460
 1313SOL    HW215576   1.492   1.641  16.083  1.0432  2.3098 -0.1188
 1314SOL     OW15577   2.080   1.878   1.107 -0.4019 -0.4310  0.0463
 1314SOL    HW115578   2.089   1.874   1.202  1.7178  1.1846 -0.0974
 1314SOL    HW215579   2.161   1.924   1.086 -0.4789 -1.0028 -1.4968
 1315SOL     OW15580   0.602   3.194   4.846 -0.3941 -0.0187 -0.1108
 1315SOL    HW115581   0.637   3.177   4.934 -0.5845 -0.3016 -0.0904
 1315SOL    HW215582   0.653   3.270   4.819  0.3342 -0.8543 -1.0906
 1316SOL     OW15583   2.151   0.546   3.769 -0.3038 -0.7646  0.2411
 1316SOL    HW115584   2.080   0.487   3.798 -1.8552  0.4802 -1.0430
 1316SOL    HW215585   2.126   0.537   3.677  0.4660 -2.2502  0.1721
 1317SOL     OW15586   4.336   2.835  12.357 -0.5698  0.8164 -0.6289
 1317SOL    HW115587   4.310   2.876  12.440  1.1032 -0.2233  0.4246
 1317SOL    HW215588   4.347   2.743  12.381  0.0539  1.0385 -0.0416
 1318SOL     OW15589   0.990   2.970   1.214 -0.7155 -1.0014 -0.2451
 1318SOL    HW115590   0.986   3.060   1.182  0.9081 -0.9310 -0.2741
 1318SOL    HW215591   0.922   2.927   1.161 -1.5371  1.9327 -1.5571
 1319SOL     OW15592   1.373   3.021   6.434  0.5328  0.2775 -0.3927
 1319SOL    HW115593   1.428   2.961   6.483 -0.5595  0.7067  1.3529
 1319SOL    HW215594   1.287   3.006   6.472 -0.2690 -0.8355 -2.6338
 1320SOL     OW15595   4.191   3.187  12.557  0.3115  0.2191 -0.0883
 1320SOL    HW115596   4.227   3.268  12.594  0.6828  0.2073 -0.4227
 1320SOL    HW215597   4.128   3.219  12.492 -0.4964 -0.5271  0.3240
 1321SOL     OW15598   1.811   2.993   6.002 -0.9136 -0.4607  0.4798
 1321SOL    HW115599   1.804   3.043   6.083 -0.8398 -1.7170  1.2665
 1321SOL    HW215600   1.789   2.902   6.025  0.3213 -1.6243 -2.8546
 1322SOL     OW15601   4.060   4.270  15.773 -0.2577 -0.6505 -0.1249
 1322SOL    HW115602   4.089   4.219  15.698  0.1722 -1.3762  0.5440
 1322SOL    HW215603   4.124   4.238  15.836  2.1547  1.1498 -1.6622
 1323SOL     OW15604   0.883   3.698  12.216 -0.7446  0.0171 -0.0893
 1323SOL    HW115605   0.930   3.617  12.201 -0.9134 -0.0969 -0.0053
 1323SOL    HW215606   0.819   3.703  12.144  0.1066 -0.9813 -0.9143
 1324SOL     OW15607   2.096   0.336   8.246 -0.2602  0.2096  0.0438
 1324SOL    HW115608   2.082   0.245   8.222 -0.9584  0.3958 -0.2324
 1324SOL    HW215609   2.006   0.347   8.275  0.1352 -1.7107  2.0424
 1325SOL     OW15610   0.629   1.318   6.499 -0.5675  0.2385 -0.1307
 1325SOL    HW115611   0.658   1.372   6.425  0.6899  1.0999  0.9890
 1325SOL    HW215612   0.663   1.364   6.575 -0.8735  1.1899 -0.5588
 1326SOL     OW15613   3.260   2.497   3.903 -0.4893  0.0313 -0.0125
 1326SOL    HW115614   3.165   2.499   3.917 -0.5848 -0.1437 -0.6458
 1326SOL    HW215615   3.270   2.403   3.917  1.5626  0.1519 -0.6624
 1327SOL     OW15616   2.916   2.268   0.294  0.1100 -0.3515  0.6685
 1327SOL    HW115617   2.828   2.267   0.331 -0.2444  0.7697 -0.1402
 1327SOL    HW215618   2.910   2.357   0.258  2.8397 -0.5596 -0.3022
 1328SOL     OW15619   1.617   2.443  15.517 -0.1639  0.1602 -0.2374
 1328SOL    HW115620   1.568   2.507  15.567 -0.6182  0.2817 -0.8354
 1328SOL    HW215621   1.704   2.482  15.525 -0.6320  1.5649 -2.0940
 1329SOL     OW15622   0.774   0.517   3.364 -0.0731  0.3168  0.7356
 1329SOL    HW115623   0.693   0.552   3.401  0.9807  2.0010  1.4177
 1329SOL    HW215624   0.794   0.454   3.434  2.9504  0.2461 -0.1986
 1330SOL     OW15625   0.083   2.928   3.870 -0.6363  0.5434  0.4762
 1330SOL    HW115626   0.023   2.946   3.942 -2.2654 -1.6980 -0.3377
 1330SOL    HW215627   0.032   2.870   3.813 -0.1562 -0.1348  0.7415
 1331SOL     OW15628   3.697   0.347   6.083  0.2814  0.4454 -0.5629
 1331SOL    HW115629   3.759   0.315   6.149  1.1421  0.7401 -1.2348
 1331SOL    HW215630   3.664   0.268   6.041  0.3927 -0.4810  1.1026
 1332SOL     OW15631   1.190   1.078   1.844 -0.4391 -0.0694 -0.6267
 1332SOL    HW115632   1.258   1.139   1.873 -1.7379 -0.0745  2.3910
 1332SOL    HW215633   1.228   1.073   1.757  1.2337 -0.9023  0.1529
 1333SOL     OW15634   0.220   3.648  14.809  0.6484 -0.0346 -0.1468
 1333SOL    HW115635   0.194   3.561  14.780 -0.8832  0.3643  0.0045
 1333SOL    HW215636   0.307   3.636  14.847  0.7173 -2.8799 -1.2039
 1334SOL     OW15637   4.681   1.177  15.244 -0.5390  0.0222  0.3882
 1334SOL    HW115638   4.721   1.119  15.179 -2.1723 -0.7651  0.0840
 1334SOL    HW215639   4.602   1.124  15.252 -0.0051 -0.6267  1.3074
 1335SOL     OW15640   3.335   0.579  11.738  0.6306 -0.0663 -0.5110
 1335SOL    HW115641   3.372   0.497  11.769  1.0403 -0.1112 -1.1168
 1335SOL    HW215642   3.383   0.588  11.655  2.4186 -0.1145  0.5342
 1336SOL     OW15643   0.420   3.146   7.863  0.4546  0.0836 -0.1180
 1336SOL    HW115644   0.399   3.066   7.815 -0.3545  0.7139 -0.8059
 1336SOL    HW215645   0.389   3.119   7.949  1.6218  2.0330  0.9298
 1337SOL     OW15646   3.786   1.380   9.328  0.2897 -0.2253 -0.0267
 1337SOL    HW115647   3.697   1.363   9.359  0.9016 -1.5982  0.9542
 1337SOL    HW215648   3.836   1.323   9.386  0.5141 -0.2357 -0.2309
 1338SOL     OW15649   3.729   0.006   1.569 -0.8401  0.3464  0.5130
 1338SOL    HW115650   3.702   4.658   1.534  1.0210  0.6091 -1.5793
 1338SOL    HW215651   3.818   4.716   1.592  0.0137  1.1511 -1.8795
 1339SOL     OW15652   1.692   3.999  16.793  0.5098  0.1620  0.3924
 1339SOL    HW115653   1.768   3.949  16.762  0.8479 -0.1237  1.6661
 1339SOL    HW215654   1.651   3.926  16.840  0.4352  0.4782  0.8136
 1340SOL     OW15655   4.607   0.380   6.159 -0.3373 -0.3517 -0.3622
 1340SOL    HW115656   4.691   0.363   6.202  0.3105  1.4789 -0.9145
 1340SOL    HW215657   4.543   0.351   6.223  0.1088 -0.4754  0.0308
 1341SOL     OW15658   4.303   3.621   3.944  0.0488  0.3271  0.8284
 1341SOL    HW115659   4.221   3.667   3.925  1.5431  3.0077  0.8582
 1341SOL    HW215660   4.274   3.530   3.944  1.8939 -0.2586 -1.1840
 1342SOL     OW15661   1.674   4.694   5.334 -0.2415  0.0474  0.0154
 1342SOL    HW115662   1.692   0.052   5.337 -1.8735  0.3073  1.6767
 1342SOL    HW215663   1.631   4.674   5.417 -0.5597  1.9501  0.3093
 1343SOL     OW15664   2.400   1.262   1.738 -0.0892 -0.0727 -0.2531
 1343SOL    HW115665   2.367   1.173   1.740  0.5016 -0.3033 -0.8967
 1343SOL    HW215666   2.362   1.292   1.655 -1.4839  0.6952  0.6729
 1344SOL     OW15667   4.626   2.513   9.430 -0.9522  0.5356 -0.3738
 1344SOL    HW115668   4.688   2.570   9.475 -0.1136 -0.6199 -0.0714
 1344SOL    HW215669   4.661   2.440   9.480  0.9689 -0.3316 -2.9921
 1345SOL     OW15670   4.326   0.012   0.847 -0.1584  0.3181  0.1137
 1345SOL    HW115671   4.290   0.064   0.920  0.6292  1.1757 -0.1077
 1345SOL    HW215672   4.277   4.667   0.859 -0.1014  0.2839  0.1185
 1346SOL     OW15673   1.161   1.432   0.948 -0.0650 -0.4342  0.1925
 1346SOL    HW115674   1.079   1.463   0.987 -1.4796 -2.2784 -1.3536
 1346SOL    HW215675   1.223   1.499   0.978 -1.4159  0.4040  1.1165
 1347SOL     OW15676   4.674   3.365   9.003  0.4361  0.2969  0.7333
 1347SOL    HW115677   4.589   3.375   9.046 -1.0335  0.2174 -2.1494
 1347SOL    HW215678   4.735   3.365   9.077  1.0913 -1.2401  0.1818
 1348SOL     OW15679   4.523   3.209   4.597  0.2450  0.1229  0.6470
 1348SOL    HW115680   4.528   3.290   4.646  0.5661  0.7398 -0.4032
 1348SOL    HW215681   4.437   3.176   4.623 -0.8435  1.1078 -1.6569
 1349SOL     OW15682   4.406   2.212   9.700 -0.4669 -0.0739 -0.0662
 1349SOL    HW115683   4.314   2.198   9.678 -0.9050  1.0910  0.9854
 1349SOL    HW215684   4.452   2.211   9.616  1.3548 -1.1956  0.9598
 1350SOL     OW15685   1.107   2.982   3.869 -0.2267  0.9213  0.2525
 1350SOL    HW115686   1.142   2.929   3.798 -1.1056  0.3905  0.2181
 1350SOL    HW215687   1.116   3.075   3.848  0.6510  0.2983 -2.0348
 1351SOL     OW15688   1.795   4.464   3.125 -0.2195  0.2410  0.0967
 1351SOL    HW115689   1.799   4.479   3.031 -1.3289  0.4796  0.0873
 1351SOL    HW215690   1.722   4.525   3.139 -0.0689  0.0591  1.6613
 1352SOL     OW15691   4.522   0.479  15.332  0.5671  0.0642  0.2314
 1352SOL    HW115692   4.486   0.553  15.381 -2.4905 -0.3319 -1.4451
 1352SOL    HW215693   4.536   0.516  15.244  1.5144  0.6378  0.6184
 1353SOL     OW15694   0.788   4.670   5.039 -0.1727  0.0088 -0.6887
 1353SOL    HW115695   0.767   4.682   5.131  0.9716  1.3150 -0.5997
 1353SOL    HW215696   0.868   4.721   5.029 -1.7186  2.6522  0.4402
 1354SOL     OW15697   3.011   4.678   8.304 -0.0608 -0.6262 -0.1709
 1354SOL    HW115698   3.074   4.690   8.233 -1.6318  0.6312 -1.3287
 1354SOL    HW215699   3.070   4.653   8.376  0.7292 -1.1786 -1.0033
 1355SOL     OW15700   1.300   0.782  16.164  0.0986  0.6659 -0.3684
 1355SOL    HW115701   1.274   0.703  16.115  1.6582 -0.1250  0.0798
 1355SOL    HW215702   1.235   0.778  16.235  0.1008 -1.7234 -0.5004
 1356SOL     OW15703   2.782   3.578   0.234  0.0002  0.1973  0.5635
 1356SOL    HW115704   2.709   3.552   0.291  0.7944 -1.3283  0.8750
 1356SOL    HW215705   2.743   3.629   0.163  1.9538 -2.3323 -2.3255
 1357SOL     OW15706   3.060   4.073   2.163 -0.1978 -0.5679  0.4350
 1357SOL    HW115707   3.092   3.997   2.114 -2.1417 -0.4996 -0.9729
 1357SOL    HW215708   3.009   4.034   2.234 -0.7765  0.6763  0.7028
 1358SOL     OW15709   1.427   4.335  16.780 -0.3948  0.2928 -0.1160
 1358SOL    HW115710   1.489   4.345  16.707  1.0560  0.3727  1.1294
 1358SOL    HW215711   1.429   4.239  16.777 -0.1924  0.2970 -0.1513
 1359SOL     OW15712   1.358   1.952   2.791  0.0314 -0.2592 -0.1492
 1359SOL    HW115713   1.300   1.933   2.864  1.6668  0.9203  1.4513
 1359SOL    HW215714   1.308   1.912   2.720 -0.8440  0.0690  0.2855
 1360SOL     OW15715   0.938   4.193  17.514 -0.3638  0.2767 -0.4117
 1360SOL    HW115716   0.973   4.216  17.428  0.3467 -1.8450 -0.6890
 1360SOL    HW215717   0.846   4.195  17.491 -0.7503 -1.3451  1.0226
 1361SOL     OW15718   1.794   1.243  11.207  0.3389  0.0366 -0.2348
 1361SOL    HW115719   1.720   1.244  11.146 -0.4821  0.0737  0.7613
 1361SOL    HW215720   1.863   1.239  11.141  1.9230  0.5164  1.3748
 1362SOL     OW15721   1.237   1.723  11.210  0.2143  0.4161  0.4084
 1362SOL    HW115722   1.143   1.708  11.213 -0.0737  2.2618  0.5576
 1362SOL    HW215723   1.275   1.636  11.220 -1.5604 -0.2463  1.2070
 1363SOL     OW15724   1.860   1.197   4.864  0.1068  0.3419 -0.1537
 1363SOL    HW115725   1.787   1.235   4.814 -1.1332 -2.8021 -0.7133
 1363SOL    HW215726   1.815   1.135   4.921  1.2759 -1.5665 -1.2908
 1364SOL     OW15727   3.834   0.971   2.452  0.1571  0.2555 -0.0571
 1364SOL    HW115728   3.748   0.931   2.460  0.2025 -0.1488 -1.5981
 1364SOL    HW215729   3.813   1.053   2.407  2.5481  1.2742  0.6664
 1365SOL     OW15730   3.580   3.463   2.355  0.5069 -0.1351  0.3233
 1365SOL    HW115731   3.529   3.481   2.434 -0.7244  1.3012 -0.7994
 1365SOL    HW215732   3.672   3.468   2.380  0.8431  0.0884 -0.9358
 1366SOL     OW15733   2.185   4.377   7.105 -0.4117  0.0264 -0.5172
 1366SOL    HW115734   2.100   4.357   7.144 -0.5445  0.5509 -0.5326
 1366SOL    HW215735   2.173   4.335   7.020 -1.0370  1.3000 -1.0650
 1367SOL     OW15736   2.192   3.386   2.492 -0.4361 -0.6165 -0.1904
 1367SOL    HW115737   2.217   3.448   2.423  0.4743  1.5587  2.0892
 1367SOL    HW215738   2.188   3.453   2.560  0.0694 -1.0599  0.2699
 1368SOL     OW15739   2.857   1.272   4.528 -0.2111 -0.3026 -0.1535
 1368SOL    HW115740   2.927   1.225   4.482  1.8601  2.0831  0.5365
 1368SOL    HW215741   2.787   1.252   4.466 -0.1457 -0.7871 -0.0662
 1369SOL     OW15742   1.923   2.999   6.918  0.0577 -0.2050  0.2144
 1369SOL    HW115743   1.945   2.932   6.983 -4.4192 -0.6427  1.2790
 1369SOL    HW215744   1.967   2.958   6.844  0.8907 -0.3799  0.8102
 1370SOL     OW15745   1.990   4.557   8.818 -0.9429 -0.6158  0.1269
 1370SOL    HW115746   1.938   4.492   8.770 -0.0710 -0.8376 -0.5202
 1370SOL    HW215747   2.027   4.601   8.742 -0.4615 -1.8081 -0.3227
 1371SOL     OW15748   1.655   3.326   7.218 -0.1200  0.0141  0.6651
 1371SOL    HW115749   1.718   3.284   7.158 -2.4953 -1.9543 -0.4327
 1371SOL    HW215750   1.596   3.256   7.246 -0.0614 -0.5902 -0.7357
 1372SOL     OW15751   3.009   2.591   3.686  0.0420  0.3718  0.0932
 1372SOL    HW115752   3.034   2.500   3.669 -0.9036  0.4896 -1.8334
 1372SOL    HW215753   2.943   2.596   3.618  0.0697  1.3910  0.1530
 1373SOL     OW15754   3.837   0.212   8.075  0.4450  0.5065 -0.6214
 1373SOL    HW115755   3.801   0.230   7.988  1.3753  2.9267 -0.4945
 1373SOL    HW215756   3.873   0.295   8.104  3.4753 -1.0329  0.0141
 1374SOL     OW15757   1.501   1.964  10.456 -0.4638 -0.0109 -0.0238
 1374SOL    HW115758   1.492   1.906  10.532 -1.0148  0.2779  0.1240
 1374SOL    HW215759   1.580   1.921  10.421 -0.6110  0.9845 -1.5465
 1375SOL     OW15760   0.961   1.228  12.153  0.9563  0.0299  0.3663
 1375SOL    HW115761   0.988   1.155  12.209 -0.8407 -0.8540  0.0573
 1375SOL    HW215762   0.997   1.198  12.069 -2.1548 -0.5663 -0.7497
 1376SOL     OW15763   0.327   2.089   1.092  0.7097 -0.0354  0.4386
 1376SOL    HW115764   0.404   2.138   1.062 -0.0979  1.6600  1.0867
 1376SOL    HW215765   0.369   2.004   1.090  1.1209  0.1930 -0.4572
 1377SOL     OW15766   2.300   0.627   9.022 -0.0845 -0.5729 -0.0585
 1377SOL    HW115767   2.218   0.617   9.071 -1.5246  0.9289 -2.1628
 1377SOL    HW215768   2.264   0.647   8.935  0.3363 -0.7843 -0.2843
 1378SOL     OW15769   3.069   3.542   4.945 -0.1842 -0.1716  0.0003
 1378SOL    HW115770   3.056   3.447   4.949  2.8105 -0.5015  1.9056
 1378SOL    HW215771   3.126   3.562   4.871 -1.5450  2.9026 -0.2379
 1379SOL     OW15772   0.617   3.616   7.473 -0.7460 -0.3585  0.3823
 1379SOL    HW115773   0.575   3.593   7.555  1.1342 -1.0416  1.1721
 1379SOL    HW215774   0.686   3.675   7.503 -2.5684  1.0448  1.7569
 1380SOL     OW15775   1.549   2.021   6.509 -0.5443  0.3198  0.0900
 1380SOL    HW115776   1.642   2.037   6.528 -0.6364  0.8933  0.0567
 1380SOL    HW215777   1.532   2.066   6.426  1.2021 -0.9288 -0.9410
 1381SOL     OW15778   1.170   3.293  15.089 -0.4017  0.0353 -0.5854
 1381SOL    HW115779   1.162   3.334  15.175  0.2126 -1.2369  0.0781
 1381SOL    HW215780   1.102   3.227  15.083 -0.3912  0.0103 -0.4265
 1382SOL     OW15781   2.147   0.436  15.027  0.7113  0.5212  0.0885
 1382SOL    HW115782   2.224   0.472  15.070  3.3887 -3.1157 -1.7627
 1382SOL    HW215783   2.171   0.407  14.939 -2.4821 -0.8795 -0.3482
 1383SOL     OW15784   2.982   0.570  16.360  0.1045 -0.3442 -0.3185
 1383SOL    HW115785   3.013   0.660  16.376 -0.5734  0.0334 -1.1071
 1383SOL    HW215786   2.886   0.578  16.356 -0.0469 -2.6916 -0.8086
 1384SOL     OW15787   1.275   0.832   4.327 -0.1735 -0.2316  0.2351
 1384SOL    HW115788   1.344   0.822   4.392 -2.0388 -1.1285  2.0407
 1384SOL    HW215789   1.194   0.841   4.376 -0.6102  1.6744 -0.8332
 1385SOL     OW15790   0.455   4.179   5.931 -0.3943 -0.1956  0.0505
 1385SOL    HW115791   0.423   4.162   5.842  0.2328 -2.9923  0.3372
 1385SOL    HW215792   0.539   4.132   5.927 -0.8436 -0.9521 -0.5540
 1386SOL     OW15793   3.666   4.015  15.342 -0.1146 -0.4905  0.5405
 1386SOL    HW115794   3.634   4.102  15.318  0.9020 -0.4454 -0.6780
 1386SOL    HW215795   3.745   4.035  15.392 -0.2677 -0.0426  0.6063
 1387SOL     OW15796   4.173   4.001  13.802  0.3067 -0.5537  0.6439
 1387SOL    HW115797   4.147   4.023  13.712 -1.3131  0.9146  1.4846
 1387SOL    HW215798   4.235   4.071  13.823 -0.0625 -0.2413  0.6793
 1388SOL     OW15799   4.585   2.773  13.665 -0.1080 -0.2820 -0.6871
 1388SOL    HW115800   4.560   2.858  13.703 -2.1795 -0.4073 -1.7550
 1388SOL    HW215801   4.517   2.717  13.705 -0.3567  0.7555  0.3565
 1389SOL     OW15802   3.199   3.895   8.112 -0.0669  0.4629  0.1238
 1389SOL    HW115803   3.219   3.833   8.182 -0.8775 -0.0875 -0.1289
 1389SOL    HW215804   3.283   3.940   8.107  0.1422  0.1940  1.1506
 1390SOL     OW15805   1.380   1.886  10.712 -0.3899  0.0306 -0.1254
 1390SOL    HW115806   1.377   1.858  10.803 -0.1747  1.2058  0.2389
 1390SOL    HW215807   1.307   1.833  10.679 -1.8187  0.5850  2.1521
 1391SOL     OW15808   2.785   3.382   6.160 -0.3597  0.0038 -0.3686
 1391SOL    HW115809   2.856   3.408   6.101  1.5906 -1.7665  1.1681
 1391SOL    HW215810   2.787   3.463   6.212  0.1360 -0.6811  0.6941
 1392SOL     OW15811   1.722   3.919  11.272  0.0229  0.3661  0.0892
 1392SOL    HW115812   1.761   3.835  11.294  0.4122  0.4376 -0.3395
 1392SOL    HW215813   1.787   3.955  11.213 -2.2889  2.8453 -0.9625
 1393SOL     OW15814   4.106   3.847   5.122 -0.5580 -0.2580  0.1039
 1393SOL    HW115815   4.107   3.921   5.182 -1.0050  0.6659 -1.0253
 1393SOL    HW215816   4.023   3.807   5.146  0.0344 -0.4871  1.7558
 1394SOL     OW15817   4.305   3.743  15.611  0.4770 -0.0740  0.3871
 1394SOL    HW115818   4.259   3.680  15.667  0.6529 -1.2054 -0.7398
 1394SOL    HW215819   4.387   3.694  15.602 -0.1541 -1.5436  2.7051
 1395SOL     OW15820   4.731   2.467   1.169  0.5964  0.1909 -0.2418
 1395SOL    HW115821   0.083   2.499   1.147 -0.8220  2.4321 -2.5917
 1395SOL    HW215822   0.008   2.378   1.201 -1.1545  0.6591  1.8138
 1396SOL     OW15823   3.426   0.387   2.066  0.0969  0.0776  0.3214
 1396SOL    HW115824   3.476   0.339   2.000 -0.9789  2.1742 -2.0272
 1396SOL    HW215825   3.373   0.449   2.016 -0.7042 -2.6088 -2.1417
 1397SOL     OW15826   3.284   1.277  17.107 -0.3696 -0.0409  0.2691
 1397SOL    HW115827   3.196   1.241  17.097 -0.0752 -1.7827  3.7954
 1397SOL    HW215828   3.298   1.316  17.021 -4.3348  1.1560  0.2033
 1398SOL     OW15829   3.799   2.505   5.591  0.3353  0.0519  0.3074
 1398SOL    HW115830   3.818   2.596   5.570 -2.1730  0.4325 -0.2815
 1398SOL    HW215831   3.732   2.492   5.523 -2.0538 -1.2169  2.9041
 1399SOL     OW15832   1.263   3.918  14.770 -1.1693  0.3120  0.8176
 1399SOL    HW115833   1.319   3.907  14.693 -0.2269 -0.3520  1.5912
 1399SOL    HW215834   1.321   3.966  14.830  0.8583 -0.5605 -0.4441
 1400SOL     OW15835   3.723   0.795   6.696  0.4238  0.5995 -0.4735
 1400SOL    HW115836   3.665   0.814   6.623  0.3637  0.5150 -0.4479
 1400SOL    HW215837   3.805   0.764   6.657 -0.0528  0.4235 -1.3260
 1401SOL     OW15838   2.131   1.427   4.089  0.4021 -0.1962 -0.3675
 1401SOL    HW115839   2.091   1.341   4.082 -2.9926  1.2201  1.8573
 1401SOL    HW215840   2.108   1.471   4.007 -0.5605  0.6552  0.3628
 1402SOL     OW15841   1.296   2.695   2.398 -0.4490 -0.6878  0.4293
 1402SOL    HW115842   1.263   2.720   2.484 -0.1477 -2.6847  1.1163
 1402SOL    HW215843   1.317   2.602   2.409  2.9672  0.0743  0.3687
 1403SOL     OW15844   1.553   4.639   4.513  0.1618 -0.1236 -0.3133
 1403SOL    HW115845   1.544   4.711   4.451 -1.8085 -1.4828 -1.6090
 1403SOL    HW215846   1.460   4.628   4.534  0.1993  0.4583  0.1385
 1404SOL     OW15847   3.993   0.360  17.077  0.2901  0.4799 -0.8888
 1404SOL    HW115848   4.055   0.306  17.128 -1.3003 -0.4536  0.0549
 1404SOL    HW215849   3.993   0.437  17.134 -0.7862 -0.5132  0.4494
 1405SOL     OW15850   4.692   0.396  14.001 -0.4933  0.0965  0.1410
 1405SOL    HW115851   4.615   0.390  13.944 -1.1462 -0.5638  1.0838
 1405SOL    HW215852   4.654   0.381  14.088  0.6477  1.7193  0.9158
 1406SOL     OW15853   4.204   2.784  13.607  0.0097  0.5968 -0.2759
 1406SOL    HW115854   4.285   2.738  13.629  0.9939  0.9506 -3.0709
 1406SOL    HW215855   4.142   2.724  13.647  1.2891 -0.3029  0.3728
 1407SOL     OW15856   0.897   3.568   0.334 -0.4131 -0.6057 -0.6535
 1407SOL    HW115857   0.818   3.514   0.337 -0.0608 -1.0218  0.9879
 1407SOL    HW215858   0.917   3.581   0.242 -2.8089 -3.3900 -1.5764
 1408SOL     OW15859   3.253   0.619   3.152  0.1263  0.3091 -0.6408
 1408SOL    HW115860   3.248   0.704   3.196 -1.4556  0.5785 -1.3657
 1408SOL    HW215861   3.266   0.632   3.059 -0.4345  1.0734 -0.6153
 1409SOL     OW15862   3.894   2.194   8.439  0.7650 -0.4595  0.4256
 1409SOL    HW115863   3.980   2.185   8.397 -0.4953 -0.6032 -2.1420
 1409SOL    HW215864   3.916   2.234   8.523  0.6970 -1.0642  0.7255
 1410SOL     OW15865   2.957   3.412   8.946 -0.4120 -0.4741  0.2951
 1410SOL    HW115866   2.996   3.325   8.955 -2.8319 -1.4187  1.4489
 1410SOL    HW215867   2.892   3.398   9.014 -2.7285 -1.1450 -2.0621
 1411SOL     OW15868   0.077   0.657   4.385  0.0702 -0.0168  0.2323
 1411SOL    HW115869   0.142   0.611   4.437 -1.3773 -0.0425  2.0372
 1411SOL    HW215870   0.068   0.610   4.302 -0.8323 -0.6120  0.6693
 1412SOL     OW15871   4.676   3.842   5.247  0.0940  0.8387 -0.0195
 1412SOL    HW115872   4.636   3.862   5.332 -1.4279  0.2615 -0.5952
 1412SOL    HW215873   4.606   3.797   5.200  1.1407 -0.9128  0.0826
 1413SOL     OW15874   1.712   3.242   2.340  0.0394 -0.5464  0.6246
 1413SOL    HW115875   1.807   3.255   2.334 -0.3267  1.5403 -0.7358
 1413SOL    HW215876   1.691   3.335   2.347 -0.8041 -0.6312 -1.0401
 1414SOL     OW15877   4.558   0.947   8.879 -0.1406  0.4149  0.0987
 1414SOL    HW115878   4.491   1.013   8.895  0.1968  0.9672 -0.7590
 1414SOL    HW215879   4.618   0.990   8.818 -0.9236  1.2256 -0.1056
 1415SOL     OW15880   4.671   2.474  15.650  0.6503  0.1438  0.1763
 1415SOL    HW115881   0.002   2.443  15.590  1.8384 -0.2870  1.7031
 1415SOL    HW215882   4.605   2.406  15.635 -0.1660  1.2797 -1.3833
 1416SOL     OW15883   1.500   4.575   2.628 -0.0404 -0.0849  0.2148
 1416SOL    HW115884   1.459   4.660   2.643 -1.5085 -0.3559 -2.2501
 1416SOL    HW215885   1.445   4.520   2.683 -1.0246 -0.0603 -0.7548
 1417SOL     OW15886   2.022   4.576   0.900 -0.0200  0.0286 -0.4034
 1417SOL    HW115887   2.052   4.525   0.825 -0.0293 -1.0029  0.2930
 1417SOL    HW215888   2.038   4.509   0.966 -0.9201  2.4947  2.3374
 1418SOL     OW15889   2.123   2.859  14.060 -0.5475 -0.4399 -0.3486
 1418SOL    HW115890   2.197   2.881  14.116 -1.3664 -0.4251  0.7373
 1418SOL    HW215891   2.044   2.884  14.109  0.5215  1.6743  0.2890
 1419SOL     OW15892   3.985   2.281   0.948  0.4598  0.2856  0.8469
 1419SOL    HW115893   4.020   2.306   0.863 -1.6589  0.7228  0.1169
 1419SOL    HW215894   3.908   2.337   0.950  1.9046  2.2659  0.4391
 1420SOL     OW15895   0.269   2.461   9.333  0.4033  0.2560  0.8159
 1420SOL    HW115896   0.292   2.470   9.426 -1.8587  0.9239  1.3194
 1420SOL    HW215897   0.235   2.372   9.333  1.6672 -0.2207 -0.6733
 1421SOL     OW15898   2.431   2.494   5.896 -0.5070 -0.1346  0.2612
 1421SOL    HW115899   2.426   2.589   5.901  0.6567 -0.0243 -0.5320
 1421SOL    HW215900   2.409   2.481   5.804 -0.4387  0.1298  0.2070
 1422SOL     OW15901   1.417   1.211   6.437  0.1649  0.1471  0.2175
 1422SOL    HW115902   1.396   1.301   6.414  1.9092  0.2391 -1.0568
 1422SOL    HW215903   1.504   1.218   6.475  0.8447  2.3206 -1.7116
 1423SOL     OW15904   2.935   0.004   7.330  0.0281  0.3917  0.3973
 1423SOL    HW115905   2.896   4.698   7.406  0.7351 -2.1938 -0.6830
 1423SOL    HW215906   2.941   0.087   7.378  1.1959 -0.9013  2.4802
 1424SOL     OW15907   3.725   4.157   6.587 -0.0144  0.6585  0.0398
 1424SOL    HW115908   3.759   4.200   6.665  1.0514  3.3321 -1.8848
 1424SOL    HW215909   3.651   4.217   6.574 -1.3046 -0.3320  2.7533
 1425SOL     OW15910   4.514   3.727   7.577  0.2711  0.0485  0.2276
 1425SOL    HW115911   4.523   3.809   7.625 -1.1389  0.7616 -0.7088
 1425SOL    HW215912   4.423   3.697   7.574 -0.5170  2.4193  0.1538
 1426SOL     OW15913   0.107   4.132   2.411  0.3648 -0.5969 -0.1447
 1426SOL    HW115914   0.026   4.175   2.438  0.3495 -1.1352  0.6632
 1426SOL    HW215915   0.098   4.044   2.448 -1.2261 -0.5535 -0.4399
 1427SOL     OW15916   2.455   2.075  13.024 -0.1734 -0.2823  0.4114
 1427SOL    HW115917   2.360   2.063  13.023  0.2125 -3.3463 -0.7989
 1427SOL    HW215918   2.492   1.987  13.029  1.1507  0.0834 -3.1282
 1428SOL     OW15919   0.828   2.121   7.057  0.3946  0.2538 -0.6109
 1428SOL    HW115920   0.768   2.191   7.031 -1.9092 -1.3663  0.2956
 1428SOL    HW215921   0.780   2.042   7.033 -1.0570  0.6881  0.8855
 1429SOL     OW15922   2.883   0.359   7.359 -0.0308  0.1967 -0.0606
 1429SOL    HW115923   2.830   0.437   7.344 -0.4099  0.1165  0.8855
 1429SOL    HW215924   2.883   0.361   7.455 -1.2555 -3.2638 -0.0144
 1430SOL     OW15925   2.147   4.368   5.961 -0.3545 -0.3103  0.4875
 1430SOL    HW115926   2.129   4.289   6.014  0.1396  0.1170  1.2942
 1430SOL    HW215927   2.060   4.407   5.965  0.1955  1.1141 -1.7970
 1431SOL     OW15928   1.422   4.505   3.583 -0.2766 -0.7427 -0.6761
 1431SOL    HW115929   1.349   4.445   3.599  0.0405 -1.3759 -1.6576
 1431SOL    HW215930   1.426   4.515   3.488 -4.8518  3.8698 -0.3402
 1432SOL     OW15931   2.420   1.754   1.192 -0.3586  0.5432  0.6256
 1432SOL    HW115932   2.432   1.836   1.144 -1.1711 -0.3099 -1.0195
 1432SOL    HW215933   2.371   1.695   1.135  0.0590 -0.3316  1.1629
 1433SOL     OW15934   3.245   0.982   8.145  0.4567  0.4379 -0.7828
 1433SOL    HW115935   3.223   0.928   8.221  1.8316 -0.1446 -0.7900
 1433SOL    HW215936   3.260   0.907   8.088  2.0474  0.9746 -1.0761
 1434SOL     OW15937   3.532   4.371  16.177  0.0308  0.3998 -0.4885
 1434SOL    HW115938   3.595   4.300  16.169 -2.9167 -1.9358 -2.8905
 1434SOL    HW215939   3.536   4.404  16.087  0.9077  0.2066 -0.5140
 1435SOL     OW15940   2.619   1.074  15.839  0.4783 -0.7663  0.0992
 1435SOL    HW115941   2.542   1.058  15.785  2.2926 -0.3690 -2.5915
 1435SOL    HW215942   2.616   1.167  15.861  0.7994 -1.1324  1.6776
 1436SOL     OW15943   0.359   1.828   7.734 -0.1052 -0.3013 -1.3287
 1436SOL    HW115944   0.320   1.897   7.679  1.0457  1.5254  0.1544
 1436SOL    HW215945   0.452   1.852   7.739 -0.7989  2.0090  0.3530
 1437SOL     OW15946   1.918   0.418   6.081  0.3433  0.0216  0.5159
 1437SOL    HW115947   1.842   0.375   6.041  0.4545  1.7435 -1.5274
 1437SOL    HW215948   1.864   0.456   6.151  0.2907 -1.8663  1.4918
 1438SOL     OW15949   0.417   3.599   1.619 -0.7807 -0.1481 -0.6795
 1438SOL    HW115950   0.508   3.571   1.620 -0.9197 -0.6006 -0.4018
 1438SOL    HW215951   0.416   3.688   1.654 -0.0419  0.2317 -1.6461
 1439SOL     OW15952   2.883   3.668   8.265 -0.1990  0.4828 -0.3089
 1439SOL    HW115953   2.819   3.666   8.336  0.4650 -0.6593  0.2617
 1439SOL    HW215954   2.965   3.693   8.308 -1.4407  0.0530  2.3126
 1440SOL     OW15955   1.867   1.462   1.508  0.4070  0.1381 -0.5833
 1440SOL    HW115956   1.869   1.371   1.477 -0.2710  0.2958 -1.1016
 1440SOL    HW215957   1.772   1.475   1.509  0.7590  2.5910 -0.8201
 1441SOL     OW15958   4.645   2.545  15.916 -0.0703  0.3188 -0.6806
 1441SOL    HW115959   4.665   2.523  15.825  0.9580  0.2758 -0.4407
 1441SOL    HW215960   4.551   2.556  15.903 -0.1808 -1.1484 -1.1117
 1442SOL     OW15961   2.408   0.477   6.290 -0.1882  0.6698 -0.0168
 1442SOL    HW115962   2.385   0.424   6.213  0.8565 -2.4338  1.8024
 1442SOL    HW215963   2.344   0.545   6.270 -1.3951 -0.7574 -1.0437
 1443SOL     OW15964   1.232   0.821  11.239  0.5617  0.3706 -0.0665
 1443SOL    HW115965   1.232   0.909  11.203 -4.6657 -0.1331 -1.3540
 1443SOL    HW215966   1.230   0.837  11.334 -0.4590 -1.6267  0.2564
 1444SOL     OW15967   1.678   2.334   1.639  0.1846 -0.5151 -0.6641
 1444SOL    HW115968   1.703   2.256   1.688  1.2961 -0.6280 -1.4261
 1444SOL    HW215969   1.684   2.298   1.550  0.6488  1.4364 -1.4117
 1445SOL     OW15970   2.686   0.188   5.291  0.0687  0.2044 -1.1065
 1445SOL    HW115971   2.716   0.264   5.243  4.9952 -1.0411 -0.0183
 1445SOL    HW215972   2.629   0.225   5.359  1.8722 -1.2602  1.2029
 1446SOL     OW15973   2.793   1.179  11.427  0.8950 -0.0054  0.0588
 1446SOL    HW115974   2.832   1.127  11.497 -1.5645 -0.5936  0.9841
 1446SOL    HW215975   2.853   1.156  11.355  2.4723  0.3414  1.2609
 1447SOL     OW15976   0.880   0.937  14.141  0.2023  0.0500 -0.0018
 1447SOL    HW115977   0.914   0.848  14.128 -1.4185 -0.9772  2.7457
 1447SOL    HW215978   0.930   0.962  14.219 -1.4238 -0.4247  1.1787
 1448SOL     OW15979   3.338   1.747   6.433  0.6055  0.9258  0.7626
 1448SOL    HW115980   3.428   1.778   6.423  0.3145  1.8520  0.9654
 1448SOL    HW215981   3.322   1.712   6.346  0.4728 -0.5865  1.3945
 1449SOL     OW15982   2.218   4.099   3.941  0.1454  0.0498  0.0953
 1449SOL    HW115983   2.249   4.174   3.991 -0.5700 -1.7925  3.2652
 1449SOL    HW215984   2.191   4.146   3.862  0.7058  0.1397 -0.0425
 1450SOL     OW15985   3.849   2.823   8.744  0.9394 -0.6038  0.3158
 1450SOL    HW115986   3.935   2.791   8.716  0.4770 -1.7886  0.2486
 1450SOL    HW215987   3.863   2.797   8.835  2.5561  0.3367  0.3355
 1451SOL     OW15988   0.882   1.931   8.854  0.6951 -0.5128 -0.1433
 1451SOL    HW115989   0.924   1.945   8.939 -0.9706 -1.4713  0.8533
 1451SOL    HW215990   0.813   1.997   8.850 -1.7060 -2.9634  0.6660
 1452SOL     OW15991   2.630   1.269  10.677 -0.2255 -0.0355  0.1209
 1452SOL    HW115992   2.699   1.211  10.709  1.8608  0.4203 -3.6203
 1452SOL    HW215993   2.657   1.271  10.585  0.1816  2.8261  0.3249
 1453SOL     OW15994   4.087   1.088   9.331  0.1133  0.3064  0.0322
 1453SOL    HW115995   4.011   1.053   9.376  0.0925  2.4515  1.6612
 1453SOL    HW215996   4.155   1.031   9.366  0.7988  0.7280 -0.5979
 1454SOL     OW15997   3.853   3.649   6.769 -0.0206 -0.0290 -0.8554
 1454SOL    HW115998   3.868   3.572   6.716  1.1808 -0.4580  0.1184
 1454SOL    HW215999   3.901   3.636   6.851 -1.7688 -1.4520 -0.0433
 1455SOL     OW16000   4.155   1.265  11.733  0.0377 -0.3663 -0.3457
 1455SOL    HW116001   4.167   1.295  11.643  0.8904 -0.8200 -0.3882
 1455SOL    HW216002   4.106   1.184  11.718 -0.4698  0.2476 -2.0192
 1456SOL     OW16003   1.677   3.216  16.506  0.1263  0.3434  0.0808
 1456SOL    HW116004   1.696   3.126  16.532  0.1618  0.8509  1.8349
 1456SOL    HW216005   1.732   3.223  16.428 -1.6053  1.3676 -1.0395
 1457SOL     OW16006   3.180   1.983  12.390  0.8036  0.3394 -0.6852
 1457SOL    HW116007   3.133   2.066  12.388 -0.7787 -0.5143  0.3026
 1457SOL    HW216008   3.118   1.913  12.414  0.4179  0.6795 -0.6857
 1458SOL     OW16009   3.891   0.765  10.987  0.0089  0.0493  0.4241
 1458SOL    HW116010   3.977   0.808  10.985 -0.4502  0.8244 -2.2351
 1458SOL    HW216011   3.912   0.673  11.000 -3.2265 -0.2175  3.7097
 1459SOL     OW16012   1.005   0.063  13.926 -0.6335 -0.2432 -0.0775
 1459SOL    HW116013   1.080   0.016  13.890 -0.3169 -0.0962  0.3890
 1459SOL    HW216014   0.932   0.000  13.927  0.9593 -2.0390  1.6225
 1460SOL     OW16015   2.701   0.191  13.402 -0.5465  0.2172  0.1615
 1460SOL    HW116016   2.619   0.159  13.365  0.7592 -0.5109 -2.1761
 1460SOL    HW216017   2.679   0.271  13.449 -0.3297  0.7694 -0.6727
 1461SOL     OW16018   2.212   0.541  12.045 -0.5636  0.2167 -0.0952
 1461SOL    HW116019   2.135   0.557  12.100 -1.6095 -1.0877 -1.2010
 1461SOL    HW216020   2.255   0.462  12.078 -1.2670 -0.3257 -0.5087
 1462SOL     OW16021   1.237   1.719  16.956 -0.0628 -0.1630  0.2192
 1462SOL    HW116022   1.323   1.678  16.952 -0.6889 -1.3968 -0.4939
 1462SOL    HW216023   1.203   1.698  16.869 -0.4790 -0.8117  0.5450
 1463SOL     OW16024   1.154   2.478  14.011 -0.5153 -0.3167  0.0877
 1463SOL    HW116025   1.109   2.556  14.045  2.0866  0.9402  0.6238
 1463SOL    HW216026   1.082   2.416  14.024 -1.7808  1.1944  0.4057
 1464SOL     OW16027   4.275   2.323   6.120 -0.3465 -0.1238 -0.1285
 1464SOL    HW116028   4.279   2.374   6.039  1.2799 -1.3865 -0.8447
 1464SOL    HW216029   4.318   2.379   6.184 -0.4711 -0.5848  0.3612
 1465SOL     OW16030   0.384   1.675  17.382  0.3191  0.2413  0.3173
 1465SOL    HW116031   0.306   1.672  17.327  0.8134 -1.3416 -0.3029
 1465SOL    HW216032   0.445   1.725  17.328 -0.7205  1.7442  0.5460
 1466SOL     OW16033   2.107   3.180  12.059 -0.4109  0.3530  0.1291
 1466SOL    HW116034   2.049   3.134  11.998  0.3867  0.9993 -1.1136
 1466SOL    HW216035   2.092   3.123  12.135 -2.6701  1.4707  0.5334
 1467SOL     OW16036   0.167   2.803  11.380 -0.6425 -0.3088 -0.3626
 1467SOL    HW116037   0.178   2.868  11.310  0.8341  0.4787  0.5992
 1467SOL    HW216038   0.072   2.807  11.391 -0.6084 -1.8626  0.4440
 1468SOL     OW16039   2.957   1.560   8.911  0.7135  0.3708 -0.2473
 1468SOL    HW116040   2.938   1.627   8.977 -1.3785 -1.5812  1.1267
 1468SOL    HW216041   2.897   1.490   8.938 -0.7761  1.5217 -0.6374
 1469SOL     OW16042   3.285   1.528   0.964 -0.3550 -0.0455 -0.0446
 1469SOL    HW116043   3.342   1.470   0.913  2.3896  0.4252  2.4309
 1469SOL    HW216044   3.318   1.617   0.950  3.4677 -1.5943 -1.0120
 1470SOL     OW16045   2.150   1.510   0.779  0.3515  0.7939  1.0634
 1470SOL    HW116046   2.188   1.493   0.693 -2.2935  0.0032  0.0629
 1470SOL    HW216047   2.064   1.543   0.753  0.3413  0.8661  1.1889
 1471SOL     OW16048   1.203   1.362   8.915  0.1048 -0.0443  0.4758
 1471SOL    HW116049   1.290   1.402   8.914 -1.0128  2.3917  0.2530
 1471SOL    HW216050   1.231   1.273   8.893  0.1251  0.0025  0.3110
 1472SOL     OW16051   3.785   0.483   0.909  0.1305 -0.2952  0.8265
 1472SOL    HW116052   3.867   0.503   0.954  0.6034 -2.4503  0.9445
 1472SOL    HW216053   3.742   0.569   0.913  1.4906  0.2994  2.9785
 1473SOL     OW16054   2.238   2.288   1.773 -0.0739 -0.1378 -0.4303
 1473SOL    HW116055   2.288   2.370   1.776  0.0991 -0.3290  1.7556
 1473SOL    HW216056   2.204   2.275   1.861 -1.5254  0.9863 -0.8365
 1474SOL     OW16057   4.550   3.281  15.389  0.3626  0.0284  0.4504
 1474SOL    HW116058   4.470   3.240  15.422 -0.4327  0.9225 -0.3767
 1474SOL    HW216059   4.543   3.258  15.297  2.1423  3.6349 -0.5923
 1475SOL     OW16060   0.245   1.358   1.927 -0.2593  0.1769 -0.2314
 1475SOL    HW116061   0.274   1.449   1.932  1.1411 -0.2705 -0.2183
 1475SOL    HW216062   0.234   1.345   1.833  1.9703 -2.0997 -0.1869
 1476SOL     OW16063   2.029   2.880  13.362 -0.5159  0.0302  0.2095
 1476SOL    HW116064   2.095   2.941  13.330  0.7487 -0.4855  1.8285
 1476SOL    HW216065   2.083   2.802  13.377 -2.3490 -1.1627  0.6538
 1477SOL     OW16066   3.593   1.582  14.429  0.0131  0.1979  0.0939
 1477SOL    HW116067   3.550   1.497  14.420 -0.7245  0.7405 -1.4292
 1477SOL    HW216068   3.631   1.572  14.516  0.7140  0.4068 -0.1899
 1478SOL     OW16069   2.163   0.529   2.418  0.3029  0.4122 -0.2849
 1478SOL    HW116070   2.168   0.620   2.387 -0.9459  1.3570  2.2607
 1478SOL    HW216071   2.256   0.519   2.436  0.7290  2.6366 -1.2795
 1479SOL     OW16072   1.759   4.397   4.607 -0.1688  0.2135 -0.2710
 1479SOL    HW116073   1.683   4.448   4.580  0.3316  1.1949  0.1507
 1479SOL    HW216074   1.782   4.446   4.686 -2.4629 -0.8725  1.0383
 1480SOL     OW16075   1.550   1.304   5.341  0.0415  0.0401  1.0216
 1480SOL    HW116076   1.538   1.238   5.273  0.3566  2.1921 -1.1374
 1480SOL    HW216077   1.457   1.309   5.365 -0.3673 -2.1711 -0.1296
 1481SOL     OW16078   1.011   0.832   2.560  0.3093 -0.4793 -0.0888
 1481SOL    HW116079   1.070   0.831   2.636  0.9785  1.4429 -0.6001
 1481SOL    HW216080   0.932   0.788   2.592 -0.8960  2.3737  0.8094
 1482SOL     OW16081   0.957   2.154   9.385  0.6840 -0.1355 -0.5243
 1482SOL    HW116082   0.971   2.094   9.459  1.5776  1.2925  0.4649
 1482SOL    HW216083   1.011   2.232   9.391 -0.7253  0.7226  1.1823
 1483SOL     OW16084   1.407   4.654   6.664  0.2753  0.1945 -0.2223
 1483SOL    HW116085   1.329   4.669   6.716  0.2922  1.1170 -0.4658
 1483SOL    HW216086   1.449   4.592   6.724  1.6705 -0.7341 -2.1511
 1484SOL     OW16087   3.522   0.371   8.869  0.8002  0.3420  0.3352
 1484SOL    HW116088   3.577   0.348   8.943  0.4662 -2.1810 -0.1815
 1484SOL    HW216089   3.434   0.336   8.885  0.7412  1.1154  1.6373
 1485SOL     OW16090   2.297   0.452  12.526 -0.5023 -0.0697 -0.5896
 1485SOL    HW116091   2.251   0.383  12.478 -3.2008 -0.2116  2.2459
 1485SOL    HW216092   2.355   0.396  12.578 -1.6059  0.9025  1.6933
 1486SOL     OW16093   4.600   1.642   7.287 -0.1891  0.3836  0.6345
 1486SOL    HW116094   4.634   1.682   7.367 -0.8343  0.1352  1.0344
 1486SOL    HW216095   4.678   1.594   7.259 -1.5327 -2.2356  1.4100
 1487SOL     OW16096   2.438   3.679  12.847  0.1500 -0.4722 -0.3677
 1487SOL    HW116097   2.344   3.667  12.842  0.0567  0.1941 -0.1306
 1487SOL    HW216098   2.449   3.763  12.801  1.5584  0.3828  1.5413
 1488SOL     OW16099   4.077   1.691  11.421 -0.3417 -0.1877 -0.4012
 1488SOL    HW116100   4.065   1.602  11.387 -0.2654  0.8571 -3.1812
 1488SOL    HW216101   4.019   1.702  11.496  0.1016 -0.8543  0.0452
 1489SOL     OW16102   1.324   4.165   3.888  0.1006  0.0634  0.2695
 1489SOL    HW116103   1.308   4.258   3.904  0.6599 -0.0103  1.2400
 1489SOL    HW216104   1.332   4.137   3.979 -0.4121 -1.2170 -0.0832
 1490SOL     OW16105   1.633   1.080   2.164 -0.4737  0.0013 -0.1364
 1490SOL    HW116106   1.722   1.088   2.130 -1.0180 -0.9156 -1.7749
 1490SOL    HW216107   1.642   1.101   2.257 -0.5987 -0.4552 -0.0209
 1491SOL     OW16108   2.143   0.516  11.653 -0.7079 -0.6332  0.2435
 1491SOL    HW116109   2.198   0.441  11.674  0.3767 -0.1178 -0.7692
 1491SOL    HW216110   2.198   0.583  11.692  0.6106 -2.0204  0.7465
 1492SOL     OW16111   1.200   2.208   6.861  0.2188  0.7464 -0.9935
 1492SOL    HW116112   1.288   2.222   6.895  0.0783  0.3383 -0.4724
 1492SOL    HW216113   1.233   2.168   6.781  1.9712 -1.7824  1.0333
 1493SOL     OW16114   3.603   2.868   8.202 -0.0355 -0.1409 -0.6759
 1493SOL    HW116115   3.689   2.889   8.166 -0.3445 -0.4803 -1.6036
 1493SOL    HW216116   3.624   2.846   8.293 -3.3539 -0.1319  0.0894
 1494SOL     OW16117   4.524   2.979   0.480  0.1982  0.1779  0.1351
 1494SOL    HW116118   4.558   2.954   0.394  1.7503  1.9395  0.2281
 1494SOL    HW216119   4.535   3.074   0.470  0.9315  0.1027  0.2992
 1495SOL     OW16120   4.392   4.122   4.932 -0.0350 -0.7212 -0.5333
 1495SOL    HW116121   4.432   4.095   5.015 -0.0365 -0.3568 -0.4157
 1495SOL    HW216122   4.326   4.052   4.925  0.6647 -1.5562  1.2848
 1496SOL     OW16123   3.586   1.385  11.919  0.8791 -0.2173 -0.1391
 1496SOL    HW116124   3.608   1.398  11.827 -0.7578  1.2039 -0.3182
 1496SOL    HW216125   3.672   1.366  11.956  0.4101 -1.2139  0.4496
 1497SOL     OW16126   4.053   0.062   7.988  0.3947  0.4846  0.2070
 1497SOL    HW116127   3.980   0.121   8.008  1.2888  0.9794  1.9495
 1497SOL    HW216128   4.102   0.127   7.937  2.3321 -2.5222 -1.7240
 1498SOL     OW16129   4.514   1.047  11.812 -0.1162  0.0283  0.4849
 1498SOL    HW116130   4.426   1.014  11.832 -0.0277 -0.1105  0.6455
 1498SOL    HW216131   4.520   1.030  11.718  1.9402  2.2146  0.2129
 1499SOL     OW16132   0.694   0.503   1.464 -0.3277 -0.6465 -0.1056
 1499SOL    HW116133   0.690   0.429   1.525 -2.4838  0.9606  1.6590
 1499SOL    HW216134   0.776   0.546   1.487 -0.2765 -0.0844 -1.3392
 1500SOL     OW16135   3.110   3.870   2.747 -0.1621 -0.1023  0.1876
 1500SOL    HW116136   3.120   3.848   2.839 -0.4836 -0.5818  0.1075
 1500SOL    HW216137   3.034   3.928   2.747 -0.9060 -1.0650 -1.1333
 1501SOL     OW16138   1.327   0.237  16.271 -0.4466  0.2672  0.4198
 1501SOL    HW116139   1.344   0.225  16.178 -1.6540  2.6477 -0.1244
 1501SOL    HW216140   1.401   0.183  16.299 -1.0276  0.4261  2.2218
 1502SOL     OW16141   0.188   3.223   0.988 -0.3629 -0.0930 -0.8583
 1502SOL    HW116142   0.134   3.280   1.042  0.5834  0.3927 -0.4371
 1502SOL    HW216143   0.255   3.182   1.043 -0.2858  0.9154 -0.2144
 1503SOL     OW16144   0.084   4.617   0.504 -0.4833 -0.2808  0.3184
 1503SOL    HW116145   0.059   4.580   0.589 -2.8114  1.2774  0.2997
 1503SOL    HW216146   0.161   4.567   0.478 -0.9367 -1.2139  0.7761
 1504SOL     OW16147   2.158   0.607   9.461 -0.9002  0.4244 -0.3261
 1504SOL    HW116148   2.167   0.635   9.370 -0.2970  2.6426  0.4144
 1504SOL    HW216149   2.230   0.544   9.461 -1.9788 -0.8287 -1.6642
 1505SOL     OW16150   1.820   0.996   4.226 -0.1056 -0.3475  0.2624
 1505SOL    HW116151   1.892   0.933   4.221  0.4704  0.3706 -0.4639
 1505SOL    HW216152   1.753   0.967   4.163 -0.3189 -1.4233  0.9852
 1506SOL     OW16153   2.513   0.322   5.472 -0.1071  0.0345 -0.3402
 1506SOL    HW116154   2.486   0.391   5.412 -0.6326 -2.8536 -3.4538
 1506SOL    HW216155   2.485   0.356   5.557 -1.7749 -0.5803 -0.6374
 1507SOL     OW16156   1.929   3.388   2.816  0.2044  1.1422 -0.3205
 1507SOL    HW116157   1.915   3.297   2.792 -3.1045  1.2689  1.0512
 1507SOL    HW216158   2.022   3.401   2.799  0.5398 -0.0417  0.6169
 1508SOL     OW16159   2.532   2.157   3.680 -0.7038  0.5149 -0.0135
 1508SOL    HW116160   2.514   2.119   3.766  1.4096  1.1121  0.6939
 1508SOL    HW216161   2.627   2.165   3.686 -0.6949  1.1834 -0.9568
 1509SOL     OW16162   1.937   4.721  12.392 -0.3711 -0.2838  0.3817
 1509SOL    HW116163   2.029   4.709  12.415  0.2894  1.5394 -1.2644
 1509SOL    HW216164   1.924   0.080  12.389 -0.7051 -0.3223  0.5625
 1510SOL     OW16165   0.678   0.191   3.970 -0.1931 -0.3281  0.2893
 1510SOL    HW116166   0.585   0.176   3.954  0.1227 -0.6222 -1.2691
 1510SOL    HW216167   0.684   0.188   4.066 -1.8536 -4.4663  0.2560
 1511SOL     OW16168   3.046   1.517   9.513  0.4754 -0.5478 -0.0580
 1511SOL    HW116169   2.974   1.544   9.456 -0.5652 -1.9267  0.6194
 1511SOL    HW216170   3.071   1.596   9.561 -3.2756  1.6357 -1.6988
 1512SOL     OW16171   1.746   4.144   8.771  0.5808 -0.0757  0.6056
 1512SOL    HW116172   1.808   4.143   8.844  1.4697  1.2984 -0.1332
 1512SOL    HW216173   1.783   4.195   8.699 -1.0945 -0.1750 -0.3358
 1513SOL     OW16174   0.346   3.075   6.697 -0.3287 -0.2689  0.2509
 1513SOL    HW116175   0.271   3.083   6.756 -0.5549  1.6764 -0.3109
 1513SOL    HW216176   0.407   3.140   6.732 -1.5450  0.0343  1.8168
 1514SOL     OW16177   2.222   1.435   2.848  0.2418  0.1716  0.3830
 1514SOL    HW116178   2.201   1.432   2.941  0.8999  0.5885  0.5378
 1514SOL    HW216179   2.207   1.529   2.833 -1.2619 -0.1139  0.0228
 1515SOL     OW16180   0.191   0.548   6.375  0.1252 -0.0888  0.9512
 1515SOL    HW116181   0.263   0.607   6.399  0.5810  0.2806 -1.2912
 1515SOL    HW216182   0.120   0.612   6.371  0.9106  0.7448  0.2002
 1516SOL     OW16183   4.403   3.560   3.523 -0.1231  0.5126 -0.1919
 1516SOL    HW116184   4.438   3.471   3.517  0.7997  0.8963 -0.5056
 1516SOL    HW216185   4.312   3.535   3.537  0.1029  0.4062  1.1086
 1517SOL     OW16186   0.576   0.014   4.856 -0.7617  0.0929 -0.3506
 1517SOL    HW116187   0.511   0.047   4.918 -0.0246  1.2872 -0.1978
 1517SOL    HW216188   0.632   4.710   4.922 -0.5638 -0.5935 -0.9422
 1518SOL     OW16189   2.036   0.132   3.515  0.3798 -0.1230 -0.0671
 1518SOL    HW116190   1.960   0.082   3.547  1.1049 -0.5467  0.9879
 1518SOL    HW216191   2.022   0.122   3.421  0.0015  1.3353 -0.1695
 1519SOL     OW16192   3.227   1.505   8.821  0.1937 -1.0487  0.6813
 1519SOL    HW116193   3.249   1.593   8.850 -0.7860 -0.8441  0.8174
 1519SOL    HW216194   3.134   1.505   8.841  0.3104 -0.6916  1.2091
 1520SOL     OW16195   2.298   0.085   6.577  0.5801  0.7670 -0.7093
 1520SOL    HW116196   2.248   0.153   6.622  0.3106  0.5690 -0.7104
 1520SOL    HW216197   2.307   0.019   6.646 -2.4561  1.1315  0.0494
 1521SOL     OW16198   0.621   2.579   6.112  0.2585  0.2168  0.3225
 1521SOL    HW116199   0.584   2.618   6.191  1.2796 -1.2240  1.5079
 1521SOL    HW216200   0.711   2.570   6.144 -0.0968 -0.3630  1.1303
 1522SOL     OW16201   3.888   1.582  15.858  0.1566 -1.2749 -0.3130
 1522SOL    HW116202   3.884   1.497  15.903 -1.0287 -0.6250  0.8181
 1522SOL    HW216203   3.979   1.569  15.830  0.9788 -1.6488  2.4973
 1523SOL     OW16204   4.522   2.907   1.450 -0.1888  0.1508 -0.3967
 1523SOL    HW116205   4.481   2.844   1.509 -2.5542  1.7871 -0.3161
 1523SOL    HW216206   4.585   2.847   1.409 -0.1642 -0.9052  1.1967
 1524SOL     OW16207   3.483   4.671  13.007 -0.0581 -0.3628  0.0786
 1524SOL    HW116208   3.501   4.578  13.021 -1.5961 -0.7701 -0.6333
 1524SOL    HW216209   3.562   4.715  13.039 -0.4686  1.1786 -0.9837
 1525SOL     OW16210   0.314   2.897   7.978 -0.1083 -0.6273 -0.0693
 1525SOL    HW116211   0.342   2.808   7.956 -0.1905 -0.4342 -0.9171
 1525SOL    HW216212   0.393   2.931   8.022 -0.3953  0.3786 -0.3493
 1526SOL     OW16213   0.874   3.538   5.059 -0.0689 -0.1124  0.4436
 1526SOL    HW116214   0.965   3.533   5.089 -0.5286 -0.6671  1.7558
 1526SOL    HW216215   0.858   3.630   5.038 -0.0824 -0.0828  0.5845
 1527SOL     OW16216   4.453   1.336   3.058  0.2481 -0.5665  0.0852
 1527SOL    HW116217   4.511   1.336   3.134  1.9204 -0.5495 -1.1890
 1527SOL    HW216218   4.512   1.288   3.000  0.0805  1.1725 -1.5403
 1528SOL     OW16219   1.855   1.724  10.425  0.1448  0.3260 -0.2351
 1528SOL    HW116220   1.855   1.634  10.457  1.9139 -0.2841 -1.9701
 1528SOL    HW216221   1.936   1.759  10.462 -0.2472  0.1567  0.8120
 1529SOL     OW16222   3.726   0.367   5.351 -0.8946  0.1485 -0.3297
 1529SOL    HW116223   3.718   0.457   5.321  0.9188 -0.5659 -2.9705
 1529SOL    HW216224   3.636   0.339   5.367 -0.5088 -0.1451  1.2848
 1530SOL     OW16225   4.580   4.652  12.748 -0.5025  0.3831  0.0006
 1530SOL    HW116226   4.485   4.644  12.743 -0.5156  1.9899 -2.1760
 1530SOL    HW216227   4.600   4.676  12.657 -0.9885  2.3344  0.3897
 1531SOL     OW16228   2.179   0.211   4.534  0.0001  0.1088  0.1824
 1531SOL    HW116229   2.145   0.131   4.574 -0.5365  0.6267  0.7408
 1531SOL    HW216230   2.139   0.196   4.449  0.0284  1.5451 -0.0792
 1532SOL     OW16231   0.826   2.112   0.213 -0.3253  0.5076  0.8743
 1532SOL    HW116232   0.898   2.136   0.155  0.3849  0.4740  1.7375
 1532SOL    HW216233   0.843   2.019   0.229  1.3756  0.8871  1.2610
 1533SOL     OW16234   2.152   2.234   8.333  0.1642  0.3522 -0.8871
 1533SOL    HW116235   2.236   2.194   8.351 -1.0174 -0.8385  2.0460
 1533SOL    HW216236   2.118   2.237   8.423 -1.3570 -0.8062 -1.4243
 1534SOL     OW16237   0.853   2.333   4.112  0.0361 -0.4411 -0.4310
 1534SOL    HW116238   0.862   2.427   4.097  0.7166 -0.0320  2.5127
 1534SOL    HW216239   0.844   2.337   4.207  0.6072 -0.8192 -0.3642
 1535SOL     OW16240   2.038   0.268  15.561 -0.2077 -0.7572  0.3055
 1535SOL    HW116241   1.956   0.270  15.511 -1.1715 -0.1686  1.8844
 1535SOL    HW216242   2.098   0.217  15.507 -0.8992 -0.4803 -0.7293
 1536SOL     OW16243   1.147   1.818   2.596  0.1397 -0.6349  0.0381
 1536SOL    HW116244   1.103   1.840   2.514 -1.7684  0.8785  1.4800
 1536SOL    HW216245   1.076   1.777   2.646 -1.7453  0.4529 -1.7308
 1537SOL     OW16246   3.847   3.547   6.159 -0.1990 -0.3494  0.7590
 1537SOL    HW116247   3.925   3.546   6.103 -1.0658  2.5562 -0.5452
 1537SOL    HW216248   3.877   3.581   6.243 -0.2668  0.1710  0.5746
 1538SOL     OW16249   3.508   3.194   7.408 -0.1555  0.9582 -0.5200
 1538SOL    HW116250   3.418   3.227   7.404  0.1022  1.5280 -1.6279
 1538SOL    HW216251   3.496   3.107   7.371 -0.3272  0.8928 -0.3129
 1539SOL     OW16252   0.039   0.926   2.645 -0.1158 -0.1353 -0.1194
 1539SOL    HW116253   4.725   0.845   2.640  1.5640 -1.1427 -0.8947
 1539SOL    HW216254   4.710   0.995   2.631 -0.3385  0.0612  1.9100
 1540SOL     OW16255   1.674   2.401   7.458 -0.0866  0.3301  0.1794
 1540SOL    HW116256   1.649   2.360   7.374 -0.6113  2.0154 -0.4925
 1540SOL    HW216257   1.763   2.367   7.467  0.0495  0.7505  0.3918
 1541SOL     OW16258   0.402   0.634   1.406 -0.6863 -0.0957  0.3523
 1541SOL    HW116259   0.378   0.542   1.409 -2.9452  0.5294  1.4517
 1541SOL    HW216260   0.497   0.624   1.394 -0.4137  3.7977 -0.8652
 1542SOL     OW16261   4.267   1.704   1.441 -0.0411 -0.0095  0.3910
 1542SOL    HW116262   4.347   1.711   1.389  0.5015 -1.3318  1.0616
 1542SOL    HW216263   4.210   1.762   1.390 -1.3580 -0.2067  1.6182
 1543SOL     OW16264   0.596   2.515   7.636 -0.3699  0.0017 -0.0512
 1543SOL    HW116265   0.628   2.459   7.565  1.0702 -0.1377  0.7037
 1543SOL    HW216266   0.511   2.472   7.637 -0.3991 -0.0079 -2.2027
 1544SOL     OW16267   4.608   3.457   1.450  0.2130  0.0215  0.5634
 1544SOL    HW116268   4.562   3.534   1.417  1.4229  0.5929  0.1837
 1544SOL    HW216269   4.556   3.391   1.404  1.5801 -1.6377  1.3851
 1545SOL     OW16270   3.550   4.575   1.269 -0.1987 -0.1233  0.2666
 1545SOL    HW116271   3.530   4.641   1.334 -0.2306 -0.4065  0.5425
 1545SOL    HW216272   3.563   4.641   1.201 -1.5589  0.6695  0.7772
 1546SOL     OW16273   2.563   1.402  11.977 -0.2939 -0.6669 -0.1275
 1546SOL    HW116274   2.485   1.402  12.033 -0.0526 -2.0005  0.1972
 1546SOL    HW216275   2.598   1.321  12.015 -1.9208 -1.2957  0.0380
 1547SOL     OW16276   2.212   4.387   9.711 -0.2861  0.4918 -0.3175
 1547SOL    HW116277   2.145   4.451   9.734  1.9543  2.2523  1.3088
 1547SOL    HW216278   2.167   4.348   9.635 -0.0127  0.5285 -0.4973
 1548SOL     OW16279   3.206   2.162  17.683 -0.2030 -0.1507 -0.3548
 1548SOL    HW116280   3.199   2.203  17.597 -0.7176  1.3858  0.4052
 1548SOL    HW216281   3.119   2.184  17.714  0.1855 -0.1206  0.7305
 1549SOL     OW16282   1.314   1.522  14.718 -0.2556 -0.3807 -0.1189
 1549SOL    HW116283   1.389   1.577  14.695 -0.3797 -0.5217 -0.8442
 1549SOL    HW216284   1.259   1.513  14.641  0.2154  0.1403 -0.5153
 1550SOL     OW16285   0.218   2.539   6.996  0.0276  0.1806 -0.5611
 1550SOL    HW116286   0.310   2.560   6.983 -0.3191  0.1264 -3.1081
 1550SOL    HW216287   0.203   2.449   7.024  0.0690  0.1847 -0.5253
 1551SOL     OW16288   1.020   2.937   2.825  0.0894 -0.1283  0.1778
 1551SOL    HW116289   1.063   2.958   2.908  1.9408  0.3110 -0.9015
 1551SOL    HW216290   1.035   3.021   2.783 -0.4467 -0.2350 -0.2354
 1552SOL     OW16291   1.521   3.006   4.734 -0.1165  0.2348 -0.2206
 1552SOL    HW116292   1.458   3.001   4.663 -0.6964  0.6798  0.2654
 1552SOL    HW216293   1.462   2.986   4.807 -0.2526 -0.8759 -0.6295
 1553SOL     OW16294   4.190   2.363   2.796 -0.0040  0.5071  0.2783
 1553SOL    HW116295   4.148   2.351   2.711  1.0260 -1.3689  0.0283
 1553SOL    HW216296   4.240   2.444   2.781 -0.0228  0.9749  2.7232
 1554SOL     OW16297   3.661   3.714   9.076 -0.1726 -0.2806 -0.8810
 1554SOL    HW116298   3.757   3.712   9.074 -0.0994  0.3989  1.4060
 1554SOL    HW216299   3.648   3.680   9.165  1.6065 -0.2941 -0.6377
 1555SOL     OW16300   3.271   0.444   2.836  0.8574 -0.6470  0.4518
 1555SOL    HW116301   3.348   0.494   2.864 -0.7372  1.5540  0.9193
 1555SOL    HW216302   3.274   0.365   2.890  4.2173 -1.4587 -0.9341
 1556SOL     OW16303   1.174   3.198   4.273 -0.3431 -0.2476 -0.7694
 1556SOL    HW116304   1.176   3.239   4.360 -2.1131  1.2542 -1.4184
 1556SOL    HW216305   1.082   3.214   4.251 -0.4480  1.5727  0.9266
 1557SOL     OW16306   0.888   4.243  13.886 -0.1210  0.4228  0.1639
 1557SOL    HW116307   0.843   4.186  13.947 -0.4870  0.4171 -0.1159
 1557SOL    HW216308   0.919   4.310  13.947 -2.6520  2.3015 -0.5915
 1558SOL     OW16309   1.555   3.931   0.082  0.5240  0.4603 -0.2816
 1558SOL    HW116310   1.556   3.936  17.730  1.5728  0.3829 -0.2735
 1558SOL    HW216311   1.642   3.896   0.102  0.3059  1.2778  2.1476
 1559SOL     OW16312   1.074   2.536   6.016  0.3238 -0.2610  0.3487
 1559SOL    HW116313   1.088   2.533   5.921 -3.2767 -3.7070 -0.0815
 1559SOL    HW216314   1.150   2.584   6.049  0.4383  0.3675 -0.8318
 1560SOL     OW16315   0.639   3.210   3.672 -0.1495 -0.0392 -0.0213
 1560SOL    HW116316   0.543   3.201   3.669 -0.0991 -0.1418 -1.3624
 1560SOL    HW216317   0.665   3.232   3.582 -1.6554  0.1338 -0.4226
 1561SOL     OW16318   0.645   1.261   8.762 -0.2619 -0.8215 -0.7528
 1561SOL    HW116319   0.663   1.328   8.696  0.4642 -0.9242 -0.6618
 1561SOL    HW216320   0.671   1.302   8.845 -2.5678  1.8045 -1.3465
 1562SOL     OW16321   3.054   3.950   7.888  0.2742  0.1334 -0.0641
 1562SOL    HW116322   2.993   3.878   7.873 -1.1919  0.8915  2.2451
 1562SOL    HW216323   3.095   3.918   7.968  0.3961 -0.4630 -0.3664
 1563SOL     OW16324   2.513   1.605   7.494  0.4886  0.1822 -0.1804
 1563SOL    HW116325   2.503   1.516   7.527 -0.9179  0.2209 -0.5088
 1563SOL    HW216326   2.608   1.614   7.504  0.5332 -0.7337  0.2287
 1564SOL     OW16327   2.755   2.347   3.743 -0.4863 -0.2306  0.1866
 1564SOL    HW116328   2.748   2.416   3.678 -1.3354 -0.9932 -0.5337
 1564SOL    HW216329   2.702   2.386   3.813  0.1913  1.0431 -0.0188
 1565SOL     OW16330   2.858   2.281  11.807 -0.0897  0.3043  0.1839
 1565SOL    HW116331   2.818   2.202  11.773  0.6110 -0.4324  1.0924
 1565SOL    HW216332   2.866   2.340  11.731 -0.4820  0.6210  0.3895
 1566SOL     OW16333   3.165   4.522  17.578 -0.0091 -0.0649  0.1171
 1566SOL    HW116334   3.076   4.522  17.611  0.2463  3.9592  0.7177
 1566SOL    HW216335   3.210   4.562  17.653  0.1931  0.3228 -0.2101
 1567SOL     OW16336   4.450   2.044   7.393 -0.0280  0.5544  0.0351
 1567SOL    HW116337   4.443   1.983   7.319  0.1012  0.3612  0.1817
 1567SOL    HW216338   4.363   2.028   7.427  0.0782 -2.3685 -1.0451
 1568SOL     OW16339   2.700   2.757   3.752  0.3048 -0.4741 -0.4299
 1568SOL    HW116340   2.691   2.685   3.690 -0.7893 -0.6479 -0.0646
 1568SOL    HW216341   2.784   2.797   3.730  0.2648 -1.1696 -1.8533
 1569SOL     OW16342   2.946   2.066   7.677  0.0013 -0.3863  0.1068
 1569SOL    HW116343   3.026   2.013   7.673  1.0802  1.0606  2.1015
 1569SOL    HW216344   2.938   2.091   7.585 -1.2919  3.0612  1.1532
 1570SOL     OW16345   4.066   3.128   8.665  0.2798 -0.4171 -0.5203
 1570SOL    HW116346   3.978   3.142   8.630  0.5777  3.6229  0.2629
 1570SOL    HW216347   4.097   3.045   8.629 -0.9560 -1.7013  1.4231
 1571SOL     OW16348   2.885   1.592  10.390 -0.3951  0.2421  0.0816
 1571SOL    HW116349   2.946   1.577  10.317  0.5633 -1.0399  1.1361
 1571SOL    HW216350   2.940   1.558  10.461  1.5452  0.7731 -1.1558
 1572SOL     OW16351   2.233   4.680   9.409 -0.0901 -0.8780 -0.5158
 1572SOL    HW116352   2.170   4.706   9.477  0.0208 -1.8294 -0.0440
 1572SOL    HW216353   2.302   4.650   9.468  1.0144 -0.3126 -1.5295
 1573SOL     OW16354   3.552   2.925   4.750 -0.1080  0.2379 -0.6454
 1573SOL    HW116355   3.473   2.979   4.746 -0.1728  0.3124  1.3923
 1573SOL    HW216356   3.540   2.866   4.824 -0.6499  0.2624 -0.7167
 1574SOL     OW16357   3.509   3.851  10.568 -0.4689 -0.1668 -0.3843
 1574SOL    HW116358   3.584   3.911  10.570 -0.8104  0.2559 -0.4050
 1574SOL    HW216359   3.546   3.765  10.550 -0.6873 -0.3001 -0.1959
 1575SOL     OW16360   2.038   1.356   3.444  0.3625 -0.6086  0.7447
 1575SOL    HW116361   2.039   1.438   3.492  1.8862  0.3138 -0.8845
 1575SOL    HW216362   2.009   1.394   3.361 -0.0588 -3.0269 -0.2251
 1576SOL     OW16363   0.351   3.598   7.939 -0.0590 -0.2407  0.3237
 1576SOL    HW116364   0.426   3.596   7.999  0.0670 -2.4105  0.0575
 1576SOL    HW216365   0.296   3.536   7.987  0.1455  0.4659  1.4950
 1577SOL     OW16366   1.760   1.505  11.355 -0.6443 -0.5280 -0.0242
 1577SOL    HW116367   1.775   1.416  11.322  1.3684 -0.2447  0.1290
 1577SOL    HW216368   1.794   1.509  11.444  0.5783  1.0747 -0.5712
 1578SOL     OW16369   0.524   0.527  14.467 -0.1038  0.0364  0.0111
 1578SOL    HW116370   0.482   0.441  14.469  1.4164 -0.6365  2.6190
 1578SOL    HW216371   0.458   0.572  14.413  2.8462  2.4379 -1.5914
 1579SOL     OW16372   4.700   0.602   9.113 -0.4375 -0.2462 -0.2606
 1579SOL    HW116373   4.735   0.691   9.110  0.4126 -0.5387  1.0538
 1579SOL    HW216374   0.009   0.568   9.190 -2.3714 -5.5493 -1.5085
 1580SOL     OW16375   3.465   2.666   0.798 -0.1109 -0.2612  0.5952
 1580SOL    HW116376   3.486   2.662   0.705  0.1104  0.6730  0.6009
 1580SOL    HW216377   3.390   2.725   0.794  0.1543  0.0837  0.6800
 1581SOL     OW16378   1.855   4.245  12.876 -0.1836  0.3745 -0.8865
 1581SOL    HW116379   1.822   4.256  12.787  1.0087  0.2674 -1.3438
 1581SOL    HW216380   1.923   4.312  12.874  0.6647 -0.4465 -0.0901
 1582SOL     OW16381   2.938   1.039   1.699 -0.0913  0.0584  0.6988
 1582SOL    HW116382   2.966   0.965   1.645  3.2306  1.5982  0.3230
 1582SOL    HW216383   2.846   1.028   1.674  0.2166  2.8940 -1.6836
 1583SOL     OW16384   2.242   3.194   1.439 -0.7982 -0.4249  0.1617
 1583SOL    HW116385   2.253   3.144   1.358  1.3624  0.0159  0.1810
 1583SOL    HW216386   2.230   3.119   1.498  2.9377 -0.9833  0.1750
 1584SOL     OW16387   2.858   4.040   4.215  0.3421 -0.2009 -0.0502
 1584SOL    HW116388   2.891   4.124   4.248 -0.3309  0.0386  0.0171
 1584SOL    HW216389   2.925   3.983   4.252 -0.1004 -0.8809 -0.2974
 1585SOL     OW16390   3.828   2.088  10.432 -0.0093  0.4258 -0.5643
 1585SOL    HW116391   3.772   2.050  10.500 -0.2517  0.2780 -0.8473
 1585SOL    HW216392   3.798   2.179  10.426  2.0623  1.0794 -0.9777
 1586SOL     OW16393   1.803   2.053   5.294 -0.4494 -0.1350 -0.8086
 1586SOL    HW116394   1.766   1.969   5.318 -0.7557  0.3844  0.5328
 1586SOL    HW216395   1.897   2.042   5.312 -0.2783  1.0270 -0.9843
 1587SOL     OW16396   3.014   1.227   1.077 -0.2844 -0.5658  0.1891
 1587SOL    HW116397   3.095   1.182   1.057  1.3191  2.0132  0.8072
 1587SOL    HW216398   2.985   1.190   1.160 -0.1907  1.0414  0.9550
 1588SOL     OW16399   4.678   4.229   2.626 -0.2485 -0.0807 -0.2731
 1588SOL    HW116400   4.597   4.264   2.662  1.0789 -0.1806  2.7696
 1588SOL    HW216401   4.730   4.310   2.629  2.8439 -2.1218  0.5938
 1589SOL     OW16402   0.701   1.873  10.182  0.0746 -0.0751  0.0308
 1589SOL    HW116403   0.744   1.891  10.265 -0.2332 -0.3890  0.2600
 1589SOL    HW216404   0.658   1.789  10.199  1.6683 -1.2693 -1.8226
 1590SOL     OW16405   0.436   2.193  14.848 -0.3411 -0.2446 -0.2475
 1590SOL    HW116406   0.367   2.235  14.899  0.9570  1.3412  0.1936
 1590SOL    HW216407   0.449   2.250  14.773  0.4331 -0.8244 -0.5587
 1591SOL     OW16408   0.583   0.382  13.846 -0.8513  0.4589  0.7700
 1591SOL    HW116409   0.609   0.347  13.760 -0.5632 -1.2370  1.5411
 1591SOL    HW216410   0.671   0.365  13.879  0.0482  2.8069 -0.4415
 1592SOL     OW16411   4.166   0.072   2.027 -0.5166 -0.2515 -0.4234
 1592SOL    HW116412   4.092   0.052   2.084 -0.2358  1.2481  0.4439
 1592SOL    HW216413   4.143   0.031   1.943 -0.4425  0.1036 -0.6165
 1593SOL     OW16414   3.195   2.822   3.562  0.0077  0.2304  0.6010
 1593SOL    HW116415   3.145   2.750   3.600 -0.7792  0.0954 -0.6852
 1593SOL    HW216416   3.161   2.828   3.472  1.7073 -0.5925 -0.0925
 1594SOL     OW16417   4.166   1.458   5.082 -0.1812  0.2351 -0.5266
 1594SOL    HW116418   4.088   1.483   5.131 -0.1051  0.7938 -0.6927
 1594SOL    HW216419   4.240   1.485   5.137  0.7187 -0.8829 -1.1790
 1595SOL     OW16420   1.708   1.020   5.840 -0.4936  0.1376 -0.6231
 1595SOL    HW116421   1.691   1.114   5.831 -0.4206  0.0077 -2.0762
 1595SOL    HW216422   1.630   0.990   5.888  1.5781 -1.9201  1.4478
 1596SOL     OW16423   2.187   1.643   8.466 -0.0039  0.2220  0.0946
 1596SOL    HW116424   2.185   1.601   8.552 -0.3352 -1.1970 -0.6166
 1596SOL    HW216425   2.262   1.596   8.431  0.0664 -1.9691  3.1639
 1597SOL     OW16426   1.975   2.388  11.339  0.0781  0.1663  0.6832
 1597SOL    HW116427   1.951   2.361  11.251 -2.0478 -1.6364  1.8268
 1597SOL    HW216428   2.020   2.469  11.316  0.3690 -0.6198 -1.4565
 1598SOL     OW16429   2.938   3.416   4.495  0.0346 -0.2563  0.0417
 1598SOL    HW116430   3.020   3.458   4.467  0.0622  0.0741  0.6053
 1598SOL    HW216431   2.976   3.384   4.577 -0.2761  0.0214  0.2976
 1599SOL     OW16432   1.279   0.090  13.167  0.0858 -0.0350  0.4919
 1599SOL    HW116433   1.327   0.047  13.096  0.3371  0.5853  0.2881
 1599SOL    HW216434   1.217   0.146  13.119  0.7299  0.8246  0.6646
 1600SOL     OW16435   4.503   3.015  13.764  0.2680  0.0999  0.2963
 1600SOL    HW116436   4.542   3.076  13.827 -1.1691  0.3412  0.9586
 1600SOL    HW216437   4.435   3.076  13.734 -0.7899 -1.1406  0.1706
 1601SOL     OW16438   0.490   2.182   4.756 -0.5340  0.0425 -0.1203
 1601SOL    HW116439   0.495   2.091   4.785 -3.1006  0.0561  0.3560
 1601SOL    HW216440   0.396   2.194   4.760 -0.3148  1.6244  0.5423
 1602SOL     OW16441   0.546   2.213   7.854 -0.4641 -0.6984  0.6550
 1602SOL    HW116442   0.604   2.140   7.831 -0.0028 -0.4614  1.0668
 1602SOL    HW216443   0.591   2.239   7.935 -0.2614  2.8985 -0.6187
 1603SOL     OW16444   3.745   4.625   5.524 -0.3262 -0.0590 -0.1610
 1603SOL    HW116445   3.835   4.625   5.493  0.4261 -0.8271  2.0430
 1603SOL    HW216446   3.755   4.662   5.611  0.0676 -1.4201  0.3583
 1604SOL     OW16447   0.043   2.273   9.075 -0.3402  0.0093 -0.0635
 1604SOL    HW116448   4.719   2.199   9.062  0.8229 -0.7851 -0.8752
 1604SOL    HW216449   0.128   2.243   9.044 -0.1954 -2.2518  2.4434
 1605SOL     OW16450   0.590   1.569   5.228 -0.1442 -0.6335  0.3688
 1605SOL    HW116451   0.648   1.500   5.195  1.3739  0.1796  1.3360
 1605SOL    HW216452   0.635   1.615   5.299 -2.8848  0.6252  1.3132
 1606SOL     OW16453   4.455   0.435   3.178  0.2003 -0.6265 -0.4662
 1606SOL    HW116454   4.461   0.513   3.234 -1.6345 -1.9433  1.5181
 1606SOL    HW216455   4.543   0.436   3.139  0.0738  1.5024 -0.6950
 1607SOL     OW16456   0.306   4.340   7.266  0.0831 -0.1433 -0.0665
 1607SOL    HW116457   0.367   4.323   7.337 -0.3473  1.9882  0.8256
 1607SOL    HW216458   0.235   4.369   7.323  0.1088  0.7182 -0.4700
 1608SOL     OW16459   0.705   3.276   6.868  0.3951 -0.0300 -0.7416
 1608SOL    HW116460   0.629   3.305   6.817  0.6698  4.9307  1.6291
 1608SOL    HW216461   0.711   3.349   6.929  2.2360 -0.2713 -0.6238
 1609SOL     OW16462   1.105   3.468   8.607  1.0939 -0.1845  0.2581
 1609SOL    HW116463   1.135   3.509   8.688 -2.1347  1.1017  0.7913
 1609SOL    HW216464   1.138   3.378   8.618  0.1226 -0.7022 -1.0328
 1610SOL     OW16465   4.191   1.275   5.409 -0.0604 -0.4150 -0.7537
 1610SOL    HW116466   4.118   1.215   5.426 -0.7200  0.6395  0.1129
 1610SOL    HW216467   4.244   1.217   5.354  0.0656  0.2031 -1.2822
 1611SOL     OW16468   1.075   4.583   2.280 -0.1286 -0.0476 -0.3954
 1611SOL    HW116469   1.021   4.556   2.206  1.3249 -1.0972 -1.0717
 1611SOL    HW216470   1.046   4.673   2.296  0.0778 -0.1489  0.5564
 1612SOL     OW16471   1.674   4.395   7.349 -0.2273  0.6520 -0.2120
 1612SOL    HW116472   1.593   4.419   7.303 -0.4465 -0.2657 -0.3085
 1612SOL    HW216473   1.632   4.356   7.426  0.6319  0.6974  0.2731
 1613SOL     OW16474   4.242   3.586   8.365 -0.5955 -0.2349 -0.2778
 1613SOL    HW116475   4.302   3.524   8.405 -1.2043 -0.4113  0.3518
 1613SOL    HW216476   4.197   3.619   8.443 -1.2324 -2.3250  0.2356
 1614SOL     OW16477   1.137   0.681   7.916  0.8093 -0.3248  0.1517
 1614SOL    HW116478   1.204   0.621   7.882 -2.6223 -3.2525 -1.4682
 1614SOL    HW216479   1.069   0.671   7.849  0.1214  0.4944  0.7371
 1615SOL     OW16480   3.354   4.469   1.666  0.0484  0.6449  0.2738
 1615SOL    HW116481   3.431   4.414   1.650 -0.8414 -1.3017  2.7657
 1615SOL    HW216482   3.296   4.408   1.711 -1.0018  0.9304 -0.7230
 1616SOL     OW16483   0.497   3.076   9.721 -0.2590 -0.7324 -0.2111
 1616SOL    HW116484   0.559   3.053   9.789 -0.8522 -0.4213  0.4340
 1616SOL    HW216485   0.517   3.002   9.664  0.8324  1.3517 -2.5449
 1617SOL     OW16486   1.405   0.331   2.973  0.0412 -1.2258 -0.4929
 1617SOL    HW116487   1.381   0.369   2.888  2.7084  1.7220  0.0730
 1617SOL    HW216488   1.387   0.401   3.036  3.8218 -1.2885  0.6221
 1618SOL     OW16489   2.709   1.818  14.469 -0.2953 -0.0647 -0.4989
 1618SOL    HW116490   2.667   1.890  14.423 -2.2232 -1.3942 -0.8136
 1618SOL    HW216491   2.702   1.846  14.560  2.7529 -2.5023  0.5058
 1619SOL     OW16492   1.165   4.684   3.760 -0.2044  0.0981  0.0199
 1619SOL    HW116493   1.124   4.704   3.844 -0.3063 -0.7705  0.1723
 1619SOL    HW216494   1.099   4.628   3.720 -1.1797  1.1905  0.1101
 1620SOL     OW16495   2.156   2.514   7.152 -0.3692 -0.1637  0.5977
 1620SOL    HW116496   2.135   2.425   7.181 -0.9469 -0.5718 -1.0978
 1620SOL    HW216497   2.107   2.570   7.213 -1.9329 -0.7326 -0.1414
 1621SOL     OW16498   1.515   2.943  15.399  0.6259 -0.1484 -0.1014
 1621SOL    HW116499   1.568   2.995  15.459  0.3105 -1.7923  1.5867
 1621SOL    HW216500   1.562   2.948  15.315 -1.2750  2.8627 -0.9980
 1622SOL     OW16501   1.395   1.312  13.906 -0.0666 -0.7912 -0.4703
 1622SOL    HW116502   1.404   1.404  13.931 -1.0017 -0.2977 -1.9585
 1622SOL    HW216503   1.355   1.328  13.821 -0.6592  2.0742  0.3393
 1623SOL     OW16504   1.191   1.597   9.491  0.1101  0.3020  0.5636
 1623SOL    HW116505   1.256   1.666   9.480 -1.8430  1.6884 -2.3731
 1623SOL    HW216506   1.206   1.553   9.407  2.7398  0.4235  0.9666
 1624SOL     OW16507   2.866   4.703   1.174 -0.0488 -0.0424  0.2770
 1624SOL    HW116508   2.921   4.626   1.186  0.1225  0.1922  0.9842
 1624SOL    HW216509   2.919   0.030   1.222  0.7240 -0.6424  0.2013
 1625SOL     OW16510   3.258   4.459   8.931 -0.0057  0.4081 -0.1533
 1625SOL    HW116511   3.315   4.407   8.874  2.4197  1.2317  1.5460
 1625SOL    HW216512   3.311   4.457   9.011  1.4395  0.5161 -1.1013
 1626SOL     OW16513   3.781   0.356   2.114  0.1499  0.5979 -0.0982
 1626SOL    HW116514   3.706   0.382   2.062 -1.0362  2.6700  2.6619
 1626SOL    HW216515   3.765   0.262   2.126 -0.1740  0.5223 -1.1260
 1627SOL     OW16516   2.395   3.536  15.296 -0.0236  0.3823 -0.3702
 1627SOL    HW116517   2.395   3.476  15.371  0.7871  1.0707  0.1888
 1627SOL    HW216518   2.333   3.606  15.316 -2.3034 -2.0706  1.1460
 1628SOL     OW16519   1.622   3.991   9.428  0.2305  0.3586  0.3228
 1628SOL    HW116520   1.612   3.915   9.370  0.8283  0.8135 -0.3810
 1628SOL    HW216521   1.661   3.937   9.497  1.1406  0.7127  0.0803
 1629SOL     OW16522   0.736   4.076   0.161 -0.9859  0.9202 -0.1371
 1629SOL    HW116523   0.642   4.087   0.178 -1.2505  0.0311 -1.0240
 1629SOL    HW216524   0.740   3.981   0.165  2.2276  1.1139  1.0164
 1630SOL     OW16525   3.308   1.397  10.739 -0.3431  0.2871  0.2363
 1630SOL    HW116526   3.326   1.460  10.809 -0.1742 -2.9191  3.0615
 1630SOL    HW216527   3.391   1.351  10.730 -2.2589 -2.9585 -0.6828
 1631SOL     OW16528   4.438   1.622   3.892  0.5929 -0.0089 -0.0870
 1631SOL    HW116529   4.433   1.670   3.809  1.6579 -0.2173 -0.2778
 1631SOL    HW216530   4.439   1.699   3.948  1.3328  0.8505 -1.2754
 1632SOL     OW16531   4.710   1.783   4.178 -0.0908  0.3603 -0.3821
 1632SOL    HW116532   4.661   1.721   4.232  0.0721  0.0091 -0.6360
 1632SOL    HW216533   4.634   1.810   4.127 -0.6587  0.3650  0.4751
 1633SOL     OW16534   2.804   0.146   7.719 -0.1529 -0.2078  0.7131
 1633SOL    HW116535   2.822   0.097   7.639  0.6466  0.0601  0.7311
 1633SOL    HW216536   2.876   0.125   7.779 -0.8907 -0.2874  1.5701
 1634SOL     OW16537   4.492   0.828  12.849  0.5570 -0.1518  0.2816
 1634SOL    HW116538   4.481   0.749  12.796 -1.1736  0.7264 -0.6659
 1634SOL    HW216539   4.498   0.793  12.938 -2.2975 -0.3621  0.3921
 1635SOL     OW16540   3.242   2.823   0.761 -0.2478 -0.1961 -0.0642
 1635SOL    HW116541   3.234   2.847   0.668  0.7257  0.2517 -0.0328
 1635SOL    HW216542   3.219   2.906   0.803 -0.8173 -0.2152 -0.3357
 1636SOL     OW16543   0.774   0.009   7.345  0.2985  0.2596 -0.0617
 1636SOL    HW116544   0.830   4.686   7.295 -1.3288 -1.1802 -0.2017
 1636SOL    HW216545   0.844   0.074   7.351 -0.7021  1.2311  1.2306
 1637SOL     OW16546   0.703   4.114   3.329  0.0028  0.2341 -0.0023
 1637SOL    HW116547   0.740   4.031   3.360  1.1808  0.3801 -0.9864
 1637SOL    HW216548   0.773   4.176   3.349  0.4458 -0.5775  0.9647
 1638SOL     OW16549   2.787   0.383   6.841 -0.2645  0.6918 -0.0937
 1638SOL    HW116550   2.726   0.310   6.827  0.1633  0.5181 -0.9787
 1638SOL    HW216551   2.731   0.444   6.890  0.3617  0.3435  1.0661
 1639SOL     OW16552   0.711   4.062   5.948 -0.6107 -0.5859 -0.2944
 1639SOL    HW116553   0.671   3.975   5.942 -2.0322 -0.0469  1.5635
 1639SOL    HW216554   0.746   4.063   5.859  1.5161 -0.0087  0.5495
 1640SOL     OW16555   4.603   0.904  12.039 -0.5193 -0.2556 -0.2347
 1640SOL    HW116556   4.612   0.987  11.991 -1.3211  0.3354  0.6390
 1640SOL    HW216557   4.688   0.891  12.080 -0.2898  3.1909  0.4153
 1641SOL     OW16558   3.248   1.745   9.682 -0.0641 -0.4295 -0.3946
 1641SOL    HW116559   3.251   1.741   9.777 -0.0592 -0.1387 -0.3833
 1641SOL    HW216560   3.174   1.800   9.658 -1.7850 -2.9317 -0.8967
 1642SOL     OW16561   3.036   1.445   5.339  0.6364 -0.2545  0.1483
 1642SOL    HW116562   2.961   1.424   5.395 -0.0771 -0.7481 -1.0060
 1642SOL    HW216563   3.054   1.535   5.369 -1.1768  0.9508 -2.3794
 1643SOL     OW16564   2.756   4.619  15.953 -0.2101 -0.1349  0.4790
 1643SOL    HW116565   2.784   4.562  15.882  0.0193  0.4465  0.1007
 1643SOL    HW216566   2.738   4.554  16.021  1.6039  0.6459  1.7032
 1644SOL     OW16567   3.330   0.713   6.206 -0.2825 -0.0899 -0.2598
 1644SOL    HW116568   3.296   0.663   6.132 -1.8363  1.8259 -0.8244
 1644SOL    HW216569   3.250   0.740   6.252 -0.4869 -1.2850  0.0988
 1645SOL     OW16570   0.165   3.427   4.373 -0.7366 -0.2032  0.2541
 1645SOL    HW116571   0.141   3.519   4.364  0.0538 -0.1326 -1.1438
 1645SOL    HW216572   0.212   3.423   4.456 -0.3591  1.0742  0.1071
 1646SOL     OW16573   3.792   3.788   7.968 -0.7045  0.2611  0.0647
 1646SOL    HW116574   3.869   3.788   8.024 -0.4126  0.8974 -0.3502
 1646SOL    HW216575   3.818   3.749   7.885 -0.2418  1.3520 -0.2923
 1647SOL     OW16576   3.101   2.511   4.243  0.1520  0.5558  0.0283
 1647SOL    HW116577   3.118   2.557   4.325  2.9723 -3.1424  1.5044
 1647SOL    HW216578   3.102   2.417   4.257  0.3946  0.4978 -0.3763
 1648SOL     OW16579   0.768   0.595   4.636  0.2613  0.3786  0.0129
 1648SOL    HW116580   0.844   0.595   4.693 -0.7683 -0.7566  1.3711
 1648SOL    HW216581   0.801   0.586   4.546 -0.6696 -0.8487 -0.2047
 1649SOL     OW16582   0.216   0.261   7.057  0.3606  0.0616  1.0369
 1649SOL    HW116583   0.187   0.205   7.128 -3.5398  0.0263 -0.5863
 1649SOL    HW216584   0.149   0.330   7.065 -0.6397 -0.4842 -2.5054
 1650SOL     OW16585   0.428   4.417   8.078 -0.3819 -0.3215  0.5900
 1650SOL    HW116586   0.410   4.512   8.075 -1.8460 -0.5881  0.8892
 1650SOL    HW216587   0.358   4.385   8.134  0.4629 -2.5479  0.3656
 1651SOL     OW16588   1.760   4.246   0.462 -0.1014 -0.1568 -0.2284
 1651SOL    HW116589   1.674   4.282   0.441 -0.0515 -0.3625 -0.7912
 1651SOL    HW216590   1.813   4.278   0.389 -0.8891  3.4212  0.8071
 1652SOL     OW16591   1.488   2.219   4.235  0.6461 -0.2438  0.0453
 1652SOL    HW116592   1.459   2.170   4.312 -0.1198 -0.5301 -0.4281
 1652SOL    HW216593   1.459   2.308   4.258 -3.1626 -1.8079  1.4150
 1653SOL     OW16594   4.603   2.299   2.759 -0.0886 -0.2489  0.2832
 1653SOL    HW116595   4.648   2.216   2.744 -1.2594 -0.6855 -0.8685
 1653SOL    HW216596   4.567   2.284   2.847  1.8734 -2.8375  0.6473
 1654SOL     OW16597   4.157   0.839  10.993 -0.4940 -0.3807 -0.5472
 1654SOL    HW116598   4.216   0.786  11.047  1.5388  0.8930 -1.4951
 1654SOL    HW216599   4.209   0.864  10.917  2.6757  1.4183  2.1896
 1655SOL     OW16600   3.863   2.685   6.560  0.0209  0.3237 -0.3303
 1655SOL    HW116601   3.812   2.721   6.488  0.4684  1.5400 -0.0534
 1655SOL    HW216602   3.795   2.688   6.627 -0.0673 -0.4080 -0.3853
 1656SOL     OW16603   3.339   1.731   2.681  0.2490  0.1141 -0.1130
 1656SOL    HW116604   3.313   1.696   2.595  1.4415 -0.1219 -0.3748
 1656SOL    HW216605   3.421   1.776   2.661 -0.0122  0.3611 -0.6422
 1657SOL     OW16606   1.961   0.081   1.556  0.5133  0.5690 -0.5781
 1657SOL    HW116607   1.932   0.040   1.475 -0.4983  0.7774 -0.3293
 1657SOL    HW216608   1.922   0.016   1.615 -0.0700  1.8278  0.4384
 1658SOL     OW16609   3.086   1.433   3.960 -0.3244  0.9793  0.6202
 1658SOL    HW116610   3.181   1.423   3.959 -0.5832 -1.7596  3.3567
 1658SOL    HW216611   3.091   1.447   3.866 -0.2844 -2.1037  0.1756
 1659SOL     OW16612   3.787   1.635   7.067 -0.4325  0.2111  0.2548
 1659SOL    HW116613   3.731   1.678   7.002 -2.6664  0.1586  2.1533
 1659SOL    HW216614   3.781   1.680   7.151 -1.6629 -2.6567  1.7109
 1660SOL     OW16615   0.838   2.008   8.179 -0.3207  0.0671  0.0770
 1660SOL    HW116616   0.869   1.953   8.107 -1.9322  0.1885 -0.7171
 1660SOL    HW216617   0.745   2.008   8.158 -0.0969  0.7004 -0.9185
 1661SOL     OW16618   1.368   0.344   5.958  0.2037 -0.5350 -0.7620
 1661SOL    HW116619   1.393   0.407   5.890  3.0467  0.3482  1.0928
 1661SOL    HW216620   1.381   0.264   5.907  0.7654 -0.2892 -1.0075
 1662SOL     OW16621   4.326   0.331   1.242 -0.5132 -0.6433 -0.8737
 1662SOL    HW116622   4.395   0.350   1.304 -0.4477  0.1373 -1.1871
 1662SOL    HW216623   4.366   0.374   1.166  1.3865 -2.1193 -0.7195
 1663SOL     OW16624   1.886   1.356   6.382  0.2622 -0.2257 -0.0245
 1663SOL    HW116625   1.958   1.305   6.345  1.4075  1.1075  0.3727
 1663SOL    HW216626   1.895   1.440   6.337 -1.6659  0.3811  0.7010
 1664SOL     OW16627   2.529   0.834   6.591  0.4856 -0.5105  0.3396
 1664SOL    HW116628   2.523   0.920   6.633  0.5069  0.4204 -1.5702
 1664SOL    HW216629   2.566   0.870   6.510 -2.0926 -0.5450 -0.8360
 1665SOL     OW16630   0.023   4.471   1.977  0.1476  0.1587 -0.1872
 1665SOL    HW116631   0.007   4.389   1.929  1.6598 -0.1859 -0.1198
 1665SOL    HW216632   4.725   4.447   2.063 -2.3871  0.7001 -1.0395
 1666SOL     OW16633   1.958   4.401  16.233 -0.2679  0.3784 -0.1524
 1666SOL    HW116634   1.878   4.443  16.200  1.7522  2.8419 -1.9751
 1666SOL    HW216635   2.018   4.435  16.166 -0.6570  1.3641 -0.0009
 1667SOL     OW16636   1.180   4.448   6.985 -0.2794 -0.1986 -0.0592
 1667SOL    HW116637   1.218   4.524   7.028  1.5196 -0.1252 -1.7816
 1667SOL    HW216638   1.259   4.403   6.954  0.2783  2.2444 -2.2049
 1668SOL     OW16639   2.621   0.871   6.299  0.2374 -0.1628 -0.2063
 1668SOL    HW116640   2.704   0.910   6.272 -0.2428  0.6592 -0.4926
 1668SOL    HW216641   2.636   0.778   6.284  1.5609  0.1582 -0.8820
 1669SOL     OW16642   4.309   2.945   5.717  0.4641 -0.4885  0.0059
 1669SOL    HW116643   4.383   3.005   5.725  0.5251 -0.3866 -1.4163
 1669SOL    HW216644   4.268   2.968   5.634 -0.7761 -3.8656 -0.3106
 1670SOL     OW16645   4.405   0.321   6.870 -0.1328  0.3541  0.2612
 1670SOL    HW116646   4.409   0.406   6.824  0.2382 -0.9732 -2.1795
 1670SOL    HW216647   4.413   0.360   6.957 -2.7654  0.7068  0.3559
 1671SOL     OW16648   1.446   1.898  12.832 -0.0565  0.2787  0.5037
 1671SOL    HW116649   1.389   1.915  12.907  1.0889  2.2752  0.9126
 1671SOL    HW216650   1.448   1.980  12.783 -2.1076  1.2107  1.9878
 1672SOL     OW16651   4.398   2.162  11.779  0.1987  0.0119 -0.5588
 1672SOL    HW116652   4.439   2.126  11.857 -0.4677 -0.0486 -0.2310
 1672SOL    HW216653   4.360   2.084  11.738  1.2630 -0.8213  0.0439
 1673SOL     OW16654   2.482   4.337  16.953  0.2695  0.2989  0.4457
 1673SOL    HW116655   2.522   4.423  16.941  1.0012 -0.1813 -0.5500
 1673SOL    HW216656   2.392   4.362  16.975 -0.3491 -1.4936 -0.0421
 1674SOL     OW16657   3.641   2.998   9.771 -0.1177 -0.0639  0.0156
 1674SOL    HW116658   3.661   3.039   9.855 -0.1969 -0.0165  0.0121
 1674SOL    HW216659   3.661   3.070   9.711  0.6563  0.6312  1.1116
 1675SOL     OW16660   0.286   2.385   2.036 -0.2479 -0.0746 -0.0530
 1675SOL    HW116661   0.252   2.465   2.077 -1.0570 -0.0630 -0.7482
 1675SOL    HW216662   0.206   2.352   1.995 -0.8152  0.3890  0.6807
 1676SOL     OW16663   2.030   3.756  15.022 -0.4662 -0.2596  0.2706
 1676SOL    HW116664   2.089   3.693  14.980  1.0661 -0.4944  2.8087
 1676SOL    HW216665   2.037   3.827  14.958 -1.1767 -0.6284 -0.2201
 1677SOL     OW16666   0.234   3.198  16.659  0.3228  0.2439  0.4766
 1677SOL    HW116667   0.257   3.283  16.696  1.8657 -0.4855  1.2281
 1677SOL    HW216668   0.192   3.232  16.581  0.4831  0.9036  0.6779
 1678SOL     OW16669   0.292   0.533   1.834  0.1964 -0.2744  0.2196
 1678SOL    HW116670   0.371   0.480   1.844 -0.0781 -0.7977 -0.4099
 1678SOL    HW216671   0.330   0.607   1.787  0.1245  0.5260  1.4130
 1679SOL     OW16672   1.565   3.410   0.734 -0.3466  0.2835 -0.5620
 1679SOL    HW116673   1.590   3.431   0.644 -1.7345  1.6342 -0.6249
 1679SOL    HW216674   1.489   3.356   0.710 -0.6389  0.9467 -1.1443
 1680SOL     OW16675   3.806   1.348   1.639 -0.6457  0.4494  0.0148
 1680SOL    HW116676   3.799   1.396   1.556  4.0394  1.5492  0.2919
 1680SOL    HW216677   3.897   1.319   1.645 -0.6711  0.3428 -0.1040
 1681SOL     OW16678   0.651   0.529  16.747 -0.8037 -0.7996 -0.3462
 1681SOL    HW116679   0.725   0.515  16.807 -1.6254  0.0296  0.8696
 1681SOL    HW216680   0.627   0.443  16.713 -1.2094 -1.4521  1.5933
 1682SOL     OW16681   4.438   0.482   1.944  0.4460 -0.0405 -0.1866
 1682SOL    HW116682   4.364   0.431   1.977  1.4502 -1.0153  0.5571
 1682SOL    HW216683   4.416   0.493   1.852 -0.8800  1.2378  0.2865
 1683SOL     OW16684   3.058   0.831   4.733 -0.2321 -0.1303  0.4850
 1683SOL    HW116685   3.141   0.878   4.731 -0.5955  0.6513  2.7507
 1683SOL    HW216686   3.006   0.905   4.764  1.0898  0.6283  0.8941
 1684SOL     OW16687   1.236   2.804   8.745  0.1118  0.2313  0.0012
 1684SOL    HW116688   1.303   2.839   8.804  1.9577 -1.5469 -1.0501
 1684SOL    HW216689   1.201   2.737   8.803  0.7186  1.0296  1.2883
 1685SOL     OW16690   0.700   1.065   2.670 -0.1135 -0.0833 -0.2487
 1685SOL    HW116691   0.774   1.126   2.671  0.5544 -0.9038 -0.4424
 1685SOL    HW216692   0.680   1.064   2.764 -0.2931  0.0754 -0.2828
 1686SOL     OW16693   1.720   1.980   8.251 -0.0503 -0.1229 -0.3878
 1686SOL    HW116694   1.813   1.958   8.263 -0.4404 -0.6574  1.5829
 1686SOL    HW216695   1.723   2.017   8.163  2.2789 -2.1114 -1.1389
 1687SOL     OW16696   3.875   0.305   9.310  0.4400 -0.5961  0.3781
 1687SOL    HW116697   3.885   0.390   9.266  1.8936 -0.6190  0.6777
 1687SOL    HW216698   3.904   0.242   9.244 -0.9993 -1.0759  0.2005
 1688SOL     OW16699   1.823   2.541   6.394  0.2955  0.7006 -0.5439
 1688SOL    HW116700   1.736   2.577   6.414 -0.1735 -0.6743 -0.1050
 1688SOL    HW216701   1.823   2.453   6.430  1.0967  0.8458 -0.1833
 1689SOL     OW16702   0.545   3.674   0.298  0.4037  0.4157  0.0068
 1689SOL    HW116703   0.586   3.729   0.232 -0.3587  0.4549 -0.4378
 1689SOL    HW216704   0.569   3.710   0.383 -0.8452  2.2456 -0.4147
 1690SOL     OW16705   0.542   1.546   7.458 -0.6212  0.1455  0.1470
 1690SOL    HW116706   0.588   1.470   7.423 -0.1770  1.4868 -2.2661
 1690SOL    HW216707   0.593   1.574   7.534 -1.9646  2.2312  0.3009
 1691SOL     OW16708   2.581   3.573  11.160  1.2356  0.1790 -0.1836
 1691SOL    HW116709   2.633   3.653  11.150 -0.9909  1.7030  0.3038
 1691SOL    HW216710   2.648   3.528  11.210  0.3100 -0.2929  0.6262
 1692SOL     OW16711   1.523   1.215  14.703 -0.0959  0.1531 -0.1110
 1692SOL    HW116712   1.432   1.246  14.710 -0.7014 -1.9537  1.5499
 1692SOL    HW216713   1.499   1.122  14.708 -3.0986  1.0036  1.7680
 1693SOL     OW16714   0.955   2.225  10.077  0.2865 -0.3958  0.0423
 1693SOL    HW116715   0.951   2.295  10.141  0.1749  0.8403 -1.3094
 1693SOL    HW216716   1.010   2.161  10.122  0.4871  0.0429  0.4145
 1694SOL     OW16717   4.087   4.642  11.324  0.5702  0.0507 -0.6256
 1694SOL    HW116718   4.102   4.552  11.353 -0.4858  0.7706  2.1614
 1694SOL    HW216719   3.998   4.662  11.355  0.5023  0.7970 -1.3102
 1695SOL     OW16720   0.652   2.096   1.254 -0.0637 -0.1120 -0.0014
 1695SOL    HW116721   0.629   2.133   1.169 -2.5547  0.7720  1.0538
 1695SOL    HW216722   0.622   2.167   1.311 -1.5844 -0.8049  0.0749
 1696SOL     OW16723   2.998   2.685   0.871 -0.0708  0.4525  0.1330
 1696SOL    HW116724   2.991   2.624   0.798  0.9354  0.7046 -0.1751
 1696SOL    HW216725   3.090   2.703   0.853  0.2728  0.7243  2.1229
 1697SOL     OW16726   2.195   2.204  17.117  0.3874 -0.0033 -0.3361
 1697SOL    HW116727   2.283   2.224  17.148  0.5642 -1.9250  0.4004
 1697SOL    HW216728   2.141   2.254  17.178 -1.5354 -1.3602 -0.9167
 1698SOL     OW16729   3.591   2.773   2.174 -0.0164 -0.6715  0.0870
 1698SOL    HW116730   3.496   2.782   2.174 -0.0106 -0.6035  0.9421
 1698SOL    HW216731   3.621   2.778   2.265  2.5569 -2.9185 -0.6102
 1699SOL     OW16732   3.065   1.200   8.079 -0.0476  0.1094 -0.0285
 1699SOL    HW116733   3.012   1.181   8.001  0.6334 -0.3422 -0.3771
 1699SOL    HW216734   3.129   1.130   8.088 -0.6188 -0.4531 -0.3509
 1700SOL     OW16735   2.354   4.216   5.576  0.6720 -0.1773 -0.5018
 1700SOL    HW116736   2.270   4.234   5.534  0.4376  1.0902  0.5233
 1700SOL    HW216737   2.353   4.278   5.649  0.5065 -1.5772  0.6875
 1701SOL     OW16738   2.079   3.181  14.300  0.2503  0.1283  0.4765
 1701SOL    HW116739   2.153   3.145  14.253  0.8471  0.9625  0.7879
 1701SOL    HW216740   2.022   3.104  14.306  1.5577 -0.7408  1.7471
 1702SOL     OW16741   4.570   1.774  15.814 -0.1251  0.0366 -0.0229
 1702SOL    HW116742   4.578   1.692  15.764  2.5774 -1.2850  2.5746
 1702SOL    HW216743   4.662   1.789  15.836 -0.1662  0.7738 -0.3473
 1703SOL     OW16744   4.170   1.759   5.541  0.0507  0.5828  0.4006
 1703SOL    HW116745   4.160   1.675   5.495 -2.5453  0.0851  1.8626
 1703SOL    HW216746   4.142   1.821   5.473 -0.7828 -0.6313 -0.3699
 1704SOL     OW16747   1.877   1.709   6.984 -0.1890  0.6762  0.5368
 1704SOL    HW116748   1.810   1.701   6.915 -0.5880  1.3232  0.8519
 1704SOL    HW216749   1.946   1.757   6.938 -0.1627  0.9454  0.8594
 1705SOL     OW16750   2.628   1.433   1.544  0.4083  0.3552  0.0431
 1705SOL    HW116751   2.542   1.423   1.584 -0.1475  0.6388 -1.1059
 1705SOL    HW216752   2.610   1.506   1.485  2.4695 -0.9888 -2.2831
 1706SOL     OW16753   0.746   2.076  10.002 -0.5628 -0.6229  0.1845
 1706SOL    HW116754   0.830   2.114  10.027  0.1968 -0.8424 -2.0563
 1706SOL    HW216755   0.723   2.021  10.077  1.2795 -1.7611 -0.0650
 1707SOL     OW16756   1.332   3.930   6.459  0.4238 -0.1753 -0.2650
 1707SOL    HW116757   1.238   3.915   6.445  0.2897 -0.6259  1.1244
 1707SOL    HW216758   1.321   4.021   6.489  0.4328 -0.6999  1.3566
 1708SOL     OW16759   4.093   1.704   1.639  0.1914 -0.3045  0.3072
 1708SOL    HW116760   4.145   1.690   1.560 -0.4976  1.5240 -0.4543
 1708SOL    HW216761   4.141   1.644   1.696  1.1873 -0.7167 -0.9715
 1709SOL     OW16762   0.499   1.665   8.390  0.0924  0.3802 -0.4437
 1709SOL    HW116763   0.576   1.721   8.376  1.2858 -0.8308  1.2476
 1709SOL    HW216764   0.439   1.707   8.329 -1.0801 -0.5675  0.0339
 1710SOL     OW16765   0.953   3.316  10.901  0.4380 -0.2278  0.1096
 1710SOL    HW116766   0.981   3.362  10.980  2.9604 -2.3397  0.4684
 1710SOL    HW216767   0.970   3.224  10.923  3.3136  0.4760  0.8138
 1711SOL     OW16768   1.215   3.204  16.910  0.4684 -0.0404 -0.1830
 1711SOL    HW116769   1.124   3.229  16.893 -0.1689 -2.1275  0.1444
 1711SOL    HW216770   1.249   3.273  16.968 -1.5765  0.3756  0.5119
 1712SOL     OW16771   1.475   3.208  16.711 -0.1496 -0.3486 -0.1592
 1712SOL    HW116772   1.538   3.150  16.668  1.6729  1.0518  0.6298
 1712SOL    HW216773   1.528   3.250  16.780 -1.2691  2.3811 -0.9490
 1713SOL     OW16774   4.493   1.869   4.042  0.1146 -0.3580 -0.7551
 1713SOL    HW116775   4.418   1.922   4.068 -0.3276 -1.4467  0.2224
 1713SOL    HW216776   4.531   1.924   3.974  1.4718 -0.7416 -0.3023
 1714SOL     OW16777   0.162   2.458   4.280  0.1456 -0.2349 -0.4689
 1714SOL    HW116778   0.247   2.482   4.245 -1.0159  2.7848 -1.2152
 1714SOL    HW216779   0.184   2.369   4.309 -1.9945 -1.0520 -1.3602
 1715SOL     OW16780   1.008   2.328   3.291  0.6876 -0.0261  0.2911
 1715SOL    HW116781   0.950   2.254   3.307  1.1293 -1.5507 -5.4477
 1715SOL    HW216782   1.081   2.300   3.347  0.7070  3.0434  1.8165
 1716SOL     OW16783   3.031   2.039  11.012  0.0596  0.6580 -0.1597
 1716SOL    HW116784   3.099   2.045  10.945 -1.4414  0.1109 -1.7389
 1716SOL    HW216785   2.963   1.985  10.973  0.4272  0.0247  0.0823
 1717SOL     OW16786   0.186   4.664  12.507  0.2336 -0.1351 -0.2403
 1717SOL    HW116787   0.093   4.664  12.484  0.0516  0.9853  0.5346
 1717SOL    HW216788   0.188   4.573  12.538  2.2797  0.7109  2.1021
 1718SOL     OW16789   2.790   0.917   8.917  0.3852 -0.0171 -0.4041
 1718SOL    HW116790   2.805   0.822   8.918 -0.0821 -0.0897 -0.3287
 1718SOL    HW216791   2.695   0.924   8.909  0.1622 -0.9770  1.4240
 1719SOL     OW16792   4.649   1.701  12.449 -0.2997 -0.0111 -0.4719
 1719SOL    HW116793   4.681   1.667  12.533 -1.4140  0.4261  0.1223
 1719SOL    HW216794   4.657   1.794  12.474  1.1699 -0.8043  2.0387
 1720SOL     OW16795   1.448   3.453  14.189 -0.3555  0.8047  0.2247
 1720SOL    HW116796   1.379   3.505  14.230 -0.0407  1.5401 -0.1635
 1720SOL    HW216797   1.393   3.381  14.158  0.2420  0.8540 -0.9544
 1721SOL     OW16798   0.953   3.341   7.128  0.3977 -0.0708 -0.7787
 1721SOL    HW116799   1.040   3.349   7.089  1.3132  2.8643  1.8309
 1721SOL    HW216800   0.911   3.418   7.090  1.5708  0.1267 -1.6521
 1722SOL     OW16801   0.271   1.566   7.480 -0.0465  0.0754 -0.1360
 1722SOL    HW116802   0.365   1.553   7.473 -0.2588 -2.3903  1.4387
 1722SOL    HW216803   0.259   1.636   7.416 -2.0024 -0.3358 -0.2073
 1723SOL     OW16804   3.758   2.543  12.629  0.7445 -0.0085 -0.5397
 1723SOL    HW116805   3.772   2.605  12.557 -1.0458 -0.7418 -1.5154
 1723SOL    HW216806   3.672   2.572  12.657  0.1241 -0.6298 -1.8051
 1724SOL     OW16807   4.495   1.989   5.655  0.1527  1.0460 -0.4029
 1724SOL    HW116808   4.505   1.965   5.747 -0.0465  1.5666 -0.2473
 1724SOL    HW216809   4.577   1.947   5.629 -0.2829  0.0543 -0.1677
 1725SOL     OW16810   2.891   0.555   9.303  0.2742  0.3550  0.1605
 1725SOL    HW116811   2.894   0.460   9.296  0.9530  0.6722 -3.8239
 1725SOL    HW216812   2.965   0.578   9.247 -0.9190  2.4355 -0.5767
 1726SOL     OW16813   2.017   3.425   5.949 -0.2515 -0.2414 -0.4462
 1726SOL    HW116814   1.932   3.403   5.909 -1.2692  0.8338  1.1199
 1726SOL    HW216815   1.994   3.467   6.032  1.1583  0.7033 -0.5449
 1727SOL     OW16816   2.029   2.483   8.794 -0.5031 -0.1940  0.4893
 1727SOL    HW116817   1.938   2.501   8.772 -0.2056 -0.4356 -0.9261
 1727SOL    HW216818   2.069   2.566   8.768 -0.6555 -0.4615 -0.5899
 1728SOL     OW16819   3.041   0.079   3.220 -0.3150  0.1101 -0.3107
 1728SOL    HW116820   3.109   0.146   3.221 -0.9280  0.7354  0.1335
 1728SOL    HW216821   3.074   0.013   3.281 -1.3990 -0.5860 -0.4725
 1729SOL     OW16822   1.612   0.985   2.629 -0.3600  0.2431 -0.3550
 1729SOL    HW116823   1.548   0.918   2.607 -0.6396  0.7062 -0.9835
 1729SOL    HW216824   1.591   1.057   2.568 -1.3896 -1.5879 -2.1884
 1730SOL     OW16825   0.520   2.874   0.413 -0.2144  0.4826  0.5285
 1730SOL    HW116826   0.499   2.893   0.504 -0.3590 -0.6240  0.7336
 1730SOL    HW216827   0.506   2.780   0.402  0.7308  0.4136 -0.1314
 1731SOL     OW16828   4.361   2.649   4.783 -0.0560  0.3001  0.4962
 1731SOL    HW116829   4.416   2.582   4.742 -0.3516  0.3162  0.0591
 1731SOL    HW216830   4.308   2.601   4.847  1.1882 -1.6551  0.0595
 1732SOL     OW16831   2.791   0.882  12.811 -0.3751  0.1053  0.3487
 1732SOL    HW116832   2.875   0.909  12.848 -0.9245  0.7510  1.1346
 1732SOL    HW216833   2.818   0.877  12.720  0.1430 -0.7162  0.5477
 1733SOL     OW16834   1.082   1.842   2.334 -0.6761 -1.0531 -0.1615
 1733SOL    HW116835   1.130   1.913   2.292 -2.5112  2.2455  3.2964
 1733SOL    HW216836   1.126   1.770   2.288  0.1125  0.2553 -1.4434
 1734SOL     OW16837   0.189   4.581  17.676 -0.1929  0.8637 -0.0445
 1734SOL    HW116838   0.259   4.527  17.638  1.4538  2.3671  0.8338
 1734SOL    HW216839   0.211   4.561   0.024  2.5407  1.1740 -0.6240
 1735SOL     OW16840   0.696   3.348   7.243  0.2577 -0.7500  0.1386
 1735SOL    HW116841   0.690   3.436   7.207  1.8645 -0.6039  0.2287
 1735SOL    HW216842   0.790   3.332   7.233  0.2973 -0.9380  0.8012
 1736SOL     OW16843   2.156   2.291   2.034  0.2605 -0.2478 -0.3580
 1736SOL    HW116844   2.159   2.350   2.110 -1.5224  0.0291 -0.4910
 1736SOL    HW216845   2.089   2.230   2.063  0.9767 -1.6322 -1.6452
 1737SOL     OW16846   3.059   2.758   7.235  0.6300 -0.1040 -0.0738
 1737SOL    HW116847   2.999   2.699   7.190  1.2488 -0.6794 -0.1478
 1737SOL    HW216848   3.090   2.699   7.304  2.5867  1.4235  0.3516
 1738SOL     OW16849   0.462   4.282   7.463  0.8729  0.7079 -0.0177
 1738SOL    HW116850   0.510   4.214   7.417 -2.3459 -0.4863 -1.6277
 1738SOL    HW216851   0.426   4.236   7.539  2.6255  1.1928  1.0894
 1739SOL     OW16852   3.292   0.569   9.736 -0.2283  0.4021  0.2111
 1739SOL    HW116853   3.331   0.539   9.818 -1.6748 -3.0627 -0.3740
 1739SOL    HW216854   3.224   0.628   9.769 -0.5335  1.4041 -2.2592
 1740SOL     OW16855   2.961   1.173   3.916  0.3690 -0.6149 -0.3077
 1740SOL    HW116856   2.940   1.266   3.906 -0.4952 -0.6888  0.8111
 1740SOL    HW216857   2.912   1.144   3.993  1.7522 -2.2680 -0.0455
 1741SOL     OW16858   0.923   3.973   5.165 -0.6551  0.1620  0.4489
 1741SOL    HW116859   0.998   4.014   5.122 -0.7868  0.0351  0.0994
 1741SOL    HW216860   0.871   3.930   5.098 -0.2014  0.1136  0.1338
 1742SOL     OW16861   3.127   3.584  17.382  1.0932  0.3197  0.2793
 1742SOL    HW116862   3.058   3.634  17.338  0.4662  0.2126  1.1592
 1742SOL    HW216863   3.090   3.566  17.468  1.3794  0.1638  0.3698
 1743SOL     OW16864   1.032   1.250   9.636  0.5093  0.0161 -0.0274
 1743SOL    HW116865   1.091   1.284   9.704  0.7544  0.5419 -0.4960
 1743SOL    HW216866   1.079   1.275   9.556 -0.3568 -1.0290 -0.8613
 1744SOL     OW16867   2.869   3.608   2.736  0.0227  0.5304  0.0391
 1744SOL    HW116868   2.882   3.670   2.808 -2.6202  0.8802  0.2217
 1744SOL    HW216869   2.849   3.667   2.664  1.3379  2.4747  1.2480
 1745SOL     OW16870   1.771   1.325   8.469  0.0225  0.0097  0.2205
 1745SOL    HW116871   1.767   1.388   8.397 -2.9635 -1.8050 -1.1907
 1745SOL    HW216872   1.682   1.292   8.467  1.0398 -2.5506 -3.3341
 1746SOL     OW16873   2.402   4.163   9.152 -0.2823  0.1176  0.5174
 1746SOL    HW116874   2.364   4.182   9.066  0.8348  1.8747  0.4245
 1746SOL    HW216875   2.431   4.251   9.175  0.2607  0.1485 -0.2998
 1747SOL     OW16876   0.674   4.367   8.731  0.2845  0.4815 -0.2087
 1747SOL    HW116877   0.743   4.318   8.778  0.2125 -0.7074 -1.3379
 1747SOL    HW216878   0.708   4.454   8.711 -1.1380  0.9925 -0.3334
 1748SOL     OW16879   3.801   0.982  15.993  0.2005  0.4584 -0.4798
 1748SOL    HW116880   3.833   0.982  15.902  0.0290  1.3022 -0.5407
 1748SOL    HW216881   3.861   0.921  16.035  0.3043  1.0137  0.1796
 1749SOL     OW16882   1.205   1.624   9.766 -0.1337  0.2376  0.1668
 1749SOL    HW116883   1.274   1.677   9.727  1.4581 -2.3375 -0.4529
 1749SOL    HW216884   1.171   1.599   9.680 -0.0060 -0.5563  0.3480
 1750SOL     OW16885   2.217   1.554   7.488  0.1435  0.3159  0.0191
 1750SOL    HW116886   2.200   1.623   7.552  2.0369 -0.4115  1.2908
 1750SOL    HW216887   2.309   1.572   7.468  0.3998  0.4273  1.3059
 1751SOL     OW16888   3.271   1.666   4.498 -0.8251  0.1700  0.2271
 1751SOL    HW116889   3.326   1.608   4.550 -0.6284  1.8184  1.8524
 1751SOL    HW216890   3.183   1.638   4.526 -0.0492 -3.0215 -0.5540
 1752SOL     OW16891   2.764   0.175   6.610 -0.2676  0.1816  0.6080
 1752SOL    HW116892   2.692   0.197   6.551 -1.2265 -1.9797  0.9679
 1752SOL    HW216893   2.736   0.089   6.641 -0.3829  0.4294  1.1879
 1753SOL     OW16894   0.483   3.931   3.180  0.4329  0.5339  0.2345
 1753SOL    HW116895   0.410   3.991   3.165  0.2300  0.1528 -0.2800
 1753SOL    HW216896   0.479   3.928   3.276  0.1678  3.5368  0.3187
 1754SOL     OW16897   1.805   2.976  10.448  0.9892 -0.1167  1.0952
 1754SOL    HW116898   1.886   2.962  10.497  0.4174 -2.6267  1.3065
 1754SOL    HW216899   1.755   3.026  10.513 -0.5804 -1.8971  1.2436
 1755SOL     OW16900   0.196   0.673   3.028  0.2443  0.5871 -0.0845
 1755SOL    HW116901   0.139   0.714   2.962  0.7282  0.4672 -0.5733
 1755SOL    HW216902   0.270   0.668   2.968 -0.8856  0.4489 -1.4570
 1756SOL     OW16903   2.744   2.784   1.924 -0.1395  0.3942  0.7400
 1756SOL    HW116904   2.823   2.731   1.937 -0.6688  0.0036  2.3962
 1756SOL    HW216905   2.678   2.722   1.954 -0.6883  0.4417 -0.4075
 1757SOL     OW16906   3.280   1.138   9.129 -0.4406 -0.4086  0.2546
 1757SOL    HW116907   3.277   1.226   9.168  0.2428 -0.4915  0.4961
 1757SOL    HW216908   3.215   1.159   9.062  0.9691 -2.5573 -1.7650
 1758SOL     OW16909   3.818   4.549  11.749  0.5939  0.3183 -0.6994
 1758SOL    HW116910   3.784   4.524  11.662  1.4105  2.3937 -1.6085
 1758SOL    HW216911   3.823   4.644  11.745 -0.3034  0.5165  2.8373
 1759SOL     OW16912   2.163   1.156  10.422 -0.3823  0.6263 -0.2992
 1759SOL    HW116913   2.183   1.187  10.333  1.4063  2.2754  0.6644
 1759SOL    HW216914   2.078   1.197  10.440 -0.7277 -1.3771  2.5067
 1760SOL     OW16915   2.728   1.356  10.393  0.1019  0.3568  0.0860
 1760SOL    HW116916   2.767   1.443  10.400 -2.2360  1.4823 -0.6926
 1760SOL    HW216917   2.806   1.307  10.417 -0.8688 -1.3109 -0.1677
 1761SOL     OW16918   3.664   1.332   2.590  0.5511  0.1606  0.0350
 1761SOL    HW116919   3.576   1.304   2.566 -0.0661  1.0937  1.1691
 1761SOL    HW216920   3.660   1.301   2.681  2.0391 -1.2311 -0.3919
 1762SOL     OW16921   0.822   2.449   9.664  0.6949  0.2042  0.5853
 1762SOL    HW116922   0.792   2.431   9.754  0.0576 -0.2083  0.2911
 1762SOL    HW216923   0.879   2.374   9.650  0.1291 -0.6642  2.8301
 1763SOL     OW16924   3.678   0.503   8.364 -0.0341 -0.2623 -0.1575
 1763SOL    HW116925   3.773   0.508   8.375 -0.1702  1.3872  0.2256
 1763SOL    HW216926   3.652   0.589   8.333  1.6166 -0.5595 -2.3808
 1764SOL     OW16927   0.212   2.845   1.525  0.0300 -0.3745 -0.0669
 1764SOL    HW116928   0.138   2.804   1.481  0.8210 -0.8152 -0.9837
 1764SOL    HW216929   0.282   2.818   1.466  0.8622 -0.3702  0.9086
 1765SOL     OW16930   1.189   1.567   4.916  0.0859  0.1711  0.0124
 1765SOL    HW116931   1.112   1.510   4.924  1.7862 -2.2696 -0.8798
 1765SOL    HW216932   1.238   1.527   4.845  1.2107  0.7857  0.4488
 1766SOL     OW16933   2.769   4.639   1.589  0.0688 -0.0064 -0.3651
 1766SOL    HW116934   2.840   4.587   1.626  0.8792  2.5124  1.5992
 1766SOL    HW216935   2.689   4.589   1.604 -0.7734  1.7106  0.9106
 1767SOL     OW16936   0.363   4.092   2.663  0.4355 -0.0054 -0.3512
 1767SOL    HW116937   0.352   4.187   2.653  0.4533  0.0242 -0.1007
 1767SOL    HW216938   0.280   4.074   2.706  0.8570 -2.1722 -0.4637
 1768SOL     OW16939   3.488   0.827   9.820  0.0147  0.1889  0.2928
 1768SOL    HW116940   3.569   0.856   9.861 -0.3037 -0.1849  1.1927
 1768SOL    HW216941   3.429   0.827   9.896  0.3460  0.4125  0.5512
 1769SOL     OW16942   3.650   0.040   8.169  0.2616  0.2764  0.1552
 1769SOL    HW116943   3.712   0.090   8.116 -0.6026  2.1248  0.8853
 1769SOL    HW216944   3.639   0.091   8.249 -2.3619  0.0242 -0.0285
 1770SOL     OW16945   0.041   1.929   7.695  0.6484  0.1244 -0.4005
 1770SOL    HW116946   0.025   1.944   7.788  0.1355 -0.3446 -0.4125
 1770SOL    HW216947   4.714   1.982   7.646  1.0160 -0.7880 -1.8822
 1771SOL     OW16948   1.786   3.851   1.854  0.4887  0.3781  0.0094
 1771SOL    HW116949   1.846   3.874   1.925 -0.9133  0.2081  1.2490
 1771SOL    HW216950   1.825   3.889   1.775 -2.7490  0.2431 -1.6382
 1772SOL     OW16951   1.626   1.830   1.596 -0.1855  0.2504  0.4211
 1772SOL    HW116952   1.566   1.814   1.668 -0.6033 -0.5189 -0.0983
 1772SOL    HW216953   1.582   1.911   1.572 -0.9312  0.4530  2.4965
 1773SOL     OW16954   3.188   3.540   9.038  0.0335 -0.0384  0.3628
 1773SOL    HW116955   3.094   3.535   9.018  0.1575 -0.5778 -0.0847
 1773SOL    HW216956   3.188   3.634   9.057 -0.0704  0.3499 -1.5172
 1774SOL     OW16957   0.955   4.286   4.318 -0.2129 -0.3634 -0.7187
 1774SOL    HW116958   0.947   4.206   4.371 -1.7730  0.5472  0.4144
 1774SOL    HW216959   1.037   4.271   4.270  0.9988  2.2784  0.5636
 1775SOL     OW16960   2.326   4.104   9.624  0.2678  0.2938  0.1440
 1775SOL    HW116961   2.273   4.157   9.565  0.5770 -0.6241 -0.9561
 1775SOL    HW216962   2.404   4.090   9.570  0.5401  1.2216  0.3006
 1776SOL     OW16963   4.698   1.734   3.240  0.5248 -0.5108  0.1050
 1776SOL    HW116964   4.715   1.813   3.188  0.3745 -0.1769  0.5587
 1776SOL    HW216965   4.719   1.660   3.184  1.4083 -0.2537  0.0946
 1777SOL     OW16966   1.962   1.690   6.183 -0.7281  0.1224  0.0767
 1777SOL    HW116967   1.940   1.753   6.115 -0.0941  1.4529  1.1040
 1777SOL    HW216968   1.943   1.610   6.134  1.1413 -0.1156 -0.2520
 1778SOL     OW16969   4.110   2.121   1.623  0.5086 -0.1155 -0.1293
 1778SOL    HW116970   4.022   2.085   1.634  1.2278 -1.3817  1.4418
 1778SOL    HW216971   4.162   2.073   1.687  0.9847 -1.2905 -1.3837
 1779SOL     OW16972   1.225   0.876   5.838  0.2828 -0.3194  0.1019
 1779SOL    HW116973   1.294   0.866   5.902 -0.6404  3.7127  1.7607
 1779SOL    HW216974   1.194   0.786   5.833  0.3856 -0.3336 -0.3230
 1780SOL     OW16975   3.797   4.443   4.641  0.0022 -0.4684  0.1431
 1780SOL    HW116976   3.729   4.453   4.708 -0.2667 -0.6101 -0.1114
 1780SOL    HW216977   3.868   4.385   4.668 -1.7903 -2.1584  1.1582
 1781SOL     OW16978   2.831   1.569   9.320  0.0103  0.0948  0.0615
 1781SOL    HW116979   2.765   1.512   9.279  0.0532 -0.8334  1.2858
 1781SOL    HW216980   2.781   1.644   9.351  0.6326  0.0963  1.0614
 1782SOL     OW16981   2.923   0.042   7.982  0.0154 -0.4649 -0.8180
 1782SOL    HW116982   2.869   0.118   8.004  0.8428  0.5518 -2.3327
 1782SOL    HW216983   2.993   0.068   8.042 -1.0020 -1.6082  0.8823
 1783SOL     OW16984   0.444   2.319   5.684  0.1483 -0.6099 -0.5975
 1783SOL    HW116985   0.435   2.341   5.776  2.4042  1.3564 -0.8674
 1783SOL    HW216986   0.382   2.384   5.651  0.3603  0.2594  0.7304
 1784SOL     OW16987   3.736   0.627   2.822  0.1160 -0.3177  0.7126
 1784SOL    HW116988   3.825   0.595   2.830  0.0582 -0.5606  0.3875
 1784SOL    HW216989   3.713   0.604   2.732  0.2241  2.0732  0.0535
 1785SOL     OW16990   3.359   1.294   4.983  0.3196  0.7272  0.2714
 1785SOL    HW116991   3.424   1.344   4.933  0.1259  2.1327  1.4364
 1785SOL    HW216992   3.412   1.216   5.000  1.3893  1.2408 -0.6821
 1786SOL     OW16993   4.406   3.345  12.981  0.1685  0.3231 -0.0208
 1786SOL    HW116994   4.377   3.282  13.046 -0.4633 -0.5370 -1.1243
 1786SOL    HW216995   4.412   3.289  12.904  1.7340  0.4625  0.0025
 1787SOL     OW16996   4.552   2.251   1.802 -0.2550  0.5417  0.2930
 1787SOL    HW116997   4.557   2.278   1.711  3.4263 -0.4481  0.2320
 1787SOL    HW216998   4.492   2.177   1.806  1.1158 -0.5242  0.9897
 1788SOL     OW16999   4.100   4.265   0.424  0.5333  0.2233 -0.1456
 1788SOL    HW117000   4.144   4.350   0.433  1.9861 -0.6009  0.5709
 1788SOL    HW217001   4.024   4.292   0.372  1.4716 -0.1247 -1.7268
 1789SOL     OW17002   4.531   2.650   9.212  0.1201 -0.5575  0.0290
 1789SOL    HW117003   4.546   2.599   9.292  1.4750  0.3099  0.3198
 1789SOL    HW217004   4.622   2.673   9.196 -0.1671  0.0019 -0.7846
 1790SOL     OW17005   0.339   3.770  17.020 -0.0110  0.1576 -0.0878
 1790SOL    HW117006   0.296   3.819  17.090 -0.7858 -1.8080  0.8033
 1790SOL    HW217007   0.266   3.713  16.996  0.9326 -1.6925  1.4095
 1791SOL     OW17008   0.018   0.124   3.365 -0.1076 -0.0130 -0.0073
 1791SOL    HW117009   0.109   0.130   3.335 -0.2921 -1.7851 -0.8983
 1791SOL    HW217010   0.037   0.133   3.458 -0.0372 -1.7188  0.1437
 1792SOL     OW17011   2.593   2.428   0.042 -0.1274 -0.1275 -0.0535
 1792SOL    HW117012   2.521   2.395  17.731  0.7716 -0.8469 -0.8089
 1792SOL    HW217013   2.637   2.347   0.069  1.3956  1.0413  0.9658
 1793SOL     OW17014   3.256   0.262   3.244  0.1054  0.5486  0.4543
 1793SOL    HW117015   3.278   0.274   3.152 -0.1691 -1.5917  0.1195
 1793SOL    HW217016   3.343   0.231   3.270 -0.6275 -1.7700  0.0762
 1794SOL     OW17017   3.253   2.152   7.210 -0.7144 -0.0775 -0.8052
 1794SOL    HW117018   3.347   2.134   7.222 -0.5627  1.6515  0.5586
 1794SOL    HW217019   3.221   2.200   7.286 -0.7712 -1.6035  0.1369
 1795SOL     OW17020   0.642   0.417   2.392 -0.0753  0.2220 -0.2546
 1795SOL    HW117021   0.663   0.491   2.336 -0.2328  0.9946  0.7032
 1795SOL    HW217022   0.553   0.406   2.359  0.4717  1.1295 -1.9951
 1796SOL     OW17023   2.233   0.991   6.021  0.5877 -0.2214 -0.6709
 1796SOL    HW117024   2.292   1.047   5.972 -0.1129  1.9657  0.9831
 1796SOL    HW217025   2.258   1.011   6.111  1.1148  0.9359 -1.0706
 1797SOL     OW17026   1.288   3.794   2.185  0.0028  0.4978  0.1747
 1797SOL    HW117027   1.343   3.716   2.177 -0.9187 -0.1513  0.0387
 1797SOL    HW217028   1.278   3.801   2.280 -1.0355  1.1767  0.0119
 1798SOL     OW17029   1.353   2.716  10.233 -0.3288  0.6366 -0.1054
 1798SOL    HW117030   1.428   2.749  10.282 -0.1542 -1.5214  1.0999
 1798SOL    HW217031   1.284   2.744  10.292  2.8211  2.6477  2.6022
 1799SOL     OW17032   0.778   2.654  14.993  0.0563  0.4974  0.4369
 1799SOL    HW117033   0.798   2.713  15.065  1.6132  0.9803 -0.3998
 1799SOL    HW217034   0.704   2.693  14.946  0.2402 -0.1498 -0.3778
 1800SOL     OW17035   0.255   1.964  15.785 -0.0242  0.2062 -0.2950
 1800SOL    HW117036   0.215   1.877  15.778  0.6020  0.0067 -1.4087
 1800SOL    HW217037   0.180   2.015  15.754 -0.2765  0.2484  0.4002
 1801SOL     OW17038   1.252   4.316   9.404  0.4198 -0.2795  0.5588
 1801SOL    HW117039   1.197   4.391   9.426  2.0598  1.2322 -0.5371
 1801SOL    HW217040   1.218   4.251   9.466 -3.2158  0.0947 -1.0331
 1802SOL     OW17041   2.326   3.047   5.318 -0.3338  0.1574 -0.1421
 1802SOL    HW117042   2.287   3.118   5.266 -0.2108  1.7213  1.9277
 1802SOL    HW217043   2.288   2.964   5.287  0.8050 -0.1357 -0.7179
 1803SOL     OW17044   3.812   0.726  17.430  0.1827  0.0973 -0.2807
 1803SOL    HW117045   3.842   0.788  17.364  0.0944  1.2642  0.7907
 1803SOL    HW217046   3.860   0.769  17.500 -1.6936  3.2119 -0.9326
 1804SOL     OW17047   0.191   1.564   8.180  0.5889  0.0481 -0.5948
 1804SOL    HW117048   0.179   1.649   8.138  0.2788 -0.0010 -0.6021
 1804SOL    HW217049   0.225   1.514   8.107  0.5738  0.3522 -0.8097
 1805SOL     OW17050   4.647   2.879  16.704 -0.5116  0.0180  0.1583
 1805SOL    HW117051   4.640   2.953  16.643  2.1304  1.3952  1.5201
 1805SOL    HW217052   4.701   2.923  16.770  0.4926  0.4038 -0.9208
 1806SOL     OW17053   1.514   0.890   4.775  0.0326  0.5464 -0.4148
 1806SOL    HW117054   1.489   0.797   4.778  2.0851  0.0450  0.5733
 1806SOL    HW217055   1.608   0.885   4.757  0.0022 -1.0322 -0.1822
 1807SOL     OW17056   4.422   0.520   6.440 -0.3625  0.1872  0.1606
 1807SOL    HW117057   4.362   0.545   6.370 -0.6423  0.4764  0.5067
 1807SOL    HW217058   4.442   0.428   6.420 -0.9331  0.2989 -0.9078
 1808SOL     OW17059   1.902   3.516   6.164 -0.7220  0.0873 -0.3855
 1808SOL    HW117060   1.913   3.452   6.235 -0.6381  0.2384 -0.2615
 1808SOL    HW217061   1.809   3.516   6.142 -0.4051 -0.8954 -1.7262
 1809SOL     OW17062   0.950   4.505   2.934  0.3636 -0.2032 -0.1709
 1809SOL    HW117063   0.909   4.557   3.003  1.5915 -1.8081  1.7864
 1809SOL    HW217064   0.885   4.434   2.931  0.6593 -0.4352 -0.9677
 1810SOL     OW17065   3.269   0.593   6.855  0.3108 -0.5876  0.2887
 1810SOL    HW117066   3.245   0.530   6.923 -1.5083 -0.1568  0.0215
 1810SOL    HW217067   3.324   0.540   6.797 -2.3003 -0.1770 -2.5278
 1811SOL     OW17068   2.895   4.119   2.742  0.3231  0.0950  0.3407
 1811SOL    HW117069   2.888   4.073   2.826 -0.3330  0.5332  0.5308
 1811SOL    HW217070   2.801   4.111   2.723  0.5690 -4.7189  1.1870
 1812SOL     OW17071   3.596   2.338  15.531  0.6870 -0.2190  0.2741
 1812SOL    HW117072   3.626   2.275  15.466 -2.6182 -2.8259  1.2928
 1812SOL    HW217073   3.544   2.395  15.474  1.1919  0.8398  0.8570
 1813SOL     OW17074   2.481   3.257   3.596 -0.0773  0.2358  0.3427
 1813SOL    HW117075   2.548   3.198   3.630  1.7790  2.0042 -0.2521
 1813SOL    HW217076   2.538   3.331   3.577  1.8841 -1.4591 -0.3932
 1814SOL     OW17077   0.080   1.541   7.145  0.0369  0.1605 -0.6344
 1814SOL    HW117078   0.173   1.562   7.155 -0.4325  1.1020  1.8381
 1814SOL    HW217079   0.086   1.445   7.142 -1.4898  0.0811 -1.1911
 1815SOL     OW17080   2.622   2.013  10.085 -0.3200 -0.2383  0.0114
 1815SOL    HW117081   2.636   2.015  10.180  1.1143  1.3868 -0.2405
 1815SOL    HW217082   2.557   1.946  10.068 -0.6083  0.6711 -2.5213
 1816SOL     OW17083   3.073   0.413  11.552  0.3798 -0.1728 -0.2363
 1816SOL    HW117084   3.039   0.478  11.613 -0.0598  0.3854 -1.0802
 1816SOL    HW217085   3.102   0.467  11.478 -0.5524 -0.2257 -0.6391
 1817SOL     OW17086   4.159   4.170   9.980 -0.0502 -0.2630 -0.0795
 1817SOL    HW117087   4.196   4.206  10.061 -0.6300  2.0383 -0.8197
 1817SOL    HW217088   4.232   4.124   9.940  0.9392  2.0877 -0.9983
 1818SOL     OW17089   2.260   2.372  10.733  0.1841 -0.7955  0.1954
 1818SOL    HW117090   2.332   2.435  10.733 -1.3297  0.9363 -1.2016
 1818SOL    HW217091   2.264   2.337  10.822 -3.0557  0.5802  0.8583
 1819SOL     OW17092   3.139   4.379  11.171  0.4633  0.2462  0.1410
 1819SOL    HW117093   3.046   4.361  11.182  0.3441  0.1582 -0.9757
 1819SOL    HW217094   3.149   4.468  11.137 -2.5715  0.4341 -0.2245
 1820SOL     OW17095   1.413   0.590  13.783  0.5383 -0.1086  0.0525
 1820SOL    HW117096   1.352   0.569  13.853 -0.1156 -1.5038 -0.9389
 1820SOL    HW217097   1.484   0.527  13.792  0.0898 -0.4768  0.9867
 1821SOL     OW17098   3.551   1.211   7.122 -0.3475 -0.1683 -0.0743
 1821SOL    HW117099   3.532   1.282   7.184  1.1211 -0.8806  1.2068
 1821SOL    HW217100   3.504   1.234   7.042  0.1484  1.6097  0.1417
 1822SOL     OW17101   1.345   3.525   3.328  0.5796  0.5091  0.1321
 1822SOL    HW117102   1.375   3.441   3.293 -0.7104 -0.1549  0.6455
 1822SOL    HW217103   1.250   3.515   3.323  0.5590  0.4031  0.7548
 1823SOL     OW17104   1.880   1.891  10.035  0.8104 -0.0378 -0.9298
 1823SOL    HW117105   1.967   1.859  10.009  0.8061 -0.9977  0.2161
 1823SOL    HW217106   1.893   1.961  10.099 -1.4273  0.0707 -0.5804
 1824SOL     OW17107   0.105   2.644  14.675 -0.4405  0.1999 -0.2402
 1824SOL    HW117108   0.135   2.585  14.744  1.4189 -0.0970 -1.3107
 1824SOL    HW217109   0.186   2.677  14.636 -1.2919  0.7243 -1.5844
 1825SOL     OW17110   0.798   1.905   6.374  0.1045  0.3164 -0.2561
 1825SOL    HW117111   0.706   1.908   6.347  0.2651  1.1554 -0.7544
 1825SOL    HW217112   0.790   1.922   6.467 -0.2521 -1.0922 -0.0359
 1826SOL     OW17113   0.112   0.068   3.591 -0.1266  0.0532 -0.1912
 1826SOL    HW117114   0.161   0.004   3.642 -0.8109 -1.2742 -1.2281
 1826SOL    HW217115   0.152   0.151   3.619  0.8081 -0.1345 -0.9633
 1827SOL     OW17116   0.943   0.887   3.103 -0.4889  0.0727 -0.2088
 1827SOL    HW117117   1.022   0.917   3.059 -0.7802  0.0200 -0.7612
 1827SOL    HW217118   0.917   0.971   3.141 -0.0723 -0.4107  1.1690
 1828SOL     OW17119   4.328   1.326   6.907 -0.2667 -0.1668 -0.1305
 1828SOL    HW117120   4.365   1.378   6.978 -0.3100  0.6144 -0.6909
 1828SOL    HW217121   4.408   1.304   6.860  0.7210 -0.1790  1.5509
 1829SOL     OW17122   3.253   0.361   6.690  0.3906  0.0360  0.0901
 1829SOL    HW117123   3.209   0.440   6.657 -0.5407 -0.2341  0.6905
 1829SOL    HW217124   3.198   0.296   6.646  2.0172 -0.9072 -0.5567
 1830SOL     OW17125   4.184   4.558  13.098 -0.1751  0.0189 -0.0024
 1830SOL    HW117126   4.195   4.562  13.193  2.6683 -0.4598 -0.3313
 1830SOL    HW217127   4.247   4.493  13.068 -3.1924 -2.0579 -1.9049
 1831SOL     OW17128   3.403   1.802   4.293  0.1966 -0.1237  0.3483
 1831SOL    HW117129   3.460   1.729   4.270 -2.0211 -1.1715 -1.7854
 1831SOL    HW217130   3.347   1.764   4.361 -1.0017 -3.0506 -2.2737
 1832SOL     OW17131   3.994   0.291   2.932 -0.1645 -0.4389  0.7228
 1832SOL    HW117132   4.050   0.226   2.890 -3.7022 -2.9963 -0.0392
 1832SOL    HW217133   3.910   0.265   2.894 -0.8553  0.1545  1.8598
 1833SOL     OW17134   1.448   4.063  16.751 -0.1196 -0.3838 -0.3096
 1833SOL    HW117135   1.434   3.968  16.748 -0.8899 -0.2956  0.6372
 1833SOL    HW217136   1.543   4.066  16.756 -0.1993  0.1570  0.7866
 1834SOL     OW17137   4.219   2.995   2.418 -0.3545  0.0020 -0.0309
 1834SOL    HW117138   4.281   2.949   2.362  0.3257 -1.1251  1.6527
 1834SOL    HW217139   4.185   3.064   2.360  1.3514 -0.8763 -2.0686
 1835SOL     OW17140   3.830   0.037   8.660  0.5082  0.3425  0.1831
 1835SOL    HW117141   3.793   4.736   8.739  2.2608  0.6898  1.1616
 1835SOL    HW217142   3.906   4.716   8.652 -1.3033 -1.9902 -0.3492
 1836SOL     OW17143   1.043   3.066  10.949  0.0325  0.0556  0.4343
 1836SOL    HW117144   1.070   2.998  11.010  2.5261  0.3745 -0.2956
 1836SOL    HW217145   1.117   3.127  10.954 -0.2230  0.2522  1.8875
 1837SOL     OW17146   4.000   2.347   5.532  0.2877  0.3392 -0.3969
 1837SOL    HW117147   3.921   2.393   5.561  0.0685  1.1189 -2.2263
 1837SOL    HW217148   3.998   2.280   5.600 -0.5215  0.3649 -0.3952
 1838SOL     OW17149   2.408   2.280   6.435 -0.0041 -0.2387 -0.2585
 1838SOL    HW117150   2.447   2.228   6.505 -0.1982  2.0943  1.5806
 1838SOL    HW217151   2.402   2.363   6.482  1.7168  0.4107 -1.1840
 1839SOL     OW17152   2.402   2.340   4.630  0.4010  0.3727 -0.5366
 1839SOL    HW117153   2.476   2.311   4.576  0.2654 -0.6664 -0.1602
 1839SOL    HW217154   2.362   2.406   4.572 -1.2236  0.4813  0.7170
 1840SOL     OW17155   1.374   1.711   2.232  0.4797 -0.5880  0.4352
 1840SOL    HW117156   1.393   1.804   2.241 -0.1624 -0.7439  3.4331
 1840SOL    HW217157   1.394   1.681   2.321  0.4203  3.1597  1.7119
 1841SOL     OW17158   1.344   1.574  14.185  0.0103 -0.3265  0.0219
 1841SOL    HW117159   1.373   1.580  14.094  0.4961  1.8837  0.3252
 1841SOL    HW217160   1.428   1.550  14.226  0.7905 -1.8844 -2.5413
 1842SOL     OW17161   1.191   1.686  10.598  0.0156  0.1636  0.1131
 1842SOL    HW117162   1.121   1.690  10.532 -0.7043  0.0851  0.8775
 1842SOL    HW217163   1.144   1.634  10.663  1.2887 -0.7319  0.2943
 1843SOL     OW17164   4.318   3.084  15.469 -0.9118 -0.1691 -0.0057
 1843SOL    HW117165   4.227   3.067  15.494 -1.1416  0.6746 -0.2814
 1843SOL    HW217166   4.354   3.091  15.558 -1.1732 -1.3156  0.1919
 1844SOL     OW17167   1.972   1.584   2.372  0.6076 -0.0372 -0.1051
 1844SOL    HW117168   1.986   1.497   2.410  1.9233  1.1908  2.2596
 1844SOL    HW217169   2.002   1.560   2.284  1.7638  0.1473  0.2353
 1845SOL     OW17170   1.297   1.631   3.648  0.4160 -0.0261 -0.3815
 1845SOL    HW117171   1.232   1.568   3.681  1.3472 -0.6321  0.2976
 1845SOL    HW217172   1.267   1.711   3.690  0.9604 -0.2411  0.4266
 1846SOL     OW17173   1.006   0.286   8.195  0.2295  0.0288 -0.2605
 1846SOL    HW117174   0.928   0.301   8.142  1.3923  2.6482 -1.2647
 1846SOL    HW217175   0.994   0.192   8.203 -0.4066  0.0784 -0.6479
 1847SOL     OW17176   3.797   4.338   8.472  0.1045  0.1630 -0.6676
 1847SOL    HW117177   3.735   4.380   8.532 -0.3612  1.4196 -2.0413
 1847SOL    HW217178   3.753   4.341   8.387  0.3112  0.0652 -0.7778
 1848SOL     OW17179   2.640   3.700  16.178 -0.0598 -0.1798  0.5628
 1848SOL    HW117180   2.634   3.773  16.116  0.7740 -0.0191  0.6606
 1848SOL    HW217181   2.596   3.751  16.246 -1.0235  3.3494 -2.6860
 1849SOL     OW17182   3.565   2.295  10.975 -0.0959 -0.3177 -0.0079
 1849SOL    HW117183   3.506   2.367  10.954  1.6992  1.3093  0.4713
 1849SOL    HW217184   3.501   2.230  11.005 -1.8758  1.6003  0.3675
 1850SOL     OW17185   1.467   1.325   5.039  0.0541  0.5794  0.2288
 1850SOL    HW117186   1.393   1.357   5.090 -0.3863 -1.7569  1.0518
 1850SOL    HW217187   1.477   1.237   5.077 -0.7647  0.1546 -0.5338
 1851SOL     OW17188   0.024   3.064   4.558 -0.1175 -0.1142  0.2537
 1851SOL    HW117189   4.695   3.134   4.565 -1.4708 -1.3188 -0.3351
 1851SOL    HW217190   4.727   2.994   4.614  1.8051 -1.6192 -0.4817
 1852SOL     OW17191   1.655   0.439  13.797  0.0577  0.5000 -0.0536
 1852SOL    HW117192   1.684   0.456  13.887 -1.3855 -1.7293  0.8325
 1852SOL    HW217193   1.620   0.350  13.794 -1.9513  1.1644  2.5446
 1853SOL     OW17194   0.369   1.392   1.428 -0.0157  0.6528 -0.0634
 1853SOL    HW117195   0.379   1.478   1.467 -0.1857  1.4816 -1.8470
 1853SOL    HW217196   0.308   1.358   1.493  0.1377 -1.5816 -1.0693
 1854SOL     OW17197   4.435   1.471   7.103  0.0346 -0.0812 -0.6274
 1854SOL    HW117198   4.492   1.546   7.117  2.0884 -1.5330 -1.3099
 1854SOL    HW217199   4.384   1.476   7.184 -1.0110 -0.4659 -1.2617
 1855SOL     OW17200   4.496   2.497   4.218 -0.0371 -0.0210  0.0898
 1855SOL    HW117201   4.419   2.442   4.205  0.6626 -1.4269  2.0426
 1855SOL    HW217202   4.466   2.587   4.205  2.3760  0.9929  1.6181
 1856SOL     OW17203   3.664   4.234   7.731  0.0066 -0.4350  0.5859
 1856SOL    HW117204   3.744   4.192   7.764  0.9934  1.9577  1.2427
 1856SOL    HW217205   3.642   4.162   7.672  0.0793  0.4881 -0.5685
 1857SOL     OW17206   0.057   3.892   8.223  0.2539 -0.0843 -0.3334
 1857SOL    HW117207   0.097   3.839   8.155  0.7812  0.3707 -0.3809
 1857SOL    HW217208   4.701   3.870   8.208 -0.0966  0.3594  1.1095
 1858SOL     OW17209   3.689   2.412   6.562  0.2825 -0.5420 -0.0258
 1858SOL    HW117210   3.760   2.359   6.599 -0.0104 -0.3381  0.8146
 1858SOL    HW217211   3.691   2.471   6.638  0.9745  0.9179 -1.1633
 1859SOL     OW17212   2.842   3.157   0.877 -0.1722 -0.5192 -0.5445
 1859SOL    HW117213   2.881   3.215   0.812 -3.1358 -0.3144 -2.1301
 1859SOL    HW217214   2.852   3.071   0.835 -1.1442 -0.8419 -0.1197
 1860SOL     OW17215   3.421   2.425   3.393  0.2778  0.0039  0.4210
 1860SOL    HW117216   3.419   2.432   3.488  1.4767  0.3086  0.4177
 1860SOL    HW217217   3.442   2.515   3.370  0.9003 -0.3614 -0.4374
 1861SOL     OW17218   2.951   3.280   8.640 -0.3205 -0.2013 -0.0942
 1861SOL    HW117219   2.912   3.197   8.669  3.3881 -1.5320  1.0757
 1861SOL    HW217220   3.036   3.260   8.601 -0.3325 -0.2493 -0.0949
 1862SOL     OW17221   1.615   1.992  16.206  0.4129 -0.0916  0.2589
 1862SOL    HW117222   1.624   2.074  16.158  1.3566  0.6787  1.7634
 1862SOL    HW217223   1.570   1.943  16.137 -1.3606  2.6545 -0.4903
 1863SOL     OW17224   1.266   0.605   2.550  0.0290 -0.1176 -0.1075
 1863SOL    HW117225   1.269   0.559   2.466 -1.0448  2.6517 -1.6670
 1863SOL    HW217226   1.170   0.607   2.554  0.0499 -2.5241  1.6326
 1864SOL     OW17227   2.454   4.432   9.188 -0.5445 -0.0001 -0.0689
 1864SOL    HW117228   2.493   4.440   9.101 -1.2121 -0.9286 -0.4549
 1864SOL    HW217229   2.491   4.506   9.237 -0.7344  0.3442 -0.4409
 1865SOL     OW17230   1.641   0.559   2.553 -0.4068  0.3278  0.3114
 1865SOL    HW117231   1.735   0.545   2.548 -0.1041  1.0172  3.7732
 1865SOL    HW217232   1.609   0.517   2.473  0.6339  2.4028 -1.1971
 1866SOL     OW17233   4.576   3.439  14.938  0.1163 -0.6902 -0.4534
 1866SOL    HW117234   4.615   3.518  14.974 -1.4367  0.2117 -0.7548
 1866SOL    HW217235   4.551   3.383  15.012  0.1832 -0.6121 -0.3717
 1867SOL     OW17236   3.504   3.866   4.248 -0.3810 -0.3085 -0.6473
 1867SOL    HW117237   3.547   3.787   4.282 -0.4915 -0.1420 -0.1261
 1867SOL    HW217238   3.585   3.917   4.250 -0.5874  0.0360 -1.4290
 1868SOL     OW17239   2.978   1.388  15.476 -0.0121 -0.3006 -0.5866
 1868SOL    HW117240   2.891   1.424  15.495  0.2308 -0.3309  0.5671
 1868SOL    HW217241   3.043   1.452  15.503 -0.6287 -0.8988  2.3278
 1869SOL     OW17242   1.220   3.051   2.351 -0.3269 -0.3869  0.0243
 1869SOL    HW117243   1.259   3.040   2.438 -1.2475  1.8389  0.7179
 1869SOL    HW217244   1.288   3.095   2.301 -0.3432  0.3835  0.6713
 1870SOL     OW17245   3.820   2.361   7.679  0.1431  0.3545 -0.2936
 1870SOL    HW117246   3.766   2.439   7.672 -1.1444 -0.3028  2.0962
 1870SOL    HW217247   3.757   2.314   7.733 -1.4423  3.4122  0.5209
 1871SOL     OW17248   1.758   4.539   2.570 -0.2244  0.2231  0.7212
 1871SOL    HW117249   1.663   4.532   2.576 -0.1383 -1.2765  0.2177
 1871SOL    HW217250   1.769   4.566   2.479  0.3094  0.7821  0.9452
 1872SOL     OW17251   2.205   4.530   3.942 -0.1568 -0.2584 -0.3621
 1872SOL    HW117252   2.149   4.569   3.875 -0.3856  1.4274  0.8102
 1872SOL    HW217253   2.283   4.503   3.893  0.3277  2.7676 -1.2478
 1873SOL     OW17254   4.257   3.206   0.602 -0.2651  0.1353 -0.0954
 1873SOL    HW117255   4.218   3.130   0.560  0.6320 -0.2155 -0.2862
 1873SOL    HW217256   4.243   3.280   0.542  1.4119  0.5260  0.0033
 1874SOL     OW17257   2.954   1.211   9.202  0.4480  0.3769  0.1379
 1874SOL    HW117258   2.999   1.130   9.178 -0.6195 -0.7738  2.0095
 1874SOL    HW217259   2.995   1.238   9.284 -0.5599  2.5390 -0.0486
 1875SOL     OW17260   3.919   4.526   1.392 -0.2604  0.3166 -0.2738
 1875SOL    HW117261   3.986   4.557   1.454 -0.5712 -1.1126  0.7869
 1875SOL    HW217262   3.842   4.513   1.448  1.8040  3.0483  3.2520
 1876SOL     OW17263   1.286   4.209   8.922  0.3659 -0.3210 -0.2985
 1876SOL    HW117264   1.310   4.227   9.013  1.1440 -0.6539 -0.4391
 1876SOL    HW217265   1.216   4.273   8.913 -0.5585 -1.2247  0.4492
 1877SOL     OW17266   0.984   2.367   6.907  0.1401 -0.5129  0.1606
 1877SOL    HW117267   1.055   2.304   6.897  1.5374  1.0854 -0.0079
 1877SOL    HW217268   0.999   2.395   6.998  0.1495 -2.3598  0.7134
 1878SOL     OW17269   0.150   4.235   8.924  0.5835 -0.1882 -0.1040
 1878SOL    HW117270   0.142   4.317   8.876 -1.6022 -0.9287 -0.9907
 1878SOL    HW217271   0.245   4.244   8.937  0.0579  0.2667  3.3734
 1879SOL     OW17272   3.464   1.672   7.682 -0.6447  0.3672  0.0060
 1879SOL    HW117273   3.557   1.669   7.658 -0.4906  0.0378  0.6461
 1879SOL    HW217274   3.433   1.586   7.653 -0.6881  0.7777 -1.1626
 1880SOL     OW17275   4.168   1.250  13.471 -0.9086 -0.3500 -0.3618
 1880SOL    HW117276   4.224   1.210  13.537 -0.4534 -2.5854 -2.0620
 1880SOL    HW217277   4.130   1.326  13.514  0.2087 -0.4247  0.7502
 1881SOL     OW17278   0.900   2.156   6.676 -0.3098  0.0230 -0.6570
 1881SOL    HW117279   0.811   2.192   6.666  0.4786  1.7126 -1.5514
 1881SOL    HW217280   0.940   2.227   6.626  2.4419 -1.4141 -0.4454
 1882SOL     OW17281   1.316   2.963   4.904  0.0113  0.1597 -0.0819
 1882SOL    HW117282   1.239   3.014   4.879  1.2256  1.5541 -1.0328
 1882SOL    HW217283   1.329   2.995   4.993 -2.4757  0.0800  0.3063
 1883SOL     OW17284   4.703   4.130   4.896 -0.1303 -0.0382  0.4212
 1883SOL    HW117285   4.714   4.214   4.942  0.9384  1.0724 -1.8331
 1883SOL    HW217286   4.608   4.119   4.896 -0.2436  0.8739  2.2173
 1884SOL     OW17287   1.780   2.792   5.679 -0.0932 -0.3906  0.3198
 1884SOL    HW117288   1.765   2.708   5.723  3.3122 -0.4399  1.4145
 1884SOL    HW217289   1.723   2.775   5.604 -1.7000  0.7062  1.2871
 1885SOL     OW17290   1.322   3.373   9.691 -0.0401 -0.2409  0.3094
 1885SOL    HW117291   1.355   3.295   9.737 -2.0955 -1.5934 -0.5156
 1885SOL    HW217292   1.400   3.426   9.707 -0.5739  0.3751  0.8736
 1886SOL     OW17293   2.325   0.099   7.415  0.1052 -0.2907  0.0919
 1886SOL    HW117294   2.271   0.042   7.359  0.5294 -0.1350 -0.4773
 1886SOL    HW217295   2.370   0.133   7.338  1.9866  0.4673  1.5299
 1887SOL     OW17296   1.506   4.197   2.051  0.5577 -0.5882  0.1456
 1887SOL    HW117297   1.484   4.128   1.988 -3.6466  2.2611 -1.4972
 1887SOL    HW217298   1.419   4.233   2.069  0.5828  0.5422 -1.9570
 1888SOL     OW17299   1.366   4.143   6.209 -0.3787  0.1280 -0.1176
 1888SOL    HW117300   1.426   4.069   6.222 -0.0955  0.2926 -0.5005
 1888SOL    HW217301   1.282   4.097   6.222  1.1356 -2.6000  0.1160
 1889SOL     OW17302   0.720   0.426  11.877  0.2307 -0.6148  0.0826
 1889SOL    HW117303   0.740   0.504  11.927  3.5711 -2.1408  1.1534
 1889SOL    HW217304   0.627   0.440  11.861  0.3326 -1.3715 -1.2501
 1890SOL     OW17305   2.055   0.976   0.827 -0.1592 -0.0364  0.1849
 1890SOL    HW117306   2.007   0.917   0.769 -0.0214 -2.2110  2.2732
 1890SOL    HW217307   1.985   1.032   0.862 -0.9003 -0.2914 -0.8852
 1891SOL     OW17308   1.504   1.404   2.122  0.4531  0.4417 -0.3646
 1891SOL    HW117309   1.482   1.369   2.209 -0.7155  1.1076 -0.4065
 1891SOL    HW217310   1.589   1.446   2.137  0.7185 -0.5968  1.1248
 1892SOL     OW17311   3.161   0.353   7.686  0.3236 -0.1365 -0.2669
 1892SOL    HW117312   3.066   0.354   7.683  0.3877  2.0893 -1.0553
 1892SOL    HW217313   3.178   0.267   7.724  0.2438 -0.3777 -0.7725
 1893SOL     OW17314   0.662   0.632   7.053  0.6349 -0.1281  0.3492
 1893SOL    HW117315   0.587   0.648   7.110  1.6523  1.6413  1.2178
 1893SOL    HW217316   0.653   0.539   7.033  0.3977 -0.8793  4.0311
 1894SOL     OW17317   1.990   1.963   8.299 -0.0821 -0.4849  0.3603
 1894SOL    HW117318   2.076   1.955   8.339  0.5030 -0.2548 -0.8546
 1894SOL    HW217319   2.017   1.956   8.207 -0.8335 -0.3404  0.1217
 1895SOL     OW17320   2.836   4.095  10.561 -0.0360  0.5487 -0.4259
 1895SOL    HW117321   2.900   4.049  10.616  0.1494  0.9109 -0.3399
 1895SOL    HW217322   2.787   4.145  10.625 -1.7011 -1.5841 -0.0242
 1896SOL     OW17323   1.930   3.835   0.886  0.2277  0.1252  0.1648
 1896SOL    HW117324   1.952   3.768   0.822 -1.6774  1.6155 -2.0941
 1896SOL    HW217325   1.965   3.911   0.840 -0.6917 -0.0905 -0.9108
 1897SOL     OW17326   0.558   2.196   0.979  0.3974 -0.0347  0.4431
 1897SOL    HW117327   0.523   2.284   0.969  0.6717  0.0529  0.2556
 1897SOL    HW217328   0.579   2.160   0.892 -3.9300 -0.1167 -0.5589
 1898SOL     OW17329   1.260   3.805   0.980  0.1058 -0.3224  0.1833
 1898SOL    HW117330   1.279   3.765   0.895  0.7128 -0.8687  0.5813
 1898SOL    HW217331   1.342   3.818   1.028  0.9809 -1.3025 -1.0375
 1899SOL     OW17332   3.988   2.958   0.063  0.5945 -0.1537 -0.2827
 1899SOL    HW117333   4.029   3.038   0.032 -1.6763  1.0680 -0.1212
 1899SOL    HW217334   4.064   2.901   0.081 -0.2166 -1.0806  0.2360
 1900SOL     OW17335   0.168   4.374   6.868 -0.1011  0.4027 -0.4237
 1900SOL    HW117336   0.234   4.337   6.927  0.5419  0.0545 -1.3607
 1900SOL    HW217337   0.090   4.352   6.919 -0.4568  0.5559 -0.9035
 1901SOL     OW17338   2.625   3.648   9.016  0.3944 -0.0379 -0.8666
 1901SOL    HW117339   2.608   3.736   9.050  1.0740  0.4389 -1.7932
 1901SOL    HW217340   2.549   3.641   8.959  0.0479 -2.4597 -0.1131
 1902SOL     OW17341   4.185   2.002  12.060  0.2677  0.6366  0.0638
 1902SOL    HW117342   4.148   2.087  12.086 -2.4567 -0.6343  0.4035
 1902SOL    HW217343   4.279   2.014  12.059  0.1131  1.8512  0.2326
 1903SOL     OW17344   0.827   1.290   6.158 -0.3975  0.1131 -0.2398
 1903SOL    HW117345   0.884   1.355   6.116 -1.1925  1.0008  0.0500
 1903SOL    HW217346   0.759   1.349   6.190 -1.9400 -1.3609 -0.8045
 1904SOL     OW17347   1.772   0.789  13.480  0.5108 -0.5650 -0.4084
 1904SOL    HW117348   1.792   0.700  13.449  1.6053 -0.4278 -0.0985
 1904SOL    HW217349   1.681   0.777  13.506 -0.5785  1.3985 -3.2249
 1905SOL     OW17350   1.545   1.672  14.650 -0.0019  0.1095 -0.4038
 1905SOL    HW117351   1.614   1.703  14.592  0.9110  1.8214  1.5975
 1905SOL    HW217352   1.586   1.696  14.733 -0.0787 -2.7070  0.4548
 1906SOL     OW17353   1.049   4.017  17.248  0.5043 -0.0713 -0.1237
 1906SOL    HW117354   0.995   4.093  17.228 -0.8274 -1.0659 -0.3296
 1906SOL    HW217355   1.137   4.054  17.256  0.8262 -1.1642  1.3571
 1907SOL     OW17356   4.045   4.400  13.612 -0.1179  0.3385  0.0417
 1907SOL    HW117357   4.100   4.322  13.609  1.3943  1.3801  0.3845
 1907SOL    HW217358   4.063   4.424  13.703  0.2367 -0.7544  0.2548
 1908SOL     OW17359   3.264   3.511   7.703 -0.6830 -0.2468 -0.1274
 1908SOL    HW117360   3.322   3.454   7.653 -0.6602  2.1844 -2.8683
 1908SOL    HW217361   3.187   3.500   7.648 -1.2704  2.0580  0.1952
 1909SOL     OW17362   0.215   3.970   3.067  0.1728 -0.2574 -0.0793
 1909SOL    HW117363   0.186   4.002   2.982  0.6812 -0.6803 -0.4171
 1909SOL    HW217364   0.243   3.879   3.052  3.3173  0.7045 -0.0019
 1910SOL     OW17365   1.630   1.328   4.657 -0.2612  0.4465 -0.2429
 1910SOL    HW117366   1.564   1.328   4.726  1.0243 -0.0236  0.9793
 1910SOL    HW217367   1.578   1.313   4.578 -0.7737  0.9445  0.0050
 1911SOL     OW17368   3.876   3.297  10.031 -0.3223  0.2066  0.3507
 1911SOL    HW117369   3.792   3.252  10.019  0.9417 -1.9950 -0.1854
 1911SOL    HW217370   3.852   3.389  10.041 -0.7596  0.2848 -1.3922
 1912SOL     OW17371   0.928   3.267  13.981 -0.5417 -0.5382 -0.2690
 1912SOL    HW117372   1.001   3.328  13.975 -1.7324  0.6307 -2.6807
 1912SOL    HW217373   0.874   3.286  14.058 -2.4509 -0.6045 -1.5749
 1913SOL     OW17374   1.142   0.315  10.487  0.0398 -0.5950  0.8136
 1913SOL    HW117375   1.091   0.318  10.568 -0.0176  1.9071  0.6890
 1913SOL    HW217376   1.176   0.226  10.494  3.2041  0.7502  2.4252
 1914SOL     OW17377   4.548   1.227   7.130  0.8215  0.2220 -0.3878
 1914SOL    HW117378   4.463   1.183   7.139  0.8560  0.5674  1.4662
 1914SOL    HW217379   4.519   1.308   7.087  0.2684  0.7471  0.9760
 1915SOL     OW17380   1.997   4.653   9.225 -0.2609 -0.4158 -0.3195
 1915SOL    HW117381   1.928   4.689   9.169 -1.0067 -1.6115 -0.1753
 1915SOL    HW217382   2.004   4.720   9.292 -1.5298  1.3613 -1.9626
 1916SOL     OW17383   2.342   0.670   2.963 -0.5683 -0.0006 -0.0931
 1916SOL    HW117384   2.415   0.608   2.968 -3.6813 -3.8785 -2.7645
 1916SOL    HW217385   2.347   0.697   2.871  1.0444 -0.9810 -0.2933
 1917SOL     OW17386   2.539   2.272  10.309  0.0749  0.2095  0.7271
 1917SOL    HW117387   2.498   2.260  10.223  0.9924  0.1241  0.3048
 1917SOL    HW217388   2.575   2.184  10.320 -1.0873 -0.3637 -0.0825
 1918SOL     OW17389   3.070   1.187   8.374  0.1549 -0.0319  0.2311
 1918SOL    HW117390   3.087   1.184   8.280  1.7716 -0.3877  0.5323
 1918SOL    HW217391   3.001   1.122   8.386  1.4190 -1.3779  0.2257
 1919SOL     OW17392   4.227   1.312   2.709  0.2040  0.2659 -0.3961
 1919SOL    HW117393   4.232   1.268   2.624  4.3432  0.5449 -0.2950
 1919SOL    HW217394   4.269   1.397   2.695 -1.5220  1.0589 -0.7821
 1920SOL     OW17395   0.839   4.647   3.134  0.1865  0.2091 -0.7677
 1920SOL    HW117396   0.864   4.599   3.212  2.5383 -0.4217 -1.9160
 1920SOL    HW217397   0.749   4.676   3.151  0.7866  1.0827  0.8794
 1921SOL     OW17398   2.838   1.024  16.011  0.0586 -0.2111 -0.0782
 1921SOL    HW117399   2.905   1.004  15.946 -2.2693 -0.9021 -2.2329
 1921SOL    HW217400   2.772   1.066  15.956  0.1562 -0.0354 -0.0614
 1922SOL     OW17401   2.521   2.305   0.606 -0.4252 -0.3422  0.5010
 1922SOL    HW117402   2.522   2.348   0.692  0.0089 -0.6409  0.6449
 1922SOL    HW217403   2.427   2.293   0.592 -1.1288  0.9210  4.0555
 1923SOL     OW17404   0.690   4.591  16.824 -1.2320 -0.1637  0.0087
 1923SOL    HW117405   0.745   4.523  16.785 -0.1847  1.1705 -0.8479
 1923SOL    HW217406   0.636   4.618  16.749  0.9301 -1.6910 -2.0916
 1924SOL     OW17407   3.285   2.279   7.476 -0.2832 -0.2195 -0.2522
 1924SOL    HW117408   3.226   2.320   7.539 -1.8549 -1.0064 -1.2141
 1924SOL    HW217409   3.338   2.355   7.452  1.8833 -1.1371  1.7372
 1925SOL     OW17410   0.044   3.402  12.363 -0.3524 -0.1219  0.0833
 1925SOL    HW117411   0.078   3.363  12.282 -0.9205  0.5112 -0.4657
 1925SOL    HW217412   4.687   3.381  12.363 -0.0384 -1.4837 -0.6719
 1926SOL     OW17413   4.641   2.516   6.716 -0.0004 -0.4559  0.0532
 1926SOL    HW117414   4.557   2.558   6.730 -0.5343 -1.3090 -0.5624
 1926SOL    HW217415   4.610   2.426   6.707 -3.1963  0.6910 -0.3785
 1927SOL     OW17416   1.630   0.543  12.123  0.9085  0.3714  0.0123
 1927SOL    HW117417   1.715   0.499  12.126 -0.9289 -3.0324  1.7051
 1927SOL    HW217418   1.620   0.559  12.217 -2.5213  1.0732 -0.4704
 1928SOL     OW17419   3.061   0.904  11.454 -0.0807 -0.0584  0.1536
 1928SOL    HW117420   3.096   0.926  11.368  1.7472  0.6174  1.0649
 1928SOL    HW217421   3.036   0.812  11.446  0.1067 -0.1528  0.6034
 1929SOL     OW17422   4.482   0.039   1.382 -0.1432 -0.2764 -0.1552
 1929SOL    HW117423   4.429   0.074   1.454  1.5837 -1.0905  1.5325
 1929SOL    HW217424   4.423   4.719   1.332  2.1228 -0.7842 -2.2349
 1930SOL     OW17425   4.116   4.380  13.870  0.4969  0.4150  0.4168
 1930SOL    HW117426   4.077   4.324  13.937  0.1935 -1.9453 -1.7255
 1930SOL    HW217427   4.202   4.336  13.870  1.1703  1.7480 -1.9675
 1931SOL     OW17428   4.532   4.075   8.305  0.2733  0.2644 -0.0880
 1931SOL    HW117429   4.575   4.102   8.386  1.0981  0.0358 -0.4455
 1931SOL    HW217430   4.554   3.982   8.313  0.4434  0.3097 -0.0238
 1932SOL     OW17431   1.441   4.159   4.523 -0.0311  0.7869  0.6998
 1932SOL    HW117432   1.463   4.214   4.447 -1.0122 -2.5940 -2.0458
 1932SOL    HW217433   1.346   4.165   4.517 -0.1543  1.0024  2.9183
 1933SOL     OW17434   0.559   2.196   2.706  0.2442 -0.1969  0.0818
 1933SOL    HW117435   0.602   2.242   2.634  2.9627  0.8473  2.3548
 1933SOL    HW217436   0.568   2.108   2.670 -0.1027 -0.8524  1.5818
 1934SOL     OW17437   3.977   2.503   2.347 -0.0724 -0.5525 -0.0788
 1934SOL    HW117438   3.885   2.484   2.365  0.1251  0.3852  1.8549
 1934SOL    HW217439   3.984   2.597   2.365 -1.0720 -0.2906 -1.0376
 1935SOL     OW17440   1.156   3.983   9.822 -0.5404 -0.0889 -0.3750
 1935SOL    HW117441   1.166   3.892   9.851 -0.6093 -0.0576 -0.2511
 1935SOL    HW217442   1.100   3.972   9.746 -0.5125  0.8102 -0.5214
 1936SOL     OW17443   1.669   0.526  16.570  0.4714  0.3165 -0.3934
 1936SOL    HW117444   1.589   0.488  16.605  0.5519 -1.5773 -2.2759
 1936SOL    HW217445   1.729   0.460  16.604 -0.2716  0.6840  1.6481
 1937SOL     OW17446   3.066   3.792   7.380  0.2932  0.0665  0.1674
 1937SOL    HW117447   3.082   3.825   7.468 -2.3781  0.2394  0.5804
 1937SOL    HW217448   3.153   3.757   7.364 -0.7089 -2.0273 -0.7858
 1938SOL     OW17449   3.690   3.120   9.508 -0.6534  0.0080 -0.4183
 1938SOL    HW117450   3.736   3.116   9.424  1.1255 -0.6589  0.5775
 1938SOL    HW217451   3.653   3.033   9.507  0.0611 -0.2996 -0.2560
 1939SOL     OW17452   1.627   3.749  12.937 -0.5855  0.5004 -0.1219
 1939SOL    HW117453   1.637   3.841  12.963  1.5640  0.1278  0.4314
 1939SOL    HW217454   1.664   3.750  12.848  0.7557  0.5284  0.4343
 1940SOL     OW17455   3.662   3.751   7.465 -0.1649 -0.5251  0.7199
 1940SOL    HW117456   3.609   3.671   7.460  0.7087 -1.1015  0.6768
 1940SOL    HW217457   3.606   3.809   7.517 -3.0298 -1.8494 -0.8882
 1941SOL     OW17458   1.322   4.364   5.508  0.1783 -0.2607  0.0827
 1941SOL    HW117459   1.306   4.302   5.580  0.2957  0.0307  0.3616
 1941SOL    HW217460   1.266   4.439   5.528 -0.2140 -0.1234 -1.5434
 1942SOL     OW17461   3.395   0.790   2.770 -0.8883  0.3801  0.3175
 1942SOL    HW117462   3.428   0.879   2.757  0.4340  0.2253  2.6645
 1942SOL    HW217463   3.339   0.789   2.692 -0.0338  1.4492 -0.3010
 1943SOL     OW17464   1.327   1.278   4.238  0.0895 -0.2852  0.4863
 1943SOL    HW117465   1.232   1.292   4.247 -0.0456 -0.1875 -1.0170
 1943SOL    HW217466   1.339   1.203   4.180  2.1363 -0.0546  0.6433
 1944SOL     OW17467   2.728   4.682   3.573  0.4634 -0.5725 -0.6930
 1944SOL    HW117468   2.681   4.657   3.494 -0.9174  1.5310 -0.5300
 1944SOL    HW217469   2.673   4.634   3.635  1.1957  1.1142  1.2280
 1945SOL     OW17470   3.983   4.208   2.540  0.0814  0.2359  0.3082
 1945SOL    HW117471   3.911   4.206   2.603  0.3200 -0.2555  0.5608
 1945SOL    HW217472   3.980   4.122   2.498 -0.4173  0.5211 -0.2515
 1946SOL     OW17473   4.232   1.425   1.470  0.3003 -0.6325 -0.6791
 1946SOL    HW117474   4.227   1.510   1.425  2.3262 -1.0207 -1.6097
 1946SOL    HW217475   4.232   1.460   1.559  0.5227 -0.8282 -0.6038
 1947SOL     OW17476   2.726   1.804  10.542 -0.8149 -0.3648 -0.2881
 1947SOL    HW117477   2.784   1.762  10.478  1.6154 -0.6446  2.0503
 1947SOL    HW217478   2.671   1.728  10.562  2.4770 -2.6643  0.2094
 1948SOL     OW17479   0.311   3.025  10.686  0.7847 -0.3467  0.0291
 1948SOL    HW117480   0.395   3.057  10.653  0.4678  0.0056 -0.4277
 1948SOL    HW217481   0.295   3.086  10.758 -1.4353 -0.4309 -0.4026
 1949SOL     OW17482   4.205   3.097   8.332  0.1481 -0.0586  0.3319
 1949SOL    HW117483   4.287   3.128   8.372 -0.5337 -0.1097  1.7596
 1949SOL    HW217484   4.185   3.023   8.390 -3.3410  0.9497  0.3937
 1950SOL     OW17485   0.403   4.327  16.044  0.1898 -0.2266 -0.2343
 1950SOL    HW117486   0.429   4.266  15.974  1.2282 -0.8076  0.6612
 1950SOL    HW217487   0.335   4.376  15.998  1.6631  2.1099  0.1206
 1951SOL     OW17488   0.493   4.669   8.043 -0.0471 -0.2798  0.2308
 1951SOL    HW117489   0.517   0.025   8.054  0.7303 -0.6940  1.9956
 1951SOL    HW217490   0.536   4.658   7.958 -1.2773  0.4755 -0.4855
 1952SOL     OW17491   2.568   3.096   3.963 -0.1875  0.3292  0.2555
 1952SOL    HW117492   2.571   3.001   3.974  1.1189  0.7240  3.4231
 1952SOL    HW217493   2.473   3.101   3.950 -0.4292 -1.7575  1.2010
 1953SOL     OW17494   4.262   0.992  11.908 -0.6422 -0.1695 -0.5752
 1953SOL    HW117495   4.213   1.001  11.826 -2.6490 -0.6966  0.5899
 1953SOL    HW217496   4.197   0.994  11.978 -0.9733  1.1140 -0.9179
 1954SOL     OW17497   1.972   2.171   6.159 -0.1563  0.7398  0.4089
 1954SOL    HW117498   1.932   2.196   6.243  0.6883  0.8837  0.7671
 1954SOL    HW217499   2.054   2.131   6.187 -1.6360 -1.7300  1.2310
 1955SOL     OW17500   1.824   4.031   5.603 -0.8361  0.2740  0.5460
 1955SOL    HW117501   1.895   3.997   5.658  0.5447  1.2238 -0.6498
 1955SOL    HW217502   1.802   3.956   5.547  1.0149  0.1927 -0.0489
 1956SOL     OW17503   2.881   3.784   6.605  0.2210 -0.2579 -0.0450
 1956SOL    HW117504   2.971   3.810   6.586  0.0234 -0.3166 -1.0731
 1956SOL    HW217505   2.900   3.697   6.642  2.8170  0.0039 -0.8034
 1957SOL     OW17506   1.036   0.048   5.048  0.3822  0.8866 -0.0758
 1957SOL    HW117507   1.118   0.037   5.001 -0.2818 -0.7247 -0.8751
 1957SOL    HW217508   1.061   0.102   5.123  0.2885 -0.7197  1.1239
 1958SOL     OW17509   3.199   1.871   3.791 -0.3325 -0.1771 -0.1376
 1958SOL    HW117510   3.229   1.862   3.882 -1.4942  1.4259  0.4171
 1958SOL    HW217511   3.109   1.839   3.800 -0.2026  0.5004  3.7969
 1959SOL     OW17512   0.511   0.886  14.748  0.1840  0.7234 -0.6446
 1959SOL    HW117513   0.515   0.904  14.842  0.8540  0.8332 -0.6912
 1959SOL    HW217514   0.602   0.896  14.720  0.7831 -2.6086  0.0946
 1960SOL     OW17515   1.961   1.401   5.382  0.3336  0.0207 -0.2222
 1960SOL    HW117516   2.036   1.349   5.411  1.4983  1.5073 -0.5217
 1960SOL    HW217517   1.997   1.479   5.341  0.0511  0.3043  0.0655
 1961SOL     OW17518   4.368   3.744  16.748 -0.1931 -0.1147  0.4076
 1961SOL    HW117519   4.421   3.720  16.672 -1.3375 -2.5285  0.3769
 1961SOL    HW217520   4.322   3.816  16.705 -0.3588 -0.3681  0.1615
 1962SOL     OW17521   0.253   3.567   5.106 -0.4897  0.0415  0.5121
 1962SOL    HW117522   0.253   3.642   5.166 -0.6919  2.2920 -2.2948
 1962SOL    HW217523   0.306   3.604   5.035 -0.7465 -1.2534 -0.3609
 1963SOL     OW17524   0.974   1.709   4.419 -0.2024  0.3182  0.3673
 1963SOL    HW117525   0.953   1.742   4.331 -0.9896  0.5189  0.6279
 1963SOL    HW217526   0.964   1.782   4.480 -1.2078 -0.5419  1.2319
 1964SOL     OW17527   0.700   3.163   5.323 -0.3890 -0.0855 -0.0663
 1964SOL    HW117528   0.778   3.142   5.271  0.1908 -0.1759  0.8296
 1964SOL    HW217529   0.737   3.219   5.391  1.7429  0.3843 -1.6123
 1965SOL     OW17530   2.855   4.323   2.177 -0.3223  0.2572  0.6095
 1965SOL    HW117531   2.916   4.249   2.174  1.1132  1.5203 -0.9441
 1965SOL    HW217532   2.769   4.281   2.168 -0.7182  1.3305 -0.5666
 1966SOL     OW17533   0.885   1.437  16.767  0.6698 -0.0959 -0.4515
 1966SOL    HW117534   0.951   1.505  16.757 -0.9536  1.1857 -2.1877
 1966SOL    HW217535   0.928   1.357  16.735 -0.5855 -1.4816  1.3087
 1967SOL     OW17536   1.430   1.850   0.866 -0.3870 -0.0930  0.2454
 1967SOL    HW117537   1.496   1.861   0.934 -0.1378 -0.7167  0.1065
 1967SOL    HW217538   1.382   1.932   0.864 -0.6453 -0.2490 -0.0189
 1968SOL     OW17539   2.587   1.391   9.912  0.5732  0.1469  0.1665
 1968SOL    HW117540   2.621   1.442   9.838 -0.2258  0.4863  0.0217
 1968SOL    HW217541   2.647   1.318   9.919 -1.1929 -1.2761  0.5260
 1969SOL     OW17542   1.909   0.904   6.752 -0.1515  0.5294 -0.0031
 1969SOL    HW117543   1.991   0.890   6.704 -1.7473 -3.1290 -1.7186
 1969SOL    HW217544   1.940   0.983   6.796 -0.7452 -0.0375  1.4206
 1970SOL     OW17545   2.227   1.652   5.888 -0.0723  0.5996  0.3486
 1970SOL    HW117546   2.149   1.613   5.925  0.9247  1.3504  3.1941
 1970SOL    HW217547   2.223   1.740   5.925  2.1293 -0.3548  2.8409
 1971SOL     OW17548   2.967   1.050  11.662  0.4795 -0.0824  0.2823
 1971SOL    HW117549   3.022   1.022  11.590 -1.1561  1.0527 -1.4153
 1971SOL    HW217550   3.030   1.054  11.734  0.1161 -0.8466  0.6467
 1972SOL     OW17551   0.170   2.837   8.205 -0.7087  0.1976  0.2442
 1972SOL    HW117552   0.225   2.862   8.131 -1.8497  0.4052 -0.5472
 1972SOL    HW217553   0.098   2.892   8.171  0.6764  0.9790 -1.4405
 1973SOL     OW17554   0.961   4.212  13.591  0.3565  0.5846  0.7053
 1973SOL    HW117555   0.947   4.236  13.683 -0.4704 -0.2578  0.8044
 1973SOL    HW217556   0.881   4.239  13.545 -0.0921 -0.9324  0.6046
 1974SOL     OW17557   4.399   1.141  15.015  0.1961  0.4171 -0.2314
 1974SOL    HW117558   4.381   1.048  15.023 -1.5864  0.8261  0.4448
 1974SOL    HW217559   4.330   1.160  14.951 -0.0948 -2.4124 -0.7331
 1975SOL     OW17560   4.606   3.925   4.349 -0.0682  0.7159 -0.2589
 1975SOL    HW117561   4.621   3.935   4.443  0.2946  1.1240 -0.3598
 1975SOL    HW217562   4.519   3.885   4.351  0.4062 -0.2129  2.3552
 1976SOL     OW17563   2.619   1.812  14.970  0.0096 -0.3906  0.2119
 1976SOL    HW117564   2.536   1.781  14.934  0.3713 -2.9228  1.5429
 1976SOL    HW217565   2.676   1.736  14.976 -1.4289 -1.4490  0.4986
 1977SOL     OW17566   0.222   1.742   5.389 -0.8312 -0.1849  0.2125
 1977SOL    HW117567   0.223   1.792   5.307 -3.2579  1.3813  1.1616
 1977SOL    HW217568   0.266   1.660   5.364 -0.6058  0.0193 -0.0649
 1978SOL     OW17569   1.951   2.485   9.066  0.3224 -0.0109  0.5217
 1978SOL    HW117570   1.955   2.494   8.971  2.4276 -1.0561  0.5104
 1978SOL    HW217571   2.039   2.453   9.086  1.0195  1.1560 -0.7327
 1979SOL     OW17572   0.396   1.314   2.279  0.0143  0.0275  0.1528
 1979SOL    HW117573   0.375   1.225   2.248  1.1073  0.4976 -1.9400
 1979SOL    HW217574   0.431   1.299   2.367  0.7282  1.6299  0.1318
 1980SOL     OW17575   2.188   1.871   4.633  0.3075 -0.6820 -0.9681
 1980SOL    HW117576   2.218   1.940   4.693 -0.3664 -0.6268 -0.6916
 1980SOL    HW217577   2.136   1.925   4.573  1.3708 -0.2589 -1.5005
 1981SOL     OW17578   2.359   2.421   7.400  0.4111  0.1417  0.0178
 1981SOL    HW117579   2.347   2.478   7.324 -0.2218 -1.3304 -0.9827
 1981SOL    HW217580   2.307   2.459   7.471  0.5372 -1.6460  1.0786
 1982SOL     OW17581   1.069   4.096   3.737 -0.3140 -0.4441 -0.3480
 1982SOL    HW117582   1.107   4.088   3.824  1.4725 -0.1094 -1.0998
 1982SOL    HW217583   1.032   4.008   3.742 -0.8453 -0.0605  2.3135
 1983SOL     OW17584   2.391   0.442   9.509 -0.0208  0.2627  0.0369
 1983SOL    HW117585   2.486   0.444   9.519  0.0961  0.3983 -1.1155
 1983SOL    HW217586   2.376   0.359   9.554 -2.0811  0.5571 -0.1011
 1984SOL     OW17587   2.512   2.707   2.460  0.3433  0.0937  0.1818
 1984SOL    HW117588   2.468   2.730   2.378  0.6528 -0.4291 -0.1339
 1984SOL    HW217589   2.587   2.767   2.458  0.8119 -0.5162 -1.2191
 1985SOL     OW17590   3.674   0.428   6.485  0.1312  0.3501 -0.3456
 1985SOL    HW117591   3.629   0.343   6.481 -0.9555  0.8746  0.7769
 1985SOL    HW217592   3.621   0.501   6.453 -1.5177 -0.4212  0.6204
 1986SOL     OW17593   4.236   2.980   0.428  0.1431 -0.6267 -0.9633
 1986SOL    HW117594   4.255   3.030   0.348  1.6439 -0.4585 -0.5032
 1986SOL    HW217595   4.324   2.973   0.466  0.8785  1.6602 -2.2057
 1987SOL     OW17596   4.281   3.050   5.470 -0.0151  0.4871 -0.0327
 1987SOL    HW117597   4.188   3.048   5.490  0.2740 -0.9204  1.1976
 1987SOL    HW217598   4.292   3.106   5.393 -1.6651 -1.5406 -1.7209
 1988SOL     OW17599   3.440   3.624   8.265  0.2432 -0.0320  0.1756
 1988SOL    HW117600   3.471   3.668   8.187 -0.5402  0.2332  0.0119
 1988SOL    HW217601   3.520   3.595   8.309 -0.2750 -0.2602  0.9773
 1989SOL     OW17602   3.474   1.138   8.319 -0.0300 -0.2050  0.1539
 1989SOL    HW117603   3.444   1.098   8.401  0.4385  0.0410  0.4440
 1989SOL    HW217604   3.560   1.172   8.344 -0.8620  1.3300  0.9194
 1990SOL     OW17605   4.661   2.198   0.853 -0.3426  0.5542  0.4615
 1990SOL    HW117606   4.686   2.189   0.945  0.8374  0.5019  0.1342
 1990SOL    HW217607   4.642   2.292   0.852  1.4188  0.9229  1.4827
 1991SOL     OW17608   1.400   0.065   8.182 -0.3527 -0.5100  0.3615
 1991SOL    HW117609   1.413   0.006   8.256 -1.3545 -0.2322  0.7619
 1991SOL    HW217610   1.309   0.086   8.204  0.2762  2.4153  0.2299
 1992SOL     OW17611   1.593   2.238  12.222  0.4139 -0.5104 -0.4357
 1992SOL    HW117612   1.589   2.156  12.173 -1.1618  0.4974 -1.9631
 1992SOL    HW217613   1.688   2.245  12.211  0.2964 -2.7394 -3.1304
 1993SOL     OW17614   0.370   3.522   8.558  0.0076 -0.0614 -0.7188
 1993SOL    HW117615   0.306   3.563   8.501  0.4842  1.9004  0.1862
 1993SOL    HW217616   0.341   3.430   8.559  1.3004 -0.4798 -1.3370
 1994SOL     OW17617   2.952   2.129  17.484 -0.4659  0.3344  0.0860
 1994SOL    HW117618   2.987   2.069  17.550 -0.8536 -0.0884 -0.0975
 1994SOL    HW217619   2.992   2.212  17.509  1.8141 -0.8173  0.2800
 1995SOL     OW17620   2.031   3.285   6.263  0.5341 -0.2752  0.2708
 1995SOL    HW117621   2.026   3.301   6.357 -1.6645  0.6407  0.0168
 1995SOL    HW217622   2.125   3.278   6.252  0.3574 -1.7623 -0.3028
 1996SOL     OW17623   3.088   3.079   4.523  0.0023  0.1106 -0.0870
 1996SOL    HW117624   3.171   3.127   4.520  0.9958 -1.6305 -0.5390
 1996SOL    HW217625   3.027   3.139   4.566 -0.3127  0.1797 -0.6376
 1997SOL     OW17626   1.780   2.768   4.643  0.3353 -0.8429 -0.5361
 1997SOL    HW117627   1.788   2.683   4.687  0.2702 -0.4424  0.2386
 1997SOL    HW217628   1.782   2.745   4.550  0.7563 -0.9842 -0.4913
 1998SOL     OW17629   0.992   2.694   9.853  0.3781  0.2517  0.0764
 1998SOL    HW117630   1.072   2.716   9.900  1.1369  0.6292 -1.3715
 1998SOL    HW217631   0.939   2.651   9.919 -1.0551 -0.1697 -1.3482
 1999SOL     OW17632   3.016   1.274   3.190 -0.5684  0.2200  0.5602
 1999SOL    HW117633   3.067   1.350   3.162 -0.1850 -0.3408 -0.2500
 1999SOL    HW217634   3.064   1.210   3.138 -1.7545 -1.5929  1.6861
 2000SOL     OW17635   1.723   1.881   7.779  0.8013  0.2004  0.3163
 2000SOL    HW117636   1.627   1.889   7.778  0.5243 -2.9010  1.2292
 2000SOL    HW217637   1.732   1.787   7.797  0.4677  0.2833  0.9379
 2001SOL     OW17638   0.226   1.100   4.232 -0.1970  1.0356 -0.5010
 2001SOL    HW117639   0.262   1.167   4.174  1.2187 -1.4592 -2.4987
 2001SOL    HW217640   0.230   1.024   4.174 -2.5947  1.6291 -1.4700
 2002SOL     OW17641   3.280   0.506   4.635  0.0842  0.0641  0.3208
 2002SOL    HW117642   3.335   0.575   4.672 -0.8770  0.1023  1.6755
 2002SOL    HW217643   3.288   0.444   4.707  0.9940 -1.4200 -1.0654
 2003SOL     OW17644   2.001   0.985  12.868 -0.6207  0.0856  0.1785
 2003SOL    HW117645   1.944   1.062  12.869  1.9596  2.0115 -0.6928
 2003SOL    HW217646   2.019   0.977  12.962 -0.2778 -2.7977 -0.1206
 2004SOL     OW17647   1.832   2.520  16.907  0.2658  0.6634  0.3478
 2004SOL    HW117648   1.821   2.563  16.991  2.2833 -0.2709  1.0903
 2004SOL    HW217649   1.791   2.434  16.920 -0.0039  0.4503 -1.8693
 2005SOL     OW17650   2.348   0.955   3.739 -0.4513 -0.1352  0.1154
 2005SOL    HW117651   2.278   1.005   3.697  2.5053 -0.4839 -5.3253
 2005SOL    HW217652   2.426   1.006   3.719  1.0976 -2.8840 -1.0247
 2006SOL     OW17653   2.198   0.255   7.627  0.0682  0.5267 -0.3881
 2006SOL    HW117654   2.242   0.200   7.563  1.0201  0.1062  0.6358
 2006SOL    HW217655   2.107   0.224   7.619  0.7531 -1.4161 -0.5252
 2007SOL     OW17656   4.683   0.303   0.136 -0.5023  0.3323 -0.3367
 2007SOL    HW117657   0.032   0.293   0.094 -0.3074  1.8599 -0.3065
 2007SOL    HW217658   4.656   0.211   0.142  0.6494  0.0581  0.6282
 2008SOL     OW17659   3.886   0.972   1.112  0.3793  0.4451  0.6091
 2008SOL    HW117660   3.889   0.965   1.207  0.5731  0.0692  0.5747
 2008SOL    HW217661   3.979   0.995   1.108  0.7431 -0.8184  1.9414
 2009SOL     OW17662   1.072   2.984   0.855 -0.0061  0.2977  0.2466
 2009SOL    HW117663   1.137   3.007   0.921 -1.4413  1.7221  1.1706
 2009SOL    HW217664   1.010   2.931   0.905  2.4392 -0.6911  2.2212
 2010SOL     OW17665   1.152   3.892   9.343 -0.0686 -0.1377  0.1592
 2010SOL    HW117666   1.212   3.864   9.274  0.7861  0.4919  0.6507
 2010SOL    HW217667   1.072   3.849   9.313  0.5729 -1.0366 -0.2616
 2011SOL     OW17668   1.389   4.596   8.607  0.0721  0.3927 -0.2848
 2011SOL    HW117669   1.400   4.527   8.673  0.8229  2.1432  1.4097
 2011SOL    HW217670   1.333   4.557   8.540  1.6137 -2.0925 -0.1416
 2012SOL     OW17671   2.359   2.130  14.002  0.1396  0.3555 -0.0764
 2012SOL    HW117672   2.293   2.169  14.059 -0.5924 -2.3687  0.9254
 2012SOL    HW217673   2.312   2.064  13.951  2.1309 -1.8988  0.9580
 2013SOL     OW17674   4.504   3.063   5.192  0.2971 -0.3043 -0.8549
 2013SOL    HW117675   4.513   3.148   5.149 -0.6547  0.3477  0.2479
 2013SOL    HW217676   4.593   3.053   5.225 -0.0626 -2.1642 -0.4769
 2014SOL     OW17677   1.800   0.602   6.623  0.2947  0.3900  0.9502
 2014SOL    HW117678   1.831   0.611   6.533  1.7679  0.9144  1.5123
 2014SOL    HW217679   1.709   0.630   6.617  0.9447  2.5255  1.3660
 2015SOL     OW17680   0.342   4.400  13.785  0.7194 -0.2179 -0.2615
 2015SOL    HW117681   0.280   4.353  13.841  1.3217 -0.4127  0.2444
 2015SOL    HW217682   0.336   4.490  13.817  0.2797  0.7846 -3.1782
 2016SOL     OW17683   3.392   3.603   5.679  0.3040  0.4425 -0.0549
 2016SOL    HW117684   3.431   3.690   5.684 -0.5350  0.6568  2.4865
 2016SOL    HW217685   3.302   3.629   5.696 -0.2939 -1.6012 -0.0541
 2017SOL     OW17686   0.990   4.123   9.159 -1.4198  0.1469 -0.5965
 2017SOL    HW117687   0.940   4.140   9.239 -0.5555 -0.7784  0.1308
 2017SOL    HW217688   1.068   4.079   9.193 -0.3451  1.0074 -1.9517
 2018SOL     OW17689   4.192   0.041   6.720 -0.1471 -0.5912 -0.3509
 2018SOL    HW117690   4.220   0.114   6.665  1.0920 -0.2538  0.7452
 2018SOL    HW217691   4.167   0.076   6.805  0.6069  1.4519 -0.9672
 2019SOL     OW17692   0.126   2.533   0.165 -0.0282 -0.0614  0.0578
 2019SOL    HW117693   0.194   2.600   0.170 -1.0467  0.9879 -0.1190
 2019SOL    HW217694   0.086   2.556   0.081 -2.8802 -0.2121  1.3698
 2020SOL     OW17695   4.031   2.924   4.298 -0.1841 -0.1529 -0.4236
 2020SOL    HW117696   3.967   2.857   4.277 -0.9457  0.6655 -0.7156
 2020SOL    HW217697   4.055   2.943   4.208 -0.7737  2.0506 -0.1258
 2021SOL     OW17698   2.698   1.379   4.130  0.4521 -0.7419  0.0738
 2021SOL    HW117699   2.604   1.366   4.116  0.4946 -1.1949  0.2062
 2021SOL    HW217700   2.697   1.475   4.126  1.3952 -0.8122 -2.0001
 2022SOL     OW17701   0.015   0.234   7.316  0.5755 -0.1291 -0.5145
 2022SOL    HW117702   0.073   0.284   7.375  1.4879 -2.5364  0.6115
 2022SOL    HW217703   0.062   0.151   7.326 -0.4341 -0.6973 -0.5224
 2023SOL     OW17704   3.621   2.095   8.346 -0.1803  0.7680  0.2860
 2023SOL    HW117705   3.665   2.017   8.312  0.5978  1.2023  0.3086
 2023SOL    HW217706   3.694   2.154   8.363  0.4902  0.1628 -0.4979
 2024SOL     OW17707   3.724   3.095   7.997  0.1565  0.4470 -0.3344
 2024SOL    HW117708   3.642   3.076   7.953 -0.2825  0.3914  0.5043
 2024SOL    HW217709   3.776   3.024   7.958  1.0119  0.6859  0.3625
 2025SOL     OW17710   3.130   1.921  10.562  0.7760 -0.8228  0.5966
 2025SOL    HW117711   3.105   1.999  10.612 -0.0005 -0.2768 -0.6530
 2025SOL    HW217712   3.121   1.851  10.626 -0.3121 -0.4488  0.8634
 2026SOL     OW17713   2.606   1.502   7.144 -0.3894 -0.4312 -0.5631
 2026SOL    HW117714   2.511   1.499   7.151 -0.3283  3.9597  1.8423
 2026SOL    HW217715   2.611   1.455   7.060  0.6018 -0.0902 -0.6926
 2027SOL     OW17716   0.408   1.791   4.085 -0.4353 -0.4304  0.5153
 2027SOL    HW117717   0.428   1.883   4.099 -2.0170  0.4809 -3.3202
 2027SOL    HW217718   0.485   1.750   4.126 -1.3938 -2.2920  0.4587
 2028SOL     OW17719   1.860   4.651   0.379  0.5000  0.1479  0.4273
 2028SOL    HW117720   1.886   4.558   0.376  0.2657  0.0962 -0.0531
 2028SOL    HW217721   1.785   4.648   0.320  2.6326  0.4008 -2.3059
 2029SOL     OW17722   0.187   1.736   3.693 -0.1453  0.4324 -0.0649
 2029SOL    HW117723   0.192   1.746   3.788 -1.7283  0.0103  0.0604
 2029SOL    HW217724   0.280   1.750   3.673  0.5855 -0.7635  2.4356
 2030SOL     OW17725   0.606   1.644   1.855  0.1409 -0.5479  0.0330
 2030SOL    HW117726   0.670   1.672   1.920 -1.5452  0.8715  1.1021
 2030SOL    HW217727   0.530   1.629   1.912  1.1622  0.5158  1.6536
 2031SOL     OW17728   0.049   2.210   4.550  0.2768  0.5220 -0.0127
 2031SOL    HW117729   4.698   2.171   4.545 -0.2226  1.7217 -0.5580
 2031SOL    HW217730   0.034   2.304   4.540 -3.6385 -0.3074 -1.9364
 2032SOL     OW17731   4.322   0.666   4.488 -0.4095  0.1265  0.4132
 2032SOL    HW117732   4.388   0.723   4.449 -1.2575  0.6820 -0.2243
 2032SOL    HW217733   4.262   0.667   4.413  0.2247 -0.5374 -0.0967
 2033SOL     OW17734   4.390   0.426   1.682 -0.3059  0.0545 -0.5117
 2033SOL    HW117735   4.317   0.389   1.632  2.2425 -3.9499 -1.2353
 2033SOL    HW217736   4.456   0.358   1.673  0.5816  0.9533 -0.8596
 2034SOL     OW17737   0.343   1.239   8.708 -0.2816  0.1979 -0.3336
 2034SOL    HW117738   0.328   1.154   8.667 -0.9372 -1.0973  2.6516
 2034SOL    HW217739   0.438   1.244   8.700 -0.0660 -0.6636  1.8173
 2035SOL     OW17740   1.239   0.546  17.210  0.2683 -0.5617  0.0408
 2035SOL    HW117741   1.310   0.536  17.146  0.2883 -0.2880  0.0211
 2035SOL    HW217742   1.214   0.637  17.200  2.8397  0.0374 -1.0212
 2036SOL     OW17743   2.027   3.450   8.257  0.4524 -0.2475  0.3373
 2036SOL    HW117744   1.964   3.501   8.206  0.5515  0.6063  1.0723
 2036SOL    HW217745   2.088   3.513   8.297  0.4036 -0.1312  0.2303
 2037SOL     OW17746   1.596   0.660   3.762  0.3939 -0.7075  0.3308
 2037SOL    HW117747   1.643   0.685   3.682  2.5983 -0.4267  1.7366
 2037SOL    HW217748   1.599   0.566   3.740 -0.5202 -0.3486 -1.3435
 2038SOL     OW17749   1.385   2.437   2.363 -0.3903 -0.0144 -0.2736
 2038SOL    HW117750   1.334   2.357   2.375  0.7020 -0.6735 -0.0175
 2038SOL    HW217751   1.390   2.450   2.268  0.2419  1.1951 -0.0720
 2039SOL     OW17752   4.467   0.737   9.565  0.1809 -0.1035  0.2681
 2039SOL    HW117753   4.561   0.756   9.571  0.4350 -1.6273  1.1634
 2039SOL    HW217754   4.471   0.650   9.525  1.2868  0.6114 -1.1939
 2040SOL     OW17755   0.956   3.270   6.505  0.1781  0.4224 -0.1005
 2040SOL    HW117756   1.029   3.298   6.560  1.3863 -4.1876  0.6431
 2040SOL    HW217757   0.918   3.211   6.571  1.5697 -0.6340 -0.2513
 2041SOL     OW17758   1.689   0.707   2.238  0.3059  0.0004 -0.0320
 2041SOL    HW117759   1.686   0.635   2.302  1.5780 -0.4098 -0.4211
 2041SOL    HW217760   1.717   0.779   2.294  4.7488  1.1749 -3.7053
 2042SOL     OW17761   3.270   2.267   4.193  0.0621  0.0300  0.0906
 2042SOL    HW117762   3.296   2.246   4.103  0.7496 -0.7270  0.4640
 2042SOL    HW217763   3.289   2.361   4.198  0.1291  0.0699 -0.9803
 2043SOL     OW17764   4.328   0.913  10.815  0.0547 -0.2298 -0.1164
 2043SOL    HW117765   4.312   1.005  10.836 -0.4322 -0.1158 -0.9948
 2043SOL    HW217766   4.419   0.924  10.786  0.3979 -3.3490 -0.2340
 2044SOL     OW17767   0.321   3.879   8.587  0.4466  0.5358 -0.6460
 2044SOL    HW117768   0.282   3.838   8.664  0.2534 -0.0159 -1.0316
 2044SOL    HW217769   0.404   3.920   8.610 -0.6970  2.4329  0.1143
 2045SOL     OW17770   0.378   2.817  13.170  0.1656  0.0467  0.4181
 2045SOL    HW117771   0.389   2.730  13.210 -0.4428 -1.3949 -2.5694
 2045SOL    HW217772   0.462   2.840  13.129  0.4180 -1.2607  0.1984
 2046SOL     OW17773   4.515   0.149   0.662 -0.0121 -0.3775 -0.0140
 2046SOL    HW117774   4.466   0.122   0.739 -0.5574 -0.6248 -0.4513
 2046SOL    HW217775   4.587   0.198   0.702  1.0729 -0.3657 -1.9791
 2047SOL     OW17776   4.576   3.685   7.304 -0.2483 -0.1274 -0.2938
 2047SOL    HW117777   4.612   3.598   7.318 -0.3558 -0.1018  0.1440
 2047SOL    HW217778   4.582   3.720   7.393  1.4282  2.1264 -1.2884
 2048SOL     OW17779   1.655   1.606   6.813 -0.1955  0.0878  0.4541
 2048SOL    HW117780   1.655   1.591   6.718 -1.4892 -0.6377  0.5693
 2048SOL    HW217781   1.649   1.514   6.837 -1.6395 -0.6965 -2.9026
 2049SOL     OW17782   3.235   2.952   8.009  0.6419  0.5459  0.4747
 2049SOL    HW117783   3.314   2.919   8.052 -0.2374  0.3041  1.9060
 2049SOL    HW217784   3.258   3.045   8.009  0.1224  0.6709 -0.3371
 2050SOL     OW17785   2.691   3.575   7.619  0.2718  0.3373 -0.2796
 2050SOL    HW117786   2.730   3.535   7.541  2.3781  1.0354  0.4264
 2050SOL    HW217787   2.750   3.547   7.689  0.2405  0.2356 -0.2945
 2051SOL     OW17788   0.322   2.439   7.417 -0.1389  0.4708  0.1183
 2051SOL    HW117789   0.274   2.363   7.385  0.0986  1.2198 -1.9948
 2051SOL    HW217790   0.402   2.400   7.453 -1.1345 -1.1265  0.5697
 2052SOL     OW17791   4.559   3.934   5.482 -0.2656  0.1418 -0.1427
 2052SOL    HW117792   4.623   4.005   5.479 -1.2618  1.0589  0.1513
 2052SOL    HW217793   4.586   3.900   5.568  1.7264  0.8761 -0.4840
 2053SOL     OW17794   0.370   3.169   1.228 -0.0397  0.2577 -0.5676
 2053SOL    HW117795   0.375   3.115   1.306 -1.6409  0.2818 -0.4526
 2053SOL    HW217796   0.364   3.257   1.264 -2.1601 -0.3752  0.6028
 2054SOL     OW17797   2.548   1.225  16.940 -0.6989  0.0349  0.7631
 2054SOL    HW117798   2.515   1.220  17.029  1.2639  0.8128  1.5395
 2054SOL    HW217799   2.629   1.176  16.952 -0.4874 -0.0077 -0.7425
 2055SOL     OW17800   3.409   3.620   7.126  0.2723 -0.3398  0.3358
 2055SOL    HW117801   3.369   3.557   7.066  0.6313 -1.2353  1.0485
 2055SOL    HW217802   3.483   3.656   7.077  1.7675 -0.8344  2.2465
 2056SOL     OW17803   0.088   4.258   7.532 -0.2986  0.2619  0.2757
 2056SOL    HW117804   0.116   4.180   7.581  1.7436  0.2061 -0.9811
 2056SOL    HW217805   0.146   4.324   7.571 -0.5944  1.2923 -1.0303
 2057SOL     OW17806   0.517   0.126  17.173  0.2896  0.3903  0.6473
 2057SOL    HW117807   0.436   0.168  17.202 -1.0195 -1.6491 -0.0326
 2057SOL    HW217808   0.551   0.207  17.136  0.8067 -0.1159  0.0205
 2058SOL     OW17809   2.945   0.854  12.307  0.3685 -0.1833 -0.4789
 2058SOL    HW117810   2.949   0.869  12.402  1.2606 -2.8980 -0.1024
 2058SOL    HW217811   2.856   0.820  12.309 -0.3199  1.7258  1.3154
 2059SOL     OW17812   4.079   4.125   8.393 -0.2019  0.7003 -0.1261
 2059SOL    HW117813   4.144   4.084   8.336 -1.6114  0.3361 -1.4646
 2059SOL    HW217814   4.010   4.140   8.329  1.7593 -0.7172 -2.5986
 2060SOL     OW17815   4.604   4.430   1.220 -0.0503 -0.0030  1.0336
 2060SOL    HW117816   4.585   4.344   1.184  2.3071 -0.9493  2.0142
 2060SOL    HW217817   4.519   4.448   1.261 -0.6689  0.9299 -0.6791
 2061SOL     OW17818   1.758   1.353  12.457  0.0183 -0.6282  0.4238
 2061SOL    HW117819   1.707   1.408  12.397 -1.0755 -0.4433  1.5323
 2061SOL    HW217820   1.775   1.278  12.400  2.6506  0.2282  0.1038
 2062SOL     OW17821   2.331   0.492   1.148  0.2739 -0.4556 -0.5520
 2062SOL    HW117822   2.373   0.439   1.215  3.1424  1.3718 -0.9320
 2062SOL    HW217823   2.244   0.452   1.142 -0.2598  0.5711  0.3754
 2063SOL     OW17824   2.339   2.888   4.302 -0.4116 -0.0366 -0.2619
 2063SOL    HW117825   2.274   2.906   4.234 -0.8976  0.6719  0.3972
 2063SOL    HW217826   2.382   2.973   4.306 -2.1486  0.7917  0.4961
 2064SOL     OW17827   0.249   2.327  13.242  0.1127  0.1146  0.1660
 2064SOL    HW117828   0.256   2.232  13.227 -0.6386  0.3833 -1.8614
 2064SOL    HW217829   0.160   2.349  13.214 -0.7823 -1.4615  1.7461
 2065SOL     OW17830   1.407   3.800   3.377  0.0611 -0.2043 -0.1478
 2065SOL    HW117831   1.395   3.706   3.362 -1.2882 -0.2421  1.1529
 2065SOL    HW217832   1.488   3.819   3.329 -0.7605  1.8124 -0.7539
 2066SOL     OW17833   1.729   3.512   4.555 -0.4160 -0.3144 -0.0323
 2066SOL    HW117834   1.820   3.481   4.561 -0.3175  0.1217  0.6658
 2066SOL    HW217835   1.723   3.516   4.459  1.9285  0.1416 -0.1654
 2067SOL     OW17836   1.921   0.313   0.064  0.0088 -0.6368  0.1810
 2067SOL    HW117837   1.947   0.363  17.729  1.0476 -0.3823  0.6863
 2067SOL    HW217838   1.847   0.358   0.104  0.1107  0.6583 -1.0846
 2068SOL     OW17839   1.889   0.754  13.170  0.5328  0.2501 -0.4940
 2068SOL    HW117840   1.922   0.730  13.084 -1.9645 -0.7844 -1.1770
 2068SOL    HW217841   1.964   0.792  13.216 -0.4705 -0.7596  2.0023
 2069SOL     OW17842   3.176   3.895   2.015 -0.0786 -0.0187 -0.6013
 2069SOL    HW117843   3.186   3.803   1.990  1.2408  0.3279 -1.3545
 2069SOL    HW217844   3.166   3.930   1.926 -0.4672 -1.4115 -1.1035
 2070SOL     OW17845   4.456   2.335   5.113  0.4093  0.7805 -0.2131
 2070SOL    HW117846   4.470   2.281   5.192  1.1664  2.0153  0.4895
 2070SOL    HW217847   4.394   2.394   5.156  2.1203  1.9872  0.6247
 2071SOL     OW17848   3.475   3.235   3.534  0.1095 -0.3411  0.1371
 2071SOL    HW117849   3.409   3.257   3.600 -0.1836  0.5121 -0.4330
 2071SOL    HW217850   3.526   3.188   3.599 -0.1422  0.1241  0.6667
 2072SOL     OW17851   2.118   1.336   9.147  0.9774  0.5039 -0.2562
 2072SOL    HW117852   2.031   1.375   9.156 -0.1525 -1.7843 -1.2869
 2072SOL    HW217853   2.135   1.329   9.241 -1.0298  2.2654  0.2297
 2073SOL     OW17854   3.713   4.131  11.750 -0.1684  0.3141  0.7065
 2073SOL    HW117855   3.751   4.044  11.753 -0.9427 -0.0942 -1.3740
 2073SOL    HW217856   3.662   4.134  11.831 -2.2506  1.9118 -0.6524
 2074SOL     OW17857   4.419   2.552   1.294 -0.5673  0.2132  0.4855
 2074SOL    HW117858   4.429   2.630   1.239 -3.2134  1.5400  1.8987
 2074SOL    HW217859   4.481   2.495   1.249  0.2218  0.5101  1.1949
 2075SOL     OW17860   1.174   2.442   8.804  0.2379 -0.4736  0.1100
 2075SOL    HW117861   1.133   2.428   8.719 -1.2613 -1.2515  0.9619
 2075SOL    HW217862   1.111   2.505   8.839 -0.2988 -0.0559 -1.6121
 2076SOL     OW17863   0.356   0.391   2.351 -0.2766  0.1030  0.4622
 2076SOL    HW117864   0.275   0.368   2.396 -0.7103 -0.5512 -0.6480
 2076SOL    HW217865   0.326   0.399   2.261 -0.0574  0.7557  0.4459
 2077SOL     OW17866   3.950   1.235  15.585  0.0571 -0.1960 -0.2174
 2077SOL    HW117867   3.934   1.329  15.582  2.1207  0.0526 -3.0702
 2077SOL    HW217868   3.927   1.217  15.494  0.2799 -0.5540 -0.2043
 2078SOL     OW17869   4.467   1.781   1.262 -0.1945 -0.1913  0.0585
 2078SOL    HW117870   4.412   1.817   1.193 -0.4440  0.1994  0.4629
 2078SOL    HW217871   4.548   1.766   1.213 -0.9078 -0.7376 -0.9569
 2079SOL     OW17872   0.958   3.031   6.297  0.6801  0.6210  0.2769
 2079SOL    HW117873   0.938   3.079   6.217 -1.0363  0.3080  0.5026
 2079SOL    HW217874   0.955   3.098   6.365 -1.8413  1.0951 -0.2878
 2080SOL     OW17875   3.434   4.510   5.465  0.0163  0.8594  0.4947
 2080SOL    HW117876   3.456   4.417   5.468  2.1037  1.4091  1.5471
 2080SOL    HW217877   3.522   4.542   5.482  0.3050  0.8999 -1.0460
 2081SOL     OW17878   1.568   4.091   5.269  0.0085  0.2736 -0.4154
 2081SOL    HW117879   1.628   4.141   5.214 -0.0425 -0.2867 -0.9795
 2081SOL    HW217880   1.550   4.010   5.221 -3.2529  0.4491  0.4940
 2082SOL     OW17881   0.404   2.529   6.346  0.3232  0.3290 -0.3416
 2082SOL    HW117882   0.455   2.609   6.338  2.0479 -0.8646 -1.2372
 2082SOL    HW217883   0.461   2.477   6.402  1.5298  0.8542 -1.0716
 2083SOL     OW17884   4.004   4.403  10.376 -0.4061 -0.1510 -0.7902
 2083SOL    HW117885   3.935   4.447  10.325  1.2125  1.4402 -1.6259
 2083SOL    HW217886   3.957   4.320  10.374  0.6205 -0.7087 -2.0130
 2084SOL     OW17887   2.935   0.699   5.139 -0.1114  0.2152 -0.1271
 2084SOL    HW117888   2.938   0.795   5.137 -0.9994  0.3198  2.3237
 2084SOL    HW217889   3.019   0.675   5.100 -1.2371  0.9613 -2.9438
 2085SOL     OW17890   0.179   3.700   6.964  0.5132 -0.1984  0.2848
 2085SOL    HW117891   0.103   3.672   6.912  0.6050 -2.4955  1.3795
 2085SOL    HW217892   0.188   3.793   6.947 -0.3849 -0.1453  0.1005
 2086SOL     OW17893   3.013   3.404   7.048 -0.1068 -0.3921  0.1887
 2086SOL    HW117894   3.080   3.419   6.981 -0.0261  1.4434  0.6981
 2086SOL    HW217895   2.984   3.491   7.076  0.2384 -0.3851  0.5123
 2087SOL     OW17896   1.627   0.202   9.776  0.3245 -0.2346  0.1340
 2087SOL    HW117897   1.715   0.205   9.739  0.5372 -3.0967  0.3818
 2087SOL    HW217898   1.600   0.294   9.770  1.3254 -0.0883 -2.0651
 2088SOL     OW17899   3.459   2.588   8.904 -0.3823  0.0872  0.1737
 2088SOL    HW117900   3.495   2.569   8.818  1.0869  1.8734  0.4197
 2088SOL    HW217901   3.538   2.595   8.957  0.2762 -0.2947 -0.7598
 2089SOL     OW17902   3.714   1.068   6.958 -0.2176  0.3250  0.4651
 2089SOL    HW117903   3.644   1.007   6.935 -1.8096  2.1565  0.4530
 2089SOL    HW217904   3.676   1.112   7.034 -0.2377 -0.6749  1.0332
 2090SOL     OW17905   0.207   2.209   9.388  0.1076  0.1132  0.0309
 2090SOL    HW117906   0.127   2.159   9.376  0.0165 -0.3538  2.4841
 2090SOL    HW217907   0.262   2.132   9.400  0.9027  0.6561 -0.1004
 2091SOL     OW17908   1.376   0.749   6.806  0.2292  0.1793  0.6556
 2091SOL    HW117909   1.384   0.692   6.729 -1.4057 -0.8757  1.2550
 2091SOL    HW217910   1.431   0.822   6.780 -1.1264  0.0282 -2.6919
 2092SOL     OW17911   3.590   0.716   9.343 -0.5981 -1.0479  0.0727
 2092SOL    HW117912   3.531   0.715   9.418 -0.7277 -1.0773 -0.0295
 2092SOL    HW217913   3.568   0.795   9.293  0.7249 -0.1458  0.9118
 2093SOL     OW17914   1.699   2.360   4.026 -0.1228  0.3984 -0.1387
 2093SOL    HW117915   1.639   2.398   3.962  0.7252 -0.4420 -1.4371
 2093SOL    HW217916   1.757   2.436   4.034  0.2169 -0.0643  1.7100
 2094SOL     OW17917   2.763   1.122   3.313 -0.3299  0.3529  0.1469
 2094SOL    HW117918   2.780   1.057   3.245  1.0941  1.7408 -0.8177
 2094SOL    HW217919   2.849   1.162   3.325  0.5231 -0.5905 -2.8163
 2095SOL     OW17920   1.729   3.234   6.483  0.1791 -0.7346  0.3951
 2095SOL    HW117921   1.690   3.217   6.569 -0.2119 -0.4944  0.2681
 2095SOL    HW217922   1.751   3.326   6.494  0.9492 -0.9585  0.7073
 2096SOL     OW17923   3.932   2.398   7.412 -0.0129  0.5901 -0.1886
 2096SOL    HW117924   3.937   2.413   7.506 -3.3196  2.3245 -0.2838
 2096SOL    HW217925   4.017   2.367   7.382  0.7409  0.9876  1.5846
 2097SOL     OW17926   0.867   1.027   5.695  0.0507  0.3640  0.3042
 2097SOL    HW117927   0.951   1.074   5.700 -0.6138  1.2139  3.6967
 2097SOL    HW217928   0.816   1.095   5.738 -1.2115 -0.7741  0.6150
 2098SOL     OW17929   3.560   2.074   7.551  0.1897  0.1291 -0.6254
 2098SOL    HW117930   3.497   2.091   7.481  1.8649  0.4151 -2.1002
 2098SOL    HW217931   3.637   2.111   7.507  1.5691  0.4094  2.0097
 2099SOL     OW17932   1.803   3.143   6.231 -0.1281  0.5676 -0.4188
 2099SOL    HW117933   1.781   3.179   6.317  0.2492 -0.1518 -0.0167
 2099SOL    HW217934   1.893   3.173   6.220 -0.1582  1.3936  1.6203
 2100SOL     OW17935   3.339   0.336   5.136 -0.0830  0.1700  0.5218
 2100SOL    HW117936   3.333   0.255   5.085  0.7272  0.7058 -0.4207
 2100SOL    HW217937   3.249   0.354   5.163 -0.5466 -2.2348  0.5615
 2101SOL     OW17938   4.669   2.542   0.545  0.3434  0.0891 -0.7107
 2101SOL    HW117939   4.731   2.487   0.496 -0.0113 -0.4273 -0.5855
 2101SOL    HW217940   4.698   2.630   0.520  0.9809 -0.2543 -1.1842
 2102SOL     OW17941   4.201   2.262   4.675  0.3064 -0.6313 -0.1876
 2102SOL    HW117942   4.253   2.212   4.737 -2.1085 -1.4594  1.1731
 2102SOL    HW217943   4.243   2.250   4.590  0.2716 -0.7930 -0.1826
 2103SOL     OW17944   0.625   3.137   6.502  0.2408 -0.3646 -0.6630
 2103SOL    HW117945   0.547   3.175   6.542 -0.2700 -2.8730  0.7544
 2103SOL    HW217946   0.625   3.174   6.414 -0.8080 -3.0274 -1.7811
 2104SOL     OW17947   3.417   0.505   9.262 -0.1778  0.1410 -0.0593
 2104SOL    HW117948   3.490   0.565   9.276 -1.3689  1.6059 -0.1430
 2104SOL    HW217949   3.396   0.538   9.175 -0.4948  0.0078 -0.0331
 2105SOL     OW17950   0.616   1.092   2.929  0.2468 -0.3602 -0.2432
 2105SOL    HW117951   0.593   1.141   3.008 -0.2682 -3.8081  1.7460
 2105SOL    HW217952   0.585   1.004   2.949 -0.4370 -0.0541  0.0529
 2106SOL     OW17953   1.515   0.113   4.308 -0.1562 -0.5788 -0.3590
 2106SOL    HW117954   1.483   0.072   4.228 -1.2640 -0.2262 -0.0921
 2106SOL    HW217955   1.442   0.171   4.329  1.3831  0.9822  0.7157
 2107SOL     OW17956   2.722   0.514   2.564 -0.5058  0.2233 -0.4440
 2107SOL    HW117957   2.778   0.585   2.532 -0.1872  0.2100  0.0817
 2107SOL    HW217958   2.725   0.523   2.659  0.0626  1.7315 -0.6024
 2108SOL     OW17959   4.035   0.836  16.108  0.4509 -0.5298 -0.0862
 2108SOL    HW117960   4.094   0.775  16.065  1.3197 -1.0275  1.8207
 2108SOL    HW217961   3.983   0.778  16.164  0.8190 -1.2221 -0.4657
 2109SOL     OW17962   2.065   4.042   0.032  0.1832  0.1056 -0.4502
 2109SOL    HW117963   2.118   3.992   0.094  0.9297  0.1024 -1.0835
 2109SOL    HW217964   2.103   4.130   0.043  1.3592 -0.4092 -0.3560
 2110SOL     OW17965   0.282   3.399   2.559  0.0019  0.4212 -0.0053
 2110SOL    HW117966   0.230   3.397   2.479  0.6350 -0.0218 -0.4100
 2110SOL    HW217967   0.316   3.309   2.553  0.7534  0.7640 -0.9338
 2111SOL     OW17968   0.833   3.905   0.758  0.3572  0.1384 -0.0702
 2111SOL    HW117969   0.902   3.839   0.755  0.5632  0.3683 -0.4333
 2111SOL    HW217970   0.856   3.941   0.672 -1.3761  0.3014 -0.4611
 2112SOL     OW17971   3.840   3.979   2.857  0.5684 -0.4097  0.8410
 2112SOL    HW117972   3.897   3.927   2.801 -1.3784  1.1619 -2.6456
 2112SOL    HW217973   3.820   4.046   2.791 -2.4893 -1.4097  0.7540
 2113SOL     OW17974   1.679   0.575   1.616  0.6052 -0.5080  0.8711
 2113SOL    HW117975   1.622   0.622   1.677  1.0947  1.6718 -0.3648
 2113SOL    HW217976   1.646   0.593   1.528 -1.0209 -2.0109  1.1821
 2114SOL     OW17977   2.591   3.471  16.954 -0.3963 -0.0154 -0.6247
 2114SOL    HW117978   2.540   3.499  17.030 -0.7740 -2.2486 -0.0518
 2114SOL    HW217979   2.650   3.546  16.953 -1.2610  0.6659 -0.6711
 2115SOL     OW17980   3.184   3.560   8.570  0.2742 -0.0313  0.7839
 2115SOL    HW117981   3.204   3.521   8.655  0.6682  0.0422  0.7249
 2115SOL    HW217982   3.259   3.530   8.519  2.6895  2.6686  2.6774
 2116SOL     OW17983   0.719   4.555  17.708 -0.3463 -0.0999 -0.5124
 2116SOL    HW117984   0.673   4.476  17.679 -0.9344 -0.0335  0.2465
 2116SOL    HW217985   0.717   4.597  17.622 -2.1605  0.3593 -0.2518
 2117SOL     OW17986   3.852   2.004   8.192 -0.4829 -0.2814 -0.1813
 2117SOL    HW117987   3.788   1.937   8.168  0.0106 -0.5477 -0.7253
 2117SOL    HW217988   3.889   1.967   8.272 -0.9153 -1.2180 -0.4115
 2118SOL     OW17989   2.297   2.301   0.875  0.5566 -0.3149 -0.1538
 2118SOL    HW117990   2.281   2.386   0.834 -0.9286 -0.1873  0.6987
 2118SOL    HW217991   2.299   2.324   0.968  2.1131  1.3194 -0.5817
 2119SOL     OW17992   1.487   4.366   8.765 -0.1754  0.4714  0.3769
 2119SOL    HW117993   1.564   4.395   8.813 -0.2447 -0.5834  1.1341
 2119SOL    HW217994   1.440   4.317   8.833 -0.0806 -0.3122 -0.1239
 2120SOL     OW17995   0.042   4.482   5.498  0.2822 -0.0516  0.2482
 2120SOL    HW117996   0.032   4.574   5.473 -1.4919 -0.4212 -0.4240
 2120SOL    HW217997   4.724   4.441   5.430  0.9187 -2.0465  0.9505
 2121SOL     OW17998   4.142   1.576   2.660 -0.5434 -0.1258  0.2052
 2121SOL    HW117999   4.088   1.512   2.613 -0.8044  1.5619 -1.7774
 2121SOL    HW218000   4.155   1.642   2.593  0.6198 -1.9937 -1.4261
 2122SOL     OW18001   3.839   3.274   3.402 -0.1956 -0.7240 -0.4737
 2122SOL    HW118002   3.783   3.293   3.477  0.6693 -0.7905  0.1876
 2122SOL    HW218003   3.876   3.359   3.379 -1.9846  0.5586  1.4198
 2123SOL     OW18004   3.903   0.256  17.444 -0.0507 -0.1569 -0.2067
 2123SOL    HW118005   3.983   0.214  17.413 -0.3623 -0.4966 -0.5441
 2123SOL    HW218006   3.908   0.340  17.400  0.4997 -1.3891 -2.4783
 2124SOL     OW18007   3.074   4.502   0.268  0.2111 -0.1774 -0.6981
 2124SOL    HW118008   3.080   4.589   0.308  0.0507 -0.8339  0.7546
 2124SOL    HW218009   2.980   4.494   0.255  0.2594 -1.4225 -0.3101
 2125SOL     OW18010   0.786   0.419  14.472 -0.4584  0.1376 -0.0766
 2125SOL    HW118011   0.708   0.456  14.513 -0.8582 -1.0719  0.2385
 2125SOL    HW218012   0.837   0.498  14.455 -0.3864  0.0150 -0.4423
 2126SOL     OW18013   1.108   1.617  15.718 -0.3078 -0.0304 -0.4821
 2126SOL    HW118014   1.201   1.635  15.699 -0.5416 -1.4776 -2.9958
 2126SOL    HW218015   1.067   1.591  15.635 -0.4916 -0.2927 -0.3070
 2127SOL     OW18016   2.482   3.124   1.590 -0.0691 -0.0806 -0.0899
 2127SOL    HW118017   2.454   3.195   1.533 -1.1972  0.3557  0.9989
 2127SOL    HW218018   2.396   3.113   1.631  0.1190 -1.7017 -0.1234
 2128SOL     OW18019   1.775   4.698  11.810  0.2363 -0.2649 -0.5508
 2128SOL    HW118020   1.860   4.675  11.772  0.4561 -0.3824 -0.0023
 2128SOL    HW218021   1.720   4.624  11.785  1.4021 -0.7139 -1.7654
 2129SOL     OW18022   4.130   2.024  14.739 -0.0265  0.1651  0.3798
 2129SOL    HW118023   4.128   2.019  14.643 -0.5689  0.8318  0.3594
 2129SOL    HW218024   4.224   2.022  14.759 -0.1122 -0.0734  0.7428
 2130SOL     OW18025   0.494   0.333   4.571  0.1274 -0.1332 -0.2967
 2130SOL    HW118026   0.486   0.411   4.626  0.0082 -0.5594  0.3028
 2130SOL    HW218027   0.466   0.351   4.482  0.4931  0.5029 -0.2762
 2131SOL     OW18028   0.226   2.730   8.914 -0.5590  0.2151  0.7181
 2131SOL    HW118029   0.252   2.645   8.880 -2.8374  0.2471 -1.1130
 2131SOL    HW218030   0.184   2.713   8.999 -0.9642 -2.0391  0.0643
 2132SOL     OW18031   4.140   0.879   1.176  0.0864 -0.2144 -0.3977
 2132SOL    HW118032   4.129   0.953   1.236 -0.5365 -0.6397  0.0013
 2132SOL    HW218033   4.225   0.841   1.197 -1.6325 -2.9857  1.4037
 2133SOL     OW18034   3.518   0.643   2.370 -0.5775  0.0404  0.3463
 2133SOL    HW118035   3.442   0.607   2.416  1.3520  1.1965  4.4853
 2133SOL    HW218036   3.504   0.614   2.280  1.5994 -0.1646  0.0792
 2134SOL     OW18037   0.496   3.461   4.938  0.1661  0.1619  0.2486
 2134SOL    HW118038   0.486   3.386   4.879  1.3465 -0.7928  1.2820
 2134SOL    HW218039   0.586   3.489   4.918  0.8019 -0.9055  1.6580
 2135SOL     OW18040   3.552   2.713   3.049 -0.5307 -0.2695  0.6848
 2135SOL    HW118041   3.484   2.758   2.999 -0.9922 -2.2849 -0.5026
 2135SOL    HW218042   3.545   2.623   3.018 -0.0217  0.1570 -0.6519
 2136SOL     OW18043   2.319   3.621  11.230  0.5979 -0.3961 -0.2841
 2136SOL    HW118044   2.401   3.592  11.190  0.9948 -0.0213  0.2627
 2136SOL    HW218045   2.358   3.675  11.299  1.1470  1.5548 -2.1226
 2137SOL     OW18046   0.307   3.857   8.999  0.4847 -0.2757  0.2507
 2137SOL    HW118047   0.299   3.817   9.086  0.5601  0.3831  0.5583
 2137SOL    HW218048   0.393   3.897   9.009  1.7805 -2.8075 -0.8607
 2138SOL     OW18049   2.323   3.135   9.335  0.0288 -0.3672 -0.1707
 2138SOL    HW118050   2.273   3.084   9.271 -1.0398 -0.5382  0.7750
 2138SOL    HW218051   2.261   3.200   9.367  2.9578  1.9409  0.7585
 2139SOL     OW18052   0.375   4.272   9.097 -0.1980  0.5924 -0.6196
 2139SOL    HW118053   0.451   4.255   9.153 -1.4233  0.4923  0.9919
 2139SOL    HW218054   0.410   4.243   9.013  1.8258 -1.2973  0.8565
 2140SOL     OW18055   2.740   0.720  11.555  0.1351  0.1005  0.3645
 2140SOL    HW118056   2.719   0.810  11.581 -0.1225  0.6598 -1.8475
 2140SOL    HW218057   2.835   0.724  11.565  0.1111  2.3855 -0.3681
 2141SOL     OW18058   1.275   4.698  11.513 -0.0709 -0.1539 -0.5082
 2141SOL    HW118059   1.228   4.714  11.430  1.3229  2.5063 -0.7883
 2141SOL    HW218060   1.198   4.676  11.565  0.6567 -1.9960 -0.2239
 2142SOL     OW18061   0.301   4.441   7.661  0.4721  0.0659  0.4429
 2142SOL    HW118062   0.374   4.469   7.605 -0.9560  0.4278 -1.2530
 2142SOL    HW218063   0.355   4.386   7.717  0.2721  0.8167  1.3657
 2143SOL     OW18064   0.068   1.073   6.779  0.1763  0.1772 -0.7093
 2143SOL    HW118065   0.162   1.090   6.784  0.2833 -1.0148  1.0567
 2143SOL    HW218066   0.076   0.985   6.741 -0.1661 -1.4356  2.9577
 2144SOL     OW18067   3.563   1.160   9.230 -0.8358  0.3932 -0.3313
 2144SOL    HW118068   3.552   1.243   9.276 -0.6336  0.2299  0.0107
 2144SOL    HW218069   3.499   1.170   9.159 -0.7877 -2.0286 -0.7210
 2145SOL     OW18070   4.337   4.726   8.314 -0.6591 -0.3926  0.2131
 2145SOL    HW118071   4.305   4.651   8.264  2.4459 -1.3573 -0.3180
 2145SOL    HW218072   4.414   0.021   8.266  0.5588 -1.7727  1.2831
 2146SOL     OW18073   1.110   3.226   0.710 -0.5279 -0.4102 -0.0786
 2146SOL    HW118074   1.102   3.143   0.756  0.6738 -0.5345 -0.1013
 2146SOL    HW218075   1.034   3.229   0.651 -0.5588 -0.0827 -0.0273
 2147SOL     OW18076   3.861   2.647   3.109  1.2962  0.2489 -0.0005
 2147SOL    HW118077   3.772   2.630   3.078  1.9221 -1.7653 -0.7312
 2147SOL    HW218078   3.906   2.569   3.075 -0.7024 -0.5903 -0.7477
 2148SOL     OW18079   0.059   2.029   5.155  0.1196  0.2725  0.1909
 2148SOL    HW118080   0.117   1.954   5.158 -1.0037 -0.5276  1.8761
 2148SOL    HW218081   0.101   2.089   5.217 -0.3323 -0.7582  1.5044
 2149SOL     OW18082   2.632   2.877   7.111 -1.0086  0.0616 -0.0089
 2149SOL    HW118083   2.565   2.928   7.157  0.6900  2.2757  0.0126
 2149SOL    HW218084   2.682   2.948   7.072 -0.1293 -0.4545  0.1887
 2150SOL     OW18085   4.478   0.770   2.915 -0.2143  0.1978  0.0302
 2150SOL    HW118086   4.399   0.718   2.928 -0.6768  1.0408  0.6048
 2150SOL    HW218087   4.522   0.743   2.997 -0.5724 -1.0277 -0.1774
 2151SOL     OW18088   3.703   4.189  15.097 -0.7415 -0.3536  0.0837
 2151SOL    HW118089   3.748   4.271  15.075 -0.6424 -0.4129  0.0652
 2151SOL    HW218090   3.662   4.204  15.182  1.3640 -1.2061  1.2620
 2152SOL     OW18091   1.926   4.358   2.641 -0.6694  0.3195  0.7032
 2152SOL    HW118092   1.900   4.300   2.569 -1.8085 -0.9774  2.1600
 2152SOL    HW218093   1.873   4.437   2.631  1.8086  2.1141  1.6962
 2153SOL     OW18094   1.453   0.418  11.923 -0.0437 -0.3665  0.1465
 2153SOL    HW118095   1.509   0.460  11.989  0.5911 -1.5680  0.3561
 2153SOL    HW218096   1.379   0.389  11.976  0.7597 -1.5217  0.6276
 2154SOL     OW18097   0.892   4.514   2.653 -0.1721  0.2654 -0.5611
 2154SOL    HW118098   0.955   4.443   2.663  0.0302  0.5619  0.2595
 2154SOL    HW218099   0.890   4.553   2.740  2.9171  1.9493 -1.2291
 2155SOL     OW18100   1.274   0.012   4.953 -0.2202 -0.1323  0.2387
 2155SOL    HW118101   1.306   0.060   4.878  1.6032 -0.9052  0.5326
 2155SOL    HW218102   1.355   4.731   5.000  0.6959 -3.3249 -2.4761
 2156SOL     OW18103   2.951   2.460  14.229 -0.3805 -0.4818  0.1089
 2156SOL    HW118104   2.967   2.523  14.299 -0.6118  0.2941 -0.5366
 2156SOL    HW218105   2.944   2.374  14.271 -3.3102 -1.3612 -2.1219
 2157SOL     OW18106   0.576   0.663   6.708 -0.3346 -0.1909  0.6322
 2157SOL    HW118107   0.644   0.692   6.769 -0.9363 -0.0142  1.2225
 2157SOL    HW218108   0.581   0.568   6.719 -0.2048 -0.0736  1.6081
 2158SOL     OW18109   1.948   3.325  10.597  0.8070  0.4633  0.1481
 2158SOL    HW118110   1.864   3.298  10.633 -0.1224  0.8903 -1.7193
 2158SOL    HW218111   1.935   3.420  10.604 -0.5593  0.2251  0.9412
 2159SOL     OW18112   1.439   1.637   0.692  0.2322 -0.4164 -0.2143
 2159SOL    HW118113   1.481   1.716   0.658  1.5971 -0.6680  0.8717
 2159SOL    HW218114   1.401   1.678   0.770 -0.0217  1.0396 -1.1056
 2160SOL     OW18115   0.354   0.694  16.167 -0.7294  0.4964  0.0434
 2160SOL    HW118116   0.294   0.624  16.142 -1.0466  0.6361  0.4020
 2160SOL    HW218117   0.293   0.768  16.178 -0.6590  0.4276  0.9053
 2161SOL     OW18118   1.649   0.267   7.405  0.1952 -0.4581  0.4762
 2161SOL    HW118119   1.583   0.275   7.474 -0.5392 -2.3194  0.0032
 2161SOL    HW218120   1.662   0.174   7.388 -0.2825 -0.2666 -0.9597
 2162SOL     OW18121   0.932   4.535   3.678  0.3750  0.0865 -0.4404
 2162SOL    HW118122   0.915   4.443   3.657 -2.7465  1.0732 -2.1098
 2162SOL    HW218123   0.854   4.553   3.730 -0.8167 -2.1367 -1.4641
 2163SOL     OW18124   4.016   4.689   1.610 -0.2787  0.4530 -0.1106
 2163SOL    HW118125   4.052   0.037   1.582  1.4947 -1.0794 -2.4662
 2163SOL    HW218126   4.052   4.698   1.698  0.6882  2.2977 -0.6952
 2164SOL     OW18127   3.389   4.679   3.531 -0.0329 -0.2819 -0.0161
 2164SOL    HW118128   3.471   4.727   3.517 -0.5092 -0.3634 -3.0277
 2164SOL    HW218129   3.332   0.012   3.565  1.9263  0.0593  2.6761
 2165SOL     OW18130   0.060   0.357  15.152  0.7041  0.2358  0.1963
 2165SOL    HW118131   0.149   0.325  15.166  0.7208  0.4117  0.4784
 2165SOL    HW218132   0.057   0.441  15.196  0.8420  1.0737 -1.3818
 2166SOL     OW18133   1.071   2.347   2.700 -0.1718  0.1817 -0.0514
 2166SOL    HW118134   1.037   2.398   2.626 -1.5895  0.7000  0.9786
 2166SOL    HW218135   1.057   2.404   2.775 -0.5706 -1.1075  0.8385
 2167SOL     OW18136   3.361   3.541   3.846  0.0647  0.5222  0.4603
 2167SOL    HW118137   3.294   3.542   3.915 -0.0765 -0.3070  0.3378
 2167SOL    HW218138   3.439   3.513   3.893 -1.3537 -2.8355  0.8097
 2168SOL     OW18139   1.110   2.577   3.560  0.6372 -0.4010 -0.3393
 2168SOL    HW118140   1.041   2.620   3.509  1.3275 -1.6948 -2.3837
 2168SOL    HW218141   1.052   2.523   3.613 -1.0967 -0.4928 -2.3039
 2169SOL     OW18142   3.012   0.599  11.735  0.1076  0.2565  0.5727
 2169SOL    HW118143   3.107   0.590  11.729  0.0558  0.6965 -0.8518
 2169SOL    HW218144   3.006   0.686  11.776 -2.3530 -0.5053  1.7925
 2170SOL     OW18145   2.367   0.538   7.378 -0.3692  0.8185 -0.5379
 2170SOL    HW118146   2.272   0.550   7.385 -0.8025 -2.3484 -1.0346
 2170SOL    HW218147   2.409   0.591   7.445  0.3952 -0.1600 -0.2585
 2171SOL     OW18148   0.165   2.698   3.617 -0.3494 -0.0193  0.1222
 2171SOL    HW118149   0.218   2.707   3.537  0.2664 -2.4862  0.2438
 2171SOL    HW218150   0.230   2.660   3.677  1.5023  1.7994 -0.6990
 2172SOL     OW18151   1.015   3.929  14.678 -0.0825  0.3296 -0.1460
 2172SOL    HW118152   1.103   3.927  14.715  0.4522 -1.4359 -1.5453
 2172SOL    HW218153   0.967   3.989  14.736 -2.5180 -3.5622  1.9171
 2173SOL     OW18154   4.061   2.202   3.707 -0.1563 -0.0435 -0.0647
 2173SOL    HW118155   4.067   2.285   3.658  2.0832  0.5402  1.1938
 2173SOL    HW218156   4.009   2.149   3.646 -0.3390  2.0187 -1.7060
 2174SOL     OW18157   4.555   1.186   6.773 -0.1719 -0.0720  0.3851
 2174SOL    HW118158   4.585   1.268   6.734  0.1259  0.0513  0.8782
 2174SOL    HW218159   4.636   1.136   6.762 -0.2242 -0.0256 -0.2185
 2175SOL     OW18160   3.165   0.300   4.325 -0.0158 -0.2433  0.6425
 2175SOL    HW118161   3.079   0.271   4.354 -0.3449 -1.2304 -1.3120
 2175SOL    HW218162   3.187   0.241   4.252 -0.1728  0.8405 -0.2837
 2176SOL     OW18163   0.219   1.467   0.972 -0.0603 -0.3632  0.0038
 2176SOL    HW118164   0.311   1.489   0.957 -0.2548 -0.3816 -1.2131
 2176SOL    HW218165   0.202   1.458   0.879 -0.9662  2.7909 -0.1262
 2177SOL     OW18166   1.832   2.445  12.837  0.3048 -0.3111  0.2716
 2177SOL    HW118167   1.878   2.524  12.807  2.1011 -1.6605 -0.5206
 2177SOL    HW218168   1.868   2.446  12.925 -0.6445  0.2018  0.6535
 2178SOL     OW18169   3.921   4.390   4.941 -0.0285  0.5879  0.1264
 2178SOL    HW118170   3.925   4.300   4.907 -0.3336  0.1304  1.2762
 2178SOL    HW218171   3.851   4.388   5.007 -1.4228  1.3657 -1.3249
 2179SOL     OW18172   4.421   4.627   5.673  0.4252  0.5915  0.1783
 2179SOL    HW118173   4.471   4.679   5.737 -0.7247  1.4969  0.3342
 2179SOL    HW218174   4.412   4.546   5.724 -0.9930 -0.6143 -1.9964
 2180SOL     OW18175   2.290   1.663   2.486 -0.3081 -0.2157  0.3979
 2180SOL    HW118176   2.272   1.756   2.478  0.3524 -0.0742  0.5615
 2180SOL    HW218177   2.205   1.624   2.507 -0.2973 -0.0936  0.6604
 2181SOL     OW18178   4.130   0.852   2.428  0.6586 -0.3189 -0.8298
 2181SOL    HW118179   4.081   0.915   2.376 -1.3933 -0.3563  1.0209
 2181SOL    HW218180   4.064   0.835   2.496  1.7397  0.3073  0.3788
 2182SOL     OW18181   3.848   4.465   2.220  0.7388 -0.6534  0.4994
 2182SOL    HW118182   3.919   4.440   2.279  0.8816 -2.3472 -0.3714
 2182SOL    HW218183   3.865   4.405   2.147  2.1785  0.6440 -0.2301
 2183SOL     OW18184   2.461   1.546   5.800  0.2647  0.6988 -0.0243
 2183SOL    HW118185   2.481   1.617   5.740  1.0412  1.5956  1.2885
 2183SOL    HW218186   2.377   1.585   5.822 -0.7488 -1.2221 -0.4910
 2184SOL     OW18187   0.538   1.057  11.388  0.0061 -0.3167  0.0306
 2184SOL    HW118188   0.570   0.970  11.365 -1.8076 -1.6463  2.4773
 2184SOL    HW218189   0.476   1.026  11.454 -1.1220  0.0507 -0.8498
 2185SOL     OW18190   3.640   2.042   5.154 -0.0401  0.1429 -0.2214
 2185SOL    HW118191   3.719   2.021   5.104  1.2812 -1.0372  2.4026
 2185SOL    HW218192   3.656   2.127   5.195  1.8777  0.0080 -0.6546
 2186SOL     OW18193   4.133   1.360   8.980 -0.2777 -0.0500  0.8449
 2186SOL    HW118194   4.050   1.331   9.019  0.6566 -0.9455  2.1553
 2186SOL    HW218195   4.201   1.296   9.000  1.3419  1.2642 -0.4045
 2187SOL     OW18196   4.363   2.213   5.682 -0.6684  0.1709 -0.1257
 2187SOL    HW118197   4.401   2.125   5.681  1.5750  1.1495  0.4031
 2187SOL    HW218198   4.443   2.264   5.675 -1.3533  1.4205  1.2137
 2188SOL     OW18199   0.899   3.935   6.094  0.5062  0.2347  0.1881
 2188SOL    HW118200   0.834   3.981   6.042  0.2826  2.3284  2.3095
 2188SOL    HW218201   0.850   3.916   6.174  0.2792  3.5409  0.8353
 2189SOL     OW18202   3.718   4.472   1.556  0.0915 -0.1592 -0.3628
 2189SOL    HW118203   3.682   4.384   1.564  1.2607 -0.5981  0.0821
 2189SOL    HW218204   3.772   4.481   1.635  0.7077  0.9337 -0.9062
 2190SOL     OW18205   2.720   3.186   5.385 -0.5175  0.2806 -0.5296
 2190SOL    HW118206   2.711   3.275   5.350 -0.6671  0.3540 -0.3055
 2190SOL    HW218207   2.815   3.183   5.395 -0.8074 -2.0901  1.4374
 2191SOL     OW18208   1.610   1.109   3.810 -0.2532  0.1060 -0.2315
 2191SOL    HW118209   1.680   1.174   3.808  0.3060 -0.4710  0.8353
 2191SOL    HW218210   1.545   1.144   3.748 -0.5131 -0.6894 -0.4078
 2192SOL     OW18211   3.645   3.462  10.938 -0.4599 -0.1554 -0.1790
 2192SOL    HW118212   3.594   3.532  10.897  1.9048  1.3871 -0.5564
 2192SOL    HW218213   3.723   3.512  10.965  0.6838 -0.7626 -2.3827
 2193SOL     OW18214   2.523   3.612   1.296 -0.1552 -0.4415  1.0826
 2193SOL    HW118215   2.618   3.600   1.292  0.3569  3.6236  0.9762
 2193SOL    HW218216   2.492   3.534   1.342 -0.2522 -0.9291  0.1931
 2194SOL     OW18217   2.028   1.012   9.208  0.6434 -0.2027 -0.3527
 2194SOL    HW118218   2.100   1.059   9.166  1.0786 -0.8408 -0.3181
 2194SOL    HW218219   1.974   0.986   9.133  1.0448 -1.3266 -0.2478
 2195SOL     OW18220   4.218   1.232  13.891 -0.6370  0.3006 -0.3836
 2195SOL    HW118221   4.268   1.227  13.809  2.3253  0.9412  1.3978
 2195SOL    HW218222   4.236   1.324  13.911  1.5579  0.0597 -1.2548
 2196SOL     OW18223   1.643   3.530  14.388 -0.6315  0.2242  0.4866
 2196SOL    HW118224   1.633   3.439  14.361  2.9102  0.7157 -2.3673
 2196SOL    HW218225   1.561   3.564  14.353 -0.7603 -2.0646 -1.4158
 2197SOL     OW18226   3.992   0.701  11.997 -0.4577  0.1304  0.2831
 2197SOL    HW118227   4.009   0.792  12.020 -0.4920 -0.1193  1.3045
 2197SOL    HW218228   4.049   0.649  12.055 -0.9694 -0.0597  0.6133
 2198SOL     OW18229   2.868   4.336   8.592  0.4564  0.5285 -0.4957
 2198SOL    HW118230   2.796   4.327   8.654  1.7681 -1.3440  0.7658
 2198SOL    HW218231   2.904   4.424   8.599 -0.2710  0.7446  0.4338
 2199SOL     OW18232   0.084   2.338  14.454  0.3711 -0.1312 -0.2424
 2199SOL    HW118233   0.125   2.319  14.538  0.2811  2.5883  0.4373
 2199SOL    HW218234   0.011   2.277  14.453  0.1898  0.0873 -0.5848
 2200SOL     OW18235   4.154   2.491   8.744  1.0825  0.0912  0.0215
 2200SOL    HW118236   4.173   2.399   8.759 -1.4621 -0.7563 -1.9280
 2200SOL    HW218237   4.159   2.522   8.835  0.8856  3.3140 -1.0794
 2201SOL     OW18238   4.520   1.838   6.381 -0.4201  0.3639  0.1270
 2201SOL    HW118239   4.505   1.745   6.397  0.4194  0.3391  0.7492
 2201SOL    HW218240   4.602   1.852   6.428  0.6970 -2.3233 -0.9855
 2202SOL     OW18241   2.317   3.584   5.835  0.0373 -0.0840  0.0476
 2202SOL    HW118242   2.374   3.511   5.810 -0.1880 -0.3593  0.3371
 2202SOL    HW218243   2.248   3.570   5.770  0.2455 -1.0532  0.0331
 2203SOL     OW18244   1.865   0.750   3.997 -0.2172  0.5585  0.1368
 2203SOL    HW118245   1.931   0.790   4.053 -2.9254  1.6297  2.5322
 2203SOL    HW218246   1.806   0.691   4.044 -0.4606  0.4666 -0.2783
 2204SOL     OW18247   3.524   1.302  17.284 -0.3961 -0.2963  0.3000
 2204SOL    HW118248   3.437   1.313  17.245  0.0853 -1.5798 -1.1642
 2204SOL    HW218249   3.498   1.304  17.376 -1.1835  0.6267  0.0630
 2205SOL     OW18250   4.702   2.435  15.312  0.3413  0.0314  0.7009
 2205SOL    HW118251   4.619   2.402  15.346 -0.2749  1.6351  0.7563
 2205SOL    HW218252   0.030   2.416  15.380  2.0507 -0.6298 -1.1000
 2206SOL     OW18253   4.646   0.701   7.195 -0.0309  0.2000  0.3822
 2206SOL    HW118254   4.569   0.749   7.224  0.4090  1.1988 -0.0854
 2206SOL    HW218255   4.711   0.712   7.264 -0.6138  1.8478  0.6580
 2207SOL     OW18256   0.002   4.049   4.140 -0.0577 -0.3409 -0.5469
 2207SOL    HW118257   4.693   4.005   4.211 -1.6831 -2.5395 -2.9555
 2207SOL    HW218258   0.094   4.035   4.164 -0.1238  0.1175 -0.0143
 2208SOL     OW18259   1.583   3.833  16.964 -0.6170  0.1790  0.2646
 2208SOL    HW118260   1.497   3.794  16.974 -1.0752  1.5262  1.6655
 2208SOL    HW218261   1.608   3.846  17.056  1.1356  3.5086 -0.6488
 2209SOL     OW18262   3.103   2.466   9.998 -0.0444 -0.8606 -0.5206
 2209SOL    HW118263   3.105   2.551  10.041 -1.4739 -1.9641  1.7237
 2209SOL    HW218264   3.061   2.417  10.069 -1.3875 -0.8811 -1.3203
 2210SOL     OW18265   1.989   2.439  14.275 -0.1733  0.1727  0.3262
 2210SOL    HW118266   2.012   2.462  14.365 -0.3226 -1.6678  0.8342
 2210SOL    HW218267   1.905   2.484  14.270 -0.8309 -0.8897  1.8050
 2211SOL     OW18268   4.019   2.920   6.791 -0.1721 -0.1895  0.4126
 2211SOL    HW118269   3.998   3.013   6.793  1.3870  0.0942  2.9709
 2211SOL    HW218270   4.093   2.916   6.850  0.7955  0.1063 -0.7720
 2212SOL     OW18271   2.505   3.677   2.737 -0.1083  0.0352 -0.0809
 2212SOL    HW118272   2.516   3.772   2.734 -1.6431  0.2207  0.0940
 2212SOL    HW218273   2.551   3.665   2.820  1.8944 -2.3743 -1.5401
 2213SOL     OW18274   3.133   1.727  10.765 -0.0238  0.4480 -0.4003
 2213SOL    HW118275   3.076   1.698  10.837  0.6541  0.8595  0.3071
 2213SOL    HW218276   3.204   1.761  10.819 -0.2828 -0.1332  0.3088
 2214SOL     OW18277   3.794   2.336   2.670  0.6343 -0.7747  0.4508
 2214SOL    HW118278   3.879   2.313   2.633  0.1701 -1.2318 -0.3481
 2214SOL    HW218279   3.736   2.264   2.646  0.3206 -0.7413  1.1094
 2215SOL     OW18280   3.322   1.288   5.957  0.0643  0.5954  0.0512
 2215SOL    HW118281   3.413   1.284   5.985  0.0267  0.4755  0.1577
 2215SOL    HW218282   3.256   1.240   6.007 -0.0433 -0.1465 -0.8059
 2216SOL     OW18283   2.102   4.084   6.682 -0.0167  0.4320 -0.2034
 2216SOL    HW118284   2.193   4.063   6.659 -1.2133  0.6379 -5.1971
 2216SOL    HW218285   2.069   3.998   6.655 -1.1663  0.6262  0.5773
 2217SOL     OW18286   1.363   3.124   9.832  0.6158  0.4057  0.0604
 2217SOL    HW118287   1.365   3.036   9.795 -0.6411 -0.2731  1.6229
 2217SOL    HW218288   1.398   3.117   9.921  1.1349  3.2154  0.0824
 2218SOL     OW18289   2.739   1.203   6.387 -0.1587  0.4820 -0.4264
 2218SOL    HW118290   2.764   1.117   6.351 -0.9041 -0.7283  1.9711
 2218SOL    HW218291   2.777   1.259   6.319  2.3011 -0.6468  0.0256
 2219SOL     OW18292   0.245   2.406   8.323 -0.0397 -0.2965 -0.5480
 2219SOL    HW118293   0.299   2.484   8.329 -1.8030  0.8532  0.3824
 2219SOL    HW218294   0.155   2.436   8.341  0.9421  2.5252 -0.3350
 2220SOL     OW18295   3.997   0.106   9.828 -0.6199  0.1430  0.1298
 2220SOL    HW118296   4.076   0.159   9.839  0.6492 -1.6495 -0.3101
 2220SOL    HW218297   3.960   0.153   9.753 -1.5410 -0.3013  0.3055
 2221SOL     OW18298   4.699   3.871   2.214 -0.3970 -0.4816  0.6158
 2221SOL    HW118299   4.675   3.779   2.229 -0.0953 -0.5824  0.4800
 2221SOL    HW218300   4.707   3.911   2.300 -1.7360 -4.0606  2.3830
 2222SOL     OW18301   4.563   0.362   9.128  0.0920  0.3771  0.0851
 2222SOL    HW118302   4.488   0.380   9.071 -1.3502 -0.5666  1.6814
 2222SOL    HW218303   4.602   0.449   9.127  1.1459 -0.0533  2.5221
 2223SOL     OW18304   3.572   1.683   6.890 -0.3449  0.4209  0.1914
 2223SOL    HW118305   3.532   1.756   6.842  0.8539  0.0537 -1.3531
 2223SOL    HW218306   3.612   1.637   6.816 -2.6562 -1.5850  0.2014
 2224SOL     OW18307   1.943   4.621   4.336 -0.3894 -0.1583 -0.3798
 2224SOL    HW118308   1.891   4.643   4.414 -0.5727 -0.5800 -0.3833
 2224SOL    HW218309   2.009   4.562   4.373 -0.0043 -0.3358 -1.3564
 2225SOL     OW18310   1.748   2.470   5.422 -0.2226  0.4270 -0.8352
 2225SOL    HW118311   1.711   2.406   5.361  1.3620 -0.1005 -1.2496
 2225SOL    HW218312   1.823   2.507   5.376  0.4315 -1.6175 -1.4381
 2226SOL     OW18313   2.024   3.750  12.137 -0.2440  0.7385 -0.4307
 2226SOL    HW118314   2.054   3.660  12.122  0.5704  1.4176 -2.9171
 2226SOL    HW218315   2.000   3.761  12.229 -0.4800 -0.4482 -0.3541
 2227SOL     OW18316   4.668   2.196   6.419 -0.8168 -0.9771  0.2650
 2227SOL    HW118317   4.682   2.114   6.372  0.0429 -0.5964 -0.1360
 2227SOL    HW218318   0.017   2.204   6.462 -0.3121  1.4390 -1.1969
 2228SOL     OW18319   1.233   2.753   9.970 -0.6019  0.1265  0.2745
 2228SOL    HW118320   1.302   2.758   9.904 -0.1340  0.6193  0.7939
 2228SOL    HW218321   1.287   2.734  10.047  0.3376  1.3067 -0.0898
 2229SOL     OW18322   2.796   2.495   7.883  0.3578 -0.3417 -0.2475
 2229SOL    HW118323   2.885   2.529   7.873 -0.3660  1.5424 -0.1745
 2229SOL    HW218324   2.809   2.425   7.947  1.8329 -0.0667 -0.2399
 2230SOL     OW18325   3.560   0.120  10.128  0.1602 -0.0600  0.1901
 2230SOL    HW118326   3.631   0.072  10.170  0.2313  1.3122  1.6431
 2230SOL    HW218327   3.491   0.055  10.120 -0.4114  0.6517 -0.7058
 2231SOL     OW18328   1.485   2.750  15.575 -0.0985 -0.3198  0.2559
 2231SOL    HW118329   1.402   2.705  15.564  0.0879  0.2444 -3.5154
 2231SOL    HW218330   1.494   2.816  15.506  0.0897  0.6672  1.2144
 2232SOL     OW18331   0.269   2.726   0.858  0.1318  0.0148 -0.1209
 2232SOL    HW118332   0.211   2.773   0.917 -2.0693  0.3088 -2.5179
 2232SOL    HW218333   0.242   2.751   0.769 -0.8712  1.3028  0.5454
 2233SOL     OW18334   1.923   0.853   3.743  0.2574 -0.2718 -0.1764
 2233SOL    HW118335   1.914   0.818   3.832 -0.2089  1.7181  0.5550
 2233SOL    HW218336   1.987   0.924   3.752  0.1048 -0.0182 -1.1302
 2234SOL     OW18337   0.373   2.421   3.448 -0.4559  0.0168  0.0505
 2234SOL    HW118338   0.433   2.497   3.449  0.6304 -0.8334 -0.3775
 2234SOL    HW218339   0.388   2.405   3.355  1.6409 -0.4424  0.4572
 2235SOL     OW18340   0.073   1.242   6.445 -0.1400 -0.5374  1.0344
 2235SOL    HW118341   0.074   1.302   6.520  0.8726  0.6890  0.0244
 2235SOL    HW218342   0.164   1.251   6.418 -0.8082  0.9551 -0.7182
 2236SOL     OW18343   1.707   2.234   6.258 -0.2495  0.0517  0.2278
 2236SOL    HW118344   1.615   2.207   6.257 -0.7866  1.8874 -0.3897
 2236SOL    HW218345   1.753   2.153   6.281 -0.3548  0.1287  0.6947
 2237SOL     OW18346   3.983   2.590   5.086  0.3070 -0.4670 -0.5251
 2237SOL    HW118347   4.024   2.524   5.142 -0.5792 -1.5235 -1.1032
 2237SOL    HW218348   4.032   2.668   5.111 -2.1382 -0.0503  2.9117
 2238SOL     OW18349   3.876   2.866   3.613 -0.1912 -0.4687 -0.1708
 2238SOL    HW118350   3.937   2.792   3.615 -1.1221 -1.2970 -1.9602
 2238SOL    HW218351   3.882   2.900   3.702 -1.5307 -0.4216 -0.0927
 2239SOL     OW18352   0.578   3.205   4.280 -0.1743  0.5377  0.2667
 2239SOL    HW118353   0.611   3.140   4.342  0.7550  0.9482  0.1983
 2239SOL    HW218354   0.660   3.238   4.244 -0.8973  0.7506 -1.1904
 2240SOL     OW18355   3.231   0.131   4.125 -0.1011 -0.8250 -0.2565
 2240SOL    HW118356   3.227   0.147   4.031  1.9523 -0.1181 -0.2184
 2240SOL    HW218357   3.297   0.061   4.128 -0.6120 -1.4238 -3.0024
 2241SOL     OW18358   1.850   2.662   8.082 -0.5940  0.5170  0.0690
 2241SOL    HW118359   1.936   2.644   8.044 -1.3125  1.5105 -2.0331
 2241SOL    HW218360   1.822   2.574   8.107  4.1944 -0.9512  0.1458
 2242SOL     OW18361   4.266   0.064   1.754 -0.3018 -0.0801 -0.4934
 2242SOL    HW118362   4.211   0.130   1.713  0.5746  1.0268  0.1103
 2242SOL    HW218363   4.345   0.118   1.752 -1.1979  1.1159 -2.6913
 2243SOL     OW18364   3.929   4.049  10.085 -0.2816 -0.6678 -0.1712
 2243SOL    HW118365   3.918   3.988  10.012 -2.5697 -2.6670  1.8020
 2243SOL    HW218366   3.999   4.103  10.049 -1.7705  1.3736 -0.0176
 2244SOL     OW18367   3.511   0.560   1.515 -0.5040 -0.7159  0.7008
 2244SOL    HW118368   3.453   0.613   1.570 -0.1631  0.8048 -0.4198
 2244SOL    HW218369   3.500   0.601   1.430 -0.3127 -2.0962  0.0191
 2245SOL     OW18370   3.748   3.408   5.606  0.2299 -0.1475 -0.1368
 2245SOL    HW118371   3.797   3.420   5.687 -0.2526  0.9780 -0.0079
 2245SOL    HW218372   3.659   3.444   5.616  0.4460  0.6994 -1.3078
 2246SOL     OW18373   0.488   0.064   2.776  0.1620 -0.4145  0.1243
 2246SOL    HW118374   0.529   0.143   2.739  2.1529 -0.0004  3.2890
 2246SOL    HW218375   0.522   4.726   2.727 -2.3467  0.0850 -2.3704
 2247SOL     OW18376   2.527   3.028   3.020  0.4425  0.0084 -0.4638
 2247SOL    HW118377   2.567   3.052   3.104 -4.1871  1.3507  1.3487
 2247SOL    HW218378   2.453   2.991   3.068 -0.2140 -0.0790 -1.5690
 2248SOL     OW18379   0.833   3.464   2.644 -0.0739  0.0483  0.3309
 2248SOL    HW118380   0.743   3.495   2.635 -0.4656 -1.4025 -0.8251
 2248SOL    HW218381   0.897   3.526   2.608  2.5627 -1.3370  2.6227
 2249SOL     OW18382   0.765   2.826   0.168 -0.4554 -0.0945  0.4930
 2249SOL    HW118383   0.825   2.825   0.094  0.6217 -0.9630  1.3802
 2249SOL    HW218384   0.704   2.758   0.140  0.2787 -0.9006  0.8415
 2250SOL     OW18385   3.538   2.949   0.903  0.0757 -0.2597  0.4320
 2250SOL    HW118386   3.467   2.889   0.928 -1.2757  1.4206  0.6112
 2250SOL    HW218387   3.506   2.962   0.814  1.7572  1.9258  0.1655
 2251SOL     OW18388   3.744   4.453   2.822  0.1475 -0.6475  0.6608
 2251SOL    HW118389   3.719   4.457   2.915 -1.4830  2.3334  0.0827
 2251SOL    HW218390   3.669   4.500   2.784  0.3688  0.4432  1.5856
 2252SOL     OW18391   2.333   2.446   8.789 -0.2085 -0.0382  0.1481
 2252SOL    HW118392   2.364   2.394   8.863  2.6213  0.6553 -0.5504
 2252SOL    HW218393   2.241   2.460   8.810 -0.0182 -0.6397  1.4059
 2253SOL     OW18394   2.255   0.954   2.994  0.2600 -0.5035 -0.0446
 2253SOL    HW118395   2.270   0.886   3.059  1.1202 -0.9798 -0.7436
 2253SOL    HW218396   2.266   1.036   3.042  1.5805 -2.0952  2.3643
 2254SOL     OW18397   4.287   3.469   2.490 -0.2524 -0.3611  0.5000
 2254SOL    HW118398   4.374   3.439   2.465 -1.2920 -2.5506 -0.5328
 2254SOL    HW218399   4.316   3.512   2.571  1.5752 -0.8587  0.0941
 2255SOL     OW18400   0.439   0.320   6.509  0.0248 -1.1765  0.1425
 2255SOL    HW118401   0.368   0.321   6.574  0.0530  0.1538  0.1535
 2255SOL    HW218402   0.507   0.342   6.573 -0.4925  0.2843  0.1795
 2256SOL     OW18403   3.904   3.983  13.807  0.3593  0.1616  0.0483
 2256SOL    HW118404   3.835   4.048  13.820 -0.0655 -0.2522 -0.1206
 2256SOL    HW218405   3.994   4.017  13.811  0.3060  0.2398  0.6771
 2257SOL     OW18406   0.747   0.584   5.654 -0.2828 -0.2708 -0.0526
 2257SOL    HW118407   0.712   0.562   5.741 -2.1229  1.6804 -0.3157
 2257SOL    HW218408   0.664   0.576   5.607 -1.0963 -0.3889  1.3964
 2258SOL     OW18409   3.621   3.138   0.431 -0.4696 -0.2954  0.6050
 2258SOL    HW118410   3.713   3.144   0.405 -0.2951  0.0198  1.3080
 2258SOL    HW218411   3.579   3.073   0.375 -0.7753 -0.2114  0.7350
 2259SOL     OW18412   4.595   2.778   6.243  0.0797 -0.0639 -0.3277
 2259SOL    HW118413   4.535   2.847   6.267 -0.2982 -1.6026  3.2058
 2259SOL    HW218414   4.596   2.727   6.324 -1.0635  0.0846 -0.2289
 2260SOL     OW18415   3.483   0.680  11.269  0.1989  0.4206  0.3028
 2260SOL    HW118416   3.485   0.739  11.194  0.1607  0.7644  0.5697
 2260SOL    HW218417   3.515   0.595  11.240 -0.7087 -0.1253  0.8759
 2261SOL     OW18418   0.509   3.414   0.203  0.6074  0.4226  0.4311
 2261SOL    HW118419   0.524   3.502   0.237  0.8273  0.0127  1.3886
 2261SOL    HW218420   0.425   3.433   0.161  1.3071 -1.2873 -1.7614
 2262SOL     OW18421   2.482   1.497   2.869  0.2748 -0.1477  0.0946
 2262SOL    HW118422   2.400   1.456   2.840 -0.8815  1.8665  0.4767
 2262SOL    HW218423   2.462   1.589   2.890  0.7293  0.1894 -0.9724
 2263SOL     OW18424   0.687   2.951   5.860  0.4161 -0.0505  0.3867
 2263SOL    HW118425   0.756   2.890   5.889  2.6989  3.0527  1.5490
 2263SOL    HW218426   0.642   2.960   5.944  0.3919  1.3602  0.2273
 2264SOL     OW18427   2.273   2.472   4.438 -0.2001 -0.0005  0.0375
 2264SOL    HW118428   2.198   2.518   4.474 -1.3545 -0.8193 -1.3289
 2264SOL    HW218429   2.340   2.540   4.444  0.1818 -0.3247 -0.4773
 2265SOL     OW18430   3.904   2.790   9.011  0.2315 -0.1644  0.6486
 2265SOL    HW118431   3.978   2.734   9.035  0.1604 -1.7154 -2.7437
 2265SOL    HW218432   3.937   2.875   9.039  4.3025 -1.3265 -0.6503
 2266SOL     OW18433   3.524   4.713   4.647  0.1651 -0.3184  0.3082
 2266SOL    HW118434   3.469   4.655   4.595  0.0470  1.0614 -1.1144
 2266SOL    HW218435   3.476   0.059   4.635  2.1776  0.9688  0.8848
 2267SOL     OW18436   3.340   2.809   9.324  0.2841 -0.5781 -0.4560
 2267SOL    HW118437   3.402   2.763   9.381 -0.4481 -1.0407 -0.0364
 2267SOL    HW218438   3.371   2.791   9.236 -2.1383 -1.2465 -1.1865
 2268SOL     OW18439   2.778   2.775   6.214  0.3625  0.1129 -0.3156
 2268SOL    HW118440   2.685   2.752   6.217  0.4243  0.0117  0.8634
 2268SOL    HW218441   2.819   2.723   6.283  0.8243  1.6417  0.5451
 2269SOL     OW18442   0.348   4.226   4.077  0.9447 -0.2632 -0.2872
 2269SOL    HW118443   0.283   4.251   4.011  1.3388  0.8813 -0.2412
 2269SOL    HW218444   0.325   4.276   4.154 -1.0474 -0.5862 -0.6638
 2270SOL     OW18445   0.512   1.030   8.894 -0.0857  0.0337 -0.4514
 2270SOL    HW118446   0.566   1.097   8.852  1.9554 -0.9646  0.5559
 2270SOL    HW218447   0.420   1.052   8.884 -0.1554 -0.4436 -0.8621
 2271SOL     OW18448   3.179   2.149  17.255 -0.2400  0.4697  0.0192
 2271SOL    HW118449   3.157   2.219  17.194 -1.6696 -0.5096 -0.5906
 2271SOL    HW218450   3.236   2.197  17.315  0.9448  1.0665 -1.5835
 2272SOL     OW18451   0.970   1.401   8.795 -0.6759  0.0447 -0.1051
 2272SOL    HW118452   1.055   1.403   8.839 -1.2972 -1.1477  1.1530
 2272SOL    HW218453   0.942   1.492   8.798 -0.8402 -0.0133  0.1326
 2273SOL     OW18454   4.635   4.659   1.824  0.3719 -0.2319 -0.3209
 2273SOL    HW118455   4.686   4.593   1.872 -0.8762 -0.4282  0.7200
 2273SOL    HW218456   4.604   4.705   1.901 -0.7910  3.5896 -3.0725
 2274SOL     OW18457   1.030   3.642   2.548  0.0676 -0.1065  0.6518
 2274SOL    HW118458   0.951   3.691   2.525  0.7586 -0.3414 -2.1579
 2274SOL    HW218459   1.081   3.715   2.583  1.3372 -1.0098  0.7143
 2275SOL     OW18460   1.636   4.595   2.116 -0.1687  0.3468  0.3608
 2275SOL    HW118461   1.698   4.594   2.188 -0.2181 -2.3153  0.3599
 2275SOL    HW218462   1.558   4.554   2.154  1.3771 -0.3690  2.7571
 2276SOL     OW18463   2.721   1.600  11.373  0.5886  0.2817  0.3801
 2276SOL    HW118464   2.648   1.651  11.408  0.4711  1.3315 -1.4264
 2276SOL    HW218465   2.771   1.573  11.450 -0.1108 -1.7382  0.1226
 2277SOL     OW18466   0.433   4.136   1.076 -0.1473  0.5122 -0.5552
 2277SOL    HW118467   0.509   4.092   1.039 -0.4944  0.1681 -0.8542
 2277SOL    HW218468   0.367   4.067   1.080  1.7079 -1.2746 -1.0139
 2278SOL     OW18469   2.025   0.460   8.782  0.4799 -0.2456  0.1227
 2278SOL    HW118470   1.961   0.527   8.758  0.9583  0.2473  0.2326
 2278SOL    HW218471   2.073   0.459   8.700  1.4319  0.7274  0.6737
 2279SOL     OW18472   2.960   2.262   5.630  0.2474  0.6030 -0.4779
 2279SOL    HW118473   2.939   2.173   5.602  0.5210  0.4388 -0.1594
 2279SOL    HW218474   3.052   2.241   5.646 -0.0282 -0.5523 -0.3870
 2280SOL     OW18475   2.286   1.401  16.549 -0.3800  0.8869  0.0142
 2280SOL    HW118476   2.337   1.387  16.628 -3.7411  1.3651  2.2930
 2280SOL    HW218477   2.324   1.482  16.517  0.7504  0.4613  0.2855
 2281SOL     OW18478   2.637   3.807   7.967 -0.1546 -0.1232 -0.1205
 2281SOL    HW118479   2.569   3.834   7.905 -0.4310 -0.2594  0.1227
 2281SOL    HW218480   2.625   3.864   8.043 -1.6866  1.0113 -1.2194
 2282SOL     OW18481   2.293   0.587   5.436  0.2249 -0.6627  0.3846
 2282SOL    HW118482   2.233   0.523   5.476  0.5431 -0.5954  0.9652
 2282SOL    HW218483   2.305   0.641   5.514  3.3217  0.3359 -0.8012
 2283SOL     OW18484   2.181   4.467   7.971  0.9972 -0.0426 -0.2680
 2283SOL    HW118485   2.267   4.499   7.999  0.0396  2.2089  0.1262
 2283SOL    HW218486   2.135   4.488   8.052  0.0582  2.7825 -1.5087
 2284SOL     OW18487   4.686   2.864   8.050 -0.5491 -0.0446 -0.7003
 2284SOL    HW118488   4.671   2.907   7.966  0.8446  0.7089 -0.5623
 2284SOL    HW218489   4.669   2.774   8.023 -0.0872 -0.4508  0.3458
 2285SOL     OW18490   0.520   3.604   5.793  0.3777 -0.5127  0.6380
 2285SOL    HW118491   0.437   3.650   5.797 -1.0448 -3.0239 -0.2335
 2285SOL    HW218492   0.533   3.592   5.699 -2.1980  0.7466  0.1394
 2286SOL     OW18493   4.323   0.051   3.680 -0.6257  0.1753 -0.2307
 2286SOL    HW118494   4.284   4.700   3.677  0.3142 -0.2517 -0.1209
 2286SOL    HW218495   4.261   0.084   3.745  0.5095 -1.2052  1.5710
 2287SOL     OW18496   2.739   3.088   4.276  0.8065 -0.0244  0.6750
 2287SOL    HW118497   2.788   3.014   4.314  2.1973  0.2313 -0.6153
 2287SOL    HW218498   2.700   3.128   4.354 -0.7805  1.3849 -0.8661
 2288SOL     OW18499   0.268   4.190   5.116 -0.0754 -0.1097  0.0059
 2288SOL    HW118500   0.208   4.257   5.084  0.7081  1.0780  1.0324
 2288SOL    HW218501   0.233   4.116   5.066  1.2020 -0.8002  0.1177
 2289SOL     OW18502   4.365   0.656   9.234 -0.3419  0.5787  0.7640
 2289SOL    HW118503   4.429   0.612   9.290  0.6752 -0.2098 -1.0012
 2289SOL    HW218504   4.334   0.577   9.189  1.6191 -0.5065  1.2953
 2290SOL     OW18505   2.170   2.990   6.132  0.1304 -0.4061  0.3631
 2290SOL    HW118506   2.128   2.913   6.094  0.4001 -1.3045  1.8761
 2290SOL    HW218507   2.255   2.997   6.089 -0.6109  0.1570 -0.9825
 2291SOL     OW18508   0.169   4.247  10.203 -0.3713  0.0711 -0.1624
 2291SOL    HW118509   0.163   4.333  10.162  1.0206 -0.0581 -0.6343
 2291SOL    HW218510   0.262   4.251  10.225  0.0858  1.5021 -2.3314
 2292SOL     OW18511   0.122   2.304  15.499  0.3508 -0.4568 -0.3470
 2292SOL    HW118512   0.184   2.246  15.455  0.0191  1.5445 -3.4393
 2292SOL    HW218513   0.143   2.307  15.593 -0.4641  0.6373 -0.1937
 2293SOL     OW18514   4.706   0.192   4.556  0.3742 -0.1995 -0.1303
 2293SOL    HW118515   4.677   0.282   4.540  1.2574 -0.1647 -1.6203
 2293SOL    HW218516   4.619   0.153   4.557 -1.1088  3.1821 -0.1567
 2294SOL     OW18517   0.339   2.761   5.822  0.2366 -0.2341 -0.2980
 2294SOL    HW118518   0.422   2.777   5.777  0.6710  0.5224  0.7596
 2294SOL    HW218519   0.293   2.691   5.776  0.8705 -0.2739 -0.8714
 2295SOL     OW18520   0.581   1.457   4.312 -0.5528 -0.0031 -0.2042
 2295SOL    HW118521   0.499   1.505   4.328 -1.0036 -0.9119  0.2288
 2295SOL    HW218522   0.552   1.368   4.333 -3.2139  0.1073 -3.2836
 2296SOL     OW18523   0.403   4.305   6.565  0.6866  0.0938 -0.3792
 2296SOL    HW118524   0.455   4.363   6.621 -1.0184  0.7921  0.4708
 2296SOL    HW218525   0.314   4.339   6.572  1.7335  2.5570  0.9814
 2297SOL     OW18526   0.633   1.443   8.548  0.2401 -0.1399  0.4416
 2297SOL    HW118527   0.718   1.462   8.508  1.4454 -1.4008  2.4114
 2297SOL    HW218528   0.584   1.492   8.481 -0.1238  0.1427  0.9105
 2298SOL     OW18529   2.878   4.723  15.520  0.7864 -0.4851 -0.2123
 2298SOL    HW118530   2.890   4.640  15.566  1.3358 -0.6983 -0.7465
 2298SOL    HW218531   2.857   0.040  15.597  0.8756 -0.1526 -0.4186
 2299SOL     OW18532   3.208   1.586   6.917 -0.0947  0.3070  0.4739
 2299SOL    HW118533   3.249   1.634   6.845  0.0974  1.2020  1.1855
 2299SOL    HW218534   3.135   1.545   6.869  0.1193 -1.0458  1.3069
 2300SOL     OW18535   3.150   1.056   3.053 -0.0636  0.4739  0.2726
 2300SOL    HW118536   3.220   0.995   3.076 -0.1162  0.6964  1.0141
 2300SOL    HW218537   3.165   1.055   2.958 -0.9239 -4.3365  0.2036
 2301SOL     OW18538   3.734   4.374  11.937  0.2953  0.1327  0.5566
 2301SOL    HW118539   3.757   4.439  11.871  1.3702  1.0490  1.8138
 2301SOL    HW218540   3.813   4.321  11.947  0.7345  0.6530 -0.1548
 2302SOL     OW18541   2.290   1.559   4.877  0.3014  0.8024  0.1813
 2302SOL    HW118542   2.350   1.595   4.813  1.7269  0.2642  1.2093
 2302SOL    HW218543   2.230   1.519   4.815 -0.4110  1.7949  0.2165
 2303SOL     OW18544   4.167   3.585   8.848 -0.1401 -0.1106  0.7101
 2303SOL    HW118545   4.085   3.626   8.822 -0.0320 -0.0639  0.4357
 2303SOL    HW218546   4.139   3.495   8.866  1.3305 -1.2293 -2.5612
 2304SOL     OW18547   0.851   2.450   1.624 -0.7240  0.0747  0.2631
 2304SOL    HW118548   0.868   2.511   1.696 -0.5468 -1.7779  1.7871
 2304SOL    HW218549   0.936   2.451   1.581 -1.1601 -1.0504 -0.6140
 2305SOL     OW18550   1.220   4.336  10.014 -0.1645 -0.0249 -0.5540
 2305SOL    HW118551   1.194   4.245  10.026 -2.3814  0.6208 -0.5603
 2305SOL    HW218552   1.289   4.328   9.948  0.2725  0.9377 -0.2159
 2306SOL     OW18553   3.676   1.264  16.029  0.3381  0.2549 -0.8456
 2306SOL    HW118554   3.714   1.183  16.064 -0.7805 -0.5317 -1.4506
 2306SOL    HW218555   3.747   1.291  15.971  1.6940 -2.7550 -0.6350
 2307SOL     OW18556   1.011   3.026   4.872 -0.0310  0.0705 -0.5566
 2307SOL    HW118557   0.948   3.009   4.801  1.5952 -2.4745 -1.3853
 2307SOL    HW218558   0.977   2.991   4.954 -1.3751  0.5805 -0.8861
 2308SOL     OW18559   3.962   3.459   1.301  0.0096  0.0922  0.0360
 2308SOL    HW118560   3.919   3.428   1.222  0.4027  0.6367 -0.3939
 2308SOL    HW218561   3.993   3.543   1.266  0.3124 -1.1083 -2.5236
 2309SOL     OW18562   1.413   0.689   5.469 -0.5367  0.2456  0.2685
 2309SOL    HW118563   1.395   0.688   5.563 -1.9870 -1.2413 -0.0282
 2309SOL    HW218564   1.368   0.610   5.441 -1.1504  1.2833 -1.6932
 2310SOL     OW18565   2.424   4.646   3.681 -0.0835  0.6719 -0.2020
 2310SOL    HW118566   2.490   4.612   3.741  0.4689  2.2642  0.0880
 2310SOL    HW218567   2.423   0.001   3.711 -0.3661  0.5324  0.2173
 2311SOL     OW18568   3.161   2.181   8.952 -0.0024  0.2182  0.2886
 2311SOL    HW118569   3.228   2.248   8.951 -1.5634  1.7551 -0.6304
 2311SOL    HW218570   3.196   2.118   8.890  0.3111 -0.4359  1.1223
 2312SOL     OW18571   0.450   1.871   8.973  0.4027 -0.2174  0.3178
 2312SOL    HW118572   0.510   1.884   8.900 -0.8347  1.8816 -0.3085
 2312SOL    HW218573   0.479   1.910   9.055 -0.1639 -0.5037  0.6551
 2313SOL     OW18574   3.050   3.428   8.102 -0.1368 -0.3037 -0.0027
 2313SOL    HW118575   3.080   3.480   8.028 -2.5046 -1.5986 -1.8763
 2313SOL    HW218576   3.018   3.485   8.172  1.9501  0.2563  0.4899
 2314SOL     OW18577   1.240   0.506  10.964 -0.4603 -0.0123 -0.0188
 2314SOL    HW118578   1.189   0.523  11.044 -0.6090 -0.6443  0.0277
 2314SOL    HW218579   1.285   0.421  10.972  2.1235  1.2396 -1.3398
 2315SOL     OW18580   3.904   0.860   6.401  0.0652  0.1611 -0.2232
 2315SOL    HW118581   3.908   0.767   6.377  0.7016  0.3211 -0.7183
 2315SOL    HW218582   3.996   0.876   6.423 -0.3524  0.7603  1.1111
 2316SOL     OW18583   4.683   2.017  13.091  0.2022 -0.2495  0.4933
 2316SOL    HW118584   4.646   2.016  13.179 -2.4680  1.4440 -0.5986
 2316SOL    HW218585   4.628   2.082  13.047  0.1338  0.0212  0.9865
 2317SOL     OW18586   0.927   2.946  15.074  0.0139  0.4804  0.0900
 2317SOL    HW118587   0.886   2.919  15.156 -1.8106 -1.9869 -1.6241
 2317SOL    HW218588   0.855   2.921  15.016 -0.0178 -0.5276  0.5629
 2318SOL     OW18589   4.098   0.830   5.716  0.2828 -0.1512  0.6325
 2318SOL    HW118590   4.189   0.841   5.687  0.0598 -0.4555 -0.1657
 2318SOL    HW218591   4.090   0.904   5.776 -0.8530 -1.6927  2.3947
 2319SOL     OW18592   2.047   0.301   7.947 -0.1237  0.4057  0.4489
 2319SOL    HW118593   1.985   0.325   8.015 -0.0081 -0.3466  0.8236
 2319SOL    HW218594   1.995   0.341   7.878  1.8837 -0.4246 -1.5428
 2320SOL     OW18595   4.635   2.523   5.847  0.0610  0.1223 -0.2963
 2320SOL    HW118596   4.693   2.564   5.911 -0.8506  2.5379 -1.0068
 2320SOL    HW218597   4.552   2.566   5.868 -0.3978 -3.1447  4.4277
 2321SOL     OW18598   1.361   4.720   3.273  0.1580 -0.5550  0.4093
 2321SOL    HW118599   1.308   4.648   3.306 -1.1860 -0.0311 -0.6000
 2321SOL    HW218600   1.305   0.062   3.278  0.3265 -0.6193  2.9186
 2322SOL     OW18601   4.537   4.374  10.326 -0.6291  0.3030  0.3371
 2322SOL    HW118602   4.492   4.454  10.298 -1.6403  0.4748  2.4643
 2322SOL    HW218603   4.460   4.329  10.361  0.0887 -1.9226 -0.9387
 2323SOL     OW18604   4.123   3.533   6.732 -0.5000  0.1672 -0.4891
 2323SOL    HW118605   4.055   3.475   6.767 -1.0022  1.0963  0.0758
 2323SOL    HW218606   4.130   3.599   6.801 -0.3794 -0.0230 -0.3225
 2324SOL     OW18607   3.183   1.682   9.964 -0.2714 -0.2341 -0.3159
 2324SOL    HW118608   3.237   1.751  10.004 -3.3532  2.3016 -0.5762
 2324SOL    HW218609   3.161   1.634  10.043 -0.8537  0.9309  0.2327
 2325SOL     OW18610   1.865   2.966   4.083 -0.3933  0.4442 -0.6408
 2325SOL    HW118611   1.806   2.891   4.083 -0.4419  0.4940  0.8229
 2325SOL    HW218612   1.817   3.037   4.126  0.4385  1.2280 -0.9806
 2326SOL     OW18613   3.523   1.749   8.012 -0.1320 -0.3693 -0.2921
 2326SOL    HW118614   3.508   1.673   7.955 -1.8251 -0.4417  0.2518
 2326SOL    HW218615   3.535   1.826   7.957  1.8483 -1.3404 -1.2224
 2327SOL     OW18616   4.297   0.690   8.511  0.6691  0.1162  0.5140
 2327SOL    HW118617   4.330   0.763   8.564 -0.1693 -0.3866  1.7243
 2327SOL    HW218618   4.220   0.665   8.562 -0.9644  4.2374  0.1231
 2328SOL     OW18619   1.645   3.604  11.754 -0.0538  0.0406  0.3563
 2328SOL    HW118620   1.637   3.697  11.774 -0.2732 -0.2353  1.5859
 2328SOL    HW218621   1.727   3.569  11.787  0.7877  0.2256 -1.5581
 2329SOL     OW18622   4.600   0.709   0.779 -0.6450 -0.0179  0.0123
 2329SOL    HW118623   4.524   0.697   0.836 -1.7340  1.0126 -1.2231
 2329SOL    HW218624   4.675   0.673   0.826  0.9150 -0.9553 -3.1418
 2330SOL     OW18625   3.816   4.581  16.790  0.0099 -0.5459  0.1428
 2330SOL    HW118626   3.883   4.516  16.812 -0.0976 -1.0230 -0.9578
 2330SOL    HW218627   3.783   4.597  16.878  0.9007  0.9007  0.2127
 2331SOL     OW18628   1.273   0.861   8.582  0.2838  0.3470 -0.3214
 2331SOL    HW118629   1.237   0.853   8.670 -0.3971  0.2204 -0.6141
 2331SOL    HW218630   1.228   0.941   8.555 -1.0813  0.0370  1.0511
 2332SOL     OW18631   0.828   4.523   6.841  0.2786 -0.7427  0.0146
 2332SOL    HW118632   0.889   4.469   6.791  1.9749  0.4219  0.8359
 2332SOL    HW218633   0.822   4.450   6.903 -2.4451 -0.8855 -0.4074
 2333SOL     OW18634   3.185   1.694   5.042  0.2980 -0.0153  0.0416
 2333SOL    HW118635   3.235   1.631   5.093 -3.5695 -3.0148  0.1284
 2333SOL    HW218636   3.260   1.744   5.011 -0.5006  0.0480 -1.8046
 2334SOL     OW18637   0.622   2.768   1.132  0.2692 -0.1169 -0.5258
 2334SOL    HW118638   0.610   2.674   1.146  0.4424  0.0707  0.9169
 2334SOL    HW218639   0.583   2.819   1.203 -0.1865 -0.4925 -0.5080
 2335SOL     OW18640   2.724   1.589  10.812 -0.2902  0.2242  0.0812
 2335SOL    HW118641   2.713   1.550  10.725 -0.3016  0.7399 -0.1445
 2335SOL    HW218642   2.679   1.518  10.857  0.7951 -0.1989  0.5174
 2336SOL     OW18643   0.161   4.040   1.652  0.0775 -0.0710 -0.5879
 2336SOL    HW118644   0.253   4.018   1.641 -0.1471 -0.9629 -0.6510
 2336SOL    HW218645   0.132   4.006   1.567 -1.9032  0.2839 -0.0486
 2337SOL     OW18646   1.154   4.360  16.681  0.3380  0.1142  0.1467
 2337SOL    HW118647   1.173   4.453  16.668 -0.3494  0.2687  0.2445
 2337SOL    HW218648   1.235   4.336  16.726 -0.8041 -3.2443  0.3993
 2338SOL     OW18649   4.542   0.797  12.371 -0.0709  0.0931  0.8068
 2338SOL    HW118650   4.449   0.782  12.353  0.1275 -0.9111  0.6199
 2338SOL    HW218651   4.565   0.864  12.306  2.4922 -1.5394  0.0101
 2339SOL     OW18652   2.457   1.900   8.664 -0.4076  0.1233 -0.4610
 2339SOL    HW118653   2.472   1.934   8.576 -0.3196  2.1207  0.3191
 2339SOL    HW218654   2.375   1.938   8.696  0.1886  0.7710  0.3228
 2340SOL     OW18655   3.016   2.099  15.039  0.0662 -0.8669  0.1572
 2340SOL    HW118656   3.037   2.151  14.961  1.5258 -1.4356  0.1669
 2340SOL    HW218657   2.936   2.141  15.070 -0.2023  0.3322 -2.1044
 2341SOL     OW18658   4.251   2.258   8.823  0.1970  0.1681  0.1374
 2341SOL    HW118659   4.272   2.190   8.888  1.0823  0.1591 -0.1518
 2341SOL    HW218660   4.325   2.318   8.818 -0.9399  1.4251 -1.2138
 2342SOL     OW18661   3.177   1.208   7.603 -0.2667  0.1248 -0.0681
 2342SOL    HW118662   3.087   1.232   7.626 -0.6333 -1.7084  0.3797
 2342SOL    HW218663   3.170   1.173   7.514 -1.1015  0.3698 -0.0986
 2343SOL     OW18664   2.431   4.539  14.375  0.6218 -0.2623 -0.1403
 2343SOL    HW118665   2.412   4.542  14.469 -2.2966  0.9120 -0.7522
 2343SOL    HW218666   2.524   4.517  14.371  0.2968 -1.4119 -1.5799
 2344SOL     OW18667   3.813   3.610   7.282  0.2452 -0.3267  0.2638
 2344SOL    HW118668   3.735   3.555   7.289 -0.9941  1.4184 -0.0349
 2344SOL    HW218669   3.775   3.683   7.330 -0.9941 -1.0210  0.3284
 2345SOL     OW18670   0.149   0.309  14.567  0.0451 -0.1956 -0.3509
 2345SOL    HW118671   0.232   0.305  14.518  0.0425 -4.3462 -0.0199
 2345SOL    HW218672   0.169   0.375  14.633  0.2955  1.6598 -2.3081
 2346SOL     OW18673   2.976   0.751  10.491 -0.3029  0.0032  0.0734
 2346SOL    HW118674   2.968   0.658  10.470  0.2384  0.0604 -0.3786
 2346SOL    HW218675   2.905   0.793  10.443  0.1049  1.7231  0.9680
 2347SOL     OW18676   4.180   2.080   7.489 -0.4809 -0.2181 -0.0763
 2347SOL    HW118677   4.107   2.018   7.491 -0.4433 -0.1861  3.3368
 2347SOL    HW218678   4.198   2.103   7.581 -1.8397 -0.9502  0.3677
 2348SOL     OW18679   1.254   1.190   2.872 -0.2054 -0.2361 -0.5949
 2348SOL    HW118680   1.328   1.231   2.918 -0.0918  0.1782 -1.1537
 2348SOL    HW218681   1.212   1.129   2.932  1.0700 -1.1820 -0.6610
 2349SOL     OW18682   2.936   0.661   4.166 -0.5263 -0.4548 -0.1674
 2349SOL    HW118683   2.987   0.739   4.143 -1.3720  0.4228  0.9092
 2349SOL    HW218684   2.955   0.599   4.096 -0.3357  0.3643 -0.8485
 2350SOL     OW18685   3.894   1.448  11.223  0.3779 -0.3527 -0.5142
 2350SOL    HW118686   3.852   1.508  11.161  0.9648 -2.1803 -2.6989
 2350SOL    HW218687   3.980   1.433  11.183  0.2787  1.6339 -1.4890
 2351SOL     OW18688   4.027   3.712   1.194  0.2020  0.3579 -0.0655
 2351SOL    HW118689   3.978   3.782   1.237 -0.6295 -0.6580  0.6492
 2351SOL    HW218690   4.116   3.730   1.226  0.0798 -1.9592  1.6049
 2352SOL     OW18691   1.399   3.553  17.602 -0.1348 -0.1571  0.0231
 2352SOL    HW118692   1.349   3.475  17.628 -0.0036  0.4428  2.1107
 2352SOL    HW218693   1.347   3.622  17.643  0.8157  0.4557  0.2036
 2353SOL     OW18694   0.138   1.619  11.273 -0.1862 -0.1795 -0.1616
 2353SOL    HW118695   0.160   1.584  11.360 -1.1366 -1.2848 -0.3708
 2353SOL    HW218696   0.226   1.655  11.259 -0.8904  2.3135  1.7305
 2354SOL     OW18697   1.046   3.572   8.234  0.1881 -0.1822  0.3401
 2354SOL    HW118698   1.113   3.508   8.208 -0.5076 -0.2978 -1.1858
 2354SOL    HW218699   0.987   3.528   8.295  1.2194 -2.9653 -0.6649
 2355SOL     OW18700   1.852   3.621   5.753 -0.0177 -0.3473 -0.1178
 2355SOL    HW118701   1.818   3.620   5.663  0.6575  2.6969 -0.3849
 2355SOL    HW218702   1.792   3.557   5.792  0.0676 -1.2602 -1.4765
 2356SOL     OW18703   2.415   0.120   4.719  0.3773  0.6191  0.0676
 2356SOL    HW118704   2.366   0.066   4.781 -0.2830  1.9208  0.6684
 2356SOL    HW218705   2.505   0.086   4.713 -0.6763 -2.3809  1.1191
 2357SOL     OW18706   1.680   0.475  12.463 -0.2957  0.4067 -0.5877
 2357SOL    HW118707   1.712   0.562  12.485 -0.3946 -0.5489  3.3382
 2357SOL    HW218708   1.643   0.454  12.549 -0.1976  1.0545 -0.3865
 2358SOL     OW18709   2.231   2.363   3.220 -0.4457 -0.5352 -0.2238
 2358SOL    HW118710   2.138   2.366   3.241 -1.1200  0.4907 -3.3001
 2358SOL    HW218711   2.236   2.286   3.163 -0.6805 -1.2012  0.6620
 2359SOL     OW18712   1.541   2.510   8.945  0.6827  0.4713  0.0275
 2359SOL    HW118713   1.464   2.472   8.902 -0.6225  2.4297  0.6224
 2359SOL    HW218714   1.500   2.595   8.963 -1.5911 -0.5669 -0.1993
 2360SOL     OW18715   0.219   0.547   5.377  0.1334 -0.0196  0.3835
 2360SOL    HW118716   0.218   0.615   5.444 -0.7111  1.2380 -0.9117
 2360SOL    HW218717   0.125   0.546   5.357  0.3337 -0.6834 -0.5194
 2361SOL     OW18718   2.933   4.625  16.576 -0.0100  0.1847  0.2753
 2361SOL    HW118719   2.994   4.551  16.577  0.0350  0.1940 -1.6882
 2361SOL    HW218720   2.903   4.614  16.486 -0.3841  1.3756  0.2635
 2362SOL     OW18721   1.651   1.300   7.056  0.5885 -0.2000  0.2009
 2362SOL    HW118722   1.626   1.225   7.001 -1.4622 -0.3397  1.3038
 2362SOL    HW218723   1.745   1.289   7.067  0.5546  0.2211  0.8583
 2363SOL     OW18724   3.302   2.974   7.661 -0.1875  0.4588  0.2220
 2363SOL    HW118725   3.257   3.040   7.608  1.8016  0.6890 -1.1872
 2363SOL    HW218726   3.358   2.933   7.596  2.2345  0.2657  2.4539
 2364SOL     OW18727   2.355   2.758   8.919 -0.1994  0.0458 -0.5551
 2364SOL    HW118728   2.364   2.853   8.905 -2.9857  0.4190  0.1765
 2364SOL    HW218729   2.442   2.738   8.954 -1.3674 -1.0995  1.6991
 2365SOL     OW18730   2.343   0.827  17.268 -0.1869 -0.3922  0.0740
 2365SOL    HW118731   2.411   0.830  17.336 -0.5815  0.7111  0.4160
 2365SOL    HW218732   2.361   0.905  17.216  0.0898 -0.9039 -0.5937
 2366SOL     OW18733   1.766   3.806   6.134 -0.0996  0.4969 -0.0069
 2366SOL    HW118734   1.766   3.866   6.059  0.4693  1.4276  0.7364
 2366SOL    HW218735   1.740   3.723   6.094 -2.9301  1.5400 -0.2868
 2367SOL     OW18736   0.401   0.739   1.682  0.2057  0.4061  0.3333
 2367SOL    HW118737   0.444   0.726   1.598  0.9780  0.4190  0.7259
 2367SOL    HW218738   0.360   0.826   1.672 -0.1786 -0.0964 -2.2517
 2368SOL     OW18739   1.864   4.011   1.614  0.0689 -0.0678 -0.2356
 2368SOL    HW118740   1.869   3.943   1.547  0.5978 -1.0022  0.7527
 2368SOL    HW218741   1.951   4.052   1.616  0.8047 -1.5689 -0.8108
 2369SOL     OW18742   1.482   3.135   2.159 -0.2760 -0.5931  0.1152
 2369SOL    HW118743   1.526   3.052   2.141 -2.4943 -1.4304 -1.4246
 2369SOL    HW218744   1.538   3.169   2.229  0.9157 -0.2226 -0.9979
 2370SOL     OW18745   0.481   3.619   8.180  0.6110 -0.2560  0.0316
 2370SOL    HW118746   0.525   3.628   8.265 -0.2470 -3.8305  0.8812
 2370SOL    HW218747   0.399   3.575   8.205  1.5226 -2.1612 -0.3458
 2371SOL     OW18748   0.041   1.103   5.108 -0.4392 -0.1454  0.3625
 2371SOL    HW118749   4.690   1.134   5.086 -0.0879 -0.1443 -0.9981
 2371SOL    HW218750   0.073   1.185   5.146 -1.3552  0.7119 -0.7434
 2372SOL     OW18751   2.504   3.823   6.764 -0.1643  0.3392 -0.2508
 2372SOL    HW118752   2.594   3.837   6.792  0.5603  0.7162 -2.7981
 2372SOL    HW218753   2.443   3.816   6.838 -0.6445  0.1861 -0.6675
 2373SOL     OW18754   3.658   2.897   4.508 -0.4787 -0.1936 -0.0793
 2373SOL    HW118755   3.741   2.923   4.548  0.8540 -2.4779 -1.3598
 2373SOL    HW218756   3.606   2.912   4.587  0.6056  0.0372  0.5882
 2374SOL     OW18757   3.467   2.393   6.785 -0.5226  0.6161 -0.8533
 2374SOL    HW118758   3.534   2.329   6.808 -0.0640  1.5199  0.3221
 2374SOL    HW218759   3.393   2.352   6.830  0.7405 -0.9872 -0.2591
 2375SOL     OW18760   4.012   1.775  12.055 -0.3618 -0.0880 -0.0508
 2375SOL    HW118761   4.068   1.701  12.032 -0.8841 -1.2283  2.3815
 2375SOL    HW218762   4.066   1.852  12.034  3.1481 -2.5293  0.0263
 2376SOL     OW18763   1.289   4.607   4.570 -0.3876  0.1974  0.4719
 2376SOL    HW118764   1.255   4.560   4.646  0.3869  0.2942  0.8793
 2376SOL    HW218765   1.223   4.581   4.506  2.0309  0.2268 -2.0209
 2377SOL     OW18766   1.120   4.316  12.476  0.3338 -0.2118  0.4328
 2377SOL    HW118767   1.184   4.380  12.445 -1.8509  1.3542 -0.8857
 2377SOL    HW218768   1.048   4.317  12.413  0.3593  0.3719  0.4174
 2378SOL     OW18769   4.425   2.661  13.253  0.0249 -0.4259  0.1700
 2378SOL    HW118770   4.475   2.659  13.335  1.1088 -2.8833 -0.5422
 2378SOL    HW218771   4.384   2.746  13.266  1.5509  0.4061 -0.4998
 2379SOL     OW18772   3.071   1.589   7.566  0.1048  0.3990 -0.4325
 2379SOL    HW118773   3.158   1.596   7.526 -0.5197 -1.3679 -2.0678
 2379SOL    HW218774   3.030   1.530   7.503  0.8047  0.3951 -0.8856
 2380SOL     OW18775   2.799   2.234  15.124 -0.0345 -0.3984  0.0064
 2380SOL    HW118776   2.815   2.220  15.217  2.0312 -1.0182 -0.4366
 2380SOL    HW218777   2.730   2.300  15.120 -0.2472 -0.5247  1.8079
 2381SOL     OW18778   1.820   4.195   0.144 -0.2082 -0.4272  0.6994
 2381SOL    HW118779   1.729   4.219   0.157  0.9207  3.5775  1.3486
 2381SOL    HW218780   1.819   4.185   0.049 -0.6536  0.0786  0.6525
 2382SOL     OW18781   4.459   0.918  11.555  0.4470 -0.0108  0.2763
 2382SOL    HW118782   4.490   0.828  11.547  1.3708  0.2993  0.2545
 2382SOL    HW218783   4.425   0.930  11.467  0.0847 -1.0038  0.2903
 2383SOL     OW18784   2.405   1.783   5.459 -0.0210  0.5765 -0.2684
 2383SOL    HW118785   2.416   1.689   5.443  2.8108  0.7811  0.4709
 2383SOL    HW218786   2.453   1.785   5.541  0.5918  0.2886 -0.6213
 2384SOL     OW18787   4.109   1.193  17.522  0.1471  1.0573 -0.6960
 2384SOL    HW118788   4.129   1.273  17.571 -1.3576  1.8749 -1.4156
 2384SOL    HW218789   4.016   1.205  17.501  0.1877 -1.9917 -2.6112
 2385SOL     OW18790   2.991   3.195   5.406  0.1863  0.0629 -0.5983
 2385SOL    HW118791   2.991   3.273   5.461  1.3484  0.1760 -0.7580
 2385SOL    HW218792   3.048   3.219   5.333 -0.4474  0.3539 -1.0014
 2386SOL     OW18793   0.946   0.549   6.974  0.3569  0.2486  0.1051
 2386SOL    HW118794   1.013   0.613   6.995 -0.6068  1.4022 -0.3304
 2386SOL    HW218795   0.870   0.576   7.026 -0.7315 -1.3817 -0.5962
 2387SOL     OW18796   0.559   4.628   3.235 -0.5749  0.1387 -0.1959
 2387SOL    HW118797   0.512   4.581   3.304  0.9124 -0.5840  0.3315
 2387SOL    HW218798   0.569   4.572   3.158 -0.8255 -0.6230  0.3234
 2388SOL     OW18799   3.413   0.138   9.432 -0.4336 -0.4550  0.5218
 2388SOL    HW118800   3.371   0.224   9.439 -0.7844 -0.7381  1.8507
 2388SOL    HW218801   3.449   0.146   9.343 -1.4139 -1.4908  0.0360
 2389SOL     OW18802   2.610   0.487   7.309  0.3631  0.0055 -0.0698
 2389SOL    HW118803   2.585   0.409   7.259 -2.2902  0.9035 -0.1454
 2389SOL    HW218804   2.528   0.508   7.353  1.4601  0.1298  1.9388
 2390SOL     OW18805   0.582   0.749  14.175  0.2172 -0.3697  0.2504
 2390SOL    HW118806   0.515   0.689  14.142 -0.1069  0.8645 -1.3602
 2390SOL    HW218807   0.551   0.832  14.138 -0.3994 -0.3855  0.7263
 2391SOL     OW18808   4.421   2.337   7.040  0.0816  0.2705 -0.0118
 2391SOL    HW118809   4.348   2.279   7.018 -0.5945  0.5425  1.5610
 2391SOL    HW218810   4.493   2.280   7.011  0.1492  0.9573 -1.1645
 2392SOL     OW18811   0.132   3.697   4.329  0.2147 -0.2801  0.2941
 2392SOL    HW118812   0.208   3.754   4.317  1.5773 -1.9666  0.9288
 2392SOL    HW218813   0.063   3.746   4.283  1.2120  1.3942  0.5754
 2393SOL     OW18814   0.523   1.963   9.213 -0.3062  0.3314 -0.3666
 2393SOL    HW118815   0.542   2.026   9.282  0.9196 -1.5705  1.0210
 2393SOL    HW218816   0.439   1.930   9.244 -0.0780  0.2222  0.1302
 2394SOL     OW18817   4.584   1.387  10.995  0.4915  0.2960 -0.4567
 2394SOL    HW118818   4.607   1.473  11.031 -0.0086  0.6239 -0.9073
 2394SOL    HW218819   4.643   1.341  11.055  1.1391 -0.0155 -1.3386
 2395SOL     OW18820   1.323   1.845   3.454  0.1255 -0.4717 -0.3898
 2395SOL    HW118821   1.230   1.833   3.436 -0.5369  1.4974  1.6564
 2395SOL    HW218822   1.332   1.940   3.442  0.7811 -0.2885  1.5088
 2396SOL     OW18823   3.794   3.116   7.154 -0.3411 -0.5064  0.7901
 2396SOL    HW118824   3.699   3.099   7.150 -0.6923  1.6011  0.2080
 2396SOL    HW218825   3.807   3.172   7.077 -0.1621  0.3577  1.4608
 2397SOL     OW18826   2.541   4.529   6.464 -0.0916 -0.1633 -0.1673
 2397SOL    HW118827   2.519   4.443   6.498  1.6021 -1.0359 -1.3257
 2397SOL    HW218828   2.463   4.545   6.410 -0.3297 -0.5754  0.0574
 2398SOL     OW18829   3.714   2.798   4.262  0.9567 -0.2426  0.3847
 2398SOL    HW118830   3.629   2.816   4.221  1.2249  1.0006  0.3783
 2398SOL    HW218831   3.689   2.814   4.353 -0.9311  2.1885 -0.5462
 2399SOL     OW18832   3.536   0.175  10.405 -0.1505 -0.2451 -0.0361
 2399SOL    HW118833   3.581   0.100  10.444 -0.5712 -0.3907  0.1749
 2399SOL    HW218834   3.611   0.232  10.390 -1.2584  1.6697  1.5328
 2400SOL     OW18835   2.526   2.914   3.558 -0.1106 -0.4728 -0.7834
 2400SOL    HW118836   2.603   2.935   3.612 -0.7814  1.6128 -0.6279
 2400SOL    HW218837   2.504   2.822   3.570  2.2714 -0.9063  0.2278
 2401SOL     OW18838   4.666   1.948   3.487  0.1863  0.6138 -0.0413
 2401SOL    HW118839   4.697   1.881   3.427  1.2263  1.0027  0.0568
 2401SOL    HW218840   0.008   1.996   3.515  0.5627  0.3411 -0.6226
 2402SOL     OW18841   3.262   3.582   4.758  0.1302  0.4703  0.7374
 2402SOL    HW118842   3.300   3.653   4.706 -2.0962 -0.8939 -2.7192
 2402SOL    HW218843   3.331   3.518   4.741  0.2539  0.5240  1.0262
 2403SOL     OW18844   2.630   3.864  11.506  0.0675  0.2013  0.3891
 2403SOL    HW118845   2.693   3.822  11.566 -0.5774 -1.3042  0.0134
 2403SOL    HW218846   2.546   3.824  11.525  1.2499 -1.2758  2.5064
 2404SOL     OW18847   4.503   4.466  10.620  0.4461  0.0833  0.0852
 2404SOL    HW118848   4.552   4.518  10.556 -1.6834 -1.4683 -2.8031
 2404SOL    HW218849   4.507   4.380  10.578  1.3696  0.7894 -1.2886
 2405SOL     OW18850   1.385   4.353   1.741 -0.2766  0.2877 -0.1862
 2405SOL    HW118851   1.470   4.316   1.768  0.4064  0.7412 -1.6890
 2405SOL    HW218852   1.418   4.435   1.704  0.1929 -0.3301 -1.1273
 2406SOL     OW18853   0.706   1.866  14.537 -0.4912  0.4095  0.0529
 2406SOL    HW118854   0.654   1.897  14.611  0.6187 -0.5908  1.2478
 2406SOL    HW218855   0.777   1.930  14.531 -0.5799  0.5831  0.8573
 2407SOL     OW18856   0.805   2.214   3.778 -0.2650  0.6410  0.1421
 2407SOL    HW118857   0.718   2.196   3.741  0.5567 -0.3676 -1.3218
 2407SOL    HW218858   0.858   2.138   3.754 -1.6257 -0.7685  1.5962
 2408SOL     OW18859   3.795   3.851   6.142  0.2580 -0.2181 -0.2025
 2408SOL    HW118860   3.839   3.905   6.208 -0.0011 -0.1708 -0.0648
 2408SOL    HW218861   3.779   3.772   6.193 -1.8757  0.1284 -0.3087
 2409SOL     OW18862   3.620   1.788   4.602 -0.2494 -0.0029  0.5025
 2409SOL    HW118863   3.614   1.754   4.691 -0.7541  1.3271  0.9829
 2409SOL    HW218864   3.627   1.706   4.554 -0.1794  0.5897 -0.4926
 2410SOL     OW18865   4.275   1.184   2.459  0.5679 -0.5890 -0.1394
 2410SOL    HW118866   4.348   1.137   2.419 -0.2274 -1.5260 -0.4842
 2410SOL    HW218867   4.202   1.165   2.401  1.6349 -2.3518 -0.9257
 2411SOL     OW18868   1.629   4.107   2.721 -0.1328 -0.0181 -0.2252
 2411SOL    HW118869   1.704   4.063   2.681  0.1216  1.8410 -1.8137
 2411SOL    HW218870   1.671   4.148   2.796 -0.0331  2.4396 -1.6359
 2412SOL     OW18871   0.787   3.271   5.045  0.7540 -0.4632  0.3631
 2412SOL    HW118872   0.853   3.238   4.983  1.7981 -0.8132  1.6691
 2412SOL    HW218873   0.822   3.360   5.040 -0.5015  0.0314  0.3876
 2413SOL     OW18874   3.110   3.248   4.969  0.2964 -0.0411  0.0655
 2413SOL    HW118875   3.072   3.171   5.010 -0.2044  0.8341  1.2479
 2413SOL    HW218876   3.194   3.244   5.014  0.2325 -1.0720  0.0867
 2414SOL     OW18877   2.073   4.194   0.564 -0.0767  0.0610 -0.4612
 2414SOL    HW118878   2.166   4.193   0.589 -0.2352  1.6319  0.2241
 2414SOL    HW218879   2.059   4.277   0.518  2.1733  0.7114  0.0300
 2415SOL     OW18880   0.865   2.128   2.807  0.0752 -0.7143  0.8300
 2415SOL    HW118881   0.921   2.166   2.740 -1.1979 -0.6102 -0.1633
 2415SOL    HW218882   0.823   2.053   2.764 -0.6351 -0.8656  1.7838
 2416SOL     OW18883   0.733   2.895   1.671 -0.2089  0.2787 -0.3537
 2416SOL    HW118884   0.694   2.811   1.644  1.9245 -0.7144 -0.3236
 2416SOL    HW218885   0.718   2.893   1.765  1.3512 -2.7225 -0.1701
 2417SOL     OW18886   2.745   0.474   6.550  0.4766 -0.3548  0.7091
 2417SOL    HW118887   2.753   0.553   6.602 -1.9365  0.1670  0.3027
 2417SOL    HW218888   2.726   0.405   6.614 -1.5132 -2.1986 -1.8353
 2418SOL     OW18889   3.744   1.957   2.188  0.2287  0.2258 -0.1734
 2418SOL    HW118890   3.684   1.885   2.208 -1.3846  2.2204  2.0873
 2418SOL    HW218891   3.821   1.933   2.239  0.4714 -0.2394 -0.7540
 2419SOL     OW18892   1.646   2.886   6.837 -0.1192  0.3980  0.7915
 2419SOL    HW118893   1.721   2.937   6.867 -0.4333  0.9326  0.6608
 2419SOL    HW218894   1.679   2.803   6.873 -1.3305  0.6463  2.4805
 2420SOL     OW18895   2.801   4.593  16.337  0.0002  0.0703  0.0889
 2420SOL    HW118896   2.745   4.536  16.285  1.0968 -1.0171  0.0947
 2420SOL    HW218897   2.876   4.600  16.278 -1.4081 -0.7982 -1.8172
 2421SOL     OW18898   3.632   2.807   5.338  0.1003  0.3926  0.0208
 2421SOL    HW118899   3.618   2.867   5.265 -1.4068  0.1327  0.0917
 2421SOL    HW218900   3.590   2.859   5.406  0.1148 -0.5382  0.7425
 2422SOL     OW18901   3.905   1.294   9.566 -0.1549 -0.0439  0.1735
 2422SOL    HW118902   3.888   1.340   9.648  1.3250  0.4794  0.1838
 2422SOL    HW218903   3.902   1.204   9.598  0.3496  0.4997  1.7506
 2423SOL     OW18904   3.298   0.109   0.290  0.7170 -0.8816  0.3922
 2423SOL    HW118905   3.232   0.049   0.326  1.4803 -0.1709  2.9482
 2423SOL    HW218906   3.379   0.066   0.315  0.1371 -1.6962  0.8712
 2424SOL     OW18907   0.208   0.328   3.617  0.3429 -0.3306 -0.0803
 2424SOL    HW118908   0.233   0.379   3.694  0.6088 -0.7471  0.1039
 2424SOL    HW218909   0.120   0.366   3.604  0.1402 -1.3049 -1.5679
 2425SOL     OW18910   1.161   0.122   4.537  0.0920  0.3926  0.6656
 2425SOL    HW118911   1.111   0.070   4.600  1.0717  0.3751  1.4361
 2425SOL    HW218912   1.231   0.058   4.527  0.4616  0.7657  0.8291
 2426SOL     OW18913   0.156   3.182   6.384 -0.1481 -0.3323  0.3394
 2426SOL    HW118914   0.111   3.145   6.461  1.5659 -1.3652  0.8506
 2426SOL    HW218915   0.101   3.130   6.326  0.3544 -2.8286  2.0816
 2427SOL     OW18916   1.375   3.517   2.542  0.2284  0.0715 -0.0408
 2427SOL    HW118917   1.382   3.422   2.551 -0.9776 -0.0691 -0.5127
 2427SOL    HW218918   1.380   3.557   2.629 -1.9076 -0.2291  0.2227
 2428SOL     OW18919   0.123   3.084   6.919 -0.5146 -0.0706  0.6376
 2428SOL    HW118920   0.150   3.084   7.011  0.9126  4.0340  0.1846
 2428SOL    HW218921   0.123   3.175   6.891  0.4483 -1.3051 -3.4721
 2429SOL     OW18922   4.703   4.533   2.904 -0.1454 -0.1676  0.2078
 2429SOL    HW118923   4.613   4.565   2.912 -0.6766 -2.2105  2.3731
 2429SOL    HW218924   0.004   4.620   2.919 -0.4127 -0.0552  0.2199
 2430SOL     OW18925   0.717   0.334   1.683  0.1869 -0.4973 -0.1465
 2430SOL    HW118926   0.683   0.376   1.762 -1.5548  1.3866 -1.8958
 2430SOL    HW218927   0.666   0.253   1.672 -0.1578 -0.3024 -0.0026
 2431SOL     OW18928   4.349   1.773   4.642  0.1120  0.0316  0.1125
 2431SOL    HW118929   4.355   1.725   4.560  0.7928 -0.4998  0.4786
 2431SOL    HW218930   4.424   1.831   4.630 -1.2672  2.0131  0.9490
 2432SOL     OW18931   3.371   3.125   6.208 -0.6551  0.0480 -0.4131
 2432SOL    HW118932   3.311   3.105   6.137 -0.1371 -1.5559 -0.4050
 2432SOL    HW218933   3.314   3.132   6.284 -1.3190  1.9766 -1.0941
 2433SOL     OW18934   1.499   3.023  10.375  0.1862  0.0690 -0.0916
 2433SOL    HW118935   1.481   2.964  10.449 -2.4253 -2.3858 -2.6833
 2433SOL    HW218936   1.592   3.004  10.364  0.4715  2.3264 -1.6703
 2434SOL     OW18937   3.008   0.973   1.947  0.3191 -0.4410 -0.3408
 2434SOL    HW118938   3.022   0.878   1.948 -1.0431 -0.6338 -0.4533
 2434SOL    HW218939   2.972   0.994   1.861 -2.9052  0.0386  1.1502
 2435SOL     OW18940   1.644   1.669   2.138 -0.1643  0.3690 -0.2519
 2435SOL    HW118941   1.549   1.679   2.134 -0.5209 -3.2014 -1.0360
 2435SOL    HW218942   1.665   1.716   2.057  2.6002  1.0777  0.8711
 2436SOL     OW18943   0.948   0.606   1.726 -1.2776 -0.0183 -0.1158
 2436SOL    HW118944   0.997   0.658   1.789 -0.5497  2.5141 -2.7374
 2436SOL    HW218945   0.966   0.519   1.761  1.6643  1.2576  1.5549
 2437SOL     OW18946   3.049   1.301   1.767 -0.1888  0.0341 -0.0472
 2437SOL    HW118947   3.003   1.218   1.750  0.6783 -0.0684 -1.9030
 2437SOL    HW218948   2.973   1.358   1.779 -0.4857 -0.3149 -0.2689
 2438SOL     OW18949   4.320   1.125   3.441 -0.3992  0.1346 -0.1107
 2438SOL    HW118950   4.299   1.215   3.416 -0.8189  0.4861  1.5137
 2438SOL    HW218951   4.230   1.101   3.461 -0.2595  0.2624  0.6913
 2439SOL     OW18952   2.788   2.335   6.851 -0.8033  0.1125 -0.8480
 2439SOL    HW118953   2.880   2.311   6.840 -1.9012 -3.2857 -2.6293
 2439SOL    HW218954   2.770   2.420   6.811 -1.1055  1.4046  2.0835
 2440SOL     OW18955   3.304   3.723   4.134 -0.1378 -0.0797  0.8563
 2440SOL    HW118956   3.309   3.628   4.124  3.1128  0.2080 -0.1080
 2440SOL    HW218957   3.391   3.744   4.166 -0.4092  3.3854 -0.6543
 2441SOL     OW18958   0.181   1.615   1.738 -0.4764 -0.2859  0.0641
 2441SOL    HW118959   0.244   1.634   1.669 -0.5819 -0.7742 -0.1700
 2441SOL    HW218960   0.143   1.533   1.705 -1.0597  0.1325 -0.2901
 2442SOL     OW18961   1.126   2.206   5.143 -0.5422 -0.1619  0.1901
 2442SOL    HW118962   1.201   2.213   5.084  1.5961 -2.2118  2.6224
 2442SOL    HW218963   1.077   2.287   5.130 -1.2140 -0.7501 -0.9143
 2443SOL     OW18964   2.791   1.873   4.291 -0.2463  0.2900  0.0935
 2443SOL    HW118965   2.738   1.924   4.352 -0.0844  0.8228 -0.2083
 2443SOL    HW218966   2.802   1.939   4.222 -0.7263  0.0722 -0.1891
 2444SOL     OW18967   3.836   0.116   5.301  0.2679  0.1573  0.0848
 2444SOL    HW118968   3.747   0.103   5.267 -0.8261  0.1959  2.9499
 2444SOL    HW218969   3.833   0.210   5.318 -1.5858  0.0339  0.4131
 2445SOL     OW18970   2.955   0.291   9.052  0.4755  0.0777 -0.2879
 2445SOL    HW118971   2.922   0.214   9.097  1.4938  0.2672  0.7876
 2445SOL    HW218972   2.951   0.265   8.960  0.0941 -1.1741  0.0913
 2446SOL     OW18973   2.501   1.702  10.312 -0.1598  0.0434  0.6098
 2446SOL    HW118974   2.482   1.628  10.254  0.4311 -0.7470  1.4256
 2446SOL    HW218975   2.595   1.705  10.294  0.1206 -2.5469  1.6403
 2447SOL     OW18976   4.113   1.591   7.631 -0.4542  0.5045  0.8285
 2447SOL    HW118977   4.107   1.499   7.657 -0.7144  0.3226  0.1225
 2447SOL    HW218978   4.158   1.625   7.708 -0.5928 -0.2816  1.2605
 2448SOL     OW18979   0.336   4.094   7.654  0.5000 -0.0250 -0.2009
 2448SOL    HW118980   0.353   4.022   7.714 -0.6168  2.0810  2.6582
 2448SOL    HW218981   0.296   4.058   7.575 -0.5345 -1.2046  0.8722
 2449SOL     OW18982   0.652   2.669   3.180  0.0177  0.7714 -0.1775
 2449SOL    HW118983   0.580   2.716   3.223 -2.2996 -1.9791 -1.0523
 2449SOL    HW218984   0.604   2.640   3.102  0.2020 -1.9368  0.7053
 2450SOL     OW18985   0.510   1.863   5.778 -0.5826  0.3948 -0.1878
 2450SOL    HW118986   0.506   1.894   5.687 -0.0483  0.3726 -0.2205
 2450SOL    HW218987   0.574   1.792   5.768 -0.9579  0.0272  0.0185
 2451SOL     OW18988   3.888   1.724   4.167  0.0656 -0.2195  0.0564
 2451SOL    HW118989   3.894   1.661   4.095 -0.0729 -0.8130  0.5615
 2451SOL    HW218990   3.826   1.670   4.217 -0.3073  0.9915  0.9301
 2452SOL     OW18991   4.166   3.795   1.465  0.8495 -0.6662  0.3943
 2452SOL    HW118992   4.189   3.865   1.526 -0.7151  1.5871 -1.6068
 2452SOL    HW218993   4.083   3.834   1.439  0.3849 -0.3849  2.3068
 2453SOL     OW18994   1.614   0.951   3.568 -0.4234  0.1813  0.6086
 2453SOL    HW118995   1.660   0.867   3.566  0.7155  0.7956  1.0115
 2453SOL    HW218996   1.656   0.990   3.645  0.2181 -1.4566  1.0713
 2454SOL     OW18997   0.586   1.831  11.243  0.2846 -0.5033 -0.0208
 2454SOL    HW118998   0.578   1.753  11.298  2.3458  0.3039  1.4330
 2454SOL    HW218999   0.569   1.899  11.307  0.6417  1.1773 -1.7250
 2455SOL     OW19000   4.346   3.846   2.451 -0.2110 -0.5355  0.5666
 2455SOL    HW119001   4.384   3.822   2.535  2.0375  0.3790 -0.2121
 2455SOL    HW219002   4.380   3.935   2.450 -2.0090  0.1526 -0.4554
 2456SOL     OW19003   0.420   4.634   1.604  0.0606  0.2648  0.0437
 2456SOL    HW119004   0.351   4.577   1.638  1.1555 -0.2588  1.4078
 2456SOL    HW219005   0.387   4.662   1.519  0.3925 -1.3995 -0.6372
 2457SOL     OW19006   2.177   0.337   2.230  0.6076  0.2819 -0.3885
 2457SOL    HW119007   2.248   0.397   2.205  1.4196 -0.1474  0.9029
 2457SOL    HW219008   2.099   0.392   2.225  0.2725 -0.2572 -1.2098
 2458SOL     OW19009   4.465   1.730   2.347  0.2340  0.1605  0.1555
 2458SOL    HW119010   4.481   1.670   2.420  1.9920 -0.2386 -0.5744
 2458SOL    HW219011   4.517   1.694   2.275 -1.9016  2.0588 -2.3460
 2459SOL     OW19012   3.733   4.141   4.529  0.0365 -0.4666 -0.1610
 2459SOL    HW119013   3.817   4.120   4.570  0.9602  0.9764 -1.3040
 2459SOL    HW219014   3.689   4.169   4.609  0.1574  2.0212 -0.9563
 2460SOL     OW19015   2.880   2.101  10.115  0.3738  0.1436 -0.0842
 2460SOL    HW119016   2.801   2.047  10.112  0.7162 -0.4375  1.0960
 2460SOL    HW219017   2.911   2.075  10.028 -1.7913  2.5121 -1.5390
 2461SOL     OW19018   2.229   0.767  14.842  0.4967  0.3957  0.1006
 2461SOL    HW119019   2.193   0.715  14.770 -1.4256  0.8242  0.7639
 2461SOL    HW219020   2.262   0.843  14.794  1.8572 -1.0589 -1.2804
 2462SOL     OW19021   2.908   0.292   3.462  0.7839 -0.6231  0.6344
 2462SOL    HW119022   2.928   0.379   3.428 -1.7715  0.0665  0.8463
 2462SOL    HW219023   2.826   0.273   3.417  1.6567 -1.2003 -0.6860
 2463SOL     OW19024   4.495   2.712   7.773 -0.3994  0.1349  0.1462
 2463SOL    HW119025   4.407   2.749   7.764 -0.0008  1.2846  1.0298
 2463SOL    HW219026   4.541   2.793   7.751  1.1366 -1.2237 -1.6495
 2464SOL     OW19027   1.339   0.877   5.033 -0.1643 -0.3401 -0.2232
 2464SOL    HW119028   1.368   0.957   4.988  0.7816 -1.1356 -1.0429
 2464SOL    HW219029   1.282   0.839   4.968  1.3135  0.3259 -1.9149
 2465SOL     OW19030   0.434   3.428   4.280 -0.0586 -0.3267  0.0553
 2465SOL    HW119031   0.345   3.397   4.295 -0.7780  0.0721 -3.3860
 2465SOL    HW219032   0.478   3.343   4.282  0.9247  0.1954  0.3569
 2466SOL     OW19033   2.626   2.088  13.519  0.0699 -0.5083  0.0811
 2466SOL    HW119034   2.669   2.015  13.564 -1.8768  0.1848  3.0574
 2466SOL    HW219035   2.672   2.061  13.439 -0.6896  1.0422 -0.8750
 2467SOL     OW19036   2.159   0.271  13.130 -0.4876  0.5069  0.0319
 2467SOL    HW119037   2.100   0.321  13.074  0.5065  0.7527 -0.7850
 2467SOL    HW219038   2.111   0.189  13.141  0.0093 -0.0017 -1.5945
 2468SOL     OW19039   1.965   0.365   3.846  0.3699  0.0076 -0.0854
 2468SOL    HW119040   1.994   0.274   3.853  1.1101  0.3371  1.0716
 2468SOL    HW219041   1.871   0.359   3.865  0.5408  0.1097  0.7785
 2469SOL     OW19042   2.273   2.014  14.392  0.2997  0.2039 -0.5971
 2469SOL    HW119043   2.273   1.935  14.446 -4.0533 -0.7064 -1.8984
 2469SOL    HW219044   2.214   2.070  14.442 -3.3858 -3.3687 -0.8790
 2470SOL     OW19045   2.881   4.343   6.433  0.1060  0.0839 -0.1799
 2470SOL    HW119046   2.848   4.383   6.513  1.4108  1.0675 -0.1398
 2470SOL    HW219047   2.814   4.289   6.390  0.4442 -0.7011  0.2797
 2471SOL     OW19048   3.912   4.180   4.776  0.0052 -0.4893 -0.3015
 2471SOL    HW119049   3.883   4.093   4.805 -0.9112 -0.3967 -0.9457
 2471SOL    HW219050   3.990   4.164   4.723  0.6317  1.3677  0.0465
 2472SOL     OW19051   4.229   4.633   5.180 -0.7845 -0.7159  0.1684
 2472SOL    HW119052   4.300   4.598   5.234  0.4269  0.0723 -0.9376
 2472SOL    HW219053   4.245   4.594   5.095  0.6113  3.5673 -1.5365
 2473SOL     OW19054   0.293   4.406  15.607  0.1696 -0.2143 -0.4386
 2473SOL    HW119055   0.367   4.345  15.610 -0.3614 -0.8115  0.5072
 2473SOL    HW219056   0.242   4.371  15.680  1.2067 -0.4900  0.1525
 2474SOL     OW19057   2.721   0.293   3.263  0.0760  0.3862 -0.0173
 2474SOL    HW119058   2.763   0.282   3.178  0.1303  3.5102 -0.3886
 2474SOL    HW219059   2.671   0.212   3.268  1.4479 -0.5371 -1.2008
 2475SOL     OW19060   1.570   3.902   5.082  0.3971  0.4971  0.2998
 2475SOL    HW119061   1.649   3.848   5.085 -2.3365 -3.4332  1.5356
 2475SOL    HW219062   1.599   3.964   5.014 -0.3978  1.8868  1.2301
 2476SOL     OW19063   0.887   1.676   2.990 -0.2114  0.2834  0.6358
 2476SOL    HW119064   0.966   1.658   2.940 -1.9477 -2.4455 -1.0953
 2476SOL    HW219065   0.883   1.617   3.065  0.0672 -1.8902 -1.0789
 2477SOL     OW19066   3.166   0.527  17.516  0.0520  0.7963  0.6068
 2477SOL    HW119067   3.090   0.472  17.500  0.7720 -0.5059  1.6128
 2477SOL    HW219068   3.232   0.463  17.544  1.7582  1.4050 -2.0255
 2478SOL     OW19069   0.208   1.308   3.535 -0.6367 -0.4642 -0.6378
 2478SOL    HW119070   0.144   1.378   3.547  0.1502  0.0138  0.6996
 2478SOL    HW219071   0.231   1.288   3.625 -0.3340 -0.4477 -0.7130
 2479SOL     OW19072   1.012   3.380  15.618 -0.2571 -0.0759 -0.3885
 2479SOL    HW119073   0.987   3.468  15.590  0.7515  0.2727 -0.1972
 2479SOL    HW219074   0.929   3.349  15.655  0.3513 -1.9566 -0.6132
 2480SOL     OW19075   4.391   2.913   4.996 -0.3081 -0.0270  0.2676
 2480SOL    HW119076   4.368   2.987   4.940  0.6278 -0.7072 -0.9962
 2480SOL    HW219077   4.414   2.961   5.076 -0.1532  0.6035 -0.1643
 2481SOL     OW19078   1.884   3.255   7.018 -0.1840  0.0962 -1.1163
 2481SOL    HW119079   1.884   3.165   6.985 -2.6787 -0.6457  0.8379
 2481SOL    HW219080   1.899   3.309   6.941  1.4687 -0.3723 -1.1200
 2482SOL     OW19081   0.920   3.275   5.948  0.2345  0.5786 -0.0910
 2482SOL    HW119082   0.908   3.308   6.037  0.3526 -0.0630  0.1709
 2482SOL    HW219083   0.864   3.197   5.951  0.7362  0.1965 -0.6940
 2483SOL     OW19084   1.702   2.071   5.648  0.3423 -0.3890  0.6976
 2483SOL    HW119085   1.669   2.027   5.571  2.3522 -0.6459 -0.0265
 2483SOL    HW219086   1.766   2.006   5.677 -0.3509 -2.2089 -1.9140
 2484SOL     OW19087   1.961   0.456  17.569  0.1345 -0.2298 -0.1411
 2484SOL    HW119088   1.951   0.535  17.515 -1.0385  0.1591  0.6699
 2484SOL    HW219089   1.904   0.391  17.528  0.5869  0.0604 -1.2405
 2485SOL     OW19090   4.112   1.503  15.702  0.4798 -0.0688 -0.2211
 2485SOL    HW119091   4.185   1.565  15.706 -0.0706  0.2994  3.8338
 2485SOL    HW219092   4.065   1.532  15.624 -0.6623  0.6641  0.7294
 2486SOL     OW19093   3.740   0.516   4.191 -0.7189 -0.3564  0.1347
 2486SOL    HW119094   3.783   0.522   4.277 -0.3781 -0.3480 -0.0354
 2486SOL    HW219095   3.692   0.599   4.189  1.5027  0.9292 -0.4261
 2487SOL     OW19096   2.263   0.822  12.229  0.2458  0.2958  0.0254
 2487SOL    HW119097   2.313   0.893  12.270  0.4061 -0.5647  1.3410
 2487SOL    HW219098   2.329   0.763  12.193 -0.9482 -0.3422 -1.1055
 2488SOL     OW19099   0.967   1.364   4.685 -0.0872 -0.7415 -0.1427
 2488SOL    HW119100   0.963   1.391   4.593 -0.2334  1.2411  0.4376
 2488SOL    HW219101   1.041   1.305   4.670 -0.7616 -1.8152  0.8142
 2489SOL     OW19102   0.183   4.479   6.614 -0.3462  0.2010  0.6303
 2489SOL    HW119103   0.090   4.476   6.593 -0.0668 -0.9732 -0.4546
 2489SOL    HW219104   0.178   4.436   6.700  0.4953  1.7164  1.4400
 2490SOL     OW19105   3.212   1.683   9.256 -0.1328  0.0245  0.1920
 2490SOL    HW119106   3.211   1.772   9.219 -2.7905  0.3961  1.1778
 2490SOL    HW219107   3.267   1.700   9.333 -2.0870  1.1396  1.3332
 2491SOL     OW19108   3.597   2.275   3.840  0.1050  0.5365  0.7553
 2491SOL    HW119109   3.660   2.228   3.786 -0.0257  0.3983  0.7235
 2491SOL    HW219110   3.654   2.340   3.881  0.5316  0.5650  0.1090
 2492SOL     OW19111   0.766   2.688   9.484 -0.2230  0.4066  0.6389
 2492SOL    HW119112   0.829   2.739   9.535 -0.5364  0.8292  0.6049
 2492SOL    HW219113   0.759   2.604   9.529 -0.8732  0.0065 -0.2247
 2493SOL     OW19114   2.698   1.407  15.577 -0.4041  0.4651 -0.1025
 2493SOL    HW119115   2.650   1.419  15.495 -0.6906 -0.5309 -0.0798
 2493SOL    HW219116   2.623   1.365  15.618  0.8277  0.0723  1.7276
 2494SOL     OW19117   3.471   2.423   7.118 -0.9327  0.2162  0.1304
 2494SOL    HW119118   3.396   2.437   7.060 -0.4063  1.7758 -0.1712
 2494SOL    HW219119   3.464   2.334   7.151  1.1365  0.6284  1.7035
 2495SOL     OW19120   1.383   4.563   7.137  0.5461 -0.0582  0.1591
 2495SOL    HW119121   1.389   4.598   7.226  0.0403  0.1337  0.1162
 2495SOL    HW219122   1.471   4.586   7.107  1.3093 -1.6284  1.1863
 2496SOL     OW19123   1.427   2.221   8.933 -0.2127 -0.2927  0.8114
 2496SOL    HW119124   1.373   2.165   8.989  1.0715 -1.2193  1.1220
 2496SOL    HW219125   1.514   2.182   8.942 -0.3605 -0.1841  2.7107
 2497SOL     OW19126   2.040   0.356  14.454  0.0376 -0.2643 -0.2858
 2497SOL    HW119127   2.067   0.444  14.427 -2.9561  0.7517 -0.0061
 2497SOL    HW219128   1.948   0.342  14.429  0.2781 -2.0237 -0.1237
 2498SOL     OW19129   3.269   3.488   3.554 -0.2817 -0.6371 -0.2150
 2498SOL    HW119130   3.308   3.496   3.641  0.5401 -1.8823 -0.4653
 2498SOL    HW219131   3.210   3.414   3.567 -2.3189  1.2238  1.1037
 2499SOL     OW19132   2.543   2.944  15.939 -0.2829  0.2672 -0.8719
 2499SOL    HW119133   2.531   3.020  15.881 -0.1480 -0.0907 -1.3710
 2499SOL    HW219134   2.624   2.984  15.973 -1.4470  0.7944  1.2594
 2500SOL     OW19135   4.667   0.924   3.598  0.4751 -0.0580 -0.3202
 2500SOL    HW119136   4.711   0.839   3.594  1.4605  0.4693 -0.7923
 2500SOL    HW219137   4.592   0.908   3.655  0.1903  0.0111 -0.6791
 2501SOL     OW19138   0.393   2.599   7.951  0.1674 -0.0721 -0.2388
 2501SOL    HW119139   0.401   2.517   8.001  0.8469 -0.6109 -1.2366
 2501SOL    HW219140   0.324   2.576   7.889 -2.0609  1.8930  1.5099
 2502SOL     OW19141   3.875   3.968  15.528  0.1830 -0.1633 -0.0610
 2502SOL    HW119142   3.903   3.928  15.611 -1.5161 -1.4024 -0.0645
 2502SOL    HW219143   3.914   4.055  15.533 -3.0335  1.3473 -0.7344
 2503SOL     OW19144   0.268   1.380   2.669 -0.0144 -0.8265  0.1713
 2503SOL    HW119145   0.341   1.334   2.629  1.3704  1.4544  0.0578
 2503SOL    HW219146   0.282   1.366   2.762 -0.5666 -0.6134  0.2899
 2504SOL     OW19147   3.600   0.307   9.187  0.7667 -0.1990 -0.2206
 2504SOL    HW119148   3.678   0.335   9.236 -0.6539 -1.4255  2.7494
 2504SOL    HW219149   3.534   0.374   9.204 -0.6968 -1.3501 -1.4678
 2505SOL     OW19150   0.549   3.562   5.512 -0.7684  0.5080  0.0190
 2505SOL    HW119151   0.501   3.486   5.481  0.0799 -0.6266  1.5032
 2505SOL    HW219152   0.615   3.568   5.443 -0.3301 -1.5026  0.2727
 2506SOL     OW19153   0.283   2.432   0.576 -0.8234  0.1135  0.5982
 2506SOL    HW119154   0.206   2.393   0.534 -0.3644  4.3993 -4.1665
 2506SOL    HW219155   0.247   2.453   0.663 -2.5790 -0.6703  0.0598
 2507SOL     OW19156   2.847   1.207   7.259 -0.2852 -0.0571  0.0592
 2507SOL    HW119157   2.858   1.119   7.294  0.5352  0.2383  0.5423
 2507SOL    HW219158   2.810   1.195   7.172  1.1324  1.8730 -0.8054
 2508SOL     OW19159   1.095   1.713  16.053  0.7802  0.4048  0.1918
 2508SOL    HW119160   1.182   1.704  16.093  0.9173 -1.1429 -0.4632
 2508SOL    HW219161   1.108   1.780  15.986 -1.0255  1.8974  1.3439
 2509SOL     OW19162   0.001   2.076   2.747 -0.1582 -0.4106 -0.9898
 2509SOL    HW119163   0.093   2.095   2.728 -0.1215  0.2791 -0.1030
 2509SOL    HW219164   4.720   2.003   2.687  0.1895 -0.5409 -0.9258
 2510SOL     OW19165   4.594   2.306   2.471 -0.0308  0.0348 -0.2349
 2510SOL    HW119166   4.607   2.292   2.564 -0.2939  0.7120 -0.1001
 2510SOL    HW219167   4.533   2.380   2.467 -0.1357 -0.0416 -0.0598
 2511SOL     OW19168   0.055   4.272   1.804  0.2896 -0.0983  0.2777
 2511SOL    HW119169   4.723   4.210   1.830  0.0169  0.0501 -0.0776
 2511SOL    HW219170   0.101   4.211   1.747 -0.1184 -0.4821  0.3554
 2512SOL     OW19171   1.015   0.240   4.361 -1.1244 -0.3097  0.0690
 2512SOL    HW119172   1.087   0.247   4.299 -0.6637  1.9680  0.8761
 2512SOL    HW219173   1.049   0.185   4.432 -2.0781  0.8311  1.4204
 2513SOL     OW19174   3.773   0.944   1.783 -0.2636  0.3066  0.0993
 2513SOL    HW119175   3.724   1.008   1.732 -0.0512 -1.2906 -2.0784
 2513SOL    HW219176   3.762   0.965   1.876 -0.8609 -0.3629  0.1822
 2514SOL     OW19177   3.090   1.415   5.669 -0.3924 -0.1886  0.1275
 2514SOL    HW119178   3.050   1.334   5.638  0.8705 -1.0390  0.7461
 2514SOL    HW219179   3.011   1.462   5.696  2.2571  3.0058  2.3438
 2515SOL     OW19180   0.045   2.018   7.967 -0.4882  0.5209  0.0925
 2515SOL    HW119181   0.069   2.107   7.995  0.0428  0.0382  1.1556
 2515SOL    HW219182   4.720   1.998   8.037 -0.7285 -0.5018 -0.4162
 2516SOL     OW19183   2.375   3.583  14.336 -0.2594 -0.5914  1.0711
 2516SOL    HW119184   2.285   3.558  14.314  0.1351 -3.2100  2.4199
 2516SOL    HW219185   2.362   3.648  14.406 -0.5696  0.3445  0.1333
 2517SOL     OW19186   3.641   0.294   4.395 -0.4557  0.2384 -0.0643
 2517SOL    HW119187   3.566   0.242   4.365  2.1512 -2.1209 -2.4105
 2517SOL    HW219188   3.671   0.318   4.308 -1.3162 -3.0133 -1.2482
 2518SOL     OW19189   1.651   1.650  13.471  0.6952  0.2685 -0.7821
 2518SOL    HW119190   1.672   1.741  13.449  2.2057  0.0963 -0.0828
 2518SOL    HW219191   1.645   1.648  13.567 -0.1546 -1.0810 -0.8611
 2519SOL     OW19192   1.523   2.355  12.924 -0.1525  0.4478  0.8468
 2519SOL    HW119193   1.432   2.376  12.944 -0.0848  0.6063  0.9880
 2519SOL    HW219194   1.506   2.280  12.868 -2.0059  0.9621  0.7339
 2520SOL     OW19195   1.512   1.350   8.396 -0.1311 -0.0362 -0.3970
 2520SOL    HW119196   1.503   1.378   8.487  0.0814 -1.6447  0.1314
 2520SOL    HW219197   1.503   1.434   8.352  0.7114  1.2595  1.8909
 2521SOL     OW19198   2.017   1.637   6.711  0.3610 -0.3233  0.5114
 2521SOL    HW119199   1.969   1.719   6.716  0.2536 -0.3867  0.5439
 2521SOL    HW219200   2.080   1.655   6.642 -0.9472  1.8230 -0.0968
 2522SOL     OW19201   0.981   1.400  14.791  0.1058  0.3377  0.2127
 2522SOL    HW119202   1.001   1.307  14.788  0.1996  0.2762  2.7090
 2522SOL    HW219203   0.949   1.413  14.701  1.1815  1.7035  0.0299
 2523SOL     OW19204   1.764   2.717   8.552  0.0068 -0.0291  0.2789
 2523SOL    HW119205   1.754   2.639   8.607  1.8455  0.5011  1.3955
 2523SOL    HW219206   1.761   2.773   8.631 -2.0115 -1.4520  1.2041
 2524SOL     OW19207   0.514   0.216   8.071  0.1603  0.2653 -0.6209
 2524SOL    HW119208   0.481   0.278   8.136 -3.6925 -0.8392 -1.5832
 2524SOL    HW219209   0.475   0.250   7.991 -0.1021 -0.3027 -0.7277
 2525SOL     OW19210   1.178   3.220   5.348  0.4134 -0.5742  0.2770
 2525SOL    HW119211   1.264   3.206   5.387  1.0196  0.8856 -0.5484
 2525SOL    HW219212   1.139   3.282   5.410 -0.7298 -1.9231  0.9090
 2526SOL     OW19213   0.829   1.658  15.164 -1.0956 -0.0044 -0.6070
 2526SOL    HW119214   0.920   1.639  15.140 -0.7740 -2.2638  2.2990
 2526SOL    HW219215   0.791   1.618  15.086  0.4398  0.5377 -1.6312
 2527SOL     OW19216   2.901   2.273   6.385  0.2510 -0.1477 -0.5304
 2527SOL    HW119217   2.826   2.309   6.339 -0.5417 -1.3602 -0.1775
 2527SOL    HW219218   2.861   2.187   6.399  1.6722 -0.6187  0.6683
 2528SOL     OW19219   3.769   0.302  10.424 -0.1783  0.3765 -0.0418
 2528SOL    HW119220   3.753   0.359  10.500  0.4934  0.2745  0.1715
 2528SOL    HW219221   3.855   0.273  10.455 -0.9290 -0.2652  1.4603
 2529SOL     OW19222   2.438   0.105   6.155  0.6032  0.3213 -0.3399
 2529SOL    HW119223   2.520   0.079   6.113  1.0346  0.9409  0.1097
 2529SOL    HW219224   2.408   0.174   6.096  1.7783 -0.1883 -1.5457
 2530SOL     OW19225   3.434   0.786   3.992  0.1700 -0.2251 -0.0981
 2530SOL    HW119226   3.366   0.723   4.014  0.4524 -0.8590 -1.0228
 2530SOL    HW219227   3.505   0.729   3.961  1.3035  0.8891  0.4162
 2531SOL     OW19228   1.663   3.060  15.181 -0.5313  0.2519 -0.2568
 2531SOL    HW119229   1.653   3.080  15.088  0.8830  0.4845 -0.3590
 2531SOL    HW219230   1.693   3.148  15.205 -0.1387  0.3891 -1.2218
 2532SOL     OW19231   4.026   2.625   9.310  0.0397 -0.0624 -0.0844
 2532SOL    HW119232   4.112   2.648   9.345  0.3132 -0.4416 -0.4998
 2532SOL    HW219233   4.038   2.550   9.251 -0.5771 -0.8123  0.7552
 2533SOL     OW19234   0.313   1.249  17.111  0.0024 -0.3820  0.2775
 2533SOL    HW119235   0.277   1.233  17.024  1.7152 -1.0939 -0.2864
 2533SOL    HW219236   0.371   1.178  17.139  0.4211  0.0116  0.4119
 2534SOL     OW19237   1.405   4.526   0.737 -0.5377 -0.5451  0.2348
 2534SOL    HW119238   1.334   4.590   0.735 -0.4648 -0.4708  0.0660
 2534SOL    HW219239   1.394   4.505   0.830 -2.9156 -2.3959 -0.4801
 2535SOL     OW19240   2.954   2.951   6.947  0.5520 -0.7866 -0.0234
 2535SOL    HW119241   3.017   2.985   7.010  1.0065 -2.2124  0.3010
 2535SOL    HW219242   2.953   3.022   6.883 -0.5385  0.6421  1.6304
 2536SOL     OW19243   2.495   0.834   8.903  0.5169  0.0250 -0.4843
 2536SOL    HW119244   2.488   0.912   8.848 -2.2083  0.3820  0.3815
 2536SOL    HW219245   2.445   0.771   8.850  0.1237  0.9303 -1.1980
 2537SOL     OW19246   3.618   3.700   3.080  0.6419 -0.3158 -0.6998
 2537SOL    HW119247   3.684   3.632   3.072  1.6511  0.0510  4.8689
 2537SOL    HW219248   3.673   3.774   3.105 -0.0383 -0.5141  1.3352
 2538SOL     OW19249   4.069   1.152   2.293 -0.0547  0.2521 -0.5261
 2538SOL    HW119250   4.045   1.104   2.214  1.5889  0.7857 -1.3531
 2538SOL    HW219251   3.988   1.159   2.343 -0.9622 -1.9870 -1.7176
 2539SOL     OW19252   1.135   4.128  16.524 -0.5015  0.1415  0.0073
 2539SOL    HW119253   1.128   4.059  16.590  0.2089 -0.0405 -0.1052
 2539SOL    HW219254   1.150   4.202  16.583 -0.2230  0.3645 -0.3366
 2540SOL     OW19255   4.092   2.495   4.520  0.2387 -0.3177 -0.7465
 2540SOL    HW119256   4.025   2.439   4.482  1.5782 -0.5141 -2.7868
 2540SOL    HW219257   4.124   2.431   4.584  2.7530  1.3310 -0.3500
 2541SOL     OW19258   2.867   2.501   0.118 -0.5922  0.1948  0.7519
 2541SOL    HW119259   2.853   2.567   0.186 -3.7012 -0.3375  0.6092
 2541SOL    HW219260   2.781   2.497   0.076  1.3785 -0.7866 -3.2133
 2542SOL     OW19261   1.121   4.029   7.927 -0.2828 -0.1008  0.0504
 2542SOL    HW119262   1.185   4.043   7.857  1.6577  0.0497  1.8646
 2542SOL    HW219263   1.106   4.121   7.948  1.8532  0.1057  0.5993
 2543SOL     OW19264   1.373   3.075   4.512  0.2162 -0.1386 -0.3993
 2543SOL    HW119265   1.289   3.043   4.479 -0.1078  0.0773  0.2091
 2543SOL    HW219266   1.361   3.166   4.540  0.8021 -0.1645 -0.0655
 2544SOL     OW19267   2.446   0.238   4.361 -0.1083 -0.4410 -0.0847
 2544SOL    HW119268   2.460   0.144   4.351 -1.3884 -0.6241 -0.2174
 2544SOL    HW219269   2.368   0.236   4.416 -0.6947  1.0504 -0.8705
 2545SOL     OW19270   0.707   0.540   0.529  0.6993  0.4725 -0.1512
 2545SOL    HW119271   0.716   0.558   0.435 -0.2531  1.2691 -0.0953
 2545SOL    HW219272   0.612   0.557   0.536  0.6362 -0.3257  0.8473
 2546SOL     OW19273   0.169   3.380   6.872  0.2941 -0.1401  0.5764
 2546SOL    HW119274   0.088   3.430   6.876  1.6501  1.9545  2.2994
 2546SOL    HW219275   0.201   3.417   6.789 -1.4530 -2.1128 -0.9680
 2547SOL     OW19276   1.750   0.217  12.877  0.3565  0.0537  0.0183
 2547SOL    HW119277   1.754   0.261  12.962  2.9861  1.0483 -0.6395
 2547SOL    HW219278   1.765   0.124  12.897  1.7121  0.6950  2.0108
 2548SOL     OW19279   1.953   2.939   1.723  0.8558  0.1820 -0.2019
 2548SOL    HW119280   1.891   2.990   1.774  0.0841 -0.4705 -0.4881
 2548SOL    HW219281   1.967   2.864   1.782  0.8027  1.1143  0.9783
 2549SOL     OW19282   2.883   4.349   5.318 -0.5998 -0.1232 -0.3045
 2549SOL    HW119283   2.888   4.433   5.272 -0.7894  0.2048  0.2723
 2549SOL    HW219284   2.925   4.293   5.253  1.4663  0.8033  0.2195
 2550SOL     OW19285   3.582   4.328   7.071  0.2103 -0.9527  0.0090
 2550SOL    HW119286   3.674   4.330   7.099  0.5641  0.4187 -1.1936
 2550SOL    HW219287   3.580   4.407   7.016 -1.3317  0.0883  1.5648
 2551SOL     OW19288   3.621   2.296   8.115 -0.9166 -0.3410 -0.5503
 2551SOL    HW119289   3.550   2.351   8.084  1.2903  0.8891 -3.4360
 2551SOL    HW219290   3.578   2.241   8.181  0.6592 -2.7350 -1.5076
 2552SOL     OW19291   0.125   3.964   6.421 -0.1727 -0.2675 -0.0038
 2552SOL    HW119292   0.053   3.993   6.477 -2.1394  0.1743 -2.8049
 2552SOL    HW219293   0.151   4.048   6.383  3.1241 -0.7943  1.0672
 2553SOL     OW19294   2.671   2.086  11.758 -0.0172 -0.3692 -0.8318
 2553SOL    HW119295   2.617   2.036  11.818 -1.2797  0.7224 -1.0569
 2553SOL    HW219296   2.680   2.024  11.686 -0.1375  1.3031 -2.2993
 2554SOL     OW19297   1.528   3.072   3.374 -0.2634 -0.0468 -0.2898
 2554SOL    HW119298   1.452   3.038   3.420 -0.9317 -0.7371 -1.9080
 2554SOL    HW219299   1.600   3.057   3.436 -0.8270  1.2352  0.6800
 2555SOL     OW19300   4.455   4.124   5.994 -0.1036 -0.1882 -0.3144
 2555SOL    HW119301   4.533   4.179   5.986  0.5215 -0.4844  3.6866
 2555SOL    HW219302   4.398   4.186   6.041 -2.4508 -1.9633 -0.8407
 2556SOL     OW19303   2.899   0.308   2.592  1.1028  0.0030 -0.0215
 2556SOL    HW119304   2.829   0.364   2.558  1.6463  1.9254  2.0676
 2556SOL    HW219305   2.980   0.351   2.563  1.8582 -2.0646 -0.9410
 2557SOL     OW19306   3.736   2.043   9.372 -0.2431  0.3339  0.1223
 2557SOL    HW119307   3.800   1.974   9.389 -0.9653 -0.4926 -0.5813
 2557SOL    HW219308   3.706   2.062   9.461 -1.3490 -1.5389  0.1285
 2558SOL     OW19309   3.571   1.602   3.122 -0.3919  0.3416 -0.5021
 2558SOL    HW119310   3.547   1.681   3.171 -0.9681 -0.1505  0.0163
 2558SOL    HW219311   3.640   1.561   3.174 -1.0771 -0.2545 -0.0548
 2559SOL     OW19312   3.740   2.090  10.870 -0.0716 -0.6384 -1.0470
 2559SOL    HW119313   3.784   2.139  10.800 -1.3697  0.6428 -0.9739
 2559SOL    HW219314   3.705   2.160  10.925 -2.9760 -2.5041 -0.5442
 2560SOL     OW19315   1.184   1.660   2.048 -0.2852  0.2263  0.2361
 2560SOL    HW119316   1.236   1.613   1.983  0.9033  0.7093  0.8382
 2560SOL    HW219317   1.255   1.689   2.105 -0.0156 -1.5455  0.8093
 2561SOL     OW19318   0.750   3.856   7.874  0.4027  0.3267  0.0502
 2561SOL    HW119319   0.779   3.847   7.783  1.5663  1.3362  0.3123
 2561SOL    HW219320   0.791   3.774   7.901 -0.5787 -0.4063 -0.6843
 2562SOL     OW19321   0.837   4.359   7.539 -0.1552 -0.1344 -0.3886
 2562SOL    HW119322   0.780   4.424   7.580 -0.2479  0.4194 -1.3911
 2562SOL    HW219323   0.814   4.357   7.446 -0.1666 -0.5753 -0.3756
 2563SOL     OW19324   0.804   3.587  16.461 -0.0237  0.2072 -0.1543
 2563SOL    HW119325   0.801   3.672  16.504 -0.2081  0.1621 -0.0798
 2563SOL    HW219326   0.838   3.615  16.376 -0.9884  0.2158 -0.5437
 2564SOL     OW19327   2.524   3.842   4.074 -0.2132  0.0132  0.1868
 2564SOL    HW119328   2.579   3.785   4.021 -1.1877 -0.9481  0.2121
 2564SOL    HW219329   2.515   3.785   4.150 -0.1539  1.7610  1.4963
 2565SOL     OW19330   0.063   1.917  15.325 -0.0632  0.0872 -0.0416
 2565SOL    HW119331   0.119   1.935  15.401  1.6168 -0.4343 -1.1439
 2565SOL    HW219332   0.035   1.827  15.342 -2.9275  1.0825  0.3729
 2566SOL     OW19333   4.164   2.408   5.860 -0.4292  0.0657 -0.0376
 2566SOL    HW119334   4.196   2.320   5.838 -0.3865  0.4858 -1.6796
 2566SOL    HW219335   4.072   2.390   5.877 -0.1182 -1.3385  0.1796
 2567SOL     OW19336   1.132   0.959   3.543 -0.3214  0.6176  0.1810
 2567SOL    HW119337   1.079   0.879   3.540 -0.3537  0.6267  0.5541
 2567SOL    HW219338   1.216   0.931   3.579 -0.6600  0.8818  1.1573
 2568SOL     OW19339   4.055   0.033   6.285  0.0998 -0.4713  0.4400
 2568SOL    HW119340   3.994   4.704   6.321 -1.6647  1.5179  1.0121
 2568SOL    HW219341   4.130   4.709   6.280  0.2197 -0.1116 -2.1358
 2569SOL     OW19342   0.877   4.272   3.577 -1.3316  0.2559 -0.3445
 2569SOL    HW119343   0.944   4.211   3.605 -1.9409  0.4383  1.5056
 2569SOL    HW219344   0.818   4.251   3.650 -0.9873 -0.7560 -0.3652
 2570SOL     OW19345   0.513   1.416   2.040 -0.6246 -0.1167 -0.3458
 2570SOL    HW119346   0.485   1.375   2.122  0.4822 -1.0836 -0.4559
 2570SOL    HW219347   0.460   1.495   2.049 -0.8108 -0.3928  0.9884
 2571SOL     OW19348   1.324   1.229   6.930  0.4752 -0.0510 -0.4032
 2571SOL    HW119349   1.309   1.248   6.837  1.3918 -1.3483 -0.8276
 2571SOL    HW219350   1.409   1.186   6.936 -0.1668 -1.1492  0.9361
 2572SOL     OW19351   2.365   1.055  12.347  0.9863 -0.1399  0.0880
 2572SOL    HW119352   2.276   1.087  12.362  1.0358 -0.1826  0.4628
 2572SOL    HW219353   2.390   1.099  12.266 -0.8367  3.0195  1.2386
 2573SOL     OW19354   3.487   4.394   4.253  0.1135 -0.8295  0.1883
 2573SOL    HW119355   3.571   4.400   4.298  1.4153 -0.6773 -2.2522
 2573SOL    HW219356   3.431   4.392   4.330  0.6316 -0.6431  0.5732
 2574SOL     OW19357   2.340   0.026   3.421  0.0796 -0.7901 -1.0278
 2574SOL    HW119358   2.362   4.712   3.499  2.2908  0.5226 -0.7848
 2574SOL    HW219359   2.265   4.710   3.394 -2.2821  0.4534  3.2537
 2575SOL     OW19360   2.538   0.425   1.947 -0.1318 -0.0773 -0.2493
 2575SOL    HW119361   2.519   0.333   1.966  2.1518 -0.7492 -1.1461
 2575SOL    HW219362   2.470   0.470   1.997 -0.4300 -2.1592  1.2354
 2576SOL     OW19363   4.578   2.059  15.266 -0.5956 -0.0295 -0.4930
 2576SOL    HW119364   4.659   2.011  15.283  0.8154  2.8484  0.9973
 2576SOL    HW219365   4.525   1.993  15.310  0.8779 -0.3745  0.7983
 2577SOL     OW19366   1.432   4.708  15.678 -0.3973 -0.4266  0.1699
 2577SOL    HW119367   1.340   4.716  15.701 -1.0434  2.7063 -3.5205
 2577SOL    HW219368   1.462   4.688  15.767  0.1921  1.9112  0.5041
 2578SOL     OW19369   4.359   1.369   7.592  0.6098 -0.2175  0.2340
 2578SOL    HW119370   4.315   1.302   7.540 -2.0489  1.2747  0.5432
 2578SOL    HW219371   4.357   1.451   7.541  1.8805 -0.4632 -0.2090
 2579SOL     OW19372   0.566   3.783   5.167 -0.8342 -0.3754  0.3767
 2579SOL    HW119373   0.584   3.833   5.087  1.9297  1.4653  2.1482
 2579SOL    HW219374   0.471   3.794   5.162 -0.6762  1.4488  1.4620
 2580SOL     OW19375   1.284   3.621   4.901  0.2262  0.0927 -0.2079
 2580SOL    HW119376   1.311   3.713   4.900  0.4124  0.0504  1.1738
 2580SOL    HW219377   1.372   3.583   4.898  0.8979  1.5573  0.6044
 2581SOL     OW19378   2.052   0.979  13.521 -0.4849  0.1615  0.6524
 2581SOL    HW119379   2.014   0.914  13.461 -1.5520  0.3438  1.1296
 2581SOL    HW219380   2.006   1.061  13.499  1.5982  1.3160  0.6250
 2582SOL     OW19381   4.683   0.538  12.457 -0.2870 -0.0283  0.3017
 2582SOL    HW119382   4.641   0.611  12.412  0.2037 -1.0074 -1.7487
 2582SOL    HW219383   4.702   0.477  12.386 -0.0610  2.1539 -1.5104
 2583SOL     OW19384   1.314   1.893   7.194  0.4077  0.2072  0.4344
 2583SOL    HW119385   1.248   1.935   7.138  0.2974 -3.7906 -2.4178
 2583SOL    HW219386   1.266   1.813   7.218 -0.4050  0.8626  1.0121
 2584SOL     OW19387   3.564   3.847   5.662  0.5095 -0.4114  0.6186
 2584SOL    HW119388   3.609   3.821   5.743  0.2148 -1.9718  0.2845
 2584SOL    HW219389   3.534   3.936   5.678  1.7511 -0.2057  1.8115
 2585SOL     OW19390   2.132   1.949   2.206 -0.5449  0.1862  0.3381
 2585SOL    HW119391   2.158   2.017   2.268 -1.0627 -0.0838  0.8582
 2585SOL    HW219392   2.049   1.992   2.190  0.6523  2.6966  0.8743
 2586SOL     OW19393   2.183   4.384   0.154 -0.2320 -0.3894 -0.3621
 2586SOL    HW119394   2.272   4.349   0.160  0.2124  1.0017  1.0996
 2586SOL    HW219395   2.189   4.479   0.158 -0.5900 -0.3946  0.2357
 2587SOL     OW19396   1.016   0.322   7.182  0.2343 -0.5513  0.4745
 2587SOL    HW119397   1.026   0.417   7.173 -1.3976 -0.6172 -2.3246
 2587SOL    HW219398   1.096   0.298   7.136 -0.1867  0.8574 -1.0170
 2588SOL     OW19399   4.733   2.519  16.173  0.5438  0.4108  0.1271
 2588SOL    HW119400   4.648   2.487  16.203  0.4078  1.0909  0.4826
 2588SOL    HW219401   4.718   2.514  16.078  0.1906  0.1167  0.1986
 2589SOL     OW19402   4.237   2.826   5.954  0.4172  0.2913  0.7069
 2589SOL    HW119403   4.234   2.862   5.865  0.8364 -0.4280  0.4030
 2589SOL    HW219404   4.145   2.838   5.978  0.2844 -2.8102  1.8052
 2590SOL     OW19405   1.980   0.766   2.305  0.4006 -0.2696 -0.2270
 2590SOL    HW119406   1.909   0.788   2.366 -0.4439  1.4409 -1.8121
 2590SOL    HW219407   2.055   0.802   2.353 -0.3770  0.6476  0.2971
 2591SOL     OW19408   0.383   3.283   7.526  0.4040  0.6903 -0.0943
 2591SOL    HW119409   0.415   3.219   7.591  0.4996  1.9079  1.0560
 2591SOL    HW219410   0.421   3.361   7.566 -1.1461  1.2285  0.3268
 2592SOL     OW19411   1.612   2.019   8.526  0.4325  0.1680 -0.1064
 2592SOL    HW119412   1.617   2.018   8.431  2.3170  1.8941 -0.0228
 2592SOL    HW219413   1.705   2.020   8.549  0.3378  0.1707  0.2730
 2593SOL     OW19414   3.473   2.835   7.509 -0.0209 -0.0306 -0.4284
 2593SOL    HW119415   3.474   2.860   7.417  0.6146  4.2917  0.7432
 2593SOL    HW219416   3.567   2.829   7.527  0.1376  1.2986 -0.7991
 2594SOL     OW19417   3.348   1.851   1.429  0.3460 -0.0248 -0.2401
 2594SOL    HW119418   3.269   1.842   1.482  1.0383  1.4601  1.0361
 2594SOL    HW219419   3.393   1.924   1.472 -0.9886  0.2916  0.6208
 2595SOL     OW19420   2.924   3.798   6.050 -0.5563  0.3033  0.7353
 2595SOL    HW119421   2.907   3.794   5.956  0.1396 -0.1781  0.6302
 2595SOL    HW219422   3.018   3.819   6.058 -0.1731 -0.8926 -0.6784
 2596SOL     OW19423   2.209   0.710   8.109 -0.0353  0.1469  0.0521
 2596SOL    HW119424   2.250   0.796   8.115  0.0389  0.3198 -2.6398
 2596SOL    HW219425   2.232   0.688   8.018  0.8570  0.5596  0.1823
 2597SOL     OW19426   3.757   2.609  14.241  0.0435 -0.2484  0.4086
 2597SOL    HW119427   3.796   2.562  14.315 -1.1131 -1.4849  0.2178
 2597SOL    HW219428   3.742   2.539  14.178  1.6200 -2.3417  2.3277
 2598SOL     OW19429   1.879   3.869  11.022 -0.4939  0.4296  1.0134
 2598SOL    HW119430   1.962   3.828  11.000 -0.8924  0.4784 -0.5427
 2598SOL    HW219431   1.870   3.926  10.946 -1.7026 -0.2860  0.6191
 2599SOL     OW19432   1.330   0.098   2.198  0.0681  0.1391 -0.3315
 2599SOL    HW119433   1.286   0.013   2.206  2.2860 -0.9098  0.7359
 2599SOL    HW219434   1.263   0.147   2.150  1.1196  1.5506 -0.3600
 2600SOL     OW19435   0.957   0.211  11.879  0.1958  0.1880 -0.1994
 2600SOL    HW119436   0.909   0.128  11.884  2.7439 -1.1779  1.5959
 2600SOL    HW219437   0.895   0.279  11.905  0.0913 -0.2462  0.6884
 2601SOL     OW19438   3.634   2.085  10.119 -0.5226  0.4675 -0.2630
 2601SOL    HW119439   3.646   2.152  10.186 -1.2424  0.6625 -0.3226
 2601SOL    HW219440   3.632   2.007  10.174  0.8488 -0.4808 -1.5688
 2602SOL     OW19441   0.647   2.745   2.803 -0.1726  0.0040  0.3219
 2602SOL    HW119442   0.684   2.691   2.733  0.5871  3.0703 -1.6332
 2602SOL    HW219443   0.595   2.695   2.866  0.3102 -1.3308 -0.3472
 2603SOL     OW19444   0.416   3.065   5.403  0.4331 -0.3096  0.0489
 2603SOL    HW119445   0.485   3.065   5.336  0.2021 -3.5233 -0.1456
 2603SOL    HW219446   0.471   3.052   5.480  1.4100  3.3233  0.0128
 2604SOL     OW19447   1.733   1.831  13.085 -0.3423  0.1319  0.4028
 2604SOL    HW119448   1.638   1.831  13.076 -0.2732  0.2779 -0.3924
 2604SOL    HW219449   1.743   1.737  13.104 -2.7747 -0.1083  0.5538
 2605SOL     OW19450   2.487   1.884  13.380  0.4298  0.2542  0.1246
 2605SOL    HW119451   2.497   1.821  13.309  1.6328 -2.2889  2.5785
 2605SOL    HW219452   2.582   1.885  13.393  0.0104  2.2637  3.0518
 2606SOL     OW19453   4.318   2.859   9.222 -0.0117 -0.2780 -0.2179
 2606SOL    HW119454   4.381   2.898   9.283  0.7299  0.5405 -1.5175
 2606SOL    HW219455   4.370   2.783   9.197 -1.1652 -1.0520 -0.2688
 2607SOL     OW19456   0.256   0.157   1.681 -0.4249  0.3480 -0.0545
 2607SOL    HW119457   0.271   0.093   1.751 -0.9458  0.3060  0.0227
 2607SOL    HW219458   0.217   0.099   1.615 -0.5398  4.2486 -3.4039
 2608SOL     OW19459   3.316   2.116   1.788  0.5100 -0.5239 -0.2041
 2608SOL    HW119460   3.307   2.077   1.701 -2.3460 -0.4954  0.0651
 2608SOL    HW219461   3.333   2.208   1.766  0.7239  0.0172  2.2613
 2609SOL     OW19462   3.412   2.912   2.894  0.1528 -0.7767  0.2888
 2609SOL    HW119463   3.485   2.974   2.898  0.0111 -0.6129  0.3537
 2609SOL    HW219464   3.432   2.858   2.818  1.4900  2.3685 -1.6131
 2610SOL     OW19465   1.608   3.753   8.383  0.1312  0.1518 -0.9138
 2610SOL    HW119466   1.540   3.744   8.451  1.8192  0.7164  0.8311
 2610SOL    HW219467   1.585   3.841   8.354 -0.8056  1.0131  2.3912
 2611SOL     OW19468   0.074   2.728   6.855 -0.6079  0.1807 -0.2432
 2611SOL    HW119469   0.131   2.668   6.903  0.2506  0.2747 -1.1284
 2611SOL    HW219470   0.044   2.673   6.783  2.6524  0.8573 -2.1199
 2612SOL     OW19471   2.087   4.138   4.606 -0.4031 -0.1875 -0.2850
 2612SOL    HW119472   2.054   4.183   4.684  0.9946 -2.0395  1.3521
 2612SOL    HW219473   2.176   4.173   4.606  0.2795 -1.9604 -0.8208
 2613SOL     OW19474   0.638   2.251   6.675 -0.5098  0.7829  0.7698
 2613SOL    HW119475   0.632   2.296   6.590 -2.2283  0.5389  0.7675
 2613SOL    HW219476   0.655   2.325   6.734 -1.7800  1.0245  0.8311
 2614SOL     OW19477   2.596   2.389  15.002 -0.0372  0.4092  0.0451
 2614SOL    HW119478   2.521   2.339  14.970  0.0260 -0.1452  0.7511
 2614SOL    HW219479   2.626   2.431  14.922  0.3215  0.8170  0.3969
 2615SOL     OW19480   0.931   4.220   5.666  0.2587 -0.3737  0.3968
 2615SOL    HW119481   0.966   4.273   5.594 -0.6108 -1.5171 -0.8899
 2615SOL    HW219482   0.850   4.186   5.628 -0.6705  0.4266  1.7093
 2616SOL     OW19483   4.281   3.095   4.660 -0.6584 -0.1120  0.5183
 2616SOL    HW119484   4.229   3.015   4.666 -0.4091 -0.3584 -0.6156
 2616SOL    HW219485   4.288   3.131   4.748  0.9308  1.0439 -0.0719
 2617SOL     OW19486   3.143   2.598  11.782  0.2955  0.0753 -0.0142
 2617SOL    HW119487   3.154   2.690  11.807 -0.1572  0.3245 -0.6994
 2617SOL    HW219488   3.229   2.571  11.812  0.1399  1.7810  1.9533
 2618SOL     OW19489   0.807   4.343   0.210 -0.1743 -0.2278  0.4836
 2618SOL    HW119490   0.725   4.351   0.259  0.0828 -1.1101  1.0551
 2618SOL    HW219491   0.792   4.249   0.205  0.9081 -0.3598 -0.3379
 2619SOL     OW19492   3.451   2.085   8.823  0.1285 -0.1940  0.0093
 2619SOL    HW119493   3.440   1.990   8.820  0.6026 -0.2920  1.1730
 2619SOL    HW219494   3.534   2.101   8.779  0.9193 -0.9075  1.2379
 2620SOL     OW19495   3.651   0.567  16.425 -0.6010 -0.3025  0.3192
 2620SOL    HW119496   3.690   0.526  16.502  1.0132 -1.6788 -1.2205
 2620SOL    HW219497   3.557   0.561  16.444 -0.3085  2.1413  2.4757
 2621SOL     OW19498   1.851   1.180   9.320  0.2985  0.7236 -0.1461
 2621SOL    HW119499   1.911   1.110   9.294 -2.1106 -0.8690 -1.3018
 2621SOL    HW219500   1.875   1.193   9.412 -0.4610 -1.2412  0.3273
 2622SOL     OW19501   0.771   4.391   5.862  0.5078 -0.5003  0.9145
 2622SOL    HW119502   0.696   4.366   5.808  1.3683  0.1799 -0.6223
 2622SOL    HW219503   0.837   4.337   5.818  1.7780  1.1363  0.8063
 2623SOL     OW19504   1.878   0.582   8.104 -0.0849  0.0452  0.1096
 2623SOL    HW119505   1.792   0.571   8.144 -0.0847 -0.6839 -0.1026
 2623SOL    HW219506   1.879   0.504   8.048  2.9251 -0.3989  0.8135
 2624SOL     OW19507   1.368   1.327   1.776 -0.2678 -0.1680  0.2419
 2624SOL    HW119508   1.453   1.286   1.793  0.7344  2.3662  1.2205
 2624SOL    HW219509   1.323   1.273   1.710 -2.7252  1.2094  0.7905
 2625SOL     OW19510   1.423   1.664   9.137  0.0306  0.0001 -0.0635
 2625SOL    HW119511   1.423   1.716   9.217 -1.8385 -0.9784  0.5487
 2625SOL    HW219512   1.391   1.732   9.078 -0.1476  1.1764  1.3967
 2626SOL     OW19513   0.367   0.973  17.182  0.3452  0.5234 -0.4367
 2626SOL    HW119514   0.274   0.971  17.201  0.4827 -0.7529  0.0747
 2626SOL    HW219515   0.357   0.958  17.088 -2.2358 -0.7210  0.0577
 2627SOL     OW19516   1.554   1.190   2.445 -0.3577 -0.1941 -0.1273
 2627SOL    HW119517   1.470   1.233   2.435  0.3468  0.8784 -1.5905
 2627SOL    HW219518   1.614   1.265   2.446  0.6993 -1.0283 -0.2468
 2628SOL     OW19519   2.456   1.901  14.186  0.0565  0.1987 -0.1861
 2628SOL    HW119520   2.525   1.961  14.156 -1.5102  1.7917 -0.6390
 2628SOL    HW219521   2.411   1.951  14.254  0.3819 -1.1828  1.0182
 2629SOL     OW19522   4.634   2.858   9.046 -0.3677 -0.2899  0.3526
 2629SOL    HW119523   4.564   2.807   9.087 -0.9511  1.4014  1.4760
 2629SOL    HW219524   4.651   2.809   8.966 -0.5836 -0.2417  0.2773
 2630SOL     OW19525   1.563   0.907   9.893  0.0261 -0.5160 -0.4152
 2630SOL    HW119526   1.531   0.959   9.819 -1.0537 -1.4038 -0.5658
 2630SOL    HW219527   1.640   0.961   9.910 -0.4451  0.5359 -1.6142
 2631SOL     OW19528   3.252   2.581   6.691 -0.2193 -0.0595  0.1402
 2631SOL    HW119529   3.304   2.513   6.735  2.7589  3.7321  2.4816
 2631SOL    HW219530   3.240   2.551   6.601 -0.7662  2.3295 -0.5816
 2632SOL     OW19531   3.622   2.235   1.739 -0.5385 -0.2747  0.0487
 2632SOL    HW119532   3.623   2.223   1.834  0.0852 -0.0472  0.0778
 2632SOL    HW219533   3.650   2.327   1.729 -1.4632 -0.3696 -3.6439
 2633SOL     OW19534   1.899   3.259  15.293 -0.6280 -0.1827  0.3479
 2633SOL    HW119535   1.982   3.287  15.255 -0.4919  1.9867  2.2789
 2633SOL    HW219536   1.838   3.316  15.246  0.3697  0.2947 -0.3802
 2634SOL     OW19537   4.623   1.583   7.683  0.3293 -0.0419 -0.5993
 2634SOL    HW119538   4.639   1.653   7.620 -1.3464 -0.2211 -1.2183
 2634SOL    HW219539   4.704   1.580   7.735  0.4400  0.7875 -0.7244
 2635SOL     OW19540   0.385   3.073   0.093  0.4457 -0.1856 -0.0682
 2635SOL    HW119541   0.466   3.072   0.144  0.7385  0.6549 -0.5133
 2635SOL    HW219542   0.407   3.145   0.034 -3.2185  0.9577 -0.0397
 2636SOL     OW19543   1.102   2.816   6.592  0.2694  0.2093 -0.1758
 2636SOL    HW119544   1.166   2.762   6.637  1.2591 -0.0171 -1.8536
 2636SOL    HW219545   1.096   2.777   6.505  2.1692  0.8769 -0.6119
 2637SOL     OW19546   0.703   0.364   5.480 -0.3338  0.3280  0.0366
 2637SOL    HW119547   0.614   0.369   5.515 -1.9255 -2.9846 -3.5284
 2637SOL    HW219548   0.681   0.374   5.387  0.0282 -2.4764 -0.3598
 2638SOL     OW19549   3.912   0.792  17.675 -0.2822 -0.1056 -0.3566
 2638SOL    HW119550   3.982   0.854  17.699  1.5419 -3.1414  2.2098
 2638SOL    HW219551   3.940   0.710  17.715  0.8268  0.2048 -0.4867
 2639SOL     OW19552   3.616   0.236   8.402  0.5209  0.0133 -0.1429
 2639SOL    HW119553   3.613   0.227   8.497 -4.3282  0.6239 -0.2524
 2639SOL    HW219554   3.649   0.325   8.397  0.0561  0.1378 -0.9335
 2640SOL     OW19555   1.684   4.729   7.357  0.0321 -0.3086 -0.1753
 2640SOL    HW119556   1.604   4.687   7.388 -0.7667  0.8679 -0.6262
 2640SOL    HW219557   1.672   4.716   7.263  1.5247  1.2268 -0.5737
 2641SOL     OW19558   2.342   1.359  10.328  0.2408  0.0590  0.0380
 2641SOL    HW119559   2.334   1.422  10.400 -3.1450  0.0713 -0.3619
 2641SOL    HW219560   2.391   1.409  10.263  0.0711  2.7153  1.9234
 2642SOL     OW19561   0.119   2.124   3.662  0.0107 -0.0520 -0.1911
 2642SOL    HW119562   0.107   2.192   3.729 -1.6064  0.4270 -0.9777
 2642SOL    HW219563   0.200   2.090   3.701 -0.3337 -0.9974 -0.3144
 2643SOL     OW19564   0.476   4.277  11.148  0.1870 -0.0610 -0.4298
 2643SOL    HW119565   0.399   4.234  11.186  1.1348 -0.6876  0.7857
 2643SOL    HW219566   0.538   4.208  11.125 -2.1740 -1.8050 -1.5787
 2644SOL     OW19567   4.229   2.519   3.304 -0.1128 -0.4753 -0.5279
 2644SOL    HW119568   4.286   2.503   3.228  2.0461  0.4393  0.9331
 2644SOL    HW219569   4.188   2.598   3.269  1.8181  0.6126 -0.2825
 2645SOL     OW19570   1.557   2.535  12.725  0.2408 -0.4540  0.3090
 2645SOL    HW119571   1.603   2.501  12.648 -0.8101 -0.7479 -0.1765
 2645SOL    HW219572   1.586   2.465  12.783 -1.6213 -0.6685  0.9747
 2646SOL     OW19573   3.300   1.382   3.090  0.1361  0.1064 -0.5669
 2646SOL    HW119574   3.238   1.424   3.030  0.7528 -0.8108 -1.8552
 2646SOL    HW219575   3.367   1.373   3.022  0.6673  1.0335 -0.1678
 2647SOL     OW19576   1.145   2.307   4.770  0.1027 -0.3013 -0.2876
 2647SOL    HW119577   1.125   2.399   4.756 -0.0109 -0.1149  1.0906
 2647SOL    HW219578   1.075   2.280   4.830 -1.4617  2.4516 -0.9027
 2648SOL     OW19579   0.506   0.684  15.934 -0.2379 -0.1918  0.0341
 2648SOL    HW119580   0.458   0.648  16.009 -0.8317 -2.9665 -1.6603
 2648SOL    HW219581   0.496   0.627  15.858 -1.3239  1.5589 -1.1140
 2649SOL     OW19582   3.052   0.496   3.310 -0.4129  0.1232 -0.8746
 2649SOL    HW119583   3.058   0.419   3.255 -2.2118  0.6555 -1.8059
 2649SOL    HW219584   3.099   0.563   3.260  0.0866  0.3840 -0.0591
 2650SOL     OW19585   1.114   2.230   2.998 -0.7667 -0.1375  0.7022
 2650SOL    HW119586   1.047   2.271   2.943  0.1056 -0.6285 -0.7178
 2650SOL    HW219587   1.049   2.188   3.054  0.1139 -3.3431 -0.7046
 2651SOL     OW19588   0.524   4.673   0.123 -0.1749 -0.5521 -0.3391
 2651SOL    HW119589   0.558   4.717   0.201 -0.5824  0.6574 -0.8442
 2651SOL    HW219590   0.587   4.601   0.115 -1.2998 -1.5355 -0.3000
 2652SOL     OW19591   3.877   2.931  10.043 -0.0224  0.5568  0.3926
 2652SOL    HW119592   3.924   2.853  10.073 -2.1209 -1.1086 -0.6351
 2652SOL    HW219593   3.875   2.913   9.949 -3.5809 -0.0868  0.5640
 2653SOL     OW19594   2.077   3.123   5.617 -0.1232 -0.3610  0.9511
 2653SOL    HW119595   2.105   3.031   5.616  2.7221  0.5227 -0.3994
 2653SOL    HW219596   2.110   3.148   5.704 -2.3425  1.3561  1.2944
 2654SOL     OW19597   2.003   0.561  13.477  0.1366  0.3671  0.4014
 2654SOL    HW119598   1.926   0.516  13.443  0.3324  0.8187 -0.6350
 2654SOL    HW219599   1.994   0.550  13.571 -0.0351 -2.8726 -0.0120
 2655SOL     OW19600   2.836   1.500   2.164 -0.8398  0.0229 -0.7686
 2655SOL    HW119601   2.873   1.413   2.179  0.3950  0.6480 -0.1899
 2655SOL    HW219602   2.828   1.529   2.255 -1.9313  0.7703 -1.1051
 2656SOL     OW19603   1.129   0.377   6.405 -0.1238 -0.4509 -0.2294
 2656SOL    HW119604   1.111   0.397   6.313 -2.6543 -1.5561  0.0559
 2656SOL    HW219605   1.205   0.322   6.388 -0.0349 -0.9117  1.5916
 2657SOL     OW19606   3.518   3.032   7.829  0.3689 -0.2063 -0.3233
 2657SOL    HW119607   3.558   2.945   7.822 -0.1505 -0.3731 -1.1963
 2657SOL    HW219608   3.430   3.016   7.794 -0.6668  0.7361  1.8531
 2658SOL     OW19609   2.190   4.428   6.754 -0.1056 -0.2519 -0.3673
 2658SOL    HW119610   2.168   4.352   6.808  1.2891  0.0465  0.6332
 2658SOL    HW219611   2.158   4.410   6.665  2.0209 -1.9960 -0.8025
 2659SOL     OW19612   1.453   2.190   6.903 -0.5787 -0.0277  0.2767
 2659SOL    HW119613   1.465   2.127   6.974  3.9425  0.0834 -0.4048
 2659SOL    HW219614   1.467   2.132   6.829 -1.1111 -1.4518  1.3038
 2660SOL     OW19615   2.404   3.846   5.067  0.1354 -0.5223 -0.0328
 2660SOL    HW119616   2.374   3.875   5.153  2.4149 -1.8930  1.2232
 2660SOL    HW219617   2.319   3.872   5.032  1.1602  1.5552 -0.9644
 2661SOL     OW19618   2.460   2.252  14.284 -0.5722 -0.3316 -0.1420
 2661SOL    HW119619   2.482   2.328  14.230 -0.5628  0.1219  0.4995
 2661SOL    HW219620   2.369   2.235  14.260 -1.0408 -0.7426  1.8922
 2662SOL     OW19621   0.186   1.199  11.517 -0.2807 -0.0282  0.7435
 2662SOL    HW119622   0.102   1.167  11.552 -0.5626  0.9390  0.9656
 2662SOL    HW219623   0.244   1.125  11.535  0.1458 -0.0231 -0.6066
 2663SOL     OW19624   1.663   0.658   7.781  0.0869 -0.5812  0.2385
 2663SOL    HW119625   1.701   0.693   7.700 -0.3351  1.1895  0.8117
 2663SOL    HW219626   1.717   0.700   7.847  0.1936 -0.7933  0.2882
 2664SOL     OW19627   3.418   2.103   8.051 -0.0911 -0.0253  0.1539
 2664SOL    HW119628   3.428   2.048   8.128  0.9039  0.4741  0.3708
 2664SOL    HW219629   3.323   2.117   8.052  0.1446  1.6533 -0.6151
 2665SOL     OW19630   4.298   2.299  12.359 -0.5334  0.4690  0.0711
 2665SOL    HW119631   4.391   2.281  12.349 -0.0692  3.6234 -1.1844
 2665SOL    HW219632   4.259   2.214  12.377  0.5888  0.0313  0.3748
 2666SOL     OW19633   2.697   3.190   7.117  0.1715 -0.1152 -0.3664
 2666SOL    HW119634   2.661   3.269   7.076 -0.5624 -1.3326 -2.0770
 2666SOL    HW219635   2.782   3.218   7.149 -0.6733 -0.0767  1.8662
 2667SOL     OW19636   1.970   2.792   6.723 -0.1862  0.0401  0.0310
 2667SOL    HW119637   1.939   2.852   6.655 -1.1645 -0.9818 -0.4308
 2667SOL    HW219638   2.008   2.732   6.658  0.4086 -0.9491  1.2825
 2668SOL     OW19639   0.627   3.882   1.659 -1.1599 -0.5866  0.0210
 2668SOL    HW119640   0.696   3.880   1.592  0.5942  2.4027  1.7430
 2668SOL    HW219641   0.550   3.916   1.613  0.7367  0.3766 -2.4749
 2669SOL     OW19642   0.604   1.329   1.294 -0.1328  0.0600  0.2389
 2669SOL    HW119643   0.645   1.283   1.367  1.0386  0.5241 -0.1122
 2669SOL    HW219644   0.518   1.344   1.333 -0.9684  3.1902 -2.8004
 2670SOL     OW19645   1.485   1.871   6.875 -0.5657  0.0688 -0.2948
 2670SOL    HW119646   1.399   1.837   6.850 -0.1430 -2.1081  1.1221
 2670SOL    HW219647   1.531   1.787   6.880  1.2534  1.0795 -0.1718
 2671SOL     OW19648   0.566   1.562   7.985 -0.1749  0.2338  0.1251
 2671SOL    HW119649   0.593   1.473   8.007  1.1744  0.3687 -0.9357
 2671SOL    HW219650   0.492   1.553   7.925 -0.2027 -1.7354  0.4498
 2672SOL     OW19651   4.068   0.019   2.863  0.4723  0.1879 -0.0639
 2672SOL    HW119652   4.004   4.712   2.807  3.9431 -3.9818 -0.7937
 2672SOL    HW219653   4.055   4.719   2.951 -2.8166 -3.1616 -1.9609
 2673SOL     OW19654   2.234   1.034   6.799  0.0845 -0.1724 -0.0417
 2673SOL    HW119655   2.307   1.093   6.817 -1.7050  1.2249  2.5570
 2673SOL    HW219656   2.162   1.079   6.843 -0.0127 -2.5897  2.2546
 2674SOL     OW19657   2.297   1.896   6.049 -0.7539 -0.0755  0.0303
 2674SOL    HW119658   2.275   1.981   6.088 -0.8065  0.5523 -1.3794
 2674SOL    HW219659   2.341   1.930   5.971 -1.5669  1.2143  0.1266
 2675SOL     OW19660   2.545   4.483   5.406  0.1720  0.1999  0.6258
 2675SOL    HW119661   2.582   4.540   5.474  0.2116  0.0500  0.7299
 2675SOL    HW219662   2.584   4.403   5.441 -1.6721 -0.0134  2.1827
 2676SOL     OW19663   2.767   1.374  11.798  0.0003  0.2649  0.2386
 2676SOL    HW119664   2.699   1.423  11.845  0.4886  0.1722  1.0339
 2676SOL    HW219665   2.755   1.289  11.839 -0.4783  0.7135  1.0237
 2677SOL     OW19666   1.716   3.281   5.272  0.3836 -0.7813 -0.6198
 2677SOL    HW119667   1.764   3.235   5.341 -1.3436 -0.2038  0.9643
 2677SOL    HW219668   1.714   3.222   5.196 -1.6556  1.3785 -2.2677
 2678SOL     OW19669   1.543   4.281   0.119 -0.2558 -0.2631 -0.2775
 2678SOL    HW119670   1.472   4.235   0.164  1.0678 -1.7049  0.3715
 2678SOL    HW219671   1.490   4.356   0.093  0.0297  0.0619  0.0728
 2679SOL     OW19672   3.040   2.916   5.424 -0.5501  0.1625 -0.0750
 2679SOL    HW119673   2.994   3.000   5.411 -1.1315 -0.2644 -0.8046
 2679SOL    HW219674   2.978   2.854   5.386 -0.7450  0.5637 -0.4222
 2680SOL     OW19675   4.659   3.870  16.970  0.3858 -0.4807 -0.9835
 2680SOL    HW119676   4.730   3.806  16.961  0.7024 -0.4112  1.0507
 2680SOL    HW219677   4.696   3.932  17.033  1.3226 -0.2703 -1.7325
 2681SOL     OW19678   3.466   2.495   9.633 -0.4497 -0.1485 -0.3672
 2681SOL    HW119679   3.379   2.512   9.668  0.6981  1.2653  1.8424
 2681SOL    HW219680   3.507   2.581   9.632 -1.3962  0.2741 -1.5492
 2682SOL     OW19681   4.382   3.033   3.812 -0.1977 -0.0315 -0.9696
 2682SOL    HW119682   4.412   2.967   3.749  0.6113  1.1159 -1.7823
 2682SOL    HW219683   4.469   3.070   3.830 -0.5437  0.7052 -0.8330
 2683SOL     OW19684   3.128   3.566   4.321  0.1751  0.1012  0.1205
 2683SOL    HW119685   3.106   3.657   4.338 -1.2704 -0.1804 -0.2150
 2683SOL    HW219686   3.127   3.563   4.225 -0.4036  2.1190  0.0620
 2684SOL     OW19687   3.640   4.440   5.860  0.0811 -0.1813  0.0187
 2684SOL    HW119688   3.712   4.498   5.836 -2.6463  2.9916 -0.4115
 2684SOL    HW219689   3.696   4.372   5.899 -1.5973 -0.3334  2.1540
 2685SOL     OW19690   3.317   0.091   5.030  0.0472  0.2355  0.4574
 2685SOL    HW119691   3.233   0.045   5.028  1.0784 -1.6714  0.2338
 2685SOL    HW219692   3.381   0.029   5.065  1.3746  1.6326  0.4866
 2686SOL     OW19693   4.354   0.174   3.225  0.6369 -0.0898  0.2567
 2686SOL    HW119694   4.435   0.131   3.200 -0.0257 -0.5618 -1.0423
 2686SOL    HW219695   4.383   0.265   3.215  1.1173 -0.2838 -0.0741
 2687SOL     OW19696   0.648   1.733   0.840 -0.5136  0.3302 -0.4048
 2687SOL    HW119697   0.665   1.763   0.929  0.4438  0.9251 -0.7894
 2687SOL    HW219698   0.560   1.696   0.848  0.1087 -0.6417  1.7414
 2688SOL     OW19699   2.231   2.010  12.605  0.4759  0.2319 -0.5628
 2688SOL    HW119700   2.221   1.922  12.641 -0.5145 -0.0652 -1.5550
 2688SOL    HW219701   2.299   2.047  12.662 -1.0080  0.5887  0.9829
 2689SOL     OW19702   2.009   2.852   3.439 -0.0128  0.1269 -0.5516
 2689SOL    HW119703   2.102   2.871   3.436  0.0735 -0.1103  0.3883
 2689SOL    HW219704   1.978   2.937   3.408 -0.0919 -0.4064 -1.9415
 2690SOL     OW19705   4.032   4.688   3.550 -0.0795 -0.2979  0.0454
 2690SOL    HW119706   4.036   0.030   3.496 -0.5127 -0.3953 -0.1257
 2690SOL    HW219707   4.005   4.718   3.637 -0.8784  1.1618 -0.7071
 2691SOL     OW19708   0.011   3.022  15.471 -0.3937  0.0249 -0.1667
 2691SOL    HW119709   0.065   3.033  15.393 -2.3104  1.1213 -1.3616
 2691SOL    HW219710   4.700   2.945  15.439 -0.4532 -0.5929  1.3917
 2692SOL     OW19711   2.595   3.466  10.893 -0.1328 -0.5002  0.1361
 2692SOL    HW119712   2.588   3.496  10.984 -2.4611 -0.4598 -0.0463
 2692SOL    HW219713   2.512   3.420  10.881 -0.1922 -0.3968  0.1460
 2693SOL     OW19714   3.378   1.868   4.919 -0.2292 -0.0172  0.0107
 2693SOL    HW119715   3.345   1.888   4.832  0.4307  0.1162 -0.2033
 2693SOL    HW219716   3.389   1.956   4.954  3.0734 -0.9065  1.1875
 2694SOL     OW19717   4.598   3.617   6.100  0.3053  0.3970  0.1092
 2694SOL    HW119718   4.592   3.556   6.027 -0.2724  0.2980  0.2377
 2694SOL    HW219719   4.614   3.556   6.172  1.0840  1.6505  1.0145
 2695SOL     OW19720   2.446   1.565  17.010  0.3765  0.5107 -0.0566
 2695SOL    HW119721   2.541   1.576  17.003  0.2539  1.3760 -0.4352
 2695SOL    HW219722   2.428   1.582  17.102 -0.3703  0.4688 -0.1958
 2696SOL     OW19723   3.889   0.920   0.670  0.1718  0.3190 -0.1815
 2696SOL    HW119724   3.820   0.874   0.717 -0.5350  0.9025 -0.6436
 2696SOL    HW219725   3.869   0.903   0.578  2.0663  2.2845 -0.9701
 2697SOL     OW19726   2.275   3.281  14.506 -0.8630  0.4256  0.4004
 2697SOL    HW119727   2.340   3.211  14.505 -1.9685 -0.5621 -1.5919
 2697SOL    HW219728   2.207   3.257  14.443 -0.7724 -0.0925  0.5073
 2698SOL     OW19729   3.883   1.970   5.047 -0.0905 -0.5715 -0.1366
 2698SOL    HW119730   3.972   1.955   5.081  0.2124 -1.3817 -1.3106
 2698SOL    HW219731   3.891   1.981   4.953  0.1243 -0.5551 -0.1188
 2699SOL     OW19732   1.565   1.097   6.926  0.2815 -0.4053  0.1128
 2699SOL    HW119733   1.646   1.058   6.960  0.8287  1.4410  0.8977
 2699SOL    HW219734   1.552   1.036   6.853 -2.8651 -0.5383  0.7590
 2700SOL     OW19735   4.612   2.117  16.160  0.1060 -0.1218 -0.6454
 2700SOL    HW119736   4.660   2.125  16.078  2.3458 -2.2277  0.4538
 2700SOL    HW219737   4.532   2.165  16.140 -0.7423  0.2326  3.6851
 2701SOL     OW19738   2.868   2.652   4.728 -0.4477  0.0942 -0.0222
 2701SOL    HW119739   2.832   2.725   4.778  3.2816  1.3582  0.8184
 2701SOL    HW219740   2.854   2.578   4.787  3.2484 -1.5946 -1.3100
 2702SOL     OW19741   3.382   3.457   4.138  0.0730  0.4167 -0.1890
 2702SOL    HW119742   3.441   3.463   4.213  0.1176  0.2673 -0.2113
 2702SOL    HW219743   3.390   3.363   4.119  1.4084  0.0895  1.9314
 2703SOL     OW19744   4.696   2.809   5.169  0.1358  0.1135  0.0708
 2703SOL    HW119745   0.043   2.772   5.141  0.3159  0.8106 -0.3317
 2703SOL    HW219746   4.625   2.769   5.118  1.4586 -1.1282 -0.7973
 2704SOL     OW19747   1.070   2.965   7.814 -0.1948  0.4689  0.2951
 2704SOL    HW119748   0.984   3.001   7.794 -0.3059 -0.4329 -0.9048
 2704SOL    HW219749   1.105   2.968   7.725 -0.5407 -1.4578  0.0815
 2705SOL     OW19750   3.695   4.661   3.064 -0.0421  0.0149 -0.0646
 2705SOL    HW119751   3.780   4.703   3.078  0.2528 -1.5182  2.7908
 2705SOL    HW219752   3.719   4.569   3.056 -0.8685 -0.1717 -0.4002
 2706SOL     OW19753   1.420   3.893   4.653 -0.2711  0.1856  0.3187
 2706SOL    HW119754   1.415   3.970   4.596 -0.5062 -0.0974 -0.0424
 2706SOL    HW219755   1.455   3.823   4.598 -0.1825  0.1017  0.4820
 2707SOL     OW19756   3.242   1.111  15.965  0.3135 -0.2470  0.2207
 2707SOL    HW119757   3.178   1.095  15.895  1.4756 -0.0527 -0.8934
 2707SOL    HW219758   3.186   1.083  16.037  1.7010 -2.6439  0.3700
 2708SOL     OW19759   1.541   3.941   6.260  0.2551 -0.0377 -0.1429
 2708SOL    HW119760   1.609   3.896   6.211  1.1439  1.3530 -0.1749
 2708SOL    HW219761   1.479   3.883   6.304  1.2334 -1.0655 -0.1225
 2709SOL     OW19762   4.419   0.779   1.185  0.3856  0.4384  0.0576
 2709SOL    HW119763   4.493   0.840   1.182  1.3652 -0.8056 -0.9252
 2709SOL    HW219764   4.453   0.743   1.268  0.6961 -1.2780 -0.8063
 2710SOL     OW19765   4.566   0.926  15.337  0.6902  0.1827  0.0205
 2710SOL    HW119766   4.516   0.855  15.376 -0.6030  0.4058 -1.2547
 2710SOL    HW219767   4.596   0.895  15.252  0.9677 -1.6192  0.7711
 2711SOL     OW19768   0.975   3.542   0.998  0.3420 -0.0877  0.0743
 2711SOL    HW119769   0.903   3.479   0.993 -0.9109  1.4751 -1.6952
 2711SOL    HW219770   0.944   3.608   1.060 -0.8901 -0.8396  0.2449
 2712SOL     OW19771   4.352   1.130  13.655 -0.0592 -0.6605 -0.2294
 2712SOL    HW119772   4.344   1.067  13.584  0.0357  0.6208 -1.3742
 2712SOL    HW219773   4.425   1.094  13.705 -0.8570 -2.3520 -0.3107
 2713SOL     OW19774   3.815   2.888   5.778  0.1329  0.4599 -0.1495
 2713SOL    HW119775   3.737   2.833   5.780  1.0695 -0.8680  0.0000
 2713SOL    HW219776   3.792   2.964   5.725 -0.3111 -0.3396 -1.1011
 2714SOL     OW19777   0.565   0.352  17.019  0.1900 -0.4135  0.0194
 2714SOL    HW119778   0.574   0.288  16.948 -0.1978  0.2364 -0.6125
 2714SOL    HW219779   0.648   0.397  17.004 -0.4785  0.9935  0.5315
 2715SOL     OW19780   3.939   3.095  16.720 -0.4929  0.4232  0.0635
 2715SOL    HW119781   3.850   3.082  16.752 -0.4944  0.6190  0.1431
 2715SOL    HW219782   3.953   3.190  16.717 -0.4327  0.4185  0.1645
 2716SOL     OW19783   1.807   3.252   4.796 -0.0663  0.2813  0.0415
 2716SOL    HW119784   1.857   3.322   4.754  0.5492 -0.3183 -0.2085
 2716SOL    HW219785   1.792   3.190   4.725 -1.4472  0.8015 -0.1225
 2717SOL     OW19786   3.534   1.353   2.967 -0.0451 -0.3948  0.4266
 2717SOL    HW119787   3.543   1.428   2.908 -2.2652 -0.5352 -0.1142
 2717SOL    HW219788   3.608   1.307   2.928  0.5360  0.3762  0.6147
 2718SOL     OW19789   3.944   0.165   1.400 -0.4605  0.0177  0.2811
 2718SOL    HW119790   3.878   0.193   1.463 -0.1355 -0.1197  0.6813
 2718SOL    HW219791   3.946   0.241   1.342  0.5370  0.3513  0.7527
 2719SOL     OW19792   2.994   2.496   7.190 -0.3425 -0.6774 -0.1410
 2719SOL    HW119793   2.992   2.418   7.245 -0.9452 -0.2446  0.4511
 2719SOL    HW219794   2.903   2.519   7.206  0.3413  1.9597 -0.0370
 2720SOL     OW19795   0.278   2.903   2.224  0.0507  0.2274 -0.6592
 2720SOL    HW119796   0.228   2.971   2.177 -0.7577  0.3196  0.3266
 2720SOL    HW219797   0.269   2.930   2.315 -0.6279  1.5436 -1.1176
 2721SOL     OW19798   0.255   2.551   1.128 -0.1098 -0.1066  0.1034
 2721SOL    HW119799   0.289   2.479   1.075 -1.9094  1.6605 -3.4414
 2721SOL    HW219800   0.302   2.537   1.211  0.0678 -2.0095 -0.3346
 2722SOL     OW19801   2.715   3.580   8.071  0.2192 -0.1617 -1.1074
 2722SOL    HW119802   2.785   3.604   8.131 -0.5403  0.6804 -0.5448
 2722SOL    HW219803   2.683   3.662   8.034 -0.5477 -0.3647 -0.8989
 2723SOL     OW19804   3.543   0.164  10.702 -0.0619  0.6137  0.6235
 2723SOL    HW119805   3.524   0.237  10.643  0.9936  0.3392 -0.0514
 2723SOL    HW219806   3.504   0.091  10.654 -3.3434  4.9242 -3.2592
 2724SOL     OW19807   3.504   1.624   1.390 -0.1409  0.3670  0.2337
 2724SOL    HW119808   3.440   1.696   1.387 -1.4835 -0.8508 -0.2652
 2724SOL    HW219809   3.458   1.555   1.343 -1.1392  0.8562  0.4869
 2725SOL     OW19810   0.600   1.012   7.240  0.2583  0.5044  0.2297
 2725SOL    HW119811   0.507   0.992   7.245  0.2237  0.5040 -0.5218
 2725SOL    HW219812   0.617   1.014   7.335  1.0366  3.3146  0.0302
 2726SOL     OW19813   2.647   4.689   8.784  0.1959 -0.1136  0.5164
 2726SOL    HW119814   2.566   4.641   8.803  0.3940 -0.0239  1.6237
 2726SOL    HW219815   2.608   0.028   8.740  1.3169 -0.3251 -0.8289
 2727SOL     OW19816   2.516   2.285   5.451  0.4384 -0.5737  0.6174
 2727SOL    HW119817   2.575   2.213   5.474  2.5943  0.7284 -0.7856
 2727SOL    HW219818   2.575   2.331   5.391  0.0625  0.0354  0.7167
 2728SOL     OW19819   0.547   3.668   6.278  0.1195  0.1583 -0.2160
 2728SOL    HW119820   0.513   3.756   6.293  1.5581  0.7366 -0.3329
 2728SOL    HW219821   0.496   3.622   6.344  0.4304 -1.6639 -1.2589
 2729SOL     OW19822   3.370   3.482  11.782  0.0012 -0.3051 -0.2877
 2729SOL    HW119823   3.459   3.505  11.812  0.6547 -0.6014 -2.0026
 2729SOL    HW219824   3.356   3.542  11.709  1.1719 -0.3689 -0.5728
 2730SOL     OW19825   3.577   0.991   3.883 -0.6301  0.4652 -0.1143
 2730SOL    HW119826   3.639   0.918   3.873 -0.2529  0.8041 -0.2692
 2730SOL    HW219827   3.503   0.936   3.909 -0.1194 -1.0113 -1.7800
 2731SOL     OW19828   4.088   1.008   0.815  0.0444 -0.5090 -0.1325
 2731SOL    HW119829   4.033   1.067   0.867 -0.2260 -1.1808  0.3351
 2731SOL    HW219830   4.020   0.979   0.754  2.4876 -1.2074 -2.5681
 2732SOL     OW19831   0.562   4.606  17.068 -0.3925 -0.3419  0.0077
 2732SOL    HW119832   0.615   4.608  16.989  0.9899  0.2184  0.9498
 2732SOL    HW219833   0.566   4.695  17.103  2.1289  0.0467 -1.3156
 2733SOL     OW19834   0.820   0.747  17.049 -0.2140  0.2432  0.4133
 2733SOL    HW119835   0.800   0.822  16.994  0.3228  0.3953  0.4238
 2733SOL    HW219836   0.852   0.787  17.130  1.2341  0.3271 -0.1982
 2734SOL     OW19837   4.066   1.143   3.965 -0.3592  0.9810 -0.0739
 2734SOL    HW119838   3.994   1.202   3.940 -0.8064  0.1657 -0.7393
 2734SOL    HW219839   4.137   1.189   3.919 -1.7610  0.6245 -2.6131
 2735SOL     OW19840   3.141   1.550  10.255  0.6139 -0.1714  0.1810
 2735SOL    HW119841   3.177   1.630  10.293 -1.0966  0.3591  0.6431
 2735SOL    HW219842   3.203   1.483  10.285 -1.6189 -2.9070 -1.3929
 2736SOL     OW19843   4.012   4.417   6.171  0.1444 -0.5019  0.0122
 2736SOL    HW119844   3.918   4.418   6.191  0.1531  0.5448  0.0280
 2736SOL    HW219845   4.021   4.457   6.084 -2.2818 -1.7783 -0.8254
 2737SOL     OW19846   0.808   3.041   7.635 -0.4232 -0.4320  0.7964
 2737SOL    HW119847   0.751   2.969   7.663 -2.3853  0.5461 -0.6819
 2737SOL    HW219848   0.748   3.106   7.600  0.7033  1.7186  2.8457
 2738SOL     OW19849   0.189   4.440  11.000  0.5329 -0.2482 -0.1501
 2738SOL    HW119850   0.231   4.512  10.951  0.8638 -0.6592 -0.4673
 2738SOL    HW219851   0.248   4.429  11.074  2.6837  0.8221 -1.7070
 2739SOL     OW19852   4.729   2.282   0.123  0.1017 -0.0511  0.9000
 2739SOL    HW119853   0.070   2.339   0.119  0.3222 -0.5325 -1.8847
 2739SOL    HW219854   4.655   2.342   0.127 -1.1357 -1.3991 -1.6566
 2740SOL     OW19855   2.435   2.960   4.984  0.3488 -0.0335 -0.1629
 2740SOL    HW119856   2.431   2.887   4.922 -0.0831  0.1938 -0.4032
 2740SOL    HW219857   2.479   2.920   5.059 -0.8412 -1.5528 -0.2830
 2741SOL     OW19858   2.928   2.351  10.196  0.6290  0.0886 -0.4481
 2741SOL    HW119859   2.843   2.364  10.154  0.5827  0.8381 -0.1360
 2741SOL    HW219860   2.945   2.259  10.178  0.9446 -0.0479  0.5824
 2742SOL     OW19861   0.799   0.611   3.686  0.0464 -0.1205  0.5201
 2742SOL    HW119862   0.732   0.605   3.619  1.2354 -0.1814 -0.6636
 2742SOL    HW219863   0.777   0.528   3.729 -2.5987  0.0939 -0.4374
 2743SOL     OW19864   0.553   2.836   8.587  0.8357 -0.6802  0.7482
 2743SOL    HW119865   0.560   2.924   8.625 -1.1561 -0.6011  0.9048
 2743SOL    HW219866   0.461   2.832   8.564  1.0726 -0.8236 -0.1786
 2744SOL     OW19867   4.206   0.407   8.757 -0.6416  0.2438  0.4114
 2744SOL    HW119868   4.149   0.373   8.687  2.5397  0.9687 -2.5069
 2744SOL    HW219869   4.134   0.421   8.819 -3.3124  1.1578 -2.8933
 2745SOL     OW19870   1.010   0.768   2.275  0.0974  0.3264  0.3510
 2745SOL    HW119871   1.014   0.799   2.365 -2.2069  1.6559  0.0016
 2745SOL    HW219872   1.039   0.850   2.236 -3.4570  1.2870 -0.2598
 2746SOL     OW19873   1.371   1.915   3.941  0.2255  0.1577  0.0866
 2746SOL    HW119874   1.456   1.900   3.983  0.2292 -0.4943 -0.1508
 2746SOL    HW219875   1.378   2.002   3.901 -1.2425 -0.9046 -2.4988
 2747SOL     OW19876   3.888   1.646   8.667  0.4530  0.0482 -0.3231
 2747SOL    HW119877   3.808   1.596   8.682 -0.0602  0.5250 -1.3652
 2747SOL    HW219878   3.930   1.639   8.752 -0.4303  2.9040  0.3553
 2748SOL     OW19879   0.318   0.105   8.684 -0.7134  0.3261 -0.4544
 2748SOL    HW119880   0.248   0.170   8.680  0.7680  1.9426 -0.0997
 2748SOL    HW219881   0.288   0.048   8.755  0.1881  1.2119  0.6437
 2749SOL     OW19882   2.740   0.991   9.303 -0.0412 -0.2723 -0.2080
 2749SOL    HW119883   2.728   0.897   9.290 -0.0962 -0.2815 -0.0900
 2749SOL    HW219884   2.815   1.011   9.247 -0.0999 -1.6246 -0.7566
 2750SOL     OW19885   0.924   3.502  16.697 -0.5876  0.0233  0.0419
 2750SOL    HW119886   0.890   3.557  16.627 -2.7128  1.1598  1.9862
 2750SOL    HW219887   0.897   3.417  16.662 -0.8146  1.0897 -2.3720
 2751SOL     OW19888   1.435   3.755   7.657 -0.5436  0.3313 -0.2572
 2751SOL    HW119889   1.517   3.706   7.657 -0.2807  0.7669 -0.1990
 2751SOL    HW219890   1.452   3.817   7.587  1.8108 -0.5237 -0.4389
 2752SOL     OW19891   4.097   1.568   4.461 -0.5999 -0.3791  0.2589
 2752SOL    HW119892   4.184   1.591   4.430 -0.1259 -1.6213  0.6655
 2752SOL    HW219893   4.115   1.505   4.530  1.1940 -2.1222 -1.7912
 2753SOL     OW19894   3.974   3.391   0.805  0.2020  0.0526  0.3539
 2753SOL    HW119895   4.038   3.348   0.863  0.0212 -0.2138  0.3566
 2753SOL    HW219896   3.908   3.327   0.777  2.1949 -2.0281  0.3662
 2754SOL     OW19897   3.506   3.659  12.161  0.1679  0.0447  0.1443
 2754SOL    HW119898   3.554   3.615  12.090  0.6591  0.9994 -0.1084
 2754SOL    HW219899   3.494   3.586  12.222 -0.6885 -0.1527 -0.2655
 2755SOL     OW19900   2.569   4.687   7.032 -0.2639 -0.1248  0.2066
 2755SOL    HW119901   2.489   4.648   7.067 -1.0993  1.8389  0.4958
 2755SOL    HW219902   2.637   4.642   7.082 -1.3401  0.2194  1.9828
 2756SOL     OW19903   0.302   1.856   2.115  0.3635 -0.0196  0.4584
 2756SOL    HW119904   0.306   1.942   2.074  2.2270 -0.5546 -0.4845
 2756SOL    HW219905   0.395   1.839   2.133  0.4710 -1.2745 -1.3005
 2757SOL     OW19906   4.685   2.971   2.754  0.4539  0.2523 -0.2085
 2757SOL    HW119907   4.657   2.981   2.845  1.3073  1.1062 -0.0441
 2757SOL    HW219908   0.030   2.920   2.753  2.1985  3.0367  0.0196
 2758SOL     OW19909   4.004   1.510  10.393  0.1984 -0.3791 -0.1934
 2758SOL    HW119910   4.098   1.495  10.400  0.1007  0.6294  3.3225
 2758SOL    HW219911   3.990   1.501  10.488  0.1281 -2.1440 -0.3781
 2759SOL     OW19912   3.860   2.016   1.650 -0.1407  0.1350  0.1629
 2759SOL    HW119913   3.780   1.965   1.634 -0.4212  0.9138 -0.9676
 2759SOL    HW219914   3.859   2.012   1.745 -0.3213 -1.8802  0.0936
 2760SOL     OW19915   4.432   2.506   0.732 -0.2299  0.1030  0.1022
 2760SOL    HW119916   4.499   2.472   0.672  1.2501 -1.6420  2.7091
 2760SOL    HW219917   4.429   2.598   0.706  0.6835  0.2229  0.3959
 2761SOL     OW19918   1.320   3.932   1.337 -0.2824 -0.3075 -0.5112
 2761SOL    HW119919   1.332   3.838   1.353  0.4217 -0.1893 -0.3663
 2761SOL    HW219920   1.376   3.969   1.405 -1.4186 -1.7416  1.2026
 2762SOL     OW19921   1.012   3.407   2.977 -0.7877 -0.2507 -0.0370
 2762SOL    HW119922   0.990   3.494   2.944 -1.6120 -0.0379  1.1221
 2762SOL    HW219923   1.019   3.352   2.899  1.5696 -0.7316  0.5060
 2763SOL     OW19924   4.619   2.700   3.825 -0.2426  0.9941  0.1390
 2763SOL    HW119925   4.591   2.612   3.800  0.0588  0.7830  0.5547
 2763SOL    HW219926   4.666   2.711   3.742 -1.5241  0.2603 -0.6860
 2764SOL     OW19927   1.328   3.902   8.075  0.3093  0.5056 -0.6064
 2764SOL    HW119928   1.252   3.945   8.037 -0.0784 -1.1775 -1.7553
 2764SOL    HW219929   1.348   3.934   8.163  0.5283 -0.6110 -0.2484
 2765SOL     OW19930   2.914   2.706   5.211 -0.0125  0.0443  0.3519
 2765SOL    HW119931   2.986   2.707   5.149  0.7320  2.5985  1.2421
 2765SOL    HW219932   2.850   2.647   5.173 -1.1662  2.3631 -1.3400
 2766SOL     OW19933   4.380   0.367   5.032  0.1449  0.2111 -0.1301
 2766SOL    HW119934   4.445   0.349   5.100  1.1589 -0.6283 -1.3137
 2766SOL    HW219935   4.311   0.386   5.096  0.8498  1.9401  0.1175
 2767SOL     OW19936   0.687   1.600   3.252  0.2333  0.1761  0.5942
 2767SOL    HW119937   0.783   1.601   3.253  0.2010  2.4363  1.0316
 2767SOL    HW219938   0.667   1.661   3.180  0.6961 -0.1648  0.1758
 2768SOL     OW19939   0.725   4.615   8.663  0.3948  0.5197 -0.3596
 2768SOL    HW119940   0.704   4.704   8.693 -0.1938  1.1214 -2.5919
 2768SOL    HW219941   0.723   4.629   8.568  0.1866  0.7716 -0.3161
 2769SOL     OW19942   2.153   3.368   9.452  0.0471 -0.0023  0.3464
 2769SOL    HW119943   2.145   3.376   9.357 -0.2682  2.1127  0.5469
 2769SOL    HW219944   2.170   3.456   9.486  0.6770  0.5655 -1.4706
 2770SOL     OW19945   3.633   4.110   4.171 -0.4509 -0.3255  0.4442
 2770SOL    HW119946   3.604   4.168   4.242 -0.4320  2.2425 -1.6372
 2770SOL    HW219947   3.723   4.103   4.203 -0.9405 -0.3570  1.8377
 2771SOL     OW19948   3.289   3.780  12.094  0.0079 -0.2951  0.0899
 2771SOL    HW119949   3.373   3.739  12.113 -0.2147 -0.8977 -0.2392
 2771SOL    HW219950   3.225   3.717  12.125  0.3126 -0.5637  0.1654
 2772SOL     OW19951   0.481   0.602   4.684  1.0424  0.3965 -0.9051
 2772SOL    HW119952   0.469   0.604   4.779  0.8484  0.4593 -0.9324
 2772SOL    HW219953   0.573   0.575   4.692  0.8345  0.5540  1.9040
 2773SOL     OW19954   3.900   1.084   5.773  0.1269  0.1253 -0.0041
 2773SOL    HW119955   3.981   1.060   5.818  0.3018  1.1020  0.2016
 2773SOL    HW219956   3.836   1.024   5.811 -0.4682  0.3605 -0.6353
 2774SOL     OW19957   1.798   3.445   6.656 -0.5485 -0.2124  0.3613
 2774SOL    HW119958   1.748   3.526   6.647  2.3089  1.4849 -0.4289
 2774SOL    HW219959   1.848   3.463   6.736 -0.0320  3.3054 -0.7683
 2775SOL     OW19960   3.968   2.737   7.169  1.0499  0.5090 -0.1627
 2775SOL    HW119961   4.009   2.767   7.088  0.0126 -0.1670 -0.9254
 2775SOL    HW219962   3.878   2.736   7.136  0.3738 -0.0553  1.7101
 2776SOL     OW19963   3.078   3.825  15.982  0.3407 -0.1313 -0.1752
 2776SOL    HW119964   3.153   3.774  15.952  1.2662  0.2120  1.5696
 2776SOL    HW219965   3.075   3.893  15.914 -2.3105 -0.6280 -0.5541
 2777SOL     OW19966   4.558   3.824   0.673  0.5558  0.3792 -0.2784
 2777SOL    HW119967   4.550   3.862   0.585  0.1437  1.2407  0.1300
 2777SOL    HW219968   4.488   3.759   0.675 -1.0926  2.1363 -0.8621
 2778SOL     OW19969   1.530   1.230  15.021  0.3698 -0.1722 -0.4524
 2778SOL    HW119970   1.483   1.178  15.087  0.4645  1.1290  0.6446
 2778SOL    HW219971   1.457   1.253  14.963  1.1788 -1.4312 -1.9737
 2779SOL     OW19972   2.145   3.775   4.718  0.4847  0.1943  0.4768
 2779SOL    HW119973   2.136   3.772   4.622 -2.2666  3.6743  0.6122
 2779SOL    HW219974   2.166   3.683   4.733 -1.2236 -0.2420  0.2370
 2780SOL     OW19975   4.650   4.097   1.984  0.1379  0.7892 -0.4935
 2780SOL    HW119976   4.730   4.048   2.005  0.8210  1.6709 -1.0678
 2780SOL    HW219977   4.618   4.109   2.073  2.5452  1.9657  0.2061
 2781SOL     OW19978   3.246   3.189   6.607  0.2381 -0.1250 -0.2815
 2781SOL    HW119979   3.206   3.182   6.520  0.9246  1.2698 -0.6985
 2781SOL    HW219980   3.318   3.126   6.598  0.3650  0.0356 -0.3809
 2782SOL     OW19981   1.069   3.198   9.837 -0.0267  0.5695 -0.3456
 2782SOL    HW119982   1.117   3.140   9.779 -0.6814  0.4527 -0.7779
 2782SOL    HW219983   1.126   3.210   9.913 -2.2186  1.7314  1.1498
 2783SOL     OW19984   2.551   2.238   5.757 -0.2820  0.2301  0.9274
 2783SOL    HW119985   2.513   2.166   5.707 -2.3779  1.9797  0.0228
 2783SOL    HW219986   2.497   2.313   5.730 -1.7378 -1.8698 -1.9206
 2784SOL     OW19987   1.537   1.599   2.951 -0.5174  0.2694 -0.3160
 2784SOL    HW119988   1.516   1.588   3.044  1.8580  0.9091  0.3023
 2784SOL    HW219989   1.450   1.578   2.916  0.4716 -0.1836 -2.4724
 2785SOL     OW19990   3.801   3.508   5.063  0.3488 -0.1632  0.2291
 2785SOL    HW119991   3.720   3.459   5.046  1.1048 -1.5337  0.5357
 2785SOL    HW219992   3.845   3.507   4.977  2.8863 -1.4716  1.5322
 2786SOL     OW19993   4.295   2.662   3.548  0.2927 -0.5818  0.2691
 2786SOL    HW119994   4.279   2.627   3.461  2.1023 -2.5041  0.6840
 2786SOL    HW219995   4.288   2.583   3.602  0.4889 -1.2018 -0.6107
 2787SOL     OW19996   0.327   0.176  12.519 -0.2612  0.1483  0.0663
 2787SOL    HW119997   0.242   0.153  12.481  0.6105 -0.8591 -1.2771
 2787SOL    HW219998   0.363   0.090  12.541  1.6344  0.5183 -1.5076
 2788SOL     OW19999   0.275   4.234   6.317  0.1728  0.1851  0.0495
 2788SOL    HW120000   0.305   4.181   6.244  0.7771 -0.8262  1.0387
 2788SOL    HW220001   0.352   4.237   6.374  1.3158 -1.9215 -1.3855
 2789SOL     OW20002   3.629   1.591   8.773  0.1064  0.4885  0.5395
 2789SOL    HW120003   3.568   1.642   8.826 -1.9156 -0.4339 -0.9136
 2789SOL    HW220004   3.579   1.575   8.693  0.6223 -0.9302  0.4978
 2790SOL     OW20005   3.029   4.153  14.411  0.1379 -0.3569  1.0823
 2790SOL    HW120006   3.114   4.138  14.453  1.2531 -0.5476 -1.2467
 2790SOL    HW220007   2.972   4.171  14.486 -0.9057 -0.6065  0.3490
 2791SOL     OW20008   3.778   3.840  16.570 -0.6911  0.1368  0.8518
 2791SOL    HW120009   3.829   3.920  16.553  0.2977 -1.0686 -1.9401
 2791SOL    HW220010   3.770   3.816  16.477 -0.8015  3.2673  0.0393
 2792SOL     OW20011   3.559   0.876  13.481  0.1396 -0.0411  0.0670
 2792SOL    HW120012   3.509   0.804  13.442  0.0283 -0.8062  1.6329
 2792SOL    HW220013   3.650   0.849  13.464  0.8741  0.6560  2.8500
 2793SOL     OW20014   0.015   1.107   8.388 -0.1024  0.0945 -0.0005
 2793SOL    HW120015   4.659   1.082   8.391 -0.8017  2.4927 -1.5915
 2793SOL    HW220016   0.036   1.128   8.479  0.3068  1.0361 -0.3104
 2794SOL     OW20017   4.376   0.738   5.925 -0.3463  0.1900  0.4899
 2794SOL    HW120018   4.449   0.789   5.960  0.9275 -1.9762  0.9719
 2794SOL    HW220019   4.332   0.816   5.891 -0.8519  1.0254  3.0930
 2795SOL     OW20020   2.335   1.470   7.007  0.1958  0.1113 -0.0294
 2795SOL    HW120021   2.293   1.548   6.970 -1.9980 -1.3676 -0.6226
 2795SOL    HW220022   2.272   1.433   7.069  1.0244 -1.8729 -0.3639
 2796SOL     OW20023   2.299   3.501   7.151  0.2247  0.2527 -0.3419
 2796SOL    HW120024   2.335   3.450   7.223  1.8591  2.2309  0.2391
 2796SOL    HW220025   2.283   3.584   7.197  0.3786  1.2149 -2.0187
 2797SOL     OW20026   1.449   0.125  15.040  1.3821 -0.1499  0.5835
 2797SOL    HW120027   1.461   0.032  15.063 -0.9933 -0.5366  0.2674
 2797SOL    HW220028   1.361   0.112  15.005  0.8225 -2.5185  2.8274
 2798SOL     OW20029   0.483   0.116   7.425 -0.1951 -0.0762 -0.4576
 2798SOL    HW120030   0.512   0.156   7.507 -2.1944  1.5746 -0.5613
 2798SOL    HW220031   0.568   0.096   7.387 -0.6688 -1.9491 -0.5599
 2799SOL     OW20032   0.381   1.663   4.806 -0.2504 -0.6504 -0.5951
 2799SOL    HW120033   0.354   1.572   4.792 -0.8798 -0.6996  0.8848
 2799SOL    HW220034   0.298   1.711   4.806  0.4359  0.5154  0.3021
 2800SOL     OW20035   3.310   3.179   8.880  0.6251 -0.1617 -0.4122
 2800SOL    HW120036   3.312   3.097   8.831 -1.0716 -0.2159 -0.3826
 2800SOL    HW220037   3.216   3.195   8.877  1.0473  2.4561  0.2368
 2801SOL     OW20038   1.086   2.507   1.482 -0.5945 -0.1953 -0.1865
 2801SOL    HW120039   1.175   2.521   1.512 -0.2563  2.4126 -2.3634
 2801SOL    HW220040   1.069   2.601   1.471 -2.0675 -0.5390 -0.8710
 2802SOL     OW20041   0.618   2.181   9.006  0.0395  0.3835  0.1879
 2802SOL    HW120042   0.702   2.179   9.051 -0.4190 -0.2783  0.9960
 2802SOL    HW220043   0.561   2.187   9.082  0.6255 -2.8869  0.8499
 2803SOL     OW20044   1.674   2.138   9.634 -0.7132 -0.2684 -0.2445
 2803SOL    HW120045   1.687   2.043   9.628 -2.8581 -0.7343  2.6863
 2803SOL    HW220046   1.733   2.170   9.702  1.6632  0.3784 -2.5963
 2804SOL     OW20047   3.565   3.517   7.596  0.0645  0.2681  0.2528
 2804SOL    HW120048   3.569   3.570   7.675 -2.7728  0.8969 -0.0340
 2804SOL    HW220049   3.622   3.442   7.613 -4.0078 -2.6488  0.8840
 2805SOL     OW20050   1.466   0.362   5.163 -0.2232 -0.0961 -0.2786
 2805SOL    HW120051   1.405   0.418   5.210  0.2914 -1.1838  1.7362
 2805SOL    HW220052   1.542   0.419   5.151  0.1243 -0.7822 -1.3331
 2806SOL     OW20053   0.066   1.056  15.515  0.6738  0.0275  0.0245
 2806SOL    HW120054   0.151   1.021  15.488  0.7112  0.7711 -0.8081
 2806SOL    HW220055   0.023   1.074  15.431  1.4832  1.1720 -0.1462
 2807SOL     OW20056   3.877   2.381   8.209 -0.2456 -0.2356  0.4029
 2807SOL    HW120057   3.909   2.291   8.216 -0.4733 -0.2569  1.1583
 2807SOL    HW220058   3.789   2.359   8.177 -0.2509 -0.3649  0.5063
 2808SOL     OW20059   4.462   0.085   4.591  0.3178  0.3668  0.4739
 2808SOL    HW120060   4.433   0.176   4.581  1.8705  0.7783 -0.2776
 2808SOL    HW220061   4.398   0.035   4.540 -1.2470  0.2560  2.5609
 2809SOL     OW20062   0.725   1.669   2.546 -0.1650 -0.6183  0.7144
 2809SOL    HW120063   0.815   1.646   2.567 -0.5649  1.9542  5.2789
 2809SOL    HW220064   0.675   1.602   2.592  0.9175 -3.2855 -1.9754
 2810SOL     OW20065   0.324   0.279   5.715 -0.1331  0.4159 -0.8228
 2810SOL    HW120066   0.351   0.370   5.729  0.7148 -0.1932  1.5033
 2810SOL    HW220067   0.307   0.256   5.806  0.4521  0.7184 -0.6360
 2811SOL     OW20068   0.048   4.442   1.456  0.6804 -0.0833 -0.2706
 2811SOL    HW120069   0.004   4.424   1.373  1.3084  1.9577 -1.0466
 2811SOL    HW220070   0.048   4.538   1.456  0.3943 -0.0882 -1.5748
 2812SOL     OW20071   2.613   1.689  12.096 -0.3835  0.4523  0.1647
 2812SOL    HW120072   2.602   1.710  12.189 -0.7127  3.8060 -0.6515
 2812SOL    HW220073   2.695   1.639  12.101  0.0233  1.2510  1.4338
 2813SOL     OW20074   1.975   0.527   2.139 -0.2103 -0.0752  0.0019
 2813SOL    HW120075   1.984   0.607   2.191 -0.2753 -0.5366  0.7271
 2813SOL    HW220076   1.991   0.562   2.052  0.1900  0.3726  0.2541
 2814SOL     OW20077   3.361   2.336   8.707 -0.3857 -0.3567  0.1487
 2814SOL    HW120078   3.369   2.252   8.753  0.6285  1.1134  2.6668
 2814SOL    HW220079   3.309   2.305   8.632 -2.0933  0.5779  0.9434
 2815SOL     OW20080   2.815   4.067   8.906  0.5142  0.4829 -0.2714
 2815SOL    HW120081   2.792   3.978   8.934  0.3208  0.5215 -0.3091
 2815SOL    HW220082   2.833   4.056   8.813  0.6212  2.0786 -0.4274
 2816SOL     OW20083   4.057   0.916   8.178  0.4266 -0.0726 -0.5392
 2816SOL    HW120084   4.000   0.843   8.200  0.2524 -0.0154 -0.8121
 2816SOL    HW220085   4.137   0.880   8.217  0.2164  0.4940  0.4370
 2817SOL     OW20086   3.813   4.468   9.003  0.4674  0.3000 -0.2515
 2817SOL    HW120087   3.796   4.415   9.081  0.2460  1.1912  0.3185
 2817SOL    HW220088   3.894   4.426   8.975  2.2387  2.2907  1.9664
 2818SOL     OW20089   3.235   2.589   1.492  0.3811  0.2159 -0.3535
 2818SOL    HW120090   3.288   2.632   1.558 -0.1656  1.3790 -0.6569
 2818SOL    HW220091   3.306   2.556   1.438 -1.3425 -1.3059 -1.7071
 2819SOL     OW20092   2.239   3.806   3.930 -0.2565 -0.0321  0.4036
 2819SOL    HW120093   2.271   3.890   3.962 -1.6448  1.3094 -1.7016
 2819SOL    HW220094   2.170   3.837   3.871  0.1867 -0.9756 -0.6166
 2820SOL     OW20095   0.448   2.070   6.503  0.4074  0.4448 -0.2938
 2820SOL    HW120096   0.499   2.150   6.492  0.0892  0.5751 -0.8150
 2820SOL    HW220097   0.378   2.094   6.563  1.5847  2.4377  0.2599
 2821SOL     OW20098   2.239   3.873  13.098  0.2131 -0.6560  0.0563
 2821SOL    HW120099   2.203   3.800  13.046 -1.5184 -0.8807  1.5709
 2821SOL    HW220100   2.197   3.951  13.061  0.3386  0.1825  1.6891
 2822SOL     OW20101   2.805   2.930   6.651  0.2733  0.5364  0.3983
 2822SOL    HW120102   2.861   2.858   6.622 -0.8991  1.0995 -3.1839
 2822SOL    HW220103   2.803   2.906   6.744 -2.2954 -1.9011 -0.2739
 2823SOL     OW20104   3.510   2.765  11.896 -0.7294 -0.2261 -0.0197
 2823SOL    HW120105   3.418   2.760  11.920  0.0237 -0.8697  2.6957
 2823SOL    HW220106   3.548   2.824  11.962  0.3664 -0.3129 -0.5599
 2824SOL     OW20107   1.086   3.505  16.053  0.6510  0.1104  0.0421
 2824SOL    HW120108   1.168   3.505  16.103  0.8591  0.4220 -0.3071
 2824SOL    HW220109   1.029   3.445  16.101  1.5134  0.3717  1.3963
 2825SOL     OW20110   1.484   0.488  13.361  0.2268  0.4218 -0.0220
 2825SOL    HW120111   1.408   0.492  13.303 -1.1547  0.1850  1.7827
 2825SOL    HW220112   1.479   0.560  13.423  1.8923 -0.5040  1.1715
 2826SOL     OW20113   2.487   2.472  16.751 -0.0407 -0.2530 -0.0298
 2826SOL    HW120114   2.451   2.401  16.804 -1.4918  1.1684  0.8726
 2826SOL    HW220115   2.404   2.519  16.742  0.8111  0.7832 -2.5666
 2827SOL     OW20116   4.022   0.096  10.232  0.3281  0.7279  0.3318
 2827SOL    HW120117   3.938   0.060  10.203  0.9442 -0.2238 -0.2728
 2827SOL    HW220118   4.010   0.075  10.325 -2.6302 -1.6185 -0.6029
 2828SOL     OW20119   1.496   0.778   7.163 -0.5201 -0.3150 -0.0913
 2828SOL    HW120120   1.420   0.813   7.209  0.9647  0.2398  1.9901
 2828SOL    HW220121   1.494   0.824   7.079 -0.7784  1.2566  0.7832
 2829SOL     OW20122   0.209   4.020   1.922  0.3397  0.0820  0.1925
 2829SOL    HW120123   0.179   3.979   1.841  0.9799  0.4627 -0.2406
 2829SOL    HW220124   0.294   4.060   1.902  0.2747 -0.5000 -1.2396
 2830SOL     OW20125   1.744   0.442  15.750 -0.2087  0.7637 -0.6008
 2830SOL    HW120126   1.738   0.525  15.703  0.7578  1.0625 -0.1962
 2830SOL    HW220127   1.659   0.401  15.733  0.1035 -0.6206  1.2356
 2831SOL     OW20128   4.360   2.465  15.952  0.1545 -0.4913  0.5126
 2831SOL    HW120129   4.332   2.553  15.929 -0.1211 -0.7387 -0.0982
 2831SOL    HW220130   4.278   2.418  15.934  0.7322 -1.0762 -0.5730
 2832SOL     OW20131   2.385   1.299   5.712 -0.4748  0.1847  0.1095
 2832SOL    HW120132   2.438   1.370   5.748 -3.1437  2.4436 -0.3844
 2832SOL    HW220133   2.297   1.323   5.739 -2.1044 -2.8349 -2.4757
 2833SOL     OW20134   3.800   1.340   6.806 -0.0871 -0.3895  0.3577
 2833SOL    HW120135   3.768   1.293   6.883  1.7901 -2.6018 -0.2163
 2833SOL    HW220136   3.738   1.304   6.742 -0.0555 -1.2532  0.8037
 2834SOL     OW20137   2.588   4.176   0.264 -0.1449  0.3332  0.2994
 2834SOL    HW120138   2.508   4.159   0.314 -0.9072  0.9037 -0.7213
 2834SOL    HW220139   2.645   4.127   0.324 -0.6125  1.8735  1.9976
 2835SOL     OW20140   3.330   2.246   3.914 -0.1556  0.0367 -0.1845
 2835SOL    HW120141   3.311   2.168   3.862 -0.0880 -1.6552  2.3417
 2835SOL    HW220142   3.423   2.263   3.899  0.1161  0.6319  2.0928
 2836SOL     OW20143   0.857   0.781   6.524  0.2851 -0.2936  0.5028
 2836SOL    HW120144   0.896   0.737   6.599  0.1953  0.4276  0.9706
 2836SOL    HW220145   0.885   0.871   6.544 -0.6801  0.1857 -0.2840
 2837SOL     OW20146   2.480   3.405   2.210  0.0190  0.2616 -0.5033
 2837SOL    HW120147   2.495   3.426   2.302 -0.6606 -1.2481 -0.0417
 2837SOL    HW220148   2.481   3.491   2.168 -0.9518 -0.1020 -1.2799
 2838SOL     OW20149   3.265   4.080   6.004 -0.1932  0.1488  0.7075
 2838SOL    HW120150   3.228   4.026   6.074  1.6543 -2.3569 -0.2743
 2838SOL    HW220151   3.180   4.123   5.989  0.1881  0.6502  0.0036
 2839SOL     OW20152   3.641   3.040   5.193  0.0589 -0.6640 -0.0408
 2839SOL    HW120153   3.719   3.040   5.137  0.2059  0.1541  0.1650
 2839SOL    HW220154   3.676   3.092   5.266  1.3122 -1.8089  0.1790
 2840SOL     OW20155   0.945   1.008   8.467  0.0393 -0.6232 -0.3063
 2840SOL    HW120156   0.985   1.034   8.550 -0.1391 -0.7150 -0.1916
 2840SOL    HW220157   1.017   1.046   8.417  0.5597  1.0576  1.7185
 2841SOL     OW20158   3.853   0.965   3.017  0.0828  0.2611  0.0182
 2841SOL    HW120159   3.898   1.023   3.079 -0.1669  0.6322 -0.1496
 2841SOL    HW220160   3.762   0.972   3.047  0.2262  2.2004 -0.0279
 2842SOL     OW20161   4.183   2.021   5.410 -0.0932  0.1286  0.0879
 2842SOL    HW120162   4.248   2.089   5.393  0.3910 -0.6835 -1.3240
 2842SOL    HW220163   4.153   2.060   5.492 -1.6568 -2.3210  0.6788
 2843SOL     OW20164   4.164   3.827  10.417  0.0510 -0.1387 -0.2486
 2843SOL    HW120165   4.201   3.793  10.336 -3.0131 -0.5255 -1.4535
 2843SOL    HW220166   4.222   3.797  10.487 -0.2105  1.9322  0.8644
 2844SOL     OW20167   2.153   0.089   8.133  0.2580 -0.5337 -0.2289
 2844SOL    HW120168   2.130   0.128   8.049 -1.3655 -0.3464  0.2978
 2844SOL    HW220169   2.247   0.099   8.143  0.3033 -0.6531 -0.5614
 2845SOL     OW20170   2.825   4.277   7.900 -0.0102  0.4334 -0.1488
 2845SOL    HW120171   2.818   4.367   7.931  0.2703  0.9920 -1.7256
 2845SOL    HW220172   2.918   4.258   7.887 -0.3113 -0.4285 -0.9858
 2846SOL     OW20173   3.925   3.445   5.409 -0.0536 -0.1233  0.5373
 2846SOL    HW120174   3.859   3.428   5.476 -0.4247  2.0731  0.7080
 2846SOL    HW220175   3.897   3.373   5.353  1.4508  1.0200 -1.7182
 2847SOL     OW20176   0.215   4.575  14.794 -0.1922  0.5167  0.1971
 2847SOL    HW120177   0.185   4.666  14.791  1.0047  0.9786  2.5378
 2847SOL    HW220178   0.303   4.571  14.757  0.8861 -0.4142  2.9192
 2848SOL     OW20179   3.056   4.555   5.926 -0.0075 -0.2926  0.1190
 2848SOL    HW120180   3.010   4.637   5.909  0.0197 -0.3560 -0.2798
 2848SOL    HW220181   3.085   4.523   5.840  0.3819  2.2563 -0.6912
 2849SOL     OW20182   4.286   1.119   8.802 -0.2110  0.2890 -0.4970
 2849SOL    HW120183   4.282   1.120   8.898 -0.0256 -0.0000 -0.4859
 2849SOL    HW220184   4.198   1.101   8.770 -1.2541  2.0109  1.3591
 2850SOL     OW20185   2.401   3.314  11.232 -0.2030  0.6977 -0.1919
 2850SOL    HW120186   2.341   3.368  11.180 -0.9434  0.0550 -0.0149
 2850SOL    HW220187   2.397   3.353  11.319 -0.5143 -0.4656  0.3127
 2851SOL     OW20188   4.647   1.424   7.969  0.1138 -0.0528  0.3423
 2851SOL    HW120189   4.645   1.494   8.034 -1.8435 -1.0752  1.3970
 2851SOL    HW220190   4.649   1.343   8.021  1.5382  0.3209  0.8763
 2852SOL     OW20191   2.387   1.537   9.517  0.2476  0.0383  0.4646
 2852SOL    HW120192   2.454   1.509   9.454 -1.2235 -1.5711 -0.3590
 2852SOL    HW220193   2.330   1.591   9.462  0.0609 -0.9283 -0.2882
 2853SOL     OW20194   0.718   4.332  14.218  0.1053  0.1947 -0.0825
 2853SOL    HW120195   0.757   4.416  14.240  0.0354 -0.0491  0.9910
 2853SOL    HW220196   0.663   4.355  14.143 -1.3712  2.1569  1.5932
 2854SOL     OW20197   0.317   4.452   4.769  0.3331  0.5561 -0.7793
 2854SOL    HW120198   0.313   4.546   4.787  0.0317  0.4193 -0.1072
 2854SOL    HW220199   0.225   4.433   4.749  0.3684 -1.3411  0.8738
 2855SOL     OW20200   3.839   4.123   8.196  0.1770 -0.2170 -0.3251
 2855SOL    HW120201   3.794   4.039   8.186 -0.6317  0.5006 -2.5843
 2855SOL    HW220202   3.771   4.189   8.201 -1.0169 -1.5644  1.4717
 2856SOL     OW20203   3.192   1.911   6.614  0.0784 -0.6174  0.5692
 2856SOL    HW120204   3.197   1.986   6.555  0.2114 -0.0445  1.3066
 2856SOL    HW220205   3.197   1.834   6.557  1.4360  1.1321 -1.6268
 2857SOL     OW20206   4.261   1.524   1.767  0.8254 -0.0528 -0.1783
 2857SOL    HW120207   4.355   1.532   1.782  0.8440  1.1506 -0.9661
 2857SOL    HW220208   4.231   1.499   1.855 -3.2995  0.6466 -1.4114
 2858SOL     OW20209   2.115   1.316  10.187  0.5155  0.2648 -0.4299
 2858SOL    HW120210   2.189   1.358  10.232  0.3573 -0.0563  0.1249
 2858SOL    HW220211   2.146   1.316  10.096 -0.8768 -1.2931 -0.8977
 2859SOL     OW20212   1.471   4.338   4.302 -0.3595 -0.4951  0.0601
 2859SOL    HW120213   1.522   4.414   4.330 -1.8450 -0.1938  1.9394
 2859SOL    HW220214   1.538   4.311   4.238  0.2530  0.5692  0.2517
 2860SOL     OW20215   1.028   0.342   7.850  0.1826 -0.1754 -0.4807
 2860SOL    HW120216   0.982   0.338   7.766  1.6778 -1.0112 -1.2610
 2860SOL    HW220217   0.957   0.328   7.912  1.2991 -0.5958  0.6939
 2861SOL     OW20218   1.637   2.487   9.719 -0.0871 -0.2195  0.7981
 2861SOL    HW120219   1.667   2.490   9.628 -0.2965  0.4964  0.7515
 2861SOL    HW220220   1.675   2.406   9.753  1.7658  1.1147  1.9195
 2862SOL     OW20221   3.992   2.924   5.341 -0.4623  0.1773 -0.8929
 2862SOL    HW120222   3.964   2.866   5.412  0.4670  1.6212  0.6314
 2862SOL    HW220223   4.048   2.864   5.291 -0.6694 -0.1518 -0.7328
 2863SOL     OW20224   3.475   0.325   5.411  0.4578 -0.4515  0.7404
 2863SOL    HW120225   3.429   0.407   5.394 -2.6587 -1.8916  2.3013
 2863SOL    HW220226   3.411   0.282   5.467  0.9358 -1.0881  0.7940
 2864SOL     OW20227   2.576   3.940   2.931  0.2457  0.1940 -0.3839
 2864SOL    HW120228   2.505   3.908   2.986 -0.4672 -0.1512 -1.4928
 2864SOL    HW220229   2.650   3.961   2.988  1.0479  1.7391 -2.0039
 2865SOL     OW20230   0.341   1.417  11.704  0.0690 -0.1695 -0.5813
 2865SOL    HW120231   0.432   1.397  11.684  0.4558  0.3227  0.6987
 2865SOL    HW220232   0.337   1.414  11.799  1.5156  2.4334 -0.4397
 2866SOL     OW20233   1.459   3.652   3.839 -0.1037 -0.1575 -0.4598
 2866SOL    HW120234   1.479   3.572   3.888  2.1294 -0.0852 -1.2664
 2866SOL    HW220235   1.532   3.665   3.778 -0.6668 -1.4629 -1.4104
 2867SOL     OW20236   0.914   4.073   7.603 -0.3749  0.1053  0.0854
 2867SOL    HW120237   0.940   4.026   7.682 -1.1500  0.3711  0.5058
 2867SOL    HW220238   0.858   4.144   7.635  1.0859  1.3289 -0.1098
 2868SOL     OW20239   3.624   3.122   4.224 -0.3857 -0.5249 -0.1577
 2868SOL    HW120240   3.715   3.091   4.224 -0.4292 -0.6612  1.0581
 2868SOL    HW220241   3.580   3.042   4.252  1.4440 -0.9512  1.4903
 2869SOL     OW20242   3.521   3.722  12.920  0.5027  0.5232 -0.2513
 2869SOL    HW120243   3.524   3.750  13.011  2.4338 -1.3971  0.2888
 2869SOL    HW220244   3.443   3.666  12.917 -0.4020  1.7477  0.2980
 2870SOL     OW20245   0.512   2.586   9.019  0.1195 -0.3312  0.3045
 2870SOL    HW120246   0.469   2.586   8.934  0.6948 -0.9240  0.0071
 2870SOL    HW220247   0.602   2.587   8.986 -0.1513 -0.4458 -0.4293
 2871SOL     OW20248   1.087   3.224   7.421  0.5408  0.1088  0.1772
 2871SOL    HW120249   1.096   3.284   7.495  2.2455 -1.0226  0.9003
 2871SOL    HW220250   1.014   3.265   7.375 -0.6106 -3.7051 -1.3952
 2872SOL     OW20251   0.994   2.745   7.939 -0.5521 -0.3406  0.1077
 2872SOL    HW120252   0.945   2.689   7.878  0.1699  0.9830 -1.6998
 2872SOL    HW220253   1.040   2.810   7.885  0.5251  0.5183  2.0542
 2873SOL     OW20254   3.398   1.648   8.354 -0.3275  0.1564 -0.0045
 2873SOL    HW120255   3.320   1.596   8.369 -0.4305  0.3119 -0.0021
 2873SOL    HW220256   3.467   1.592   8.390 -0.5012 -0.0133  0.0622
 2874SOL     OW20257   1.538   3.758   1.914 -0.2908 -0.1726  0.6387
 2874SOL    HW120258   1.621   3.782   1.874 -0.0407  1.2428  2.0072
 2874SOL    HW220259   1.574   3.704   1.984  0.1768 -1.3621 -0.5242
 2875SOL     OW20260   2.796   1.644   2.466  0.1433  0.2408  0.3871
 2875SOL    HW120261   2.719   1.701   2.469  0.1759  0.1708  2.7964
 2875SOL    HW220262   2.873   1.700   2.472 -0.2473  0.7468  0.6535
 2876SOL     OW20263   2.637   2.073  14.350  0.1709  0.0646 -0.2713
 2876SOL    HW120264   2.611   2.103  14.437 -0.9565 -3.0925  0.4575
 2876SOL    HW220265   2.569   2.126  14.308  1.2717  1.3306 -0.4768
 2877SOL     OW20266   1.786   0.414  13.081 -0.2547 -0.1202  0.1273
 2877SOL    HW120267   1.875   0.440  13.057 -1.0165  2.5873  0.2245
 2877SOL    HW220268   1.770   0.463  13.162  1.7056 -0.5613  0.7909
 2878SOL     OW20269   4.588   0.461   4.568 -0.5174 -0.5617  0.1354
 2878SOL    HW120270   4.588   0.436   4.660  1.5104 -1.1366 -0.0235
 2878SOL    HW220271   4.631   0.546   4.581 -0.3122 -0.5453 -0.6223
 2879SOL     OW20272   1.844   1.389   8.047  0.5310  0.3602 -0.3163
 2879SOL    HW120273   1.897   1.314   8.075  1.9004  0.3175 -3.0130
 2879SOL    HW220274   1.839   1.378   7.952 -0.7649  0.5421 -0.2714
 2880SOL     OW20275   3.560   4.069  17.275  0.5012  0.1242 -0.2774
 2880SOL    HW120276   3.477   4.099  17.237 -0.8796 -0.7878  1.9884
 2880SOL    HW220277   3.572   4.106  17.363  0.8309  2.3799 -1.2831
 2881SOL     OW20278   1.650   0.730   5.863 -0.1862  0.5006  0.0977
 2881SOL    HW120279   1.717   0.674   5.825 -0.8568  0.3465 -0.8754
 2881SOL    HW220280   1.701   0.801   5.902  0.3306  0.2727 -0.1655
 2882SOL     OW20281   0.749   3.536   6.068 -0.7681 -0.0970  0.4992
 2882SOL    HW120282   0.656   3.536   6.091 -0.5783  0.2273  1.2481
 2882SOL    HW220283   0.785   3.500   6.149 -0.5042 -0.7917  0.0766
 2883SOL     OW20284   2.176   3.712   4.215 -0.4285  0.3216 -0.0499
 2883SOL    HW120285   2.104   3.765   4.182 -2.3212 -1.1149  1.8572
 2883SOL    HW220286   2.231   3.715   4.136 -0.6628 -1.5209 -0.2787
 2884SOL     OW20287   2.429   4.545   2.371 -0.3137 -0.4874 -0.7970
 2884SOL    HW120288   2.366   4.474   2.388 -2.1877  1.0461 -1.4129
 2884SOL    HW220289   2.376   4.624   2.375 -0.6097 -0.8105  1.8707
 2885SOL     OW20290   1.674   1.902   9.113 -0.0316 -0.1067 -0.0231
 2885SOL    HW120291   1.767   1.882   9.123 -0.5440 -2.4794 -0.0452
 2885SOL    HW220292   1.657   1.860   9.029  0.7956 -0.6061  0.0559
 2886SOL     OW20293   1.644   3.563  12.616  0.3510  0.1950  0.3038
 2886SOL    HW120294   1.659   3.654  12.641 -1.2755  0.2651  1.0111
 2886SOL    HW220295   1.667   3.560  12.523 -3.1472  2.9631 -0.6373
 2887SOL     OW20296   0.953   3.236   1.805 -0.2148  0.0972 -0.0027
 2887SOL    HW120297   0.993   3.257   1.889 -0.9016 -0.9780  0.5934
 2887SOL    HW220298   0.860   3.253   1.817 -0.1773 -0.4875  1.1532
 2888SOL     OW20299   0.759   0.876  14.657 -0.2557 -0.9795 -0.2826
 2888SOL    HW120300   0.790   0.870  14.567 -3.1967  1.3962 -1.4445
 2888SOL    HW220301   0.754   0.786  14.687  1.5305 -0.4262  1.7295
 2889SOL     OW20302   2.797   1.264   6.107  0.0374 -0.0675  0.5925
 2889SOL    HW120303   2.780   1.358   6.100  0.8055  0.0899  0.8143
 2889SOL    HW220304   2.878   1.269   6.057  0.1599 -0.4598  0.7489
 2890SOL     OW20305   1.491   4.666   0.524  0.0430 -0.5574 -0.0187
 2890SOL    HW120306   1.457   4.608   0.591  0.8611 -0.4501  0.4827
 2890SOL    HW220307   1.550   4.610   0.473 -1.5282 -3.0005  0.8717
 2891SOL     OW20308   1.491   2.501   5.989 -0.7814  0.1106 -0.1831
 2891SOL    HW120309   1.583   2.485   6.009 -1.1832 -0.8399  0.9585
 2891SOL    HW220310   1.504   2.545   5.906 -0.0911 -0.3452 -0.3095
 2892SOL     OW20311   0.861   2.126   7.488  0.0617 -0.1457 -0.1725
 2892SOL    HW120312   0.773   2.163   7.485 -1.0372 -2.8602 -1.6039
 2892SOL    HW220313   0.876   2.120   7.582 -0.2288 -0.8893 -0.1688
 2893SOL     OW20314   3.654   4.321   8.212 -0.3939  0.4593 -1.0517
 2893SOL    HW120315   3.701   4.379   8.151  2.2482  0.9081  1.3922
 2893SOL    HW220316   3.564   4.352   8.208 -0.4317  0.5770  0.7656
 2894SOL     OW20317   1.436   1.490   8.934 -0.2984  0.0217 -0.5742
 2894SOL    HW120318   1.528   1.481   8.911 -0.4319 -1.6686 -0.4249
 2894SOL    HW220319   1.444   1.553   9.006  2.1868 -1.0199  0.0666
 2895SOL     OW20320   2.065   3.357   0.301 -0.2276  0.2581  0.2973
 2895SOL    HW120321   2.054   3.372   0.395 -2.9499 -0.4208  0.0957
 2895SOL    HW220322   2.019   3.434   0.267 -0.8299 -0.2019  0.0688
 2896SOL     OW20323   2.034   0.916   7.775  0.3849 -0.5584  0.2718
 2896SOL    HW120324   2.077   0.971   7.841  1.1539  1.7079 -2.1229
 2896SOL    HW220325   2.104   0.879   7.721 -0.3598 -0.2494 -0.8895
 2897SOL     OW20326   2.513   4.030   5.484  0.0200 -0.3239  0.0125
 2897SOL    HW120327   2.480   3.956   5.432 -0.3125 -0.0007 -0.2381
 2897SOL    HW220328   2.438   4.089   5.493 -0.5307 -1.2146  1.2778
 2898SOL     OW20329   0.529   4.588   5.794  0.3652 -0.3841 -0.0926
 2898SOL    HW120330   0.434   4.582   5.803  0.7719 -2.4388  2.5774
 2898SOL    HW220331   0.555   4.496   5.789  1.2608 -0.1483  0.1907
 2899SOL     OW20332   2.639   4.171  17.730 -0.3037 -0.1107 -0.2202
 2899SOL    HW120333   2.624   4.077  17.724  1.1194 -0.2039 -2.5452
 2899SOL    HW220334   2.626   4.184   0.080  2.3414 -1.0619  0.2710
 2900SOL     OW20335   0.539   4.020   4.309 -0.0234  0.5153 -0.3044
 2900SOL    HW120336   0.539   4.101   4.360 -2.0909 -0.7670  1.7088
 2900SOL    HW220337   0.447   4.024   4.283  0.6132 -0.1833 -2.6808
 2901SOL     OW20338   2.188   1.078   4.554 -0.0599  0.6751 -0.5853
 2901SOL    HW120339   2.192   1.174   4.545 -0.2017  0.6004 -1.4086
 2901SOL    HW220340   2.277   1.054   4.581  0.7491  2.4338 -1.6951
 2902SOL     OW20341   0.841   2.721   6.810 -0.3964  0.1117  0.4743
 2902SOL    HW120342   0.901   2.731   6.735  0.1773 -0.1625  0.8974
 2902SOL    HW220343   0.784   2.798   6.811 -0.1711  0.2727  0.7653
 2903SOL     OW20344   4.559   0.069  16.101  0.2449  0.3316  0.2183
 2903SOL    HW120345   4.532   0.121  16.177  2.1132 -0.4011  1.4015
 2903SOL    HW220346   4.586   0.131  16.033  0.1335 -0.4022 -0.4936
 2904SOL     OW20347   4.142   0.689   4.015 -0.6049  0.3484  0.0992
 2904SOL    HW120348   4.206   0.747   3.972 -1.9717  0.1455 -2.2243
 2904SOL    HW220349   4.094   0.661   3.937 -1.3897 -1.4419  1.2296
 2905SOL     OW20350   0.622   2.646   1.631 -0.0052 -0.6650 -0.1151
 2905SOL    HW120351   0.678   2.569   1.625 -1.2468 -1.5207 -0.6165
 2905SOL    HW220352   0.570   2.614   1.705  2.5819 -2.7980  0.7865
 2906SOL     OW20353   1.613   3.678   2.343 -0.2328 -0.3669  0.1003
 2906SOL    HW120354   1.529   3.632   2.343  0.0685 -0.8865  2.5649
 2906SOL    HW220355   1.584   3.740   2.409  1.2145 -0.1766  0.5628
 2907SOL     OW20356   1.566   2.519   3.090 -0.3610  0.0433 -0.3684
 2907SOL    HW120357   1.650   2.491   3.128 -1.6895 -0.6422  2.0853
 2907SOL    HW220358   1.557   2.448   3.027 -0.3937 -2.1222  2.0737
 2908SOL     OW20359   3.110   4.331   3.595  0.1886  0.7128  0.2432
 2908SOL    HW120360   3.183   4.390   3.612 -0.5464  1.6649  0.0833
 2908SOL    HW220361   3.156   4.260   3.551  0.8869  0.3036  1.6340
 2909SOL     OW20362   0.488   1.771   5.049  0.4896 -0.4006 -0.5538
 2909SOL    HW120363   0.490   1.718   4.969 -3.7258 -0.6944 -0.4396
 2909SOL    HW220364   0.500   1.707   5.120  0.9070  1.6570  1.2131
 2910SOL     OW20365   1.733   2.548   5.818 -0.1583  0.3913 -0.4730
 2910SOL    HW120366   1.730   2.474   5.757 -0.9896 -0.3551  0.4762
 2910SOL    HW220367   1.786   2.510   5.889 -0.1674  1.1189 -0.0830
 2911SOL     OW20368   1.396   4.080   9.945  0.1589 -0.2973 -0.2873
 2911SOL    HW120369   1.312   4.045   9.914  1.2463 -1.6213 -1.7332
 2911SOL    HW220370   1.418   4.149   9.883 -1.3426 -0.3722 -0.9003
 2912SOL     OW20371   1.764   1.307   2.771  0.3482 -0.0205  0.0981
 2912SOL    HW120372   1.697   1.244   2.796 -0.8442  1.3375  0.3035
 2912SOL    HW220373   1.840   1.257   2.803  0.6087 -0.7196 -1.6002
 2913SOL     OW20374   2.441   0.903   7.322  0.3488 -0.3948  0.2928
 2913SOL    HW120375   2.408   0.868   7.239 -1.8987  0.2364  0.9082
 2913SOL    HW220376   2.412   0.994   7.315 -1.0712 -0.8062  0.8364
 2914SOL     OW20377   0.378   2.106   1.980 -0.4339  0.0916 -0.2692
 2914SOL    HW120378   0.351   2.183   2.030 -3.8092 -1.4876  0.3441
 2914SOL    HW220379   0.376   2.147   1.894  0.2013  0.6805  0.0002
 2915SOL     OW20380   1.431   1.241   8.124 -0.1970 -0.3258  0.2489
 2915SOL    HW120381   1.480   1.291   8.189 -1.7774  0.8070  0.5902
 2915SOL    HW220382   1.438   1.289   8.042 -0.8354 -0.3593  0.1721
 2916SOL     OW20383   2.869   3.961   2.972  0.1970 -0.2463  0.0405
 2916SOL    HW120384   2.870   4.002   3.058  0.9160  1.5623 -0.8090
 2916SOL    HW220385   2.875   3.868   2.994  0.7893  0.1826  1.6831
 2917SOL     OW20386   1.663   3.241  14.292  0.2460 -0.6210  0.4116
 2917SOL    HW120387   1.682   3.230  14.198 -0.8657 -1.9301  0.3497
 2917SOL    HW220388   1.614   3.161  14.308 -0.4274  0.3755  3.2085
 2918SOL     OW20389   4.475   2.668   5.069 -0.0417  0.4668 -0.0303
 2918SOL    HW120390   4.441   2.758   5.061 -0.9543  0.1990  0.9016
 2918SOL    HW220391   4.455   2.627   4.984 -1.6446 -0.0639  0.5934
 2919SOL     OW20392   2.989   2.578   6.119 -0.3140  0.2072 -0.3984
 2919SOL    HW120393   3.026   2.600   6.034 -0.4329 -0.9863 -0.7640
 2919SOL    HW220394   2.946   2.658   6.149  0.8334  0.3729  0.7947
 2920SOL     OW20395   2.423   4.531   8.860 -0.2378  0.6180 -0.9136
 2920SOL    HW120396   2.399   4.438   8.858  1.9522  0.0327 -0.0272
 2920SOL    HW220397   2.343   4.569   8.897 -2.5379 -2.9363 -2.2150
 2921SOL     OW20398   3.108   3.642  16.296  0.2661  0.0783 -0.9208
 2921SOL    HW120399   3.031   3.699  16.290 -0.8329 -1.3152  0.0616
 2921SOL    HW220400   3.084   3.574  16.233  1.3566 -0.3548 -0.8536
 2922SOL     OW20401   2.129   0.487   5.616 -0.7249  0.3874 -0.0874
 2922SOL    HW120402   2.049   0.436   5.600  1.2210 -2.1542 -1.5602
 2922SOL    HW220403   2.129   0.478   5.711  0.3084 -0.5796 -0.1884
 2923SOL     OW20404   0.540   4.064   0.737  0.7158 -0.1890 -0.3932
 2923SOL    HW120405   0.616   4.080   0.681  0.9544  0.9474  0.2677
 2923SOL    HW220406   0.588   4.032   0.814  0.3449 -1.3120 -0.6244
 2924SOL     OW20407   2.478   0.928   8.528 -0.5451 -0.3925 -0.1057
 2924SOL    HW120408   2.553   0.984   8.545 -0.6337  0.4439 -2.4987
 2924SOL    HW220409   2.408   0.984   8.562 -1.2113 -1.2623 -0.0348
 2925SOL     OW20410   2.068   4.641   7.676 -0.5398 -0.2621 -0.7949
 2925SOL    HW120411   2.157   4.606   7.674  0.0660  1.3781 -2.4765
 2925SOL    HW220412   2.032   4.554   7.660 -1.1358 -0.2751  0.6581
 2926SOL     OW20413   3.548   4.666   6.638  0.3552  0.5075  0.1227
 2926SOL    HW120414   3.572   4.673   6.546  2.5685 -2.0813  0.5114
 2926SOL    HW220415   3.560   0.021   6.666  0.5726 -0.0322  1.8064
 2927SOL     OW20416   0.836   0.389   6.495  0.4096 -0.1673 -0.6098
 2927SOL    HW120417   0.923   0.395   6.456  1.2834 -0.5444  1.2649
 2927SOL    HW220418   0.844   0.400   6.590  1.6130  0.0286 -0.7315
 2928SOL     OW20419   2.473   1.437  10.988 -0.2174  0.1873  0.6483
 2928SOL    HW120420   2.525   1.499  11.040 -0.8357  0.7200  0.6412
 2928SOL    HW220421   2.517   1.358  11.019 -0.5870 -0.3744 -0.2562
 2929SOL     OW20422   2.673   0.483   0.095 -0.4006 -0.0975 -0.2747
 2929SOL    HW120423   2.586   0.502   0.059 -0.4253 -0.5112 -0.4459
 2929SOL    HW220424   2.683   0.563   0.146 -0.8348  0.0398 -0.3959
 2930SOL     OW20425   0.085   0.538  13.189 -0.1996  0.3216  0.4364
 2930SOL    HW120426   0.157   0.475  13.192  1.1022  1.8182  1.0389
 2930SOL    HW220427   0.074   0.570  13.100  0.2136  0.9391  0.6074
 2931SOL     OW20428   2.985   2.931  10.412 -0.7128  0.1323 -0.2017
 2931SOL    HW120429   2.922   2.950  10.481  0.1943 -1.4937  1.0875
 2931SOL    HW220430   3.023   3.016  10.390  1.7605 -0.4085  1.8818
 2932SOL     OW20431   2.816   2.366   8.504  0.6245  0.7488  0.5148
 2932SOL    HW120432   2.890   2.313   8.531  0.5154 -0.3544 -1.3357
 2932SOL    HW220433   2.756   2.364   8.579 -1.2906  1.6016 -0.9677
 2933SOL     OW20434   1.844   4.066  10.806  1.4456 -0.0373  0.1767
 2933SOL    HW120435   1.772   4.121  10.837 -0.3845 -1.7008 -1.0725
 2933SOL    HW220436   1.801   4.020  10.734 -1.4389  0.5819  1.5185
 2934SOL     OW20437   0.563   3.779   1.023 -0.3243 -0.3673  0.4199
 2934SOL    HW120438   0.629   3.730   1.073  1.3955 -1.1112 -2.5884
 2934SOL    HW220439   0.507   3.799   1.098 -1.3962  0.1888 -0.5204
 2935SOL     OW20440   1.234   0.266   6.997  0.0382 -0.2259 -0.8563
 2935SOL    HW120441   1.249   0.360   6.985  1.4180 -0.3241  0.1564
 2935SOL    HW220442   1.318   0.224   6.980  0.6756  0.1305  1.4248
 2936SOL     OW20443   2.943   2.015   5.547 -0.1272  0.1242 -0.0322
 2936SOL    HW120444   2.953   1.924   5.574 -0.7235 -0.3117 -1.2840
 2936SOL    HW220445   3.005   2.026   5.474  1.5869  0.3656  1.4526
 2937SOL     OW20446   0.223   2.903   6.475  0.8039  0.5778  0.3369
 2937SOL    HW120447   0.146   2.952   6.502  0.7256  0.5192  0.2186
 2937SOL    HW220448   0.290   2.931   6.538 -0.3574 -0.8783  2.2289
 2938SOL     OW20449   3.024   1.171   5.521 -0.0844  0.2941 -0.0522
 2938SOL    HW120450   3.039   1.091   5.571  0.3537 -0.9567 -2.1854
 2938SOL    HW220451   3.110   1.184   5.483  0.0344 -1.2165 -0.2996
 2939SOL     OW20452   0.101   4.111   2.836  0.8436  0.2601 -0.6668
 2939SOL    HW120453   0.027   4.129   2.778  0.8956  1.9397 -0.1947
 2939SOL    HW220454   0.097   4.184   2.898  0.0422 -1.1477  0.9597
 2940SOL     OW20455   2.972   4.389   5.584  0.2909  0.0562  0.2136
 2940SOL    HW120456   2.912   4.376   5.511  0.1642 -0.8315  0.4818
 2940SOL    HW220457   2.945   4.327   5.652 -1.1054  0.2550 -0.1612
 2941SOL     OW20458   2.815   0.034   1.849  0.2203  0.0656 -0.1678
 2941SOL    HW120459   2.810   4.682   1.812  2.4075 -0.6890  1.4079
 2941SOL    HW220460   2.908   0.036   1.868  0.2493  0.7434 -0.3515
 2942SOL     OW20461   4.471   2.988   0.826  0.2171  0.6480 -0.5271
 2942SOL    HW120462   4.447   3.080   0.831 -0.0952  0.4121  2.1546
 2942SOL    HW220463   4.523   2.983   0.906 -0.9783 -1.2784  0.1311
 2943SOL     OW20464   1.931   0.045   8.519  0.2258  0.2088  0.7763
 2943SOL    HW120465   2.011   0.016   8.563 -0.0705 -0.7426  0.6817
 2943SOL    HW220466   1.868   4.713   8.542 -2.1214  1.5851 -1.5855
 2944SOL     OW20467   4.514   4.437   6.348  0.5408 -0.0603  0.0137
 2944SOL    HW120468   4.567   4.486   6.410  1.2645 -1.4454  0.5023
 2944SOL    HW220469   4.582   4.417   6.283 -1.4654  0.1257 -2.1533
 2945SOL     OW20470   2.527   4.096   1.987 -0.3782  0.1327  0.0781
 2945SOL    HW120471   2.439   4.128   1.965 -1.2154 -0.8883  1.9014
 2945SOL    HW220472   2.544   4.168   2.047 -1.7818 -0.2625  0.9591
 2946SOL     OW20473   2.078   1.770  10.841  0.4284  0.4745  0.3301
 2946SOL    HW120474   2.141   1.757  10.912  1.0248 -0.4014 -0.3525
 2946SOL    HW220475   2.039   1.849  10.879 -1.6730 -1.2852  1.8447
 2947SOL     OW20476   1.762   2.224   2.404  0.1041 -0.0326  0.5470
 2947SOL    HW120477   1.691   2.183   2.355 -2.8313  1.2468  3.7724
 2947SOL    HW220478   1.717   2.283   2.465  0.7477  2.0482 -1.0010
 2948SOL     OW20479   0.298   1.230   2.906  0.0136 -0.4064 -0.3463
 2948SOL    HW120480   0.282   1.168   2.977 -0.4754 -1.2257 -1.1667
 2948SOL    HW220481   0.311   1.167   2.834  1.6688 -0.4844  0.0108
 2949SOL     OW20482   2.185   0.889  13.120  0.1171  0.2663  0.4611
 2949SOL    HW120483   2.234   0.828  13.065 -1.5981  0.3471 -1.1847
 2949SOL    HW220484   2.158   0.829  13.190  1.3341  0.9264  1.4839
 2950SOL     OW20485   3.473   3.020   5.484 -0.0919 -0.2109 -0.0791
 2950SOL    HW120486   3.397   2.997   5.538 -0.1595 -3.1568 -1.4555
 2950SOL    HW220487   3.443   3.107   5.458  1.8503  0.3117 -0.6100
 2951SOL     OW20488   0.441   2.403   8.572  0.5852  0.1837  0.4886
 2951SOL    HW120489   0.386   2.343   8.522  0.9373  0.7858 -0.6274
 2951SOL    HW220490   0.499   2.438   8.504  1.8852 -0.4022  1.2932
 2952SOL     OW20491   2.136   3.053   2.821 -0.4029  0.3221 -0.1154
 2952SOL    HW120492   2.168   2.962   2.818 -0.6858  0.2006  0.6150
 2952SOL    HW220493   2.120   3.069   2.728  1.1230 -2.5232 -0.8841
 2953SOL     OW20494   1.817   0.544  14.284  0.1805 -0.2735  0.2352
 2953SOL    HW120495   1.820   0.454  14.253 -0.6598 -0.1946 -0.0652
 2953SOL    HW220496   1.770   0.542  14.367 -0.4260 -0.0931 -0.1053
 2954SOL     OW20497   3.100   3.707   5.358  0.2050  0.1336 -0.5004
 2954SOL    HW120498   3.191   3.678   5.349 -0.2419 -0.6248 -2.5223
 2954SOL    HW220499   3.111   3.799   5.332  2.7941  0.0839  0.3642
 2955SOL     OW20500   0.134   2.010   4.187 -0.0382 -0.0755 -0.3554
 2955SOL    HW120501   0.092   1.930   4.217  0.4916  0.0603  0.7461
 2955SOL    HW220502   0.054   2.061   4.173 -1.9270 -3.0468 -0.4439
 2956SOL     OW20503   0.902   4.142  14.175  0.5882  0.5052 -0.0276
 2956SOL    HW120504   0.833   4.205  14.197  0.2053 -0.1299  0.5668
 2956SOL    HW220505   0.944   4.147  14.260  0.5947 -1.4466  0.0756
 2957SOL     OW20506   1.337   3.458   4.183 -0.0212 -0.0806 -0.3680
 2957SOL    HW120507   1.361   3.496   4.268 -1.3929  2.6738 -1.1942
 2957SOL    HW220508   1.287   3.381   4.210 -1.1926  0.5999 -0.5978
 2958SOL     OW20509   2.846   2.276   7.276  0.3769 -0.0082 -0.5422
 2958SOL    HW120510   2.831   2.183   7.289  1.8999  0.2056  2.6455
 2958SOL    HW220511   2.759   2.313   7.260 -0.0579 -0.4743  0.7131
 2959SOL     OW20512   1.161   2.899   5.707 -0.3809  0.6271  0.0901
 2959SOL    HW120513   1.221   2.884   5.633 -2.0538 -2.3197 -0.6397
 2959SOL    HW220514   1.138   2.990   5.686 -0.6145  0.2044 -1.5076
 2960SOL     OW20515   2.636   3.311  12.184  0.3717  0.0515  0.0822
 2960SOL    HW120516   2.688   3.231  12.176 -0.6783 -0.4520 -1.6614
 2960SOL    HW220517   2.555   3.281  12.144  0.6550 -1.4629  0.6728
 2961SOL     OW20518   0.685   2.365   9.921  0.8191 -0.1267  0.1155
 2961SOL    HW120519   0.615   2.366   9.856  1.2488 -0.3537 -0.3498
 2961SOL    HW220520   0.670   2.283   9.968 -1.1406 -1.0142 -2.0574
 2962SOL     OW20521   1.792   0.446   3.480  0.1881 -0.4367 -0.1695
 2962SOL    HW120522   1.887   0.449   3.492 -0.1207 -2.2390  2.6000
 2962SOL    HW220523   1.761   0.527   3.519  0.0664  0.3658 -1.9074
 2963SOL     OW20524   0.178   3.707   8.427 -0.5223  0.0957  0.8371
 2963SOL    HW120525   0.225   3.773   8.478  1.5939 -1.2426  0.5985
 2963SOL    HW220526   0.133   3.753   8.356 -0.4968  2.3648  2.2927
 2964SOL     OW20527   1.573   1.376  14.208 -0.4715 -0.0681 -0.8364
 2964SOL    HW120528   1.610   1.302  14.160  1.3512  1.0512 -1.1659
 2964SOL    HW220529   1.611   1.361  14.294  3.4442  0.0237 -2.5562
 2965SOL     OW20530   3.622   0.839   4.191 -0.1902 -0.3475  0.3589
 2965SOL    HW120531   3.704   0.872   4.155  0.1664  1.8147  3.1652
 2965SOL    HW220532   3.556   0.834   4.122  0.9255 -0.1528 -0.7327
 2966SOL     OW20533   1.152   2.205   8.080 -0.4200 -0.1035  0.1606
 2966SOL    HW120534   1.167   2.183   8.172 -1.6870  1.8826  0.8226
 2966SOL    HW220535   1.099   2.284   8.079 -2.1435 -1.2698  0.1773
 2967SOL     OW20536   1.373   2.203   6.049  0.2991 -0.0376  0.1144
 2967SOL    HW120537   1.428   2.232   5.977  0.0684  0.4764  0.1468
 2967SOL    HW220538   1.317   2.136   6.009  0.7413 -1.3768  1.7494
 2968SOL     OW20539   2.120   3.530   5.660  0.2124  0.4830 -0.1002
 2968SOL    HW120540   2.091   3.599   5.601 -2.1675  0.9916  1.6502
 2968SOL    HW220541   2.067   3.537   5.740 -1.4964 -4.4463 -0.7753
 2969SOL     OW20542   4.407   2.908   3.587  0.2783  0.5275 -0.1531
 2969SOL    HW120543   4.498   2.878   3.583  0.4157  0.5041  3.1117
 2969SOL    HW220544   4.364   2.824   3.567  0.2570  0.1714  1.4280
 2970SOL     OW20545   1.700   0.330   3.933  0.0532 -0.0465 -0.8195
 2970SOL    HW120546   1.698   0.241   3.968 -0.6629  0.7671  1.2104
 2970SOL    HW220547   1.615   0.342   3.891  0.3985  2.8322 -0.7080
 2971SOL     OW20548   0.671   3.214   7.870 -0.2287  0.7581 -0.5056
 2971SOL    HW120549   0.681   3.119   7.882  2.0161  0.9533 -0.9531
 2971SOL    HW220550   0.575   3.207   7.875 -0.0320  0.0387  2.2666
 2972SOL     OW20551   0.761   0.621   6.331  0.4522  0.0061  0.6094
 2972SOL    HW120552   0.794   0.694   6.382  1.2133 -0.2617  0.4942
 2972SOL    HW220553   0.779   0.546   6.387  1.5680  0.0239  0.2651
 2973SOL     OW20554   1.162   1.758   4.057  0.1213 -0.0090  0.2523
 2973SOL    HW120555   1.171   1.770   4.151 -3.0068  0.0927  0.5525
 2973SOL    HW220556   1.236   1.815   4.037 -0.0459  1.3285  3.5144
 2974SOL     OW20557   3.619   1.732   2.281  0.5580 -0.3327  0.1559
 2974SOL    HW120558   3.664   1.670   2.339 -1.4907  0.3424  2.4417
 2974SOL    HW220559   3.601   1.686   2.199 -1.5534 -0.3121  0.6224
 2975SOL     OW20560   1.674   2.432  13.146 -0.1066  0.0391 -0.4020
 2975SOL    HW120561   1.758   2.476  13.134  0.4649 -0.5145  1.5493
 2975SOL    HW220562   1.635   2.423  13.059 -0.7153 -2.9474  0.1729
 2976SOL     OW20563   3.104   2.336   3.605 -0.2268  0.5527  0.1969
 2976SOL    HW120564   3.112   2.302   3.516  0.0881  0.1191  0.3889
 2976SOL    HW220565   3.180   2.296   3.646 -1.2151  0.4646  1.9602
 2977SOL     OW20566   4.713   3.268   5.417 -0.4986 -0.4170 -0.4118
 2977SOL    HW120567   4.733   3.346   5.366 -0.9749 -0.4973 -0.7196
 2977SOL    HW220568   0.003   3.199   5.356  2.5993 -0.4749  0.9336
 2978SOL     OW20569   2.888   3.777  16.233  0.1735 -0.3140 -0.3520
 2978SOL    HW120570   2.930   3.781  16.147  1.3012 -0.0442  0.2200
 2978SOL    HW220571   2.808   3.731  16.209  1.3685 -1.2861 -2.4670
 2979SOL     OW20572   4.006   0.606   2.831 -0.0406  0.1391 -0.1791
 2979SOL    HW120573   4.051   0.686   2.860 -1.1882  0.6441  0.2069
 2979SOL    HW220574   4.073   0.538   2.821  0.6499  1.0263 -1.6906
 2980SOL     OW20575   2.389   1.340   8.295 -0.3921  0.3452 -0.8459
 2980SOL    HW120576   2.293   1.342   8.297 -0.3663  0.5865 -0.0055
 2980SOL    HW220577   2.415   1.304   8.380 -3.4904 -2.0402 -0.9078
 2981SOL     OW20578   0.544   3.028   4.547  0.1850  1.0864  0.1332
 2981SOL    HW120579   0.451   3.020   4.568 -0.1168  1.4361 -1.0749
 2981SOL    HW220580   0.568   2.938   4.568 -0.5765  1.2909  1.8958
 2982SOL     OW20581   0.372   2.084   3.793  0.4490 -0.4330  0.5871
 2982SOL    HW120582   0.420   2.159   3.757  2.4195 -2.1009 -0.2556
 2982SOL    HW220583   0.338   2.126   3.872  0.1518  2.2163 -0.9248
 2983SOL     OW20584   1.814   1.752   3.786 -0.4755 -0.0531 -0.4863
 2983SOL    HW120585   1.763   1.829   3.759 -1.1272 -1.2378 -2.6494
 2983SOL    HW220586   1.899   1.790   3.764 -1.3266  2.0758 -0.1068
 2984SOL     OW20587   2.774   2.065   7.392 -0.4452  0.1771  0.5777
 2984SOL    HW120588   2.827   2.010   7.334  0.0399 -0.1186  1.2948
 2984SOL    HW220589   2.699   2.007   7.381 -0.3155 -0.0325  0.7638
 2985SOL     OW20590   2.364   1.210  12.103 -0.5280  0.1073 -0.4877
 2985SOL    HW120591   2.288   1.155  12.085 -1.1474  0.2845  1.5383
 2985SOL    HW220592   2.332   1.300  12.106  0.2998  0.3863  0.2590
 2986SOL     OW20593   1.783   0.844   2.463 -0.5856  0.4001 -0.3489
 2986SOL    HW120594   1.751   0.910   2.524 -0.2204  1.6181 -1.4732
 2986SOL    HW220595   1.826   0.793   2.532 -4.2734 -0.5603  1.2718
 2987SOL     OW20596   0.125   1.127  12.640 -0.5382 -0.0836  0.1185
 2987SOL    HW120597   0.078   1.043  12.645 -0.5903  0.0048  1.0680
 2987SOL    HW220598   0.128   1.132  12.544  0.9296  1.8104  0.2563
 2988SOL     OW20599   3.036   0.251  17.604 -0.9415 -0.2432  0.0853
 2988SOL    HW120600   2.976   0.239  17.677 -0.2595 -2.3487  0.3072
 2988SOL    HW220601   3.113   0.205  17.637 -0.7383  0.4015  0.5123
 2989SOL     OW20602   0.355   3.868   2.473 -0.4962 -0.1930  0.0040
 2989SOL    HW120603   0.420   3.882   2.404 -2.4821 -1.8978 -2.2293
 2989SOL    HW220604   0.353   3.957   2.509 -1.5650  0.4986 -1.7402
 2990SOL     OW20605   1.864   0.675   6.882  0.7749  0.0561 -0.4287
 2990SOL    HW120606   1.851   0.600   6.824  0.5405  0.0030 -0.3095
 2990SOL    HW220607   1.881   0.732   6.807  1.9066 -0.1233 -0.3068
 2991SOL     OW20608   0.888   4.721   4.284  0.2290  0.7707 -0.4251
 2991SOL    HW120609   0.881   0.070   4.328 -1.5677 -0.2088  1.2356
 2991SOL    HW220610   0.796   4.700   4.267  0.4596  0.3885 -1.1608
 2992SOL     OW20611   4.366   0.083   4.251 -0.2020  0.3302 -0.8281
 2992SOL    HW120612   4.276   0.052   4.256  0.1258 -0.5051 -0.0060
 2992SOL    HW220613   4.366   0.171   4.290 -1.0308  0.5426 -1.3186
 2993SOL     OW20614   2.221   2.979   8.410 -0.1327  0.5255  0.0814
 2993SOL    HW120615   2.167   2.930   8.348 -0.8866  1.6250 -0.1439
 2993SOL    HW220616   2.219   3.066   8.368 -0.1561  0.8358  0.7304
 2994SOL     OW20617   4.606   3.597  12.354 -0.1380 -0.3814  0.7936
 2994SOL    HW120618   4.695   3.561  12.350  0.0861  0.3144 -0.5030
 2994SOL    HW220619   4.607   3.623  12.446 -1.1099 -3.1247  1.5723
 2995SOL     OW20620   1.851   3.214   5.536  0.1901 -0.4275 -0.0383
 2995SOL    HW120621   1.941   3.209   5.568  0.0484 -0.1629  0.3966
 2995SOL    HW220622   1.806   3.151   5.592 -0.8764  0.5775  0.2421
 2996SOL     OW20623   1.734   3.670   7.772  0.0307 -0.2907  0.1452
 2996SOL    HW120624   1.740   3.581   7.806 -3.6066  0.0999  1.8087
 2996SOL    HW220625   1.752   3.662   7.678 -0.1210 -0.1090  0.1013
 2997SOL     OW20626   1.412   1.796   5.539  0.7005 -0.4201  0.8505
 2997SOL    HW120627   1.328   1.752   5.552  1.7505 -2.4683  0.7011
 2997SOL    HW220628   1.376   1.876   5.502 -1.1352 -2.3975 -1.6382
 2998SOL     OW20629   4.722   0.087   4.005 -0.1317 -0.4440  0.5157
 2998SOL    HW120630   4.706   0.076   4.098  0.0309 -0.2125  0.5695
 2998SOL    HW220631   4.656   0.150   3.977  1.9392  1.0154 -1.0425
 2999SOL     OW20632   0.181   2.269   8.718 -0.1685 -0.0086 -0.3145
 2999SOL    HW120633   0.268   2.233   8.696 -0.1845  0.7380 -1.6420
 2999SOL    HW220634   0.126   2.191   8.723 -0.6626  0.3450 -0.2413
 3000SOL     OW20635   1.959   0.801  12.262  0.2550  0.2372  0.2696
 3000SOL    HW120636   2.043   0.845  12.256 -0.2470  1.0623 -0.7183
 3000SOL    HW220637   1.967   0.740  12.189  0.2475 -0.7793  1.1146
 3001SOL     OW20638   2.887   3.754   8.907 -0.1528  0.4412 -0.4643
 3001SOL    HW120639   2.820   3.708   8.958 -0.0708 -1.2155 -1.8321
 3001SOL    HW220640   2.884   3.700   8.828  0.2222  0.3899 -0.4437
 3002SOL     OW20641   0.934   1.539   7.321  0.2338  0.1123 -0.1686
 3002SOL    HW120642   1.012   1.593   7.335  0.1792 -0.2132  1.4275
 3002SOL    HW220643   0.918   1.492   7.403  2.4158  0.1658  0.2807
 3003SOL     OW20644   3.359   4.267   4.805  0.1964 -0.0632 -0.0194
 3003SOL    HW120645   3.442   4.299   4.771  0.9909 -0.6568  1.3490
 3003SOL    HW220646   3.350   4.325   4.881 -1.5605  0.7377 -0.8486
 3004SOL     OW20647   1.810   0.791   7.583  0.0262 -0.0337  0.2704
 3004SOL    HW120648   1.839   0.785   7.492  0.1125  0.8537  0.2402
 3004SOL    HW220649   1.885   0.835   7.623  0.1378  0.1062 -0.1005
 3005SOL     OW20650   3.064   3.493  16.048 -0.6619  1.2390 -0.5769
 3005SOL    HW120651   3.109   3.409  16.048 -0.8052  1.1554  0.5259
 3005SOL    HW220652   3.027   3.491  15.960 -3.2618 -3.1189  0.6466
 3006SOL     OW20653   3.154   2.049  10.258 -0.6082 -0.1790 -0.2043
 3006SOL    HW120654   3.219   2.114  10.286 -0.1213 -1.2174  1.0047
 3006SOL    HW220655   3.149   2.070  10.164  0.6225  4.1302  0.6632
 3007SOL     OW20656   3.795   1.342  14.560 -0.0092 -0.3500  0.2169
 3007SOL    HW120657   3.803   1.428  14.600  0.3304  0.5151 -1.7199
 3007SOL    HW220658   3.816   1.285  14.635  3.1170  1.2914  0.6035
 3008SOL     OW20659   2.150   0.921   1.845 -0.3395  0.2628  0.4841
 3008SOL    HW120660   2.095   0.994   1.875 -1.7966 -0.7579  0.3089
 3008SOL    HW220661   2.100   0.853   1.891 -0.2066 -0.0508  0.1542
 3009SOL     OW20662   2.230   1.274  11.121  0.5970 -0.6018  0.0118
 3009SOL    HW120663   2.264   1.201  11.174  0.3710 -1.8666 -1.5808
 3009SOL    HW220664   2.308   1.322  11.093  0.1746  0.1758  0.1867
 3010SOL     OW20665   0.414   2.082   8.195 -0.0118 -0.1652 -0.0308
 3010SOL    HW120666   0.461   2.010   8.153 -1.2737 -1.9884  1.6707
 3010SOL    HW220667   0.373   2.123   8.119 -0.3733  0.0599  0.2900
 3011SOL     OW20668   2.205   2.948   2.147  0.1393  0.1457  0.0429
 3011SOL    HW120669   2.240   3.037   2.141  0.4745 -0.1351 -2.1743
 3011SOL    HW220670   2.120   2.964   2.107  0.6251  1.6756 -0.3977
 3012SOL     OW20671   3.617   3.615   4.284  0.2652  0.6729 -0.6456
 3012SOL    HW120672   3.689   3.554   4.264  0.7412  0.2573  2.2234
 3012SOL    HW220673   3.572   3.571   4.357  0.8920  0.1379 -0.5799
 3013SOL     OW20674   0.105   2.634   9.176 -0.4753  0.5537  0.9914
 3013SOL    HW120675   0.144   2.569   9.235 -2.9764 -0.5140  1.4862
 3013SOL    HW220676   0.158   2.712   9.193  0.0114  0.4359 -0.0023
 3014SOL     OW20677   1.103   1.128   7.797  0.1101 -0.1096 -0.6889
 3014SOL    HW120678   1.134   1.053   7.746 -1.8540 -1.6847  0.4367
 3014SOL    HW220679   1.088   1.090   7.883  2.4127  2.7397  0.9586
 3015SOL     OW20680   0.766   0.782   5.255  0.4445 -0.2150  0.1275
 3015SOL    HW120681   0.842   0.733   5.224 -0.0843 -2.3352  2.2636
 3015SOL    HW220682   0.803   0.868   5.276 -2.4126  0.9342  0.4672
 3016SOL     OW20683   3.129   3.041  16.529  0.4514 -0.4446 -0.7425
 3016SOL    HW120684   3.207   3.081  16.567 -1.1635  2.7922 -0.8429
 3016SOL    HW220685   3.065   3.049  16.599 -1.0131 -2.8486 -1.7847
 3017SOL     OW20686   3.947   3.446   0.536  0.6286 -0.2705  0.2569
 3017SOL    HW120687   3.902   3.529   0.552  1.4171  0.6233 -2.2199
 3017SOL    HW220688   3.962   3.415   0.625  0.0277  1.2987  0.9141
 3018SOL     OW20689   3.725   1.776   6.005  0.0851  0.3472  0.3050
 3018SOL    HW120690   3.630   1.760   6.008 -0.0173  0.5590 -1.6986
 3018SOL    HW220691   3.743   1.772   5.911 -2.1538 -1.3344 -0.0523
 3019SOL     OW20692   2.196   4.061   3.223 -0.1867  0.0294 -0.1633
 3019SOL    HW120693   2.287   4.075   3.251 -0.8093 -0.1867  1.9511
 3019SOL    HW220694   2.174   4.154   3.222  0.5305  0.1953 -0.2850
 3020SOL     OW20695   4.033   2.318   7.873 -0.7100 -0.1402  0.0348
 3020SOL    HW120696   3.965   2.290   7.812  0.3477 -2.1254 -0.2433
 3020SOL    HW220697   4.019   2.263   7.950 -2.3808 -0.5190 -0.5424
 3021SOL     OW20698   3.402   3.862  10.265 -0.2489  0.0397 -0.2998
 3021SOL    HW120699   3.408   3.852  10.360 -2.1766 -1.4849 -0.3210
 3021SOL    HW220700   3.491   3.845  10.236 -1.1383 -1.5943 -2.0812
 3022SOL     OW20701   1.508   0.392  15.633  0.7725  0.2952  0.2459
 3022SOL    HW120702   1.501   0.434  15.547  4.2224  0.9645  0.3253
 3022SOL    HW220703   1.416   0.402  15.660  0.3277 -1.5310 -0.5757
 3023SOL     OW20704   3.572   4.324   1.195 -0.0590 -0.4834 -0.0484
 3023SOL    HW120705   3.586   4.362   1.109  0.8125  1.2365  0.8583
 3023SOL    HW220706   3.566   4.406   1.244 -0.0801 -1.7921  2.1426
 3024SOL     OW20707   2.463   0.825   9.411 -0.2703  0.6999  0.4568
 3024SOL    HW120708   2.416   0.863   9.337 -0.2139 -0.4544 -0.1765
 3024SOL    HW220709   2.523   0.771   9.360  1.0977  2.7303 -0.1063
 3025SOL     OW20710   2.329   2.609   7.621  0.2217  0.0516 -0.1100
 3025SOL    HW120711   2.402   2.589   7.679  0.4925 -0.5467 -0.6569
 3025SOL    HW220712   2.331   2.704   7.633 -2.3329 -0.0627  1.2344
 3026SOL     OW20713   3.056   4.415   7.856 -0.0552  0.4925 -0.2431
 3026SOL    HW120714   3.118   4.393   7.787 -1.6221  0.6321 -1.7091
 3026SOL    HW220715   3.118   4.403   7.928  0.1540  2.3705 -0.1128
 3027SOL     OW20716   2.985   0.688   5.982 -0.1792 -0.2491  0.6632
 3027SOL    HW120717   3.013   0.666   6.071 -2.9639 -0.6164  1.4415
 3027SOL    HW220718   2.896   0.655   5.989 -0.0903 -0.6990 -0.3451
 3028SOL     OW20719   3.791   4.379   5.569 -0.3803 -0.3839 -0.5892
 3028SOL    HW120720   3.766   4.467   5.541  0.2940 -0.1550 -0.4805
 3028SOL    HW220721   3.810   4.394   5.662  0.1941 -0.6658 -0.6642
 3029SOL     OW20722   0.672   3.570   7.085  0.1147  0.6308  0.1981
 3029SOL    HW120723   0.638   3.635   7.024 -1.7522  1.1610  1.7999
 3029SOL    HW220724   0.766   3.574   7.065  0.2959 -0.8583  0.7413
 3030SOL     OW20725   2.080   3.306   7.242 -0.0794 -0.6078 -0.1131
 3030SOL    HW120726   1.992   3.322   7.210  0.7736 -0.1944 -2.2465
 3030SOL    HW220727   2.124   3.382   7.205  0.6087 -0.7741  0.3618
 3031SOL     OW20728   0.213   0.034   3.857 -0.2820  0.2562 -0.1233
 3031SOL    HW120729   0.248   4.682   3.841 -0.0840  0.2569  0.3291
 3031SOL    HW220730   0.146   0.021   3.923  0.4770  1.5377  0.8953
 3032SOL     OW20731   4.676   0.378   2.021 -0.1600 -0.3278 -0.7522
 3032SOL    HW120732   4.612   0.435   1.978 -0.5081  0.2294  0.4990
 3032SOL    HW220733   4.734   0.354   1.949  0.2706  2.9152 -1.4741
 3033SOL     OW20734   3.654   4.131  16.095  0.1326  0.4495 -0.4058
 3033SOL    HW120735   3.629   4.045  16.062 -0.0811  0.5695 -0.5594
 3033SOL    HW220736   3.710   4.171  16.028  1.8286 -1.1744  0.0367
 3034SOL     OW20737   1.783   2.762   1.490 -0.0009 -0.0447  0.8195
 3034SOL    HW120738   1.798   2.726   1.577 -1.8596  0.0206  1.1632
 3034SOL    HW220739   1.716   2.826   1.514 -1.4482 -0.7486 -1.2775
 3035SOL     OW20740   2.425   0.387   6.560 -0.1355 -0.1373  0.3394
 3035SOL    HW120741   2.392   0.412   6.474 -1.8651 -3.7206 -0.0602
 3035SOL    HW220742   2.494   0.324   6.540  0.6978  0.5708  1.0123
 3036SOL     OW20743   0.698   1.632  13.170 -0.6211 -0.0834  0.0517
 3036SOL    HW120744   0.709   1.727  13.171 -0.5664 -0.1013  1.1571
 3036SOL    HW220745   0.618   1.632  13.222 -0.2942  0.5010  0.5596
 3037SOL     OW20746   4.052   4.639  13.891  0.2972 -0.1521  0.2454
 3037SOL    HW120747   4.076   4.714  13.837 -0.6769 -0.1831 -0.2372
 3037SOL    HW220748   4.104   4.565  13.861  0.3150 -0.9263  2.1550
 3038SOL     OW20749   2.302   0.267   2.836 -0.2770  0.2902 -0.2516
 3038SOL    HW120750   2.316   0.359   2.856  1.9820  0.2799 -1.7634
 3038SOL    HW220751   2.209   0.251   2.850 -0.5504  0.0851 -2.3935
 3039SOL     OW20752   1.948   1.015   3.206 -0.4235 -1.2448 -0.2878
 3039SOL    HW120753   1.975   1.046   3.292 -0.3012 -1.0173 -0.4078
 3039SOL    HW220754   2.021   1.057   3.160 -1.5273  1.1424  0.1592
 3040SOL     OW20755   4.245   3.827   0.820  0.1978  0.2652  0.2392
 3040SOL    HW120756   4.256   3.754   0.759 -0.6293  0.0997  0.2900
 3040SOL    HW220757   4.167   3.796   0.866 -0.0305  0.3685 -0.0804
 3041SOL     OW20758   2.036   0.843   4.216 -0.5653  0.1000  0.1070
 3041SOL    HW120759   2.110   0.813   4.162  0.1406  3.0452 -0.5791
 3041SOL    HW220760   2.082   0.909   4.268 -1.8594  0.8759  0.2471
 3042SOL     OW20761   0.550   1.001   6.013 -0.2308 -0.0661  0.3847
 3042SOL    HW120762   0.497   0.941   5.961  0.5796 -0.4912  0.0504
 3042SOL    HW220763   0.557   0.957   6.098 -0.2915  2.3504  1.6401
 3043SOL     OW20764   0.983   1.099  11.346 -0.2148  0.2623 -0.7597
 3043SOL    HW120765   1.075   1.086  11.323 -0.3247 -2.7278  0.4332
 3043SOL    HW220766   0.984   1.087  11.441 -2.4057 -0.2541 -0.8174
 3044SOL     OW20767   1.620   1.481  12.785  0.5359  0.4615 -0.5320
 3044SOL    HW120768   1.642   1.442  12.700 -0.7888 -1.9492  0.2385
 3044SOL    HW220769   1.586   1.566  12.754 -0.3089 -0.1705 -1.3227
 3045SOL     OW20770   2.805   3.156   9.638 -0.2326 -0.6500  0.1334
 3045SOL    HW120771   2.709   3.162   9.643 -0.0983  1.6228  0.0356
 3045SOL    HW220772   2.818   3.088   9.572  0.2738 -0.0362 -0.3927
 3046SOL     OW20773   2.041   1.810   2.573  0.2055  0.6605 -0.7983
 3046SOL    HW120774   2.005   1.746   2.511  0.5810 -0.7270  0.4226
 3046SOL    HW220775   1.972   1.877   2.579  1.2510  1.6836 -0.2448
 3047SOL     OW20776   1.121   1.855   4.928 -0.0189  0.4140 -0.0420
 3047SOL    HW120777   1.132   1.761   4.913 -1.7725 -0.1422  2.2364
 3047SOL    HW220778   1.145   1.867   5.020 -0.3081 -0.6245  0.1666
 3048SOL     OW20779   3.044   3.694   6.952  0.2464  0.1873 -0.2367
 3048SOL    HW120780   3.088   3.778   6.963  0.4847 -0.1157  1.2080
 3048SOL    HW220781   3.040   3.689   6.857 -0.6907 -0.0922 -0.1884
 3049SOL     OW20782   0.252   2.194   2.691 -0.4372 -0.5199  1.1033
 3049SOL    HW120783   0.224   2.285   2.689  1.3998  0.0457  1.1834
 3049SOL    HW220784   0.335   2.211   2.736  1.3225 -2.1813 -1.5468
 3050SOL     OW20785   1.349   1.089  14.031  0.2767 -0.0495  0.0144
 3050SOL    HW120786   1.371   1.179  14.008  1.6873  0.4017  3.0457
 3050SOL    HW220787   1.313   1.051  13.951  0.5116 -1.9959  0.8268
 3051SOL     OW20788   2.730   2.265   8.261  0.0577 -0.0538  0.0416
 3051SOL    HW120789   2.646   2.307   8.276 -0.9767 -2.1820  0.1528
 3051SOL    HW220790   2.767   2.273   8.349  1.6341 -2.2860 -0.4191
 3052SOL     OW20791   0.319   4.055  12.794 -0.8684  0.6347  0.0098
 3052SOL    HW120792   0.236   4.011  12.775  0.1377 -0.3051 -2.2197
 3052SOL    HW220793   0.279   4.136  12.827 -0.8249 -0.3299  2.3775
 3053SOL     OW20794   1.238   3.763  17.101  0.2340 -0.7071 -0.5789
 3053SOL    HW120795   1.270   3.683  17.142 -0.8989 -0.1976  1.2844
 3053SOL    HW220796   1.147   3.740  17.083  0.1509 -1.3821  0.7126
 3054SOL     OW20797   4.733   1.067   8.714 -0.1135 -0.0786 -0.1464
 3054SOL    HW120798   0.029   1.154   8.692 -0.5826 -0.1112 -0.9605
 3054SOL    HW220799   0.083   1.028   8.731  0.8114  2.0850  0.1102
 3055SOL     OW20800   0.330   1.300   7.129 -0.3580 -0.8004  0.1056
 3055SOL    HW120801   0.298   1.248   7.203 -1.1216 -0.1258  0.2469
 3055SOL    HW220802   0.423   1.313   7.148 -0.3079  0.1756 -0.8078
 3056SOL     OW20803   0.608   0.696  16.255  0.5805 -0.1860 -0.3104
 3056SOL    HW120804   0.516   0.681  16.237  0.2823  1.3500 -0.0770
 3056SOL    HW220805   0.609   0.791  16.268 -2.2781 -0.2416  0.2480
 3057SOL     OW20806   3.356   2.774   8.207  0.5815  0.2141  0.2828
 3057SOL    HW120807   3.451   2.783   8.208  0.4021  2.1379 -1.1929
 3057SOL    HW220808   3.342   2.691   8.161 -3.4360  0.5006  0.9145
 3058SOL     OW20809   1.350   0.849   3.672 -0.6494 -0.0659  0.5319
 3058SOL    HW120810   1.403   0.922   3.639  2.8080 -2.8461  0.0084
 3058SOL    HW220811   1.423   0.792   3.693 -0.5154 -0.4124 -0.8294
 3059SOL     OW20812   3.820   2.478   6.309 -0.0083  0.6266 -0.6521
 3059SOL    HW120813   3.771   2.558   6.331 -1.4541 -0.9169  1.6382
 3059SOL    HW220814   3.773   2.408   6.353  0.3439  1.2311  0.6740
 3060SOL     OW20815   2.746   4.015   0.428  0.8498 -0.2075 -0.4451
 3060SOL    HW120816   2.674   3.976   0.476 -0.0145 -1.2204 -2.5539
 3060SOL    HW220817   2.765   4.091   0.483 -0.0412  1.5128 -2.4710
 3061SOL     OW20818   1.519   3.478  12.992  0.3103  0.4295 -0.6883
 3061SOL    HW120819   1.556   3.565  12.986  2.2345 -0.2886  0.8019
 3061SOL    HW220820   1.463   3.472  12.914 -1.7730 -0.5443  0.8594
 3062SOL     OW20821   2.591   2.373   7.268  0.2808  0.0175  0.0213
 3062SOL    HW120822   2.527   2.405   7.332  0.5488  1.4149 -0.4185
 3062SOL    HW220823   2.562   2.403   7.182  1.9676  0.4630 -0.3831
 3063SOL     OW20824   0.110   0.059   2.932 -0.3167 -0.6345 -0.3110
 3063SOL    HW120825   0.127   0.152   2.950  0.5401 -1.0452  0.9758
 3063SOL    HW220826   0.195   0.018   2.947  0.3430  1.2188  1.0125
 3064SOL     OW20827   4.468   2.501   8.831  0.1220 -0.2974  0.2637
 3064SOL    HW120828   4.555   2.513   8.871  0.4984  1.4126 -1.0723
 3064SOL    HW220829   4.419   2.574   8.869 -0.8845 -0.5396 -0.5856
 3065SOL     OW20830   3.455   2.484   5.825  0.4177 -0.5480  0.0185
 3065SOL    HW120831   3.415   2.484   5.912  0.6199  2.8626  0.0924
 3065SOL    HW220832   3.419   2.397   5.805  1.3919 -1.8796  3.9662
 3066SOL     OW20833   2.985   4.736   7.017  0.5967  0.0404 -0.7830
 3066SOL    HW120834   3.026   0.083   6.993 -1.8266  1.4382 -0.1496
 3066SOL    HW220835   2.966   0.011   7.110  1.4361 -2.4474 -0.3161
 3067SOL     OW20836   1.782   3.430  13.765 -0.0554  0.1686 -0.4503
 3067SOL    HW120837   1.752   3.458  13.851  2.2506 -1.2430  0.8029
 3067SOL    HW220838   1.697   3.422  13.722  0.3662  0.9784 -1.4400
 3068SOL     OW20839   3.647   1.291   4.507 -0.1146 -0.1737 -0.1884
 3068SOL    HW120840   3.670   1.383   4.494  2.1226 -0.6505  0.3454
 3068SOL    HW220841   3.701   1.266   4.582 -0.1983  0.8953  0.2173
 3069SOL     OW20842   3.277   0.236   8.905  0.1979  0.1385 -0.0808
 3069SOL    HW120843   3.256   0.149   8.869 -0.4039  0.1641  0.2021
 3069SOL    HW220844   3.234   0.230   8.991 -0.8548  1.0572 -0.5488
 3070SOL     OW20845   0.712   4.041   3.044  0.1545 -0.2535  0.0510
 3070SOL    HW120846   0.688   4.012   3.132  0.7954  1.6819  0.8516
 3070SOL    HW220847   0.626   4.036   3.001  0.0361 -1.7573  0.4593
 3071SOL     OW20848   3.710   3.803   5.881 -0.0080 -0.5323  0.1405
 3071SOL    HW120849   3.672   3.884   5.914 -0.4772 -1.6140  2.2781
 3071SOL    HW220850   3.775   3.790   5.950 -1.6939 -0.8495  1.6638
 3072SOL     OW20851   0.500   1.482   0.909  0.2213  0.0001 -0.5754
 3072SOL    HW120852   0.591   1.452   0.911  0.0781 -0.2455  2.4546
 3072SOL    HW220853   0.466   1.414   0.851 -0.6808  0.0040 -0.0482
 3073SOL     OW20854   0.222   3.408   0.529  0.2170  0.4535 -0.4795
 3073SOL    HW120855   0.165   3.470   0.484  1.3648  0.5485 -1.8011
 3073SOL    HW220856   0.253   3.352   0.458  0.5188  1.7248 -1.3533
 3074SOL     OW20857   3.765   3.535   5.858  0.1580  0.0480 -0.3263
 3074SOL    HW120858   3.689   3.480   5.875 -0.4183  0.9856  0.1270
 3074SOL    HW220859   3.734   3.624   5.877  1.5489  0.7418 -1.2774
 3075SOL     OW20860   3.663   4.207  12.176 -0.2181 -0.5528 -0.2809
 3075SOL    HW120861   3.690   4.270  12.108  1.2094 -0.9207 -0.0294
 3075SOL    HW220862   3.674   4.127  12.125  0.3041  0.5467 -1.9344
 3076SOL     OW20863   4.096   2.523   9.032 -0.2579  0.0019 -0.0027
 3076SOL    HW120864   4.051   2.438   9.031 -1.1507  0.4919 -2.2094
 3076SOL    HW220865   4.188   2.500   9.039 -0.1253 -0.0935 -2.1124
 3077SOL     OW20866   3.341   1.211   2.291 -0.7171  0.2668 -0.1792
 3077SOL    HW120867   3.344   1.167   2.206  0.7354 -0.2440  0.1194
 3077SOL    HW220868   3.258   1.176   2.322  0.1431 -2.3769 -0.8186
 3078SOL     OW20869   3.297   0.944   3.588 -0.5393  0.0339  0.4353
 3078SOL    HW120870   3.387   0.974   3.589 -0.5945  0.1479  1.5346
 3078SOL    HW220871   3.253   1.018   3.545  2.1419  1.4754  0.2346
 3079SOL     OW20872   0.500   4.229  15.632  0.0507 -0.5037 -0.3260
 3079SOL    HW120873   0.561   4.208  15.702  1.4633  3.1460 -0.4650
 3079SOL    HW220874   0.428   4.171  15.657  1.2325 -1.5962  0.5416
 3080SOL     OW20875   0.845   2.884   9.675 -0.0104  0.0382  0.5057
 3080SOL    HW120876   0.899   2.823   9.725 -0.1142  0.6309  1.3530
 3080SOL    HW220877   0.820   2.961   9.726 -2.2864 -0.9206  0.8447
 3081SOL     OW20878   0.727   2.773   2.169  0.4069  0.3620 -0.4492
 3081SOL    HW120879   0.658   2.708   2.183  0.1187 -0.0052 -3.6441
 3081SOL    HW220880   0.802   2.741   2.219 -0.8478 -1.3354  0.3351
 3082SOL     OW20881   0.004   1.743   7.503 -0.1631  0.2271 -0.3401
 3082SOL    HW120882   4.735   1.820   7.446 -0.5866  0.4338 -0.0267
 3082SOL    HW220883   0.060   1.774   7.574  0.8797  0.1809 -1.1476
 3083SOL     OW20884   4.433   4.079   2.499  0.0284 -0.8914  0.2181
 3083SOL    HW120885   4.506   4.131   2.534 -0.3144 -1.1907  1.3979
 3083SOL    HW220886   4.364   4.128   2.545 -1.3769 -0.9765 -1.8457
 3084SOL     OW20887   4.239   0.918   3.856  0.2114 -0.2795  0.4062
 3084SOL    HW120888   4.160   0.925   3.802  2.9724  0.8750 -3.5324
 3084SOL    HW220889   4.290   0.987   3.813  1.0725 -0.5141  1.0456
 3085SOL     OW20890   3.482   0.030   3.199  0.3893  0.6094  0.4450
 3085SOL    HW120891   3.522   0.113   3.223  0.1317  0.6169  0.8581
 3085SOL    HW220892   3.559   4.712   3.182  1.1872  1.6484  0.7532
 3086SOL     OW20893   2.568   1.649   4.453  0.8054 -0.3588  0.6519
 3086SOL    HW120894   2.627   1.661   4.379  3.0967 -1.2302  2.3160
 3086SOL    HW220895   2.485   1.678   4.416  0.6991 -2.1477 -0.5358
 3087SOL     OW20896   1.154   3.306  15.857  0.0175 -0.3610  0.3729
 3087SOL    HW120897   1.120   3.346  15.777  0.5550 -0.8174 -0.0825
 3087SOL    HW220898   1.133   3.378  15.916  1.9425  1.3629 -1.0195
 3088SOL     OW20899   2.862   1.955   4.774  0.7197  0.0040  0.1898
 3088SOL    HW120900   2.879   1.887   4.708 -0.4189 -1.0025  0.9344
 3088SOL    HW220901   2.846   1.898   4.849 -0.0785 -0.4826 -0.3488
 3089SOL     OW20902   2.831   1.834   3.315 -0.0347 -0.2280  0.3316
 3089SOL    HW120903   2.801   1.916   3.354 -1.2118 -0.6408  0.2909
 3089SOL    HW220904   2.862   1.857   3.228  0.9628  1.1445  1.0684
 3090SOL     OW20905   3.409   1.881   6.791  0.1488 -0.1681 -0.3846
 3090SOL    HW120906   3.460   1.911   6.716  1.4897 -1.5653 -0.0337
 3090SOL    HW220907   3.329   1.858   6.744 -1.1596  0.2270  1.6339
 3091SOL     OW20908   0.402   1.345   5.517  0.4968 -0.0264 -0.2197
 3091SOL    HW120909   0.462   1.279   5.552 -0.3076  0.0371  1.2492
 3091SOL    HW220910   0.426   1.413   5.580 -1.0131  0.2648  0.0295
 3092SOL     OW20911   3.344   3.649   2.007 -0.1380 -0.0202  0.5545
 3092SOL    HW120912   3.401   3.690   2.072  2.6504 -1.9237 -0.6472
 3092SOL    HW220913   3.385   3.563   2.012  1.8577  0.8651 -0.4522
 3093SOL     OW20914   3.137   3.531  14.824  0.3059 -0.1685  0.1614
 3093SOL    HW120915   3.174   3.610  14.783 -1.9190  1.7126  1.7927
 3093SOL    HW220916   3.058   3.513  14.773 -0.0372 -0.1259  0.6822
 3094SOL     OW20917   1.385   4.130  10.542  0.3019  0.0969  0.4759
 3094SOL    HW120918   1.440   4.174  10.478  0.5493 -1.6551 -0.5010
 3094SOL    HW220919   1.302   4.115  10.496  0.3276 -0.8869  0.7588
 3095SOL     OW20920   2.429   0.041   2.835  0.0100 -0.4557 -0.8992
 3095SOL    HW120921   2.393   0.129   2.840  1.0392  0.0499 -2.1858
 3095SOL    HW220922   2.524   0.053   2.833 -0.1736  1.0029 -0.5952
 3096SOL     OW20923   4.514   2.974   9.368  0.1134 -0.1303  0.2847
 3096SOL    HW120924   4.528   3.039   9.298  2.6213 -2.8572 -1.7651
 3096SOL    HW220925   4.586   2.991   9.429  0.6188  0.4521 -0.4572
 3097SOL     OW20926   2.391   3.545  17.163 -0.2982  0.3362 -0.0639
 3097SOL    HW120927   2.335   3.606  17.212  0.6630 -0.6100  2.1979
 3097SOL    HW220928   2.326   3.487  17.124 -0.1884 -2.2654  3.7117
 3098SOL     OW20929   3.780   1.364   9.800 -0.0117  0.4246 -0.0100
 3098SOL    HW120930   3.724   1.431   9.839  0.3776 -0.0350  1.3556
 3098SOL    HW220931   3.835   1.339   9.874 -0.8353 -2.1042 -0.2287
 3099SOL     OW20932   3.606   3.860  12.301  0.2167 -0.2930  0.4173
 3099SOL    HW120933   3.570   3.833  12.217 -2.0920 -1.6815  1.8578
 3099SOL    HW220934   3.585   3.786  12.358 -2.5877  0.5282  0.4535
 3100SOL     OW20935   0.907   3.706   9.745 -0.7739 -0.3807  0.0262
 3100SOL    HW120936   0.971   3.634   9.748  1.4173  1.6113  1.5763
 3100SOL    HW220937   0.840   3.674   9.805 -0.6504  0.8834  0.8432
 3101SOL     OW20938   3.882   0.243   6.231 -0.4720  0.4403  0.0083
 3101SOL    HW120939   3.924   0.158   6.217  1.5090  1.2052  1.3456
 3101SOL    HW220940   3.919   0.260   6.318 -0.7453 -1.8524  0.5799
 3102SOL     OW20941   0.409   3.598   6.940  0.3457 -0.2944 -0.5051
 3102SOL    HW120942   0.425   3.526   7.001 -0.3099  0.4386  0.5210
 3102SOL    HW220943   0.322   3.633   6.957  0.3349  0.2502 -1.6611
 3103SOL     OW20944   2.903   2.937   2.098 -0.1210 -0.0728  0.0035
 3103SOL    HW120945   2.829   2.900   2.049 -0.1253 -0.2082  0.1119
 3103SOL    HW220946   2.897   2.876   2.171  0.3340 -0.3009 -0.1483
 3104SOL     OW20947   2.135   4.263  10.774 -0.1589  0.2648  0.2600
 3104SOL    HW120948   2.130   4.212  10.693  0.7318  2.2895 -1.0854
 3104SOL    HW220949   2.229   4.260  10.792 -0.5273 -1.9950  1.8004
 3105SOL     OW20950   0.859   3.165   4.393  0.3421 -0.2296  0.3873
 3105SOL    HW120951   0.855   3.191   4.301 -1.7136  0.1025  0.5642
 3105SOL    HW220952   0.871   3.250   4.435  2.9864 -0.2049 -0.4100
 3106SOL     OW20953   4.374   2.626  13.764  0.9685  0.5891 -0.7696
 3106SOL    HW120954   4.294   2.635  13.815  1.0797 -0.3729 -0.4272
 3106SOL    HW220955   4.358   2.536  13.736 -1.2059  1.3881 -2.0741
 3107SOL     OW20956   2.750   1.004   0.498 -0.5637  0.3595  0.0835
 3107SOL    HW120957   2.765   0.911   0.515 -0.6886  0.3115 -0.0729
 3107SOL    HW220958   2.655   1.015   0.498 -0.6524 -0.3420 -3.6080
 3108SOL     OW20959   1.605   2.467   7.967  0.0674  0.0482  0.1540
 3108SOL    HW120960   1.564   2.421   7.894 -2.3758  1.6089  0.5586
 3108SOL    HW220961   1.699   2.469   7.948  0.4171 -0.4631  1.7421
 3109SOL     OW20962   1.752   1.617   7.790 -0.0996 -0.3241  0.0634
 3109SOL    HW120963   1.762   1.602   7.696 -0.8294  2.9866 -0.5617
 3109SOL    HW220964   1.705   1.538   7.814 -0.6023  0.5946  2.1300
 3110SOL     OW20965   1.917   2.176   2.151  0.1887 -0.6331 -0.3973
 3110SOL    HW120966   1.900   2.192   2.244 -0.3952 -1.1590 -0.4147
 3110SOL    HW220967   1.834   2.183   2.106  1.2406  1.0066 -2.0726
 3111SOL     OW20968   1.903   4.250   4.430 -0.3444 -0.4259 -0.2364
 3111SOL    HW120969   1.845   4.302   4.487  2.9687  1.3631  1.5469
 3111SOL    HW220970   1.959   4.212   4.497 -0.4465 -1.0707 -0.5178
 3112SOL     OW20971   0.219   2.986   5.576 -0.4517  0.2343  0.4347
 3112SOL    HW120972   0.251   3.032   5.498  1.7382 -0.7513  0.7295
 3112SOL    HW220973   0.301   2.962   5.619 -0.7238  0.2750  0.9751
 3113SOL     OW20974   4.317   1.144   3.751 -0.1422 -0.1645  0.1490
 3113SOL    HW120975   4.324   1.157   3.657  0.6883  2.4121  0.5577
 3113SOL    HW220976   4.331   1.233   3.784 -1.6284  0.1746 -0.1501
 3114SOL     OW20977   4.442   0.251   6.428 -0.6001 -0.2967 -0.0827
 3114SOL    HW120978   4.401   0.181   6.378 -3.1335  0.0940  1.4404
 3114SOL    HW220979   4.498   0.200   6.487 -0.7744  1.7451  1.8357
 3115SOL     OW20980   4.119   4.339   2.353  0.4639 -0.2752 -0.4722
 3115SOL    HW120981   4.056   4.291   2.407  3.4157 -3.0327  0.4893
 3115SOL    HW220982   4.162   4.267   2.308  0.2233 -0.4719 -0.3869
 3116SOL     OW20983   1.207   4.457   5.139  0.1103 -0.0207  0.2063
 3116SOL    HW120984   1.283   4.456   5.081  2.0585  1.1148  2.7111
 3116SOL    HW220985   1.142   4.487   5.077 -1.3059 -1.9033  0.7845
 3117SOL     OW20986   2.269   0.092   2.327 -0.3483  0.8975 -0.0705
 3117SOL    HW120987   2.247   0.177   2.288 -0.4461  1.7097  1.7835
 3117SOL    HW220988   2.351   0.117   2.371 -0.6713 -0.6084  1.3760
 3118SOL     OW20989   3.829   4.253   0.798  0.5467 -0.1868  0.2460
 3118SOL    HW120990   3.916   4.212   0.797  0.0640 -1.2751  2.8201
 3118SOL    HW220991   3.777   4.195   0.743  0.4830 -0.4182  0.5507
 3119SOL     OW20992   3.377   4.360   5.781 -0.0437  0.3561 -0.0894
 3119SOL    HW120993   3.454   4.395   5.825 -0.7803  0.6150  0.9850
 3119SOL    HW220994   3.331   4.438   5.749  0.7668  1.0540  0.4338
 3120SOL     OW20995   4.329   4.557   1.996 -0.1786 -0.8312  0.1101
 3120SOL    HW120996   4.272   4.566   2.072 -1.0344 -0.1579 -0.6059
 3120SOL    HW220997   4.332   4.651   1.976 -0.7530 -0.7494  0.4027
 3121SOL     OW20998   1.337   0.695   1.375 -0.5884  0.0549  0.2954
 3121SOL    HW120999   1.285   0.683   1.455 -0.7370 -0.4799  0.1128
 3121SOL    HW221000   1.406   0.630   1.388  0.8313  1.8438  1.7543
 3122SOL     OW21001   0.846   1.702   6.834 -0.1630  0.9372  0.3038
 3122SOL    HW121002   0.789   1.750   6.894 -0.8173  1.1471 -0.4756
 3122SOL    HW221003   0.906   1.768   6.798  1.3967 -0.5881  0.0816
 3123SOL     OW21004   4.648   0.085   4.273  0.2047  0.2556  0.6858
 3123SOL    HW121005   4.643   4.735   4.314  2.1560  0.5695  1.5765
 3123SOL    HW221006   4.558   0.110   4.293 -0.3361 -1.4189  0.4022
 3124SOL     OW21007   3.441   0.730   1.283  0.1606  0.0059  0.1575
 3124SOL    HW121008   3.478   0.818   1.292 -0.3797  0.4186 -1.6869
 3124SOL    HW221009   3.517   0.685   1.246  0.5180 -0.9199  2.0149
 3125SOL     OW21010   2.764   1.846   9.788  0.2074 -0.0281 -0.0191
 3125SOL    HW121011   2.793   1.931   9.820 -0.8788  0.5848 -0.6970
 3125SOL    HW221012   2.676   1.849   9.823  0.3710  0.8424  0.3014
 3126SOL     OW21013   3.832   1.028  14.671  0.1919  0.0668 -0.0179
 3126SOL    HW121014   3.841   0.938  14.703 -1.1704 -0.0235  0.0829
 3126SOL    HW221015   3.874   1.026  14.584 -0.1236 -0.9220 -0.1475
 3127SOL     OW21016   3.652   3.605  15.907  0.0024 -0.0336 -0.5919
 3127SOL    HW121017   3.622   3.518  15.934  0.6971  0.5743  2.1410
 3127SOL    HW221018   3.702   3.584  15.828 -0.9507  1.8409 -1.6973
 3128SOL     OW21019   2.625   1.343  11.570 -0.5819  0.3287  0.6569
 3128SOL    HW121020   2.679   1.343  11.649 -0.7141 -0.8857  0.7472
 3128SOL    HW221021   2.678   1.298  11.504 -2.2273  0.1547 -0.5563
 3129SOL     OW21022   0.235   3.844   2.157 -0.4693  0.4774 -0.3263
 3129SOL    HW121023   0.217   3.925   2.109 -0.0191 -0.6112 -2.3176
 3129SOL    HW221024   0.174   3.852   2.231  0.2502  0.2141  0.2938
 3130SOL     OW21025   3.372   4.634   8.405 -0.3362  0.7298 -0.5300
 3130SOL    HW121026   3.287   4.594   8.425  0.8508 -1.0157  1.0776
 3130SOL    HW221027   3.393   4.595   8.320  0.3505  0.1087 -0.0795
 3131SOL     OW21028   4.152   0.193   7.539 -0.1370 -0.3562 -0.1835
 3131SOL    HW121029   4.248   0.188   7.534 -0.1481 -0.0785 -0.7602
 3131SOL    HW221030   4.131   0.118   7.594  2.6311  0.8682  2.6027
 3132SOL     OW21031   1.070   3.825   6.447  0.3352  0.3127  0.3380
 3132SOL    HW121032   0.979   3.810   6.423  0.1782  1.8233 -0.0004
 3132SOL    HW221033   1.096   3.743   6.489 -0.8918 -1.3053 -2.1109
 3133SOL     OW21034   3.476   1.172  16.801  0.0153  0.1713  0.0272
 3133SOL    HW121035   3.556   1.223  16.791  0.5464 -0.1387  2.7837
 3133SOL    HW221036   3.408   1.238  16.817 -1.5606 -1.7417  1.3357
 3134SOL     OW21037   3.143   0.618   7.770  0.1339  0.3810  0.1154
 3134SOL    HW121038   3.165   0.526   7.756  0.9504  0.5325  0.4190
 3134SOL    HW221039   3.230   0.656   7.776  0.8370 -1.3342  0.6775
 3135SOL     OW21040   4.677   3.747  12.571 -0.3184  0.5453  0.5005
 3135SOL    HW121041   4.607   3.736  12.635 -0.4725 -0.0280  0.2312
 3135SOL    HW221042   0.004   3.801  12.620 -0.1863  0.3188  0.5802
 3136SOL     OW21043   4.163   3.188   7.904 -0.0894  0.0702  0.1117
 3136SOL    HW121044   4.170   3.282   7.915 -1.6365  0.2409 -0.4084
 3136SOL    HW221045   4.103   3.176   7.831  1.7350 -2.5307 -0.9693
 3137SOL     OW21046   3.088   1.751   2.838  0.0355 -0.2196 -0.1689
 3137SOL    HW121047   3.021   1.800   2.789  0.0560 -0.1756 -0.1528
 3137SOL    HW221048   3.153   1.738   2.769  2.3468  1.2553  1.7486
 3138SOL     OW21049   1.291   4.649   6.029  0.5100  0.5414 -0.1484
 3138SOL    HW121050   1.265   4.630   6.119  0.8160  0.7384 -0.0192
 3138SOL    HW221051   1.247   4.732   6.011 -1.0393 -0.3042 -0.3198
 3139SOL     OW21052   2.898   0.978  12.077  0.1573 -0.3025  0.5768
 3139SOL    HW121053   2.911   0.942  12.165 -1.5528 -4.4186 -0.8818
 3139SOL    HW221054   2.975   0.944  12.031 -0.5781  1.7235 -2.1625
 3140SOL     OW21055   3.640   2.582   3.582 -0.1292  0.7869  0.5481
 3140SOL    HW121056   3.580   2.610   3.513 -0.0937 -1.6369 -0.4445
 3140SOL    HW221057   3.591   2.568   3.664  1.8907 -1.5143  1.3495
 3141SOL     OW21058   0.139   3.167   5.957  0.4550 -0.0324 -0.1552
 3141SOL    HW121059   0.091   3.196   5.879 -0.5065  0.8941  0.7899
 3141SOL    HW221060   0.226   3.193   5.924  0.5894  0.5957  0.6836
 3142SOL     OW21061   1.516   3.810   9.686  0.0147 -0.1399 -0.1223
 3142SOL    HW121062   1.427   3.819   9.652  0.2740  1.9732 -0.2535
 3142SOL    HW221063   1.500   3.861   9.765 -0.6897 -1.1873  0.4137
 3143SOL     OW21064   0.493   3.619   6.557 -0.3015 -0.4512  0.5011
 3143SOL    HW121065   0.416   3.673   6.536 -0.7293 -1.4198 -0.4105
 3143SOL    HW221066   0.456   3.532   6.546 -0.4062 -0.3380 -0.0161
 3144SOL     OW21067   3.694   3.956   6.409 -0.1145 -0.2969 -0.5232
 3144SOL    HW121068   3.698   4.014   6.485  3.6242 -0.2425 -0.8003
 3144SOL    HW221069   3.744   4.010   6.347 -2.9019  1.7128 -1.0753
 3145SOL     OW21070   2.087   3.208   1.779 -0.0100  0.2815 -0.1465
 3145SOL    HW121071   2.170   3.187   1.821 -0.4473  1.8305  1.4609
 3145SOL    HW221072   2.046   3.123   1.760 -0.7014  0.4242  0.7098
 3146SOL     OW21073   2.893   2.756   1.117 -0.0008 -0.3442 -0.0844
 3146SOL    HW121074   2.937   2.729   1.036  0.9732  0.0031  0.3299
 3146SOL    HW221075   2.932   2.712   1.193  0.2280  0.8087  0.4576
 3147SOL     OW21076   4.617   4.177   3.365  0.1387  0.0564 -0.0284
 3147SOL    HW121077   4.684   4.109   3.362  1.3178  1.2164  0.1987
 3147SOL    HW221078   4.595   4.189   3.457  0.0672 -2.3632  0.2595
 3148SOL     OW21079   2.903   2.274  14.535  0.3406  0.0484 -0.5638
 3148SOL    HW121080   2.858   2.267  14.450 -1.3351  0.6279  0.2634
 3148SOL    HW221081   2.829   2.256  14.593  1.6784  0.2945  1.1914
 3149SOL     OW21082   2.563   2.265   1.302  0.1278  0.2975 -0.2250
 3149SOL    HW121083   2.643   2.234   1.259  0.9892  3.5957 -1.0505
 3149SOL    HW221084   2.592   2.264   1.393 -1.1701  2.8237  0.2069
 3150SOL     OW21085   4.685   3.960   7.933  0.2527 -0.0674 -0.1566
 3150SOL    HW121086   4.606   3.921   7.969 -0.4929  2.1928  0.7051
 3150SOL    HW221087   0.011   3.887   7.927 -2.5188 -2.1957 -2.9642
 3151SOL     OW21088   4.403   4.476   3.707 -0.3944  0.6747 -0.2566
 3151SOL    HW121089   4.458   4.550   3.734  1.3344 -0.7197  0.0535
 3151SOL    HW221090   4.377   4.502   3.619  1.1315 -1.4915 -1.3625
 3152SOL     OW21091   3.858   2.244  10.686  0.2577  0.2287 -0.5442
 3152SOL    HW121092   3.946   2.261  10.720  0.6157 -1.6715 -0.4816
 3152SOL    HW221093   3.823   2.327  10.718 -1.2657 -0.4750 -0.4144
 3153SOL     OW21094   0.090   2.233   3.383  0.0374 -0.2918  0.5518
 3153SOL    HW121095   0.120   2.151   3.344  0.5636 -1.2212  2.9266
 3153SOL    HW221096   0.105   2.214   3.476 -0.2727  0.5534  0.7687
 3154SOL     OW21097   4.109   0.787  17.423  0.3615  0.1901 -0.1066
 3154SOL    HW121098   4.163   0.714  17.454  0.7296  1.1418  1.4821
 3154SOL    HW221099   4.112   0.855  17.490 -1.4178  0.8562 -0.6986
 3155SOL     OW21100   4.646   3.587   2.306  0.2259 -0.2766  0.0904
 3155SOL    HW121101   4.556   3.566   2.282  0.7261 -1.4480 -0.7712
 3155SOL    HW221102   4.646   3.593   2.401 -1.3749 -0.0676  0.0686
 3156SOL     OW21103   2.719   1.075  17.213 -0.8737 -0.2932 -0.8686
 3156SOL    HW121104   2.733   1.030  17.130  2.7213 -0.3467 -0.2421
 3156SOL    HW221105   2.804   1.061  17.255  0.0114  1.7623 -1.9944
 3157SOL     OW21106   1.017   1.070   4.126  0.5816 -0.0868  0.1177
 3157SOL    HW121107   1.084   1.032   4.069 -1.0361 -1.3661 -0.9172
 3157SOL    HW221108   0.964   1.097   4.051  1.7693  1.5482 -0.1633
 3158SOL     OW21109   3.076   2.171  10.743  0.0019 -0.5655 -0.4769
 3158SOL    HW121110   3.132   2.231  10.793  0.8131 -0.6267 -1.3136
 3158SOL    HW221111   3.094   2.199  10.654  1.6947 -0.8085 -0.2115
 3159SOL     OW21112   1.031   0.003   4.014  0.3432 -0.3037  1.0025
 3159SOL    HW121113   0.957   4.708   4.066  0.4770  0.1638  1.4788
 3159SOL    HW221114   1.019   0.098   4.027  2.8968 -0.1261  2.0851
 3160SOL     OW21115   3.886   4.628   2.705  0.1719 -0.3470 -0.4731
 3160SOL    HW121116   3.926   4.567   2.644  3.1740  1.9351 -0.7674
 3160SOL    HW221117   3.843   4.573   2.771  0.7217 -2.4510 -1.8922
 3161SOL     OW21118   3.558   1.623   1.812 -0.0601  0.3232 -0.5965
 3161SOL    HW121119   3.467   1.642   1.835  0.9077  2.9624  1.0003
 3161SOL    HW221120   3.542   1.550   1.752  0.8236  0.7031 -1.3007
 3162SOL     OW21121   0.330   1.025  12.804  0.1025  0.3714 -0.2130
 3162SOL    HW121122   0.358   0.952  12.749 -0.1495 -1.3263  1.9181
 3162SOL    HW221123   0.327   1.088  12.732 -1.5938  0.1211 -0.3498
 3163SOL     OW21124   4.007   0.775   6.092  0.5019 -0.1345 -0.1327
 3163SOL    HW121125   4.061   0.793   6.169 -0.0741  0.2247  0.1861
 3163SOL    HW221126   4.040   0.848   6.038  1.8607 -1.2395 -0.8014
 3164SOL     OW21127   1.365   2.752   4.346 -0.0802 -0.3814  0.3003
 3164SOL    HW121128   1.288   2.738   4.291 -0.5611 -4.6498  2.0243
 3164SOL    HW221129   1.411   2.823   4.302  4.7593 -3.7446 -0.0689
 3165SOL     OW21130   2.746   1.438   7.782  0.2123  0.3748  0.3635
 3165SOL    HW121131   2.817   1.501   7.788  1.7972 -1.7416  3.7511
 3165SOL    HW221132   2.678   1.474   7.839 -0.4608 -2.2934  1.2483
 3166SOL     OW21133   2.758   1.041   9.593 -0.2412  0.5651 -0.0747
 3166SOL    HW121134   2.845   1.014   9.563 -0.4774 -0.7001  0.3816
 3166SOL    HW221135   2.713   1.089   9.523  1.4447 -0.0287 -1.5586
 3167SOL     OW21136   1.937   0.799  14.250 -0.0933 -0.0769  0.4383
 3167SOL    HW121137   1.930   0.834  14.161 -2.9462  1.0898  1.1294
 3167SOL    HW221138   1.859   0.746  14.264  1.0035 -1.4459  1.3193
 3168SOL     OW21139   1.555   4.514   1.586  0.3069  0.1441 -0.4014
 3168SOL    HW121140   1.518   4.593   1.546  1.1699  1.3319  1.1208
 3168SOL    HW221141   1.611   4.548   1.656  1.9780 -0.9852 -1.2120
 3169SOL     OW21142   1.044   2.871   2.206 -0.7540 -0.0648 -0.4684
 3169SOL    HW121143   1.007   2.929   2.139  0.1549 -0.2088 -1.0982
 3169SOL    HW221144   1.108   2.921   2.257 -1.3028  0.2474 -0.0913
 3170SOL     OW21145   4.249   2.668  17.103 -0.4287  0.1072  0.6018
 3170SOL    HW121146   4.265   2.711  17.020 -1.2403 -1.2465 -0.2475
 3170SOL    HW221147   4.295   2.585  17.084 -1.6903 -0.9118  2.0070
 3171SOL     OW21148   0.598   0.336  17.417  0.5162 -0.1582 -0.4139
 3171SOL    HW121149   0.621   0.402  17.351  2.0830  1.8187  2.0736
 3171SOL    HW221150   0.503   0.340  17.417  0.5270  0.0912 -0.2549
 3172SOL     OW21151   0.164   2.017   3.240  0.2982  0.0607 -0.3474
 3172SOL    HW121152   0.245   1.989   3.199  0.9246  0.5204  0.5734
 3172SOL    HW221153   0.112   2.018   3.159 -1.1611  1.5849  0.6179
 3173SOL     OW21154   1.856   1.409   3.169 -0.0918 -0.0369 -0.3398
 3173SOL    HW121155   1.875   1.502   3.158 -0.5636  0.1039  0.0445
 3173SOL    HW221156   1.760   1.413   3.173 -0.2149 -3.6379  0.2150
 3174SOL     OW21157   3.619   4.567   3.699  0.2790  0.1250 -0.2137
 3174SOL    HW121158   3.664   4.588   3.780 -0.5864 -0.0225  0.3141
 3174SOL    HW221159   3.585   4.652   3.672 -1.0812 -0.2505  0.2982
 3175SOL     OW21160   4.396   0.943   8.588  0.2555 -0.0128 -0.4047
 3175SOL    HW121161   4.402   1.016   8.526  2.0894 -0.7264 -1.0404
 3175SOL    HW221162   4.371   0.975   8.675  0.7249 -0.2959 -0.1658
 3176SOL     OW21163   3.514   0.035   9.153 -0.3954  0.2007  0.0031
 3176SOL    HW121164   3.422   0.058   9.141 -0.4288  0.8940  1.6067
 3176SOL    HW221165   3.545   0.126   9.150  0.2213 -0.0765 -1.9533
 3177SOL     OW21166   1.260   4.284   0.916 -0.4490 -0.1563  0.0995
 3177SOL    HW121167   1.219   4.214   0.866 -0.3447 -0.1772  0.0427
 3177SOL    HW221168   1.347   4.245   0.921  0.0379  0.7408 -1.4441
 3178SOL     OW21169   0.999   3.756  17.303  0.4344 -0.1290 -0.1488
 3178SOL    HW121170   0.999   3.762  17.398  1.0407  0.7383 -0.2095
 3178SOL    HW221171   0.996   3.849  17.283  0.1947  0.2020  1.4747
 3179SOL     OW21172   4.112   4.408   7.935  0.2099  0.0089 -0.2364
 3179SOL    HW121173   4.181   4.406   7.869  0.6744  0.8083  0.2196
 3179SOL    HW221174   4.114   4.319   7.970 -2.0482 -0.7878 -2.1466
 3180SOL     OW21175   2.366   0.428   8.225 -0.5252  0.4696 -0.1182
 3180SOL    HW121176   2.355   0.521   8.206  0.0730  0.6575  0.4663
 3180SOL    HW221177   2.273   0.405   8.215 -0.7108  0.9293  0.5211
 3181SOL     OW21178   0.046   0.622   0.130 -0.2974  0.1304 -0.2546
 3181SOL    HW121179   4.719   0.554   0.153 -1.3378  1.0276 -0.4681
 3181SOL    HW221180   4.733   0.685   0.078  0.5664  0.2627 -0.9268
 3182SOL     OW21181   2.685   0.492  12.010  0.1489  0.1946  0.1610
 3182SOL    HW121182   2.669   0.574  11.964  0.4455 -0.5189 -1.2267
 3182SOL    HW221183   2.723   0.449  11.933  1.3797 -0.0528  0.9188
 3183SOL     OW21184   4.652   1.365   1.671  0.0083  0.4020  0.5074
 3183SOL    HW121185   4.658   1.374   1.576  1.8625 -2.4774  0.3627
 3183SOL    HW221186   4.564   1.333   1.693 -0.4890  0.5411 -1.2345
 3184SOL     OW21187   0.002   3.524  15.295 -0.5449 -0.5760 -0.8103
 3184SOL    HW121188   0.040   3.437  15.284  0.4007 -0.1619 -0.8256
 3184SOL    HW221189   0.034   3.572  15.218 -2.6459  2.6891  0.3127
 3185SOL     OW21190   0.131   4.167   9.243 -0.0803  0.6066  0.2391
 3185SOL    HW121191   0.191   4.191   9.172 -1.3779  2.4037 -0.2369
 3185SOL    HW221192   0.196   4.160   9.313 -0.0049 -0.5761  0.0514
 3186SOL     OW21193   2.455   0.494   2.482 -0.2119  0.3364  0.0445
 3186SOL    HW121194   2.543   0.506   2.519 -0.6090 -0.1607  1.1517
 3186SOL    HW221195   2.471   0.563   2.419  2.0216 -1.8676 -1.8357
 3187SOL     OW21196   3.155   1.704  11.089  0.5361 -0.1491 -0.6655
 3187SOL    HW121197   3.065   1.712  11.058  0.3328  0.4764  0.0771
 3187SOL    HW221198   3.152   1.783  11.143  1.5695 -1.2468  0.9863
 3188SOL     OW21199   4.259   4.591   6.337  0.2038  0.2672  0.1055
 3188SOL    HW121200   4.345   4.551   6.321  0.3506 -0.3650  2.4859
 3188SOL    HW221201   4.258   4.556   6.426  0.0131 -2.0616 -0.7981
 3189SOL     OW21202   2.683   2.254   1.555  0.0860 -0.0856  0.1784
 3189SOL    HW121203   2.757   2.209   1.596 -0.1631 -1.1064 -0.4926
 3189SOL    HW221204   2.616   2.191   1.583  0.5876 -1.0422 -0.7827
 3190SOL     OW21205   2.281   4.697  15.037  0.0899  0.5275  0.6431
 3190SOL    HW121206   2.218   0.020  15.077  0.2778  0.7492  0.6115
 3190SOL    HW221207   2.357   4.719  15.091  0.5533 -0.4657  0.4022
 3191SOL     OW21208   3.761   2.188   7.383  0.1280 -0.1359 -0.0901
 3191SOL    HW121209   3.831   2.135   7.345 -1.9879 -1.2325 -2.4616
 3191SOL    HW221210   3.809   2.266   7.412 -2.4098  1.1230  0.7081
 3192SOL     OW21211   0.691   0.024   6.322  0.2928 -0.1263 -0.3043
 3192SOL    HW121212   0.737   0.047   6.242  0.5934 -0.9494 -0.3662
 3192SOL    HW221213   0.614   0.076   6.299 -0.6981 -1.8575 -0.9649
 3193SOL     OW21214   4.533   2.476   0.047 -0.0352 -0.7925  0.1481
 3193SOL    HW121215   4.479   2.525   0.108  0.9122  0.5195 -0.0593
 3193SOL    HW221216   4.483   2.396   0.033 -0.2620 -0.1451 -2.7339
 3194SOL     OW21217   2.668   3.144   4.903  0.1143  0.1765  0.1897
 3194SOL    HW121218   2.666   3.138   4.999  2.5135  1.8827  0.3480
 3194SOL    HW221219   2.726   3.073   4.876 -5.3338 -3.8645 -0.9199
 3195SOL     OW21220   2.137   1.733  10.560  0.5671  0.4175 -0.7096
 3195SOL    HW121221   2.163   1.818  10.524 -0.6577  1.4885  0.9372
 3195SOL    HW221222   2.112   1.751  10.651 -0.1799  2.2418 -1.2671
 3196SOL     OW21223   2.934   1.657  10.962 -0.0862  0.6170 -0.2165
 3196SOL    HW121224   2.870   1.626  10.898  0.2099  0.0429 -0.2320
 3196SOL    HW221225   2.886   1.727  11.006 -1.4635  0.9483 -2.2275
 3197SOL     OW21226   4.059   2.736  14.080  0.3999 -0.0907 -0.0808
 3197SOL    HW121227   4.131   2.727  14.143 -1.1455  0.7279  1.8037
 3197SOL    HW221228   3.992   2.744  14.148  1.3311 -0.4173  0.8706
 3198SOL     OW21229   3.590   4.470   2.303  0.6397  0.1803  0.1308
 3198SOL    HW121230   3.574   4.557   2.338 -1.5079  0.0517 -0.5473
 3198SOL    HW221231   3.681   4.478   2.274  1.7494  0.8288  3.7161
 3199SOL     OW21232   2.151   0.424  17.277 -0.3615 -0.0036 -0.4062
 3199SOL    HW121233   2.104   0.346  17.307  0.5950 -0.5967 -0.4710
 3199SOL    HW221234   2.134   0.492  17.342 -0.0846 -0.7167  0.4182
 3200SOL     OW21235   4.417   1.078  15.500 -0.5294  0.1451 -0.0451
 3200SOL    HW121236   4.367   1.125  15.434  0.4448 -0.0604 -0.9413
 3200SOL    HW221237   4.476   1.032  15.440  0.4026 -0.2705  1.1719
 3201SOL     OW21238   4.130   1.994   9.053 -0.1852 -0.4524 -0.1747
 3201SOL    HW121239   4.096   1.929   9.114  1.3958  0.1544  1.3653
 3201SOL    HW221240   4.099   2.072   9.099 -0.6450 -1.2186  0.8157
 3202SOL     OW21241   4.312   4.473   0.438 -0.2331  0.5824 -0.4673
 3202SOL    HW121242   4.283   4.553   0.483 -0.6024 -0.4264  1.0894
 3202SOL    HW221243   4.381   4.509   0.382 -0.4742  0.8691 -0.5798
 3203SOL     OW21244   0.765   2.386  17.214 -0.2305 -0.2967 -0.3274
 3203SOL    HW121245   0.720   2.460  17.174 -2.2771 -0.9893  0.6853
 3203SOL    HW221246   0.802   2.342  17.138 -0.9234 -1.4407 -0.0093
 3204SOL     OW21247   1.390   2.431   6.233  0.7376  0.2608  0.1354
 3204SOL    HW121248   1.311   2.386   6.202  0.9432  0.0002 -0.0118
 3204SOL    HW221249   1.428   2.454   6.148  1.8480 -2.7598 -0.1991
 3205SOL     OW21250   3.431   1.707   8.924  0.0539  0.4314 -0.0988
 3205SOL    HW121251   3.395   1.791   8.897 -1.1255  0.4633  1.5723
 3205SOL    HW221252   3.442   1.705   9.019 -0.2520 -0.6467 -0.0893
 3206SOL     OW21253   2.371   1.246   2.522  0.0149  1.0025  0.3009
 3206SOL    HW121254   2.427   1.319   2.497 -0.2953  1.3785  0.7035
 3206SOL    HW221255   2.425   1.170   2.501 -0.3281  1.3316 -1.6973
 3207SOL     OW21256   1.894   4.539   5.583  0.1784 -0.3886  0.5557
 3207SOL    HW121257   1.858   4.457   5.549 -1.2570 -0.2944  1.8425
 3207SOL    HW221258   1.916   4.585   5.502 -0.1593  0.8845  1.1889
 3208SOL     OW21259   0.417   1.532   9.051 -0.5903  0.6466 -0.0548
 3208SOL    HW121260   0.509   1.519   9.030 -1.1479 -1.2305 -1.3106
 3208SOL    HW221261   0.406   1.627   9.051  0.3837  0.7558 -1.6456
 3209SOL     OW21262   0.627   3.796   0.510  0.1259  0.4342  0.2865
 3209SOL    HW121263   0.577   3.872   0.541 -1.3290 -1.0050  1.4652
 3209SOL    HW221264   0.609   3.745   0.588  0.5845 -0.5789 -0.2756
 3210SOL     OW21265   0.412   0.738   6.473  0.1533 -0.2944  0.2704
 3210SOL    HW121266   0.456   0.680   6.535  1.4810  1.6103  1.1420
 3210SOL    HW221267   0.474   0.811   6.481  0.4749 -0.6089  0.6634
 3211SOL     OW21268   3.194   2.135   6.461 -0.0503  0.4418  0.0875
 3211SOL    HW121269   3.284   2.167   6.470 -0.1308  0.3670  1.2836
 3211SOL    HW221270   3.142   2.215   6.455 -2.7805 -1.1633  1.9412
 3212SOL     OW21271   1.276   2.635   2.791 -0.8677  0.0228 -0.4196
 3212SOL    HW121272   1.200   2.598   2.837 -0.2773  0.6104  1.0412
 3212SOL    HW221273   1.238   2.714   2.751  1.6460  0.3371 -2.1684
 3213SOL     OW21274   2.471   4.282   3.069  0.3983 -0.1176  0.2670
 3213SOL    HW121275   2.441   4.358   3.119  1.5449 -0.9272  2.1391
 3213SOL    HW221276   2.389   4.253   3.028  0.4465 -0.3508  0.3408
 3214SOL     OW21277   3.913   1.378   7.130  0.4203 -0.1317 -0.0245
 3214SOL    HW121278   3.977   1.383   7.058 -0.3470  2.3404 -0.5564
 3214SOL    HW221279   3.860   1.457   7.118 -0.6466 -0.3437  3.5500
 3215SOL     OW21280   2.443   2.308  10.042 -0.1341  0.5658 -0.3764
 3215SOL    HW121281   2.427   2.337   9.952  2.2230  1.7636 -0.4134
 3215SOL    HW221282   2.523   2.356  10.064 -1.2085  1.5701  1.3314
 3216SOL     OW21283   2.808   2.369   4.330  0.3898  0.5261  0.0952
 3216SOL    HW121284   2.895   2.397   4.356 -0.7249  0.3208  4.0112
 3216SOL    HW221285   2.746   2.437   4.357  0.2926  0.0918  0.9528
 3217SOL     OW21286   1.476   3.403   3.946 -0.6571 -0.8633 -0.6726
 3217SOL    HW121287   1.394   3.385   3.899 -2.0621 -0.9921  1.7969
 3217SOL    HW221288   1.437   3.411   4.033  2.3164 -0.2171  0.5814
 3218SOL     OW21289   0.936   0.134   3.011  0.3446 -0.3665  0.1489
 3218SOL    HW121290   0.954   0.150   3.104 -1.1481  0.2206  0.3301
 3218SOL    HW221291   0.875   0.061   3.020 -0.6999  0.3663 -1.0269
 3219SOL     OW21292   1.735   3.242  11.867 -0.1012 -0.3609  0.2507
 3219SOL    HW121293   1.740   3.162  11.815  1.2777 -0.0490 -0.1032
 3219SOL    HW221294   1.815   3.291  11.845 -0.9975 -0.0524 -2.3212
 3220SOL     OW21295   0.897   2.079   5.729 -0.0301 -0.0310  0.0000
 3220SOL    HW121296   0.870   1.987   5.724 -1.4623  0.2980  1.6722
 3220SOL    HW221297   0.884   2.097   5.636 -0.6647  0.1135  0.1167
 3221SOL     OW21298   1.731   0.926   3.040 -0.0037  0.5783  0.2873
 3221SOL    HW121299   1.788   0.940   3.116  0.6238  3.9330 -0.7664
 3221SOL    HW221300   1.780   0.856   2.997 -0.0402 -0.1497  1.4402
 3222SOL     OW21301   2.967   1.144   3.576  0.2602  0.2433 -0.0582
 3222SOL    HW121302   2.993   1.137   3.668  1.5770  0.9855 -0.3708
 3222SOL    HW221303   2.939   1.235   3.573  1.1508  0.5478  0.7725
 3223SOL     OW21304   1.719   4.441   5.773  0.5243  0.1129  0.0593
 3223SOL    HW121305   1.783   4.482   5.714  1.2612 -1.4454 -0.2217
 3223SOL    HW221306   1.653   4.511   5.781  2.5893  1.5537  4.2750
 3224SOL     OW21307   3.485   4.323   6.633  0.1687  0.4872 -0.5769
 3224SOL    HW121308   3.440   4.321   6.548 -0.5230  0.0505 -0.2022
 3224SOL    HW221309   3.529   4.408   6.634 -0.0792  0.6128 -0.1884
 3225SOL     OW21310   1.928   2.893   8.744 -0.3233  0.5268 -0.0613
 3225SOL    HW121311   2.019   2.867   8.733 -0.6667 -0.7282  0.0862
 3225SOL    HW221312   1.936   2.930   8.832 -0.4041  1.0762 -0.2814
 3226SOL     OW21313   1.660   2.432   4.994  0.2968 -0.5660  0.0571
 3226SOL    HW121314   1.716   2.385   4.933  0.5331  1.1745 -1.0508
 3226SOL    HW221315   1.609   2.477   4.928  0.0227  0.7015  1.1375
 3227SOL     OW21316   1.685   1.574   0.586 -0.1366 -0.2063 -0.1487
 3227SOL    HW121317   1.665   1.590   0.494  0.1270 -0.4528 -0.2490
 3227SOL    HW221318   1.596   1.570   0.621 -0.3614  1.5327 -0.5361
 3228SOL     OW21319   4.362   1.599   3.092  0.3730  0.5547 -0.5946
 3228SOL    HW121320   4.275   1.593   3.052 -0.1211  0.0039  0.5408
 3228SOL    HW221321   4.385   1.506   3.102  1.8149  1.1608  1.4900
 3229SOL     OW21322   4.464   4.184  11.902  0.3264  0.0300  0.3827
 3229SOL    HW121323   4.560   4.186  11.901  0.3690 -0.9942  2.0655
 3229SOL    HW221324   4.449   4.278  11.891  2.3436  0.1651 -1.2691
 3230SOL     OW21325   0.833   2.899   1.008 -0.3578  0.2558 -0.2463
 3230SOL    HW121326   0.805   2.960   0.939 -0.7806 -0.1771 -0.4600
 3230SOL    HW221327   0.752   2.851   1.026 -0.6422  0.5610 -0.6980
 3231SOL     OW21328   4.627   1.650   6.963 -0.5061  0.6805 -0.3116
 3231SOL    HW121329   4.681   1.600   7.025  0.0616  0.5869 -0.8762
 3231SOL    HW221330   4.660   1.618   6.879  1.0039 -1.1111  0.9510
 3232SOL     OW21331   2.516   1.255   4.678  0.0694 -0.0543 -0.2937
 3232SOL    HW121332   2.471   1.170   4.681 -0.1759  0.0216 -2.0541
 3232SOL    HW221333   2.477   1.311   4.612  3.2975  2.5724  0.0489
 3233SOL     OW21334   0.025   1.102   1.802 -0.2108  0.1534 -0.6141
 3233SOL    HW121335   4.716   1.147   1.731 -1.0583 -0.1799 -0.2897
 3233SOL    HW221336   4.686   1.093   1.861 -1.2304  3.9046 -1.3414
 3234SOL     OW21337   0.815   2.916   9.172  0.9676  0.6045  0.1404
 3234SOL    HW121338   0.745   2.888   9.232 -0.4628 -1.6101 -2.5590
 3234SOL    HW221339   0.898   2.909   9.218  0.4066  1.1414  1.2256
 3235SOL     OW21340   3.202   4.708   8.863  0.3137  0.4646 -0.0050
 3235SOL    HW121341   3.189   4.625   8.909 -0.9205 -0.2641 -1.6828
 3235SOL    HW221342   3.264   4.692   8.791 -1.2422  0.4204 -1.3265
 3236SOL     OW21343   1.943   3.013   7.303 -0.4983 -0.6311 -0.0703
 3236SOL    HW121344   1.944   2.989   7.396  2.8882 -0.9603 -0.1924
 3236SOL    HW221345   2.010   3.080   7.288 -2.7928  1.2017 -2.1703
 3237SOL     OW21346   0.949   1.200   7.094  0.3047 -0.5264  0.0785
 3237SOL    HW121347   0.927   1.154   7.175 -0.2640 -1.7278 -0.7515
 3237SOL    HW221348   0.908   1.137   7.034 -0.3330  0.2801 -0.3287
 3238SOL     OW21349   3.461   2.981   6.606  0.5129 -0.6805  0.3720
 3238SOL    HW121350   3.429   2.936   6.685  2.0415 -1.0846  0.7616
 3238SOL    HW221351   3.556   2.978   6.614  0.5352  0.7333  0.7442
 3239SOL     OW21352   4.321   1.312  15.767 -0.0037  0.2788 -0.3246
 3239SOL    HW121353   4.291   1.223  15.750 -0.9434  0.9568 -2.2279
 3239SOL    HW221354   4.241   1.362  15.750  0.7940  0.8854 -2.3207
 3240SOL     OW21355   1.175   3.317   5.080 -0.4156 -0.3643  0.3928
 3240SOL    HW121356   1.168   3.407   5.112  1.5333 -0.4202  0.9658
 3240SOL    HW221357   1.163   3.270   5.163 -0.7673  0.8608  1.0414
 3241SOL     OW21358   3.521   4.155   6.859 -0.4640  0.3677  0.0698
 3241SOL    HW121359   3.533   4.203   6.777  2.0015  1.4587  1.0752
 3241SOL    HW221360   3.550   4.211   6.931  1.3413 -0.6406  0.1211
 3242SOL     OW21361   0.759   4.550   4.711 -0.1809  0.3572  0.1092
 3242SOL    HW121362   0.704   4.562   4.633  2.1841 -1.3160 -1.7958
 3242SOL    HW221363   0.696   4.525   4.779  1.7338 -0.8760  1.4482
 3243SOL     OW21364   1.704   1.095   7.895 -0.6906 -0.0720  0.1053
 3243SOL    HW121365   1.769   1.117   7.828  0.3125  0.4693  1.2687
 3243SOL    HW221366   1.737   1.007   7.911 -1.6208 -0.3104  0.7416
 3244SOL     OW21367   1.025   3.606   0.068  0.3285  0.1372  0.0651
 3244SOL    HW121368   1.043   3.691   0.108  0.1495 -0.4270  1.3675
 3244SOL    HW221369   1.020   3.634  17.720  3.0244 -1.7016 -0.6518
 3245SOL     OW21370   0.460   2.579  17.662 -0.0402  0.2909 -0.2590
 3245SOL    HW121371   0.465   2.674  17.656  0.6639  0.3293  0.8937
 3245SOL    HW221372   0.533   2.556  17.719 -0.3525 -1.1060 -0.4255
 3246SOL     OW21373   3.363   0.362  17.610 -0.0185  0.0817  0.6612
 3246SOL    HW121374   3.454   0.388  17.625  0.3049 -0.6341  0.0019
 3246SOL    HW221375   3.343   0.298  17.678  0.6038 -1.0520 -0.2125
 3247SOL     OW21376   3.296   2.181   6.901  0.4321 -0.3673  0.4216
 3247SOL    HW121377   3.309   2.090   6.875 -1.1836  0.0434 -1.7757
 3247SOL    HW221378   3.282   2.181   6.995 -2.4302  0.8064  0.0072
 3248SOL     OW21379   0.966   4.583   6.179 -0.1965 -0.1880 -0.8224
 3248SOL    HW121380   0.961   4.677   6.195 -1.5712 -0.7728  2.2242
 3248SOL    HW221381   1.060   4.571   6.192 -0.3549 -0.1959  0.3569
 3249SOL     OW21382   2.132   2.879   2.428  0.3000  0.1152  0.2104
 3249SOL    HW121383   2.154   2.897   2.337  1.7856 -3.3771 -0.0857
 3249SOL    HW221384   2.161   2.789   2.441 -2.1795 -0.8595 -1.0190
 3250SOL     OW21385   2.028   1.085   3.448  0.1637 -0.1712  0.0504
 3250SOL    HW121386   1.997   1.081   3.539  0.0295 -0.8360 -0.0247
 3250SOL    HW221387   2.039   1.180   3.440  0.1183 -0.0625  1.2461
 3251SOL     OW21388   1.427   3.085   3.790  0.0524  0.5569  0.1107
 3251SOL    HW121389   1.513   3.129   3.794  0.1113  0.5048 -0.6287
 3251SOL    HW221390   1.372   3.160   3.814  1.7653  1.4186  1.4284
 3252SOL     OW21391   3.349   3.694   5.043 -0.2699  0.2759  0.1906
 3252SOL    HW121392   3.303   3.620   5.002 -0.0567  0.2685 -0.0409
 3252SOL    HW221393   3.386   3.650   5.120 -1.8519 -0.2787  0.6271
 3253SOL     OW21394   0.029   3.615  15.745 -0.4292 -0.1894 -0.1699
 3253SOL    HW121395   0.121   3.631  15.767 -0.6095 -0.1004  0.5193
 3253SOL    HW221396   4.730   3.635  15.832 -1.9975 -1.9445 -0.4138
 3254SOL     OW21397   4.021   1.102   3.192  0.3180  0.0960 -0.4613
 3254SOL    HW121398   4.100   1.126   3.143  0.1887  2.0632  0.2669
 3254SOL    HW221399   4.043   1.111   3.285 -0.3064  0.6409 -0.3635
 3255SOL     OW21400   4.606   3.126   4.127  0.5511  0.1879 -0.1109
 3255SOL    HW121401   4.617   3.198   4.189  2.3917 -0.4671  0.3033
 3255SOL    HW221402   4.578   3.059   4.190 -0.5722  0.4381 -0.3291
 3256SOL     OW21403   0.171   3.980   4.961  0.1029 -0.2690  0.2680
 3256SOL    HW121404   0.156   3.917   4.891  0.0689  1.6816 -1.5081
 3256SOL    HW221405   0.083   4.017   4.957  0.1778 -0.2363 -1.0066
 3257SOL     OW21406   1.499   4.219   3.430  0.1591 -0.0643  0.9566
 3257SOL    HW121407   1.505   4.200   3.524  0.9908  0.5604  1.0309
 3257SOL    HW221408   1.405   4.209   3.416 -0.1976 -0.4440  3.4574
 3258SOL     OW21409   4.646   3.792  13.493 -0.7174 -0.1087 -0.6918
 3258SOL    HW121410   4.569   3.847  13.508 -1.0229 -0.1547 -2.1128
 3258SOL    HW221411   4.720   3.848  13.515 -0.7455 -1.0595  1.9056
 3259SOL     OW21412   1.047   1.261   6.762 -0.0771  0.3884 -0.2230
 3259SOL    HW121413   1.020   1.176   6.797  2.7910  0.5175  2.2070
 3259SOL    HW221414   1.108   1.229   6.696  0.3321 -0.7191  0.6994
 3260SOL     OW21415   3.467   0.059   2.581 -0.0053  0.6644  0.0438
 3260SOL    HW121416   3.511   0.134   2.620 -0.0353  1.0385 -0.6372
 3260SOL    HW221417   3.471   0.084   2.488 -0.4932 -0.9565 -0.4096
 3261SOL     OW21418   0.933   4.097   9.638 -0.3503  0.3107  0.0567
 3261SOL    HW121419   0.906   4.187   9.657 -0.8633  0.0554  0.5296
 3261SOL    HW221420   0.912   4.065   9.726 -0.6450 -1.2251 -0.5660
 3262SOL     OW21421   4.188   2.162   8.406 -0.0677 -0.0055  0.4146
 3262SOL    HW121422   4.268   2.199   8.443 -1.2319  1.6378  1.3167
 3262SOL    HW221423   4.209   2.197   8.320  1.6319 -3.2151 -0.4551
 3263SOL     OW21424   3.698   1.144  14.879 -0.3300 -0.1214 -0.1635
 3263SOL    HW121425   3.759   1.138  14.805  1.4849 -0.2511  1.3637
 3263SOL    HW221426   3.629   1.083  14.854 -0.4987  0.0846 -0.2045
 3264SOL     OW21427   2.768   3.377   2.596 -0.2696  0.4735  0.0068
 3264SOL    HW121428   2.672   3.375   2.598 -0.1888 -1.8580  1.8084
 3264SOL    HW221429   2.781   3.455   2.650  0.0741  0.9608 -0.7812
 3265SOL     OW21430   4.340   3.535  11.507  0.1739  0.4329 -0.7311
 3265SOL    HW121431   4.245   3.543  11.515  0.5381  1.5469  2.6187
 3265SOL    HW221432   4.353   3.441  11.522  1.1774  0.2264 -2.9910
 3266SOL     OW21433   0.501   1.773  13.371  0.0665  0.4830  0.1393
 3266SOL    HW121434   0.538   1.818  13.296 -0.8714  0.3640 -0.3991
 3266SOL    HW221435   0.408   1.782  13.349  0.7714  0.2226 -2.8709
 3267SOL     OW21436   2.829   3.055   2.655 -0.7023 -0.7093 -0.1316
 3267SOL    HW121437   2.760   3.003   2.695 -0.5378  0.9084  2.3177
 3267SOL    HW221438   2.790   3.142   2.660  0.0873 -0.1951 -3.0393
 3268SOL     OW21439   2.596   3.155   7.398  0.5406  0.2369 -0.3013
 3268SOL    HW121440   2.646   3.169   7.318  1.1385  0.8566  0.1806
 3268SOL    HW221441   2.549   3.073   7.381  2.3076 -1.1873  1.6862
 3269SOL     OW21442   4.387   1.241   1.754 -0.3122 -0.1645  0.3449
 3269SOL    HW121443   4.399   1.146   1.759 -0.7866 -0.3894 -2.5856
 3269SOL    HW221444   4.349   1.258   1.840 -0.9957 -3.3652  0.6549
 3270SOL     OW21445   2.534   1.949  11.948 -0.2443  0.2420 -0.1019
 3270SOL    HW121446   2.558   1.942  12.040  0.2015  0.5107 -0.1963
 3270SOL    HW221447   2.550   1.856  11.933  1.1609  0.4935 -0.1582
 3271SOL     OW21448   2.974   4.264   4.323 -0.0018  0.7759 -0.1628
 3271SOL    HW121449   3.016   4.308   4.396  1.2197 -1.5332  0.5163
 3271SOL    HW221450   3.047   4.267   4.262  0.2878  1.6213  0.2211
 3272SOL     OW21451   0.060   0.528   1.205 -0.6898  0.4166  0.0255
 3272SOL    HW121452   0.075   0.593   1.273  0.9138  1.0362 -0.9341
 3272SOL    HW221453   0.130   0.464   1.217 -0.3128  0.2486 -2.9560
 3273SOL     OW21454   0.028   2.933  16.298 -0.0685 -0.0256 -0.4980
 3273SOL    HW121455   0.035   2.950  16.204  0.0191 -1.1403 -0.6916
 3273SOL    HW221456   0.077   2.851  16.305  1.5743  0.9440 -0.7099
 3274SOL     OW21457   1.910   1.279   7.370  0.0603 -0.3876 -0.2696
 3274SOL    HW121458   1.990   1.253   7.415 -0.7767 -0.8106  0.9730
 3274SOL    HW221459   1.877   1.192   7.348 -1.3821  0.3416 -0.9855
 3275SOL     OW21460   1.993   1.023   5.794  0.3766  0.4274 -0.4461
 3275SOL    HW121461   2.040   0.952   5.838 -0.7791  0.2232  0.4631
 3275SOL    HW221462   1.903   1.015   5.825  1.4805  0.6531  2.9023
 3276SOL     OW21463   1.980   0.372   4.924 -0.1829 -0.1183 -0.0400
 3276SOL    HW121464   1.982   0.366   4.828  1.6149  0.0200 -0.0242
 3276SOL    HW221465   1.980   0.280   4.951  3.1553  0.1142  0.7533
 3277SOL     OW21466   3.784   2.505   0.979 -0.0520 -0.5012 -0.8494
 3277SOL    HW121467   3.740   2.589   0.990  1.3645  0.2021 -0.5608
 3277SOL    HW221468   3.870   2.531   0.946 -1.0708  1.8071 -1.6425
 3278SOL     OW21469   1.370   3.770   8.572  0.6102  0.4620 -0.7009
 3278SOL    HW121470   1.387   3.854   8.615  0.2883 -0.7495  1.8024
 3278SOL    HW221471   1.301   3.797   8.512  1.2316  0.6089 -1.3419
 3279SOL     OW21472   4.676   2.850   3.591  0.6108  0.1817 -0.4080
 3279SOL    HW121473   0.028   2.813   3.595  1.4251  2.1260 -0.2660
 3279SOL    HW221474   4.689   2.920   3.526  2.4589  0.7516  0.5780
 3280SOL     OW21475   3.686   2.551   6.972 -0.5120 -0.5792  0.1856
 3280SOL    HW121476   3.753   2.483   6.976 -0.9758 -0.9966  0.7835
 3280SOL    HW221477   3.616   2.512   7.024 -1.5667  1.6069  0.4125
 3281SOL     OW21478   2.272   3.735   7.300  0.1156  0.0546 -0.2483
 3281SOL    HW121479   2.215   3.742   7.377  0.3495 -0.9758  0.0200
 3281SOL    HW221480   2.359   3.738   7.340  0.3423  1.2568 -0.8539
 3282SOL     OW21481   4.363   4.689   4.836  0.0800  0.2093 -0.4303
 3282SOL    HW121482   4.325   0.032   4.873 -1.1968 -1.3355  1.5751
 3282SOL    HW221483   4.413   4.720   4.761  0.7350 -1.7069 -0.7852
 3283SOL     OW21484   0.879   1.279   2.665  0.3417  0.0140  0.0340
 3283SOL    HW121485   0.953   1.338   2.654  1.7623 -1.6417  0.8129
 3283SOL    HW221486   0.812   1.346   2.647  0.3873 -0.2688 -1.1652
 3284SOL     OW21487   3.921   0.428   4.967  0.4549  0.1443 -0.2368
 3284SOL    HW121488   3.826   0.430   4.981  0.3998 -0.2258 -0.5665
 3284SOL    HW221489   3.950   0.467   5.049 -0.4345  0.1551  0.0753
 3285SOL     OW21490   4.686   2.748  15.626  0.5357  0.0543 -0.3141
 3285SOL    HW121491   4.688   2.652  15.630 -1.1196  0.0163 -0.3944
 3285SOL    HW221492   4.613   2.769  15.569 -1.3370  0.1952  2.1261
 3286SOL     OW21493   2.811   3.493   3.848  0.1944  0.0797  0.0040
 3286SOL    HW121494   2.896   3.535   3.838  0.0043  0.4185 -0.1585
 3286SOL    HW221495   2.822   3.467   3.940 -1.2368 -0.1377  0.1211
 3287SOL     OW21496   4.088   2.633   0.499  0.0550  0.4087 -0.2369
 3287SOL    HW121497   4.158   2.655   0.561 -1.0623  0.3044  1.0529
 3287SOL    HW221498   4.105   2.544   0.469  0.7561  1.0942 -1.8932
 3288SOL     OW21499   3.001   1.550   6.061 -0.1440 -0.3228  0.5068
 3288SOL    HW121500   2.982   1.617   5.995  1.8601  1.1590  1.4411
 3288SOL    HW221501   2.999   1.469   6.010  2.9108 -1.9844  3.0025
 3289SOL     OW21502   3.261   2.550   0.520 -0.1771 -0.2738  1.0078
 3289SOL    HW121503   3.176   2.577   0.552 -0.8880  0.5252 -1.5188
 3289SOL    HW221504   3.242   2.457   0.505 -0.8218  0.0929 -0.4446
 3290SOL     OW21505   1.077   2.407   6.653 -0.2841 -0.4360  0.3189
 3290SOL    HW121506   1.154   2.463   6.664 -0.0658 -0.7274  0.2775
 3290SOL    HW221507   1.044   2.388   6.741 -4.6124 -3.5831 -2.0319
 3291SOL     OW21508   1.848   2.222   8.856 -0.8452 -0.0762  0.3458
 3291SOL    HW121509   1.774   2.163   8.845 -0.1002 -0.5309 -2.4011
 3291SOL    HW221510   1.805   2.307   8.845  2.7314  1.7393  0.4280
 3292SOL     OW21511   0.248   3.851   5.182 -0.0067  0.0115 -0.7464
 3292SOL    HW121512   0.262   3.903   5.102 -0.4051  0.7497 -0.3348
 3292SOL    HW221513   0.159   3.884   5.196  0.5774  0.2173  2.3850
 3293SOL     OW21514   3.990   2.654   1.979  0.0552  0.4437 -0.1032
 3293SOL    HW121515   4.053   2.596   2.021 -1.2125 -0.0906  1.0693
 3293SOL    HW221516   4.010   2.743   2.008 -0.3284  0.4428  0.1678
 3294SOL     OW21517   2.222   2.956   6.409 -0.2318 -0.2187 -0.3332
 3294SOL    HW121518   2.197   2.965   6.317 -0.2141  2.6777 -0.0537
 3294SOL    HW221519   2.168   2.883   6.440  1.0040 -0.6726  0.7558
 3295SOL     OW21520   3.853   1.671   1.893 -0.6606  0.1426  0.4457
 3295SOL    HW121521   3.757   1.674   1.895 -0.7153 -1.7464  1.4308
 3295SOL    HW221522   3.874   1.658   1.800  0.8593 -0.9083  0.9365
 3296SOL     OW21523   0.457   3.919   8.128 -0.3425 -0.2120 -0.4767
 3296SOL    HW121524   0.499   3.994   8.171 -2.8433  1.7429 -1.3926
 3296SOL    HW221525   0.511   3.849   8.164 -0.8492 -0.0275  0.6481
 3297SOL     OW21526   3.853   1.743  10.313 -0.6041 -0.5736 -0.0625
 3297SOL    HW121527   3.903   1.661  10.316 -0.1062 -0.2339  0.8902
 3297SOL    HW221528   3.911   1.818  10.322  0.8050 -1.5499 -1.1161
 3298SOL     OW21529   3.272   0.313   5.758  0.3136  0.2677 -0.2335
 3298SOL    HW121530   3.239   0.288   5.673 -0.5656 -0.2882  0.2770
 3298SOL    HW221531   3.287   0.407   5.750  0.2255  0.3423  0.4662
 3299SOL     OW21532   4.713   2.752   8.365 -0.0822  0.2601 -0.1744
 3299SOL    HW121533   0.058   2.783   8.325  0.3805  1.3926  1.6703
 3299SOL    HW221534   4.716   2.797   8.449 -0.8501 -0.4284  0.2223
 3300SOL     OW21535   2.248   0.515   6.984  0.4641  0.0179 -0.2413
 3300SOL    HW121536   2.271   0.600   6.949  0.4787  0.2144  0.2402
 3300SOL    HW221537   2.259   0.457   6.909 -0.0094 -0.0520 -0.2604
 3301SOL     OW21538   0.777   2.754   7.407  0.4687 -0.0533 -0.4053
 3301SOL    HW121539   0.845   2.820   7.391  0.0377  1.2749  3.3494
 3301SOL    HW221540   0.822   2.671   7.421 -2.2261 -1.7126 -1.5776
 3302SOL     OW21541   4.143   1.495  16.301 -0.0733 -0.1969  0.3992
 3302SOL    HW121542   4.060   1.450  16.287 -0.6940  0.7889  0.8674
 3302SOL    HW221543   4.117   1.587  16.293 -1.6810 -0.5316  1.9538
 3303SOL     OW21544   0.728   4.701  14.879 -0.4183 -0.9656  0.5660
 3303SOL    HW121545   0.792   0.032  14.856 -0.1657 -1.7614 -1.0295
 3303SOL    HW221546   0.751   4.666  14.965  0.6247 -2.5556 -0.3657
 3304SOL     OW21547   2.247   3.826   2.473  0.1904 -0.9975  0.4495
 3304SOL    HW121548   2.278   3.802   2.386 -1.8844  0.1800 -0.6064
 3304SOL    HW221549   2.270   3.750   2.526  0.8162 -0.4513  0.9734
 3305SOL     OW21550   1.315   2.248   0.249 -0.0927  0.0010 -0.0417
 3305SOL    HW121551   1.312   2.320   0.186  1.9616 -1.2233 -1.5816
 3305SOL    HW221552   1.241   2.195   0.219  0.5090 -0.0172 -1.5347
 3306SOL     OW21553   3.500   3.378  12.283  0.2675  0.2154 -1.2076
 3306SOL    HW121554   3.556   3.326  12.342  0.6575  2.6902  0.6148
 3306SOL    HW221555   3.420   3.379  12.336  1.3983  0.2318  0.5106
 3307SOL     OW21556   0.317   3.137   3.457 -0.3903  0.5564 -0.4436
 3307SOL    HW121557   0.260   3.213   3.453 -0.3318  0.4256 -3.6592
 3307SOL    HW221558   0.332   3.129   3.551 -1.2869  0.5141 -0.3117
 3308SOL     OW21559   4.275   3.410  15.390 -0.0424 -0.2032 -0.0803
 3308SOL    HW121560   4.340   3.469  15.351  1.0621  0.6387  2.9480
 3308SOL    HW221561   4.306   3.400  15.481  1.7672 -1.2853 -0.8142
 3309SOL     OW21562   2.296   3.795   1.294  0.2599  0.5427 -0.4941
 3309SOL    HW121563   2.268   3.757   1.377  2.6892  0.1852  0.1821
 3309SOL    HW221564   2.342   3.723   1.250  0.5646  1.3038 -1.4340
 3310SOL     OW21565   0.214   0.708  12.358 -0.2204  0.2870  0.0575
 3310SOL    HW121566   0.180   0.619  12.356 -1.6314  0.8437 -0.4718
 3310SOL    HW221567   0.299   0.703  12.401  0.2212  1.0443 -0.7092
 3311SOL     OW21568   2.689   1.537  11.117  0.0063  0.0095 -0.6142
 3311SOL    HW121569   2.780   1.510  11.126  0.4800  1.4815 -0.9094
 3311SOL    HW221570   2.674   1.564  11.207 -1.1653 -0.3662 -0.6849
 3312SOL     OW21571   1.291   2.282   4.038  0.3067 -0.0051  0.4037
 3312SOL    HW121572   1.226   2.215   4.057 -0.2037  0.0026 -1.3238
 3312SOL    HW221573   1.351   2.258   4.109 -0.3448 -3.0953 -0.0950
 3313SOL     OW21574   2.707   2.786   8.473 -0.2580  0.2064  0.6082
 3313SOL    HW121575   2.641   2.808   8.539 -1.9651 -0.9519 -0.7195
 3313SOL    HW221576   2.778   2.754   8.528 -0.0662 -0.3287  0.0408
 3314SOL     OW21577   3.767   0.271   4.647 -0.0196 -0.0183  0.8523
 3314SOL    HW121578   3.786   0.178   4.652 -0.9058 -0.2343  0.1411
 3314SOL    HW221579   3.735   0.284   4.558  0.0430 -0.2747  0.7915
 3315SOL     OW21580   4.276   1.144   6.340  0.3694  0.1962  0.3737
 3315SOL    HW121581   4.370   1.147   6.361  1.5508 -1.7357 -4.4805
 3315SOL    HW221582   4.230   1.163   6.422 -2.4883  0.3395 -1.2718
 3316SOL     OW21583   1.779   3.041  11.690  0.1157 -0.2101 -0.0171
 3316SOL    HW121584   1.815   2.953  11.685  0.6044 -0.0825  1.4114
 3316SOL    HW221585   1.780   3.070  11.598 -2.5756  1.2146  0.4233
 3317SOL     OW21586   4.070   2.783  11.996  0.4472 -0.1726 -0.0016
 3317SOL    HW121587   4.097   2.719  11.930  0.5133 -0.2838  0.1323
 3317SOL    HW221588   4.049   2.862  11.946 -1.4555  0.1780  1.3401
 3318SOL     OW21589   4.723   2.460   5.205  0.2385  0.6184  0.2573
 3318SOL    HW121590   0.068   2.446   5.156  0.4663  0.2553  0.7383
 3318SOL    HW221591   4.659   2.475   5.136  0.7422  1.7767  0.0266
 3319SOL     OW21592   4.526   2.741   7.408  0.5513 -0.5435  0.1427
 3319SOL    HW121593   4.533   2.721   7.315 -2.0178 -0.7497  0.0110
 3319SOL    HW221594   4.594   2.808   7.418  0.0538  0.4212 -2.8368
 3320SOL     OW21595   0.839   3.075   6.688 -0.1408  0.0049 -0.2532
 3320SOL    HW121596   0.769   3.075   6.623 -1.3423 -0.7498  1.0252
 3320SOL    HW221597   0.786   3.078   6.768  1.5350  0.7482  0.8234
 3321SOL     OW21598   2.381   2.282   7.759 -0.5885  0.1654 -0.2207
 3321SOL    HW121599   2.393   2.337   7.837 -2.3450 -1.5090  1.2318
 3321SOL    HW221600   2.448   2.313   7.699  0.9680 -3.0216 -0.1576
 3322SOL     OW21601   3.325   1.444   4.682  0.4808  0.0565 -0.0383
 3322SOL    HW121602   3.388   1.375   4.704  2.8810  2.0363 -0.6250
 3322SOL    HW221603   3.263   1.388   4.636 -1.5525  2.5938 -0.4054
 3323SOL     OW21604   0.296   3.536   4.066  0.1399  0.1318 -0.2052
 3323SOL    HW121605   0.211   3.494   4.080 -0.1379 -0.1415 -2.8654
 3323SOL    HW221606   0.349   3.484   4.126  0.0521  1.2552  0.8499
 3324SOL     OW21607   2.089   3.748   8.239  0.1403 -0.1394  0.3173
 3324SOL    HW121608   2.001   3.735   8.203  1.0703  1.1180 -2.4199
 3324SOL    HW221609   2.117   3.819   8.181 -1.2620  0.5727  0.5189
 3325SOL     OW21610   0.209   3.794   6.664  0.4304 -0.5107  0.2072
 3325SOL    HW121611   0.205   3.875   6.714 -0.0678  0.4339 -1.3745
 3325SOL    HW221612   0.188   3.823   6.576  0.9956 -0.5012  0.0717
 3326SOL     OW21613   0.769   3.892   5.726  0.1732 -0.0374 -0.1105
 3326SOL    HW121614   0.815   3.810   5.743  1.6183  1.0926  1.3404
 3326SOL    HW221615   0.679   3.864   5.710  0.3616 -0.4154 -0.5074
 3327SOL     OW21616   3.371   1.487   2.269 -0.3617  0.3346 -0.6084
 3327SOL    HW121617   3.451   1.534   2.245 -0.2119 -1.0208 -2.7887
 3327SOL    HW221618   3.388   1.397   2.241 -0.3951  0.5967 -1.4657
 3328SOL     OW21619   2.719   1.805   2.875  0.5443  0.1270 -0.0369
 3328SOL    HW121620   2.784   1.851   2.823  0.5710  0.9784  0.7392
 3328SOL    HW221621   2.640   1.851   2.847  0.6629 -0.0205 -0.6037
 3329SOL     OW21622   2.435   3.846   7.803 -0.2677  0.3615  0.6549
 3329SOL    HW121623   2.477   3.905   7.740 -1.4268  0.5759  0.0694
 3329SOL    HW221624   2.364   3.907   7.822  0.2490  0.8124  1.1555
 3330SOL     OW21625   2.341   1.955   6.617  0.4466 -0.1831 -0.4657
 3330SOL    HW121626   2.428   1.994   6.608 -0.1438  0.6916 -2.4753
 3330SOL    HW221627   2.365   1.894   6.686  0.6490  2.1839  1.5849
 3331SOL     OW21628   0.472   2.866   4.905 -0.6210  0.2739  0.0197
 3331SOL    HW121629   0.492   2.960   4.903  0.0377  0.1678  1.0376
 3331SOL    HW221630   0.551   2.829   4.946 -0.2566 -0.7243 -1.6215
 3332SOL     OW21631   0.701   1.603  13.539 -0.4534  0.3088 -0.0763
 3332SOL    HW121632   0.634   1.658  13.499  0.3702  0.7182 -0.8646
 3332SOL    HW221633   0.651   1.557  13.608  0.0680 -0.0583  0.0587
 3333SOL     OW21634   1.149   4.541  15.066  0.2503 -1.0279 -0.2342
 3333SOL    HW121635   1.125   4.481  14.996 -2.6558 -1.5359  1.1962
 3333SOL    HW221636   1.220   4.490  15.106  0.7302 -1.8168 -2.1132
 3334SOL     OW21637   3.144   1.054   2.433 -0.5871 -0.3134  0.1245
 3334SOL    HW121638   3.067   1.100   2.465 -0.7863 -0.8479  0.4036
 3334SOL    HW221639   3.152   0.976   2.487 -2.1844 -0.3558  0.2951
 3335SOL     OW21640   4.474   4.670   7.059  0.4649 -0.0589  0.4413
 3335SOL    HW121641   4.553   4.665   7.114  0.2409 -0.4047  0.7307
 3335SOL    HW221642   4.427   0.003   7.105  0.3933  0.4323 -0.3870
 3336SOL     OW21643   2.434   2.538   7.098 -0.0498 -0.3845 -0.5306
 3336SOL    HW121644   2.441   2.601   7.026 -1.2223  1.3764  0.9224
 3336SOL    HW221645   2.339   2.531   7.109  0.0225 -0.1595  0.2258
 3337SOL     OW21646   0.983   1.629   3.563  0.0758  0.3204 -0.5733
 3337SOL    HW121647   1.045   1.576   3.612  0.2745  0.9021 -0.1952
 3337SOL    HW221648   0.917   1.561   3.549 -0.7298  1.0805 -0.4591
 3338SOL     OW21649   1.095   2.704   5.245  0.0524 -0.1773  0.6717
 3338SOL    HW121650   1.078   2.656   5.327  0.5666 -1.4318  0.0484
 3338SOL    HW221651   1.189   2.721   5.253  0.0803  0.9558 -2.3813
 3339SOL     OW21652   0.580   3.977   5.404 -0.1353 -0.7122  0.9156
 3339SOL    HW121653   0.504   3.921   5.420 -0.4607  0.0253  1.9968
 3339SOL    HW221654   0.645   3.922   5.360 -0.9429 -1.7893  1.0673
 3340SOL     OW21655   4.120   0.679   4.301 -0.1022 -0.4051  0.1807
 3340SOL    HW121656   4.044   0.735   4.317  0.3826  1.1001 -2.7261
 3340SOL    HW221657   4.133   0.688   4.207  0.5471  0.4593  0.3512
 3341SOL     OW21658   1.041   4.547   8.659  0.4967  0.0839 -0.4173
 3341SOL    HW121659   0.950   4.574   8.673 -0.0154 -1.7416 -0.3401
 3341SOL    HW221660   1.092   4.628   8.666  0.2002  0.0677  1.9736
 3342SOL     OW21661   2.745   1.851   5.019  0.1246  0.0845 -0.5841
 3342SOL    HW121662   2.685   1.824   5.089 -1.2556  1.8849 -1.0865
 3342SOL    HW221663   2.829   1.833   5.062  0.0927  0.9002 -0.1816
 3343SOL     OW21664   4.076   3.052  13.588  0.1692 -0.4944  0.0454
 3343SOL    HW121665   4.134   2.977  13.600 -1.2323 -1.8123 -1.4319
 3343SOL    HW221666   3.995   3.023  13.629 -0.9530  1.8212 -0.4909
 3344SOL     OW21667   2.398   0.052   5.473  0.3220 -0.1210  0.1866
 3344SOL    HW121668   2.411   0.136   5.429 -0.9097  0.8392  1.6618
 3344SOL    HW221669   2.484   0.019   5.500  0.8304 -0.8363 -2.2468
 3345SOL     OW21670   2.051   3.616   5.082 -0.3871 -0.4452 -0.3844
 3345SOL    HW121671   2.109   3.626   5.007 -1.2044  0.9662 -0.8330
 3345SOL    HW221672   1.990   3.549   5.049 -4.1901  1.4058  2.9074
 3346SOL     OW21673   1.167   1.434   8.065  0.0477 -0.4386 -0.1550
 3346SOL    HW121674   1.110   1.406   7.994  2.7130 -3.6230 -1.0392
 3346SOL    HW221675   1.248   1.445   8.015 -1.0814  0.3402 -1.8160
 3347SOL     OW21676   2.558   2.976  10.801 -0.2402 -0.3708 -0.0022
 3347SOL    HW121677   2.629   2.927  10.760  1.3155  0.3596  1.7748
 3347SOL    HW221678   2.606   3.045  10.847 -0.6979  0.3769 -0.6557
 3348SOL     OW21679   0.197   1.316   3.811  0.2275 -0.5849  0.1345
 3348SOL    HW121680   0.142   1.237   3.807  0.5179 -0.7105 -1.3277
 3348SOL    HW221681   0.128   1.380   3.825  1.6732  1.1949 -0.9485
 3349SOL     OW21682   1.822   2.073  16.388  0.4835 -0.2863  0.2244
 3349SOL    HW121683   1.761   2.001  16.373  0.3991 -0.5682  1.8472
 3349SOL    HW221684   1.773   2.144  16.347  1.0991  1.1218  1.9109
 3350SOL     OW21685   1.696   2.834  14.636 -0.2598  0.0278  0.1714
 3350SOL    HW121686   1.714   2.825  14.729  0.7871 -1.0610 -0.1287
 3350SOL    HW221687   1.646   2.753  14.631 -0.2693 -0.0362  1.4738
 3351SOL     OW21688   1.641   2.031   3.117 -0.0573 -0.3605 -0.2217
 3351SOL    HW121689   1.624   1.992   3.031  0.1393 -0.7091 -0.1031
 3351SOL    HW221690   1.558   2.021   3.163  0.1979 -0.4710  0.2080
 3352SOL     OW21691   0.141   1.925   7.064 -0.2878 -0.8582 -0.2206
 3352SOL    HW121692   0.233   1.903   7.047  0.1490  0.9902 -0.2772
 3352SOL    HW221693   0.102   1.863   7.003 -1.9583  1.7836 -1.8129
 3353SOL     OW21694   3.866   2.755   2.475 -0.2808  0.2997 -0.0058
 3353SOL    HW121695   3.809   2.699   2.423  0.8983  0.0293 -1.0080
 3353SOL    HW221696   3.885   2.705   2.555 -2.4216 -1.0389 -0.3376
 3354SOL     OW21697   1.063   1.238   1.543  0.4355 -0.6179  0.2814
 3354SOL    HW121698   1.007   1.188   1.603 -0.6029  0.6549  0.3966
 3354SOL    HW221699   0.998   1.307   1.531  0.8038 -0.5307 -1.1574
 3355SOL     OW21700   4.011   0.658  12.987  0.7023  0.1658  0.3497
 3355SOL    HW121701   4.061   0.690  13.061 -0.2814 -1.0443  1.5280
 3355SOL    HW221702   3.967   0.581  13.024 -2.1990  1.2069 -0.8816
 3356SOL     OW21703   1.285   0.699  10.374 -1.0698 -0.5300  0.2170
 3356SOL    HW121704   1.341   0.775  10.356 -2.2127  0.0606 -0.8605
 3356SOL    HW221705   1.348   0.649  10.425  0.7011  0.8790 -0.5840
 3357SOL     OW21706   0.044   0.105  14.164  0.1368  0.5424  0.4374
 3357SOL    HW121707   4.696   0.136  14.129 -0.0393 -0.9667 -0.4681
 3357SOL    HW221708   0.035   0.012  14.143  1.3225  0.2881  1.0559
 3358SOL     OW21709   3.300   2.288   9.304  0.4530  0.4518  0.3153
 3358SOL    HW121710   3.273   2.341   9.229 -0.8301 -1.3763 -0.4945
 3358SOL    HW221711   3.230   2.304   9.367  0.6399  4.2129 -0.4406
 3359SOL     OW21712   4.253   3.972   7.776  0.1329  0.0294  0.6589
 3359SOL    HW121713   4.309   3.904   7.813 -0.0086 -0.2981  0.2768
 3359SOL    HW221714   4.305   4.050   7.795  2.4153 -1.8821  2.3117
 3360SOL     OW21715   3.215   4.119  11.046 -0.2573 -0.4318 -0.1120
 3360SOL    HW121716   3.207   4.214  11.034  0.6558 -0.1156  1.7418
 3360SOL    HW221717   3.243   4.098  10.957 -2.7051 -0.0838 -0.9762
 3361SOL     OW21718   2.314   1.147   3.193  0.5470  0.5338 -0.6866
 3361SOL    HW121719   2.394   1.194   3.215 -0.0322  1.5086 -0.6428
 3361SOL    HW221720   2.265   1.222   3.160 -1.6386 -0.1115  1.0799
 3362SOL     OW21721   1.315   0.181   5.728  0.3653 -0.1032  0.8088
 3362SOL    HW121722   1.350   0.224   5.650 -0.2264 -1.1850 -0.0483
 3362SOL    HW221723   1.232   0.161   5.684  2.1119  0.4979 -2.7583
 3363SOL     OW21724   0.480   3.326  16.356  0.5845 -0.4257  0.2850
 3363SOL    HW121725   0.388   3.310  16.336  0.7962 -0.6877 -0.4795
 3363SOL    HW221726   0.499   3.263  16.426 -0.8883 -2.0403 -0.7747
 3364SOL     OW21727   2.439   3.201   5.906  0.3741 -0.0177  0.1940
 3364SOL    HW121728   2.522   3.203   5.858 -0.7515  4.2018 -1.5844
 3364SOL    HW221729   2.368   3.203   5.843  1.5640 -0.8608 -1.1619
 3365SOL     OW21730   2.003   3.833   6.632  0.2097  0.0193 -0.2903
 3365SOL    HW121731   1.994   3.806   6.541  2.0968 -0.7343 -0.2411
 3365SOL    HW221732   1.913   3.820   6.662  0.9200 -0.5853  1.6201
 3366SOL     OW21733   3.595   0.556   3.919  0.0535 -0.1764 -0.0027
 3366SOL    HW121734   3.536   0.500   3.868 -1.6358  2.5068 -0.9822
 3366SOL    HW221735   3.588   0.517   4.006 -0.2102 -0.8299 -0.3149
 3367SOL     OW21736   1.544   4.473  14.872 -0.3016  0.1229 -0.3763
 3367SOL    HW121737   1.516   4.518  14.952  1.3266  1.0326 -0.3269
 3367SOL    HW221738   1.631   4.512  14.872 -1.2260  2.1581  3.2955
 3368SOL     OW21739   2.256   1.919  14.658  0.2913 -0.0999 -0.0970
 3368SOL    HW121740   2.256   1.825  14.674  0.9797 -0.0809  0.0040
 3368SOL    HW221741   2.161   1.930  14.646  0.3888 -0.2801 -1.0684
 3369SOL     OW21742   2.429   0.752  13.435  0.0942 -0.1895 -0.1851
 3369SOL    HW121743   2.445   0.702  13.355 -0.8829 -1.0697  0.1703
 3369SOL    HW221744   2.446   0.843  13.409  1.4862 -1.0427 -2.2259
 3370SOL     OW21745   3.117   2.993  17.416 -0.3041  0.2141 -0.0559
 3370SOL    HW121746   3.083   3.081  17.429 -2.6162 -0.5151 -1.1354
 3370SOL    HW221747   3.171   3.005  17.337 -0.8979  2.8670 -0.0297
 3371SOL     OW21748   3.078   2.922   6.583 -0.5526  0.1347 -0.1606
 3371SOL    HW121749   3.079   2.831   6.611  0.6557  0.4591  0.8529
 3371SOL    HW221750   3.134   2.912   6.507 -1.0523 -1.7670 -0.2667
 3372SOL     OW21751   4.461   3.458   7.115 -0.1587  0.0120  0.4577
 3372SOL    HW121752   4.412   3.412   7.047 -1.3579 -1.5485  2.3559
 3372SOL    HW221753   4.474   3.385   7.176 -0.0062 -0.7218 -0.4453
 3373SOL     OW21754   4.218   3.417  17.425 -0.2183 -0.1151  0.1157
 3373SOL    HW121755   4.254   3.476  17.358 -0.8954 -0.9506 -0.9813
 3373SOL    HW221756   4.144   3.475  17.445 -1.3603 -0.3787 -3.2331
 3374SOL     OW21757   0.515   2.043  11.436  0.4626  0.5002 -0.4671
 3374SOL    HW121758   0.487   2.118  11.384 -0.2343  0.3772 -0.2712
 3374SOL    HW221759   0.602   2.070  11.465  1.6865 -0.5167 -3.2396
 3375SOL     OW21760   0.533   2.763   6.332 -0.0673 -0.6653  0.4356
 3375SOL    HW121761   0.563   2.796   6.417  2.0618  0.7517 -0.8645
 3375SOL    HW221762   0.474   2.829   6.294  0.8619  0.4941  0.9870
 3376SOL     OW21763   0.986   0.866   7.689  0.4190  0.3697 -0.4106
 3376SOL    HW121764   1.077   0.893   7.701  0.2456  1.5165 -1.7159
 3376SOL    HW221765   0.987   0.777   7.654 -0.0592  0.7687 -1.4370
 3377SOL     OW21766   0.574   4.317   5.684 -0.1802 -0.5852 -0.6471
 3377SOL    HW121767   0.627   4.285   5.612  0.5741  2.3281 -1.4183
 3377SOL    HW221768   0.489   4.278   5.663 -0.4905 -0.2465 -0.0579
 3378SOL     OW21769   3.025   1.722   5.405  0.2955 -0.2038 -0.1471
 3378SOL    HW121770   3.112   1.758   5.424  0.4988 -0.2474 -0.9859
 3378SOL    HW221771   2.974   1.746   5.482 -1.4266 -1.8505 -0.7850
 3379SOL     OW21772   3.161   0.638   7.223 -0.0977  0.1886 -0.6839
 3379SOL    HW121773   3.167   0.585   7.302  0.5767 -0.1426 -0.9606
 3379SOL    HW221774   3.094   0.587   7.177 -1.2344  0.2958  0.8865
 3380SOL     OW21775   4.667   4.097   8.530 -0.0695 -0.2493 -0.2133
 3380SOL    HW121776   4.646   4.180   8.574 -1.0084 -0.7187  0.2199
 3380SOL    HW221777   0.022   4.121   8.518  0.2388 -1.5002 -0.3202
 3381SOL     OW21778   0.929   0.119   6.212 -0.2223  0.1870  0.1797
 3381SOL    HW121779   1.012   0.119   6.163 -0.0933  2.2247  0.3782
 3381SOL    HW221780   0.927   0.210   6.241  2.0608  0.6691 -1.1761
 3382SOL     OW21781   0.321   0.372   1.488  0.4799 -0.0640  0.4568
 3382SOL    HW121782   0.343   0.300   1.547  1.1469 -1.3747 -1.3747
 3382SOL    HW221783   0.253   0.414   1.540 -0.0605 -0.6474  0.2106
 3383SOL     OW21784   1.657   1.871   5.438  0.1139  0.3543 -1.0763
 3383SOL    HW121785   1.703   1.787   5.440  0.3736  0.5306  0.3495
 3383SOL    HW221786   1.573   1.853   5.480  0.7318  1.1122  0.4911
 3384SOL     OW21787   0.999   0.758   3.862  0.3735  0.4899  0.0954
 3384SOL    HW121788   0.919   0.809   3.875 -0.7353 -0.5440 -2.6716
 3384SOL    HW221789   0.994   0.729   3.771 -0.6209  2.6960 -0.5657
 3385SOL     OW21790   1.620   0.390  11.711  0.3012 -0.4489  0.3564
 3385SOL    HW121791   1.587   0.467  11.665  0.7105  0.5613  1.7582
 3385SOL    HW221792   1.560   0.389  11.786  2.6670  0.7016  2.2594
 3386SOL     OW21793   0.997   0.884   4.360  0.3180  0.0289 -0.5932
 3386SOL    HW121794   0.998   0.804   4.308  2.2959 -0.0425 -0.4478
 3386SOL    HW221795   0.966   0.940   4.290  0.9575 -0.7657 -1.5123
 3387SOL     OW21796   1.341   2.218   8.288 -0.0616 -0.3252 -0.1687
 3387SOL    HW121797   1.310   2.199   8.376  0.0447 -0.4969 -0.1686
 3387SOL    HW221798   1.384   2.303   8.298 -2.5113  0.7014  1.5092
 3388SOL     OW21799   3.244   3.595   6.180  0.4117  0.2671  0.2481
 3388SOL    HW121800   3.204   3.511   6.201 -1.3308  1.6938  2.6650
 3388SOL    HW221801   3.189   3.641   6.117  1.0088 -0.3635 -0.7362
 3389SOL     OW21802   0.264   3.585   6.346  0.4244 -0.0928  0.0982
 3389SOL    HW121803   0.221   3.645   6.286  2.4652  0.6997 -0.5709
 3389SOL    HW221804   0.195   3.540   6.395 -1.3930  0.1597 -2.2895
 3390SOL     OW21805   4.103   3.166   2.182  0.0232  0.4201 -0.2992
 3390SOL    HW121806   4.022   3.216   2.174 -0.3708  0.0487  1.4942
 3390SOL    HW221807   4.171   3.222   2.143  1.5352  0.7573  2.8592
 3391SOL     OW21808   3.315   2.691   4.110  0.4003  0.4740  0.2195
 3391SOL    HW121809   3.365   2.614   4.136  0.8507  0.5562 -0.3879
 3391SOL    HW221810   3.277   2.655   4.030  1.6767 -0.9123  0.2419
 3392SOL     OW21811   0.440   2.854  17.667  0.3926  0.5960  0.0491
 3392SOL    HW121812   0.427   2.916  17.596 -3.8914  0.3832  0.6029
 3392SOL    HW221813   0.407   2.918  17.731  0.2415 -2.1107  2.7020
 3393SOL     OW21814   2.620   0.314   2.252  0.4520 -0.0015  0.1698
 3393SOL    HW121815   2.580   0.288   2.335 -0.3907 -0.6615 -0.4566
 3393SOL    HW221816   2.575   0.252   2.195  1.7803  1.1113 -2.0476
 3394SOL     OW21817   0.834   3.411  10.681  0.3418 -0.0406 -0.3873
 3394SOL    HW121818   0.890   3.363  10.741 -0.4131 -0.8199 -0.2985
 3394SOL    HW221819   0.764   3.435  10.742 -0.2090  0.4527 -1.2023
 3395SOL     OW21820   2.539   2.887   8.664 -0.4754 -0.4325 -0.1097
 3395SOL    HW121821   2.448   2.861   8.646 -0.8330  0.0972  0.9382
 3395SOL    HW221822   2.559   2.837   8.743 -0.4017 -1.3981 -0.7487
 3396SOL     OW21823   1.303   2.333   5.566  0.5143  0.3979 -0.1838
 3396SOL    HW121824   1.216   2.348   5.602  0.0870  1.5223 -1.6855
 3396SOL    HW221825   1.294   2.242   5.536 -2.8054  0.1464  1.6286
 3397SOL     OW21826   4.722   1.800   8.601 -0.0283 -0.2187  0.1293
 3397SOL    HW121827   4.645   1.790   8.657  1.1719 -0.7173  1.6816
 3397SOL    HW221828   0.036   1.718   8.604  0.5195  0.0441 -1.5823
 3398SOL     OW21829   2.389   2.728   9.655  0.0216  0.1834  0.3318
 3398SOL    HW121830   2.465   2.701   9.604 -0.3684  0.7234 -0.5313
 3398SOL    HW221831   2.377   2.812   9.610  0.4528 -0.9338 -1.8795
 3399SOL     OW21832   2.117   3.197   4.473 -0.0534  0.1197 -0.1317
 3399SOL    HW121833   2.198   3.223   4.428  0.0862 -0.5786 -0.2932
 3399SOL    HW221834   2.052   3.209   4.404 -3.2495 -1.1989  2.6478
 3400SOL     OW21835   3.694   1.044   6.315  0.3436 -0.3558 -0.2321
 3400SOL    HW121836   3.704   1.011   6.226  0.9527 -0.9603  0.0571
 3400SOL    HW221837   3.758   0.983   6.353  0.8025  0.8601  0.9321
 3401SOL     OW21838   2.966   3.361   5.931  0.6035 -0.3622  0.1896
 3401SOL    HW121839   2.980   3.417   5.855  0.8989 -1.6012 -0.6831
 3401SOL    HW221840   3.015   3.288   5.893  0.3199 -1.0805  1.1853
 3402SOL     OW21841   0.145   1.772   3.956  0.9173  0.2416  0.2993
 3402SOL    HW121842   0.095   1.788   4.036  0.7338 -0.3456  0.3062
 3402SOL    HW221843   0.236   1.775   3.986  0.6177  0.3285  1.2250
 3403SOL     OW21844   3.903   1.272  12.487  0.3835  0.5512  0.2561
 3403SOL    HW121845   3.868   1.357  12.461 -0.7472  0.2536  0.8038
 3403SOL    HW221846   3.962   1.282  12.562 -0.9418  2.7841  1.0043
 3404SOL     OW21847   0.283   1.634   1.175  0.1556  0.2398  0.5879
 3404SOL    HW121848   0.231   1.587   1.241  0.6868  0.1206  0.9239
 3404SOL    HW221849   0.257   1.584   1.098  0.0597  2.2541 -0.6967
 3405SOL     OW21850   4.430   0.990   7.660 -0.1523  0.0212 -0.0414
 3405SOL    HW121851   4.354   1.041   7.690  0.2216  0.9655 -0.7249
 3405SOL    HW221852   4.390   0.935   7.592 -0.1095  0.8778 -0.7533
 3406SOL     OW21853   0.047   0.322   6.345  0.2651 -0.2984  0.3271
 3406SOL    HW121854   0.120   0.263   6.358 -1.2274 -2.1032  0.4822
 3406SOL    HW221855   0.085   0.410   6.352  0.3575 -0.4164  1.2751
 3407SOL     OW21856   2.036   0.624   8.393  0.0934 -0.1314  0.1286
 3407SOL    HW121857   2.056   0.540   8.434  0.0616 -0.1165  0.1741
 3407SOL    HW221858   2.009   0.586   8.309  1.8433 -0.5916 -0.2274
 3408SOL     OW21859   0.636   2.570  17.064 -0.1084 -0.4151 -0.2788
 3408SOL    HW121860   0.624   2.635  16.995 -0.2917 -0.0529  0.0952
 3408SOL    HW221861   0.609   2.495  17.010  0.7934  1.1779 -2.9639
 3409SOL     OW21862   3.995   0.505   7.340 -0.0802  0.2337 -0.6589
 3409SOL    HW121863   3.966   0.414   7.349 -0.2301  0.1039 -2.4705
 3409SOL    HW221864   4.060   0.498   7.411  1.3953 -0.6278 -2.1044
 3410SOL     OW21865   2.523   4.210  15.946 -0.1593  0.1875  0.0289
 3410SOL    HW121866   2.460   4.145  15.913 -1.4799  1.4597  0.0396
 3410SOL    HW221867   2.517   4.271  15.873 -2.7718 -0.2123 -0.1112
 3411SOL     OW21868   3.063   1.883   6.325 -0.0883 -0.2697 -0.0813
 3411SOL    HW121869   3.129   1.832   6.277  0.1860 -1.3951  1.5119
 3411SOL    HW221870   3.118   1.949   6.366  1.8228 -1.7367 -0.2545
 3412SOL     OW21871   3.382   1.384   7.714  0.2891  0.4662  0.1798
 3412SOL    HW121872   3.323   1.370   7.639  0.7224 -1.3861  0.2077
 3412SOL    HW221873   3.314   1.401   7.779 -0.2724 -0.3779 -0.1786
 3413SOL     OW21874   3.722   3.893   7.022  0.8465  0.0796 -0.0010
 3413SOL    HW121875   3.730   3.880   6.927  1.2356  0.2941  0.0053
 3413SOL    HW221876   3.736   3.987   7.034 -3.1263  0.8089 -1.0851
 3414SOL     OW21877   1.631   0.839   8.131 -0.1034 -0.3069 -0.5239
 3414SOL    HW121878   1.626   0.749   8.163  0.4150 -0.9480 -2.2739
 3414SOL    HW221879   1.689   0.838   8.055  0.2228 -0.3535 -0.2761
 3415SOL     OW21880   3.903   0.482   9.753  0.0136  0.0307  0.3433
 3415SOL    HW121881   3.825   0.535   9.738  1.7294  3.2205  2.8184
 3415SOL    HW221882   3.922   0.454   9.663  0.1355  1.0821  0.0408
 3416SOL     OW21883   1.623   0.441   4.226  0.1994 -0.0548 -0.5127
 3416SOL    HW121884   1.611   0.502   4.154 -1.1775 -0.1148 -0.3398
 3416SOL    HW221885   1.578   0.360   4.201 -2.1461  0.4876  1.8609
 3417SOL     OW21886   4.285   1.387   3.422 -0.0605  0.6394 -0.4576
 3417SOL    HW121887   4.302   1.478   3.396 -2.4271  0.9765 -0.9179
 3417SOL    HW221888   4.228   1.402   3.498  0.9945  0.5918  0.3362
 3418SOL     OW21889   3.891   4.517   3.277  0.3647  0.1743 -0.4940
 3418SOL    HW121890   3.839   4.441   3.305  0.3099 -0.5306 -2.4906
 3418SOL    HW221891   3.880   4.574   3.352 -0.1078  0.4537 -0.7721
 3419SOL     OW21892   3.210   4.313   2.104 -0.0266  0.7366  0.2357
 3419SOL    HW121893   3.162   4.233   2.128 -1.6705  1.7958  0.5496
 3419SOL    HW221894   3.212   4.350   2.192 -1.3500  1.1076  0.1187
 3420SOL     OW21895   0.437   4.495   4.167  0.3091 -0.4429  0.2102
 3420SOL    HW121896   0.460   4.583   4.197 -0.2010  0.6860 -2.6930
 3420SOL    HW221897   0.436   4.437   4.243  0.4127 -0.9020 -0.1318
 3421SOL     OW21898   4.413   4.120   6.624 -0.2100  0.0243  0.3021
 3421SOL    HW121899   4.444   4.140   6.712 -0.9482  1.6881  0.1780
 3421SOL    HW221900   4.388   4.030   6.645  0.3959 -0.7498 -2.2644
 3422SOL     OW21901   3.977   0.221   9.553 -0.1694  0.3812 -0.3252
 3422SOL    HW121902   3.935   0.240   9.469  0.8699  0.4190 -0.8439
 3422SOL    HW221903   4.065   0.199   9.523 -0.2467 -0.7515  0.2880
 3423SOL     OW21904   3.615   1.020   3.120  0.6046 -0.0196  0.0094
 3423SOL    HW121905   3.612   0.947   3.181  1.3616  1.3978  1.7617
 3423SOL    HW221906   3.545   1.074   3.157  3.1899  2.0494  1.8866
 3424SOL     OW21907   1.221   4.321   3.628 -0.3419 -0.2317  0.1327
 3424SOL    HW121908   1.193   4.252   3.687 -2.3638  0.0471 -0.4975
 3424SOL    HW221909   1.146   4.339   3.572 -0.4828  0.8352  0.6680
 3425SOL     OW21910   0.023   1.594   5.128 -0.8073 -0.2171 -0.2412
 3425SOL    HW121911   0.099   1.651   5.126  1.1698 -2.8174  1.4560
 3425SOL    HW221912   4.684   1.647   5.157 -1.4983 -1.8791  0.9992
 3426SOL     OW21913   4.003   4.501   6.655  0.3157  0.1015 -0.7996
 3426SOL    HW121914   3.962   4.567   6.599 -1.2007 -0.9172 -0.9000
 3426SOL    HW221915   4.097   4.504   6.638  0.7301 -1.9356  1.0281
 3427SOL     OW21916   3.107   1.767   3.523 -0.5365 -0.1731 -0.1086
 3427SOL    HW121917   3.163   1.738   3.595  1.3268  0.4892 -1.3150
 3427SOL    HW221918   3.029   1.786   3.576  0.0621 -1.3935  1.2249
 3428SOL     OW21919   4.357   0.146   5.220  0.2308  0.1125  0.8658
 3428SOL    HW121920   4.301   0.211   5.261  0.1259 -0.4282  1.5754
 3428SOL    HW221921   4.294   0.097   5.167 -1.3662  0.2125  2.6518
 3429SOL     OW21922   0.902   3.785   0.497  0.3368  0.1644 -0.2879
 3429SOL    HW121923   0.807   3.792   0.488  0.6271  3.9815 -0.6696
 3429SOL    HW221924   0.924   3.710   0.441 -0.1055  1.3355 -2.0531
 3430SOL     OW21925   1.207   1.877   3.724 -0.3093  0.4455  0.3714
 3430SOL    HW121926   1.250   1.908   3.644  1.0767  2.3802  1.8798
 3430SOL    HW221927   1.267   1.893   3.797 -2.4197 -0.2656  2.2701
 3431SOL     OW21928   0.578   1.860   4.376  0.2346  0.1140 -0.2629
 3431SOL    HW121929   0.593   1.825   4.288  0.5967 -2.7872  0.9677
 3431SOL    HW221930   0.668   1.890   4.390  0.3887 -1.1199  1.3043
 3432SOL     OW21931   2.551   0.496   3.021  0.3348  0.4736  0.5337
 3432SOL    HW121932   2.538   0.521   3.112  2.8467  0.2957  0.9405
 3432SOL    HW221933   2.581   0.408   3.042  0.8369  1.1830  2.8563
 3433SOL     OW21934   3.740   0.638   6.151  0.1460  0.3768 -1.2097
 3433SOL    HW121935   3.701   0.550   6.142 -0.3947  0.8117 -3.0360
 3433SOL    HW221936   3.818   0.615   6.202  0.1601  0.3649 -1.2368
 3434SOL     OW21937   3.350   1.885   6.043 -0.4601  0.3069  0.7048
 3434SOL    HW121938   3.305   1.967   6.064 -1.7255  0.2426 -1.8132
 3434SOL    HW221939   3.291   1.825   6.089  0.3692  0.4754  2.0015
 3435SOL     OW21940   4.121   0.956  17.650  0.0966  0.3006  0.5264
 3435SOL    HW121941   4.105   1.040  17.606  0.8667 -0.0741 -0.4771
 3435SOL    HW221942   4.190   0.980  17.711 -2.3965  1.5967  2.8439
 3436SOL     OW21943   2.389   4.259  14.590  0.1627 -0.2325  0.0264
 3436SOL    HW121944   2.306   4.295  14.560  0.8058 -0.2874 -1.8541
 3436SOL    HW221945   2.412   4.333  14.645  1.8135 -0.2474 -0.6363
 3437SOL     OW21946   2.022   2.700   3.954 -0.2658 -0.6482 -0.1393
 3437SOL    HW121947   2.031   2.727   3.862  2.3118  1.8682  0.9057
 3437SOL    HW221948   2.113   2.708   3.979 -0.4623  0.7651  0.1016
 3438SOL     OW21949   4.432   2.718  15.200  0.5772 -0.4915 -0.3775
 3438SOL    HW121950   4.361   2.660  15.229  0.7116 -0.5626 -0.1863
 3438SOL    HW221951   4.430   2.706  15.105  1.9532 -1.7882 -0.2611
 3439SOL     OW21952   0.973   0.683   3.274 -0.1002 -0.4028 -0.1358
 3439SOL    HW121953   0.955   0.754   3.212  0.5932 -0.2781 -0.2025
 3439SOL    HW221954   0.893   0.638   3.298 -0.1660  0.3701  1.1052
 3440SOL     OW21955   0.996   2.541   8.246  0.0756  0.3343 -0.5314
 3440SOL    HW121956   0.981   2.446   8.249 -1.5283  0.5412 -2.6756
 3440SOL    HW221957   0.999   2.562   8.340 -0.1650 -0.9469 -0.2271
 3441SOL     OW21958   2.444   4.425   0.256  0.4148  0.3376 -0.1365
 3441SOL    HW121959   2.510   4.368   0.296  0.1426 -0.1387 -0.3685
 3441SOL    HW221960   2.471   4.413   0.165 -0.8618 -2.2684 -0.1539
 3442SOL     OW21961   2.056   1.497   6.960 -0.3563 -0.2037  0.3031
 3442SOL    HW121962   2.043   1.531   6.872  1.0825 -1.0848 -0.2427
 3442SOL    HW221963   1.990   1.552   7.004 -0.0782 -2.0821  3.0584
 3443SOL     OW21964   3.369   2.799   9.059  0.4849  0.3042  0.3558
 3443SOL    HW121965   3.356   2.849   8.979  1.5168 -2.8524 -1.8095
 3443SOL    HW221966   3.407   2.720   9.018  0.1021  0.6748 -0.7090
 3444SOL     OW21967   2.300   2.839  13.846  0.4698 -0.0156 -0.5700
 3444SOL    HW121968   2.248   2.863  13.923 -0.1700 -1.6678 -0.4648
 3444SOL    HW221969   2.387   2.827  13.882  0.6338  2.0706 -0.2873
 3445SOL     OW21970   3.373   2.518   2.160 -0.3775 -0.5030 -0.1957
 3445SOL    HW121971   3.458   2.501   2.119 -1.1734 -1.4064 -1.4999
 3445SOL    HW221972   3.333   2.554   2.080 -0.9078 -1.0092 -0.1594
 3446SOL     OW21973   4.106   3.828   0.515  0.0144 -0.0980 -0.1298
 3446SOL    HW121974   4.014   3.801   0.507  0.4564 -1.8443  0.5883
 3446SOL    HW221975   4.120   3.862   0.603  1.3071  3.9970 -1.9309
 3447SOL     OW21976   4.571   1.037   3.924 -0.5019 -0.0389  0.1198
 3447SOL    HW121977   4.510   0.968   3.900  1.4111 -2.1064  1.1902
 3447SOL    HW221978   4.639   0.995   3.976  1.1140  1.2387 -0.9411
 3448SOL     OW21979   1.514   1.498   5.720  0.1919  0.1901  0.0697
 3448SOL    HW121980   1.429   1.480   5.758 -0.3007  1.9235 -0.2501
 3448SOL    HW221981   1.486   1.533   5.636  1.3411  1.2736  0.1362
 3449SOL     OW21982   2.085   1.078   8.871  0.0512  0.2260 -0.0716
 3449SOL    HW121983   2.091   1.171   8.853 -0.1070 -0.0846 -1.7997
 3449SOL    HW221984   2.179   1.067   8.857  0.2581  1.9412 -0.0202
 3450SOL     OW21985   2.352   1.531   9.192 -0.0311  0.4303 -0.0811
 3450SOL    HW121986   2.268   1.531   9.146 -0.9169  3.1259  1.5749
 3450SOL    HW221987   2.362   1.626   9.187  0.1874  0.4454  0.6477
 3451SOL     OW21988   3.939   0.161   8.983 -0.0490  0.3887  0.5560
 3451SOL    HW121989   3.870   0.109   8.942  1.0322 -1.5105  1.1450
 3451SOL    HW221990   3.949   0.223   8.911 -1.0654  1.6588  1.5197
 3452SOL     OW21991   3.339   3.840   9.906 -0.4440  0.3552 -0.2177
 3452SOL    HW121992   3.393   3.918   9.896 -1.6407  0.9933 -1.6479
 3452SOL    HW221993   3.255   3.881   9.926 -1.1431 -1.1704 -0.0192
 3453SOL     OW21994   0.748   3.357   9.518  0.4412  0.0939 -0.4923
 3453SOL    HW121995   0.699   3.300   9.458 -0.5929 -1.3221  1.6527
 3453SOL    HW221996   0.752   3.308   9.600  1.3072  1.3864  0.2255
 3454SOL     OW21997   1.849   3.095   9.897 -0.3983  0.0218  0.8554
 3454SOL    HW121998   1.771   3.048   9.926 -1.5318  0.9736 -0.6979
 3454SOL    HW221999   1.922   3.034   9.913 -1.7526 -2.2372 -1.5541
 3455SOL     OW22000   4.197   4.591   8.126  0.0842 -0.0400 -0.2793
 3455SOL    HW122001   4.153   4.648   8.063 -3.4134 -1.2105  1.0816
 3455SOL    HW222002   4.177   4.512   8.075 -1.4003 -0.7603  1.4071
 3456SOL     OW22003   4.314   4.530   3.193  0.0526  0.4166 -0.3255
 3456SOL    HW122004   4.295   4.525   3.287 -0.9132 -0.3201 -0.5523
 3456SOL    HW222005   4.387   4.589   3.209  0.4259  0.0163 -0.5540
 3457SOL     OW22006   1.033   1.758   5.348 -0.1505 -0.7522  0.2661
 3457SOL    HW122007   1.070   1.730   5.264  0.2788  2.6455 -0.6980
 3457SOL    HW222008   1.043   1.853   5.339  0.7496 -0.9185 -0.4946
 3458SOL     OW22009   1.248   1.639   6.057 -0.5128  0.1869 -0.4353
 3458SOL    HW122010   1.224   1.713   6.113 -2.2215 -0.0282 -0.8851
 3458SOL    HW222011   1.197   1.659   5.978 -0.7145 -1.1569 -0.6450
 3459SOL     OW22012   4.731   4.432   3.793  0.1106 -0.9731  0.4012
 3459SOL    HW122013   4.701   4.352   3.835 -1.1700 -0.9286 -0.4393
 3459SOL    HW222014   0.090   4.424   3.805  0.2528 -0.1203 -0.1875
 3460SOL     OW22015   0.662   1.471  16.345 -0.7148 -0.1337  0.4599
 3460SOL    HW122016   0.743   1.446  16.390 -0.0294 -1.1811 -1.3587
 3460SOL    HW222017   0.595   1.456  16.412 -1.8776 -2.5586 -1.2110
 3461SOL     OW22018   2.047   1.868   5.240 -0.5962  0.8257  0.1311
 3461SOL    HW122019   2.137   1.901   5.245 -0.7270  1.3968 -1.2112
 3461SOL    HW222020   2.063   1.782   5.277  0.8525  1.3246  0.6536
 3462SOL     OW22021   2.289   0.348   9.186  0.3934 -0.1758  0.1744
 3462SOL    HW122022   2.256   0.262   9.211 -1.6426  0.0831 -1.6305
 3462SOL    HW222023   2.207   0.391   9.164 -1.3673 -3.0983  1.0177
 3463SOL     OW22024   0.421   0.196   3.828 -0.3689 -1.0874 -0.9609
 3463SOL    HW122025   0.348   0.134   3.827 -1.9561  0.7691  0.1341
 3463SOL    HW222026   0.411   0.213   3.922 -0.5746 -0.1800 -1.1416
 3464SOL     OW22027   2.802   2.371   5.344 -0.4427 -0.2007  0.4479
 3464SOL    HW122028   2.886   2.375   5.298 -1.1131  1.2665 -0.6300
 3464SOL    HW222029   2.785   2.280   5.318  1.3305 -1.0102  2.0743
 3465SOL     OW22030   0.586   3.789   5.990 -0.3643 -0.4227  0.4933
 3465SOL    HW122031   0.625   3.734   6.058  0.4026  2.1538  2.1130
 3465SOL    HW222032   0.577   3.728   5.916  1.6710  1.3788 -1.2220
 3466SOL     OW22033   4.445   4.583   5.377  0.6123  0.2652  0.5527
 3466SOL    HW122034   4.460   4.489   5.387 -1.7908  0.1332  3.0401
 3466SOL    HW222035   4.463   4.613   5.466  0.4624 -0.3777  0.8008
 3467SOL     OW22036   2.282   2.097  10.037  0.2855 -0.1274 -0.1459
 3467SOL    HW122037   2.307   2.029  10.100 -0.8398 -1.6146 -1.3097
 3467SOL    HW222038   2.337   2.172  10.060  1.5052 -0.3967 -2.1675
 3468SOL     OW22039   0.812   3.094   4.657  0.1302 -0.3275 -0.0672
 3468SOL    HW122040   0.725   3.055   4.662  0.4790 -1.0812  0.1521
 3468SOL    HW222041   0.828   3.129   4.570  0.0226 -2.8481 -1.1004
 3469SOL     OW22042   2.822   0.684   6.727  0.5453 -0.8533 -0.4669
 3469SOL    HW122043   2.816   0.658   6.819  1.7947  0.8578  0.0811
 3469SOL    HW222044   2.758   0.754   6.728  1.9784  0.4159  1.3375
 3470SOL     OW22045   2.005   4.408   1.918  0.1907  0.3937  0.3467
 3470SOL    HW122046   1.911   4.419   1.931  0.2680 -0.9373  1.8769
 3470SOL    HW222047   2.031   4.394   2.009 -0.1672  0.3430  0.4412
 3471SOL     OW22048   3.014   1.996   4.512 -0.9116 -0.8402  0.4232
 3471SOL    HW122049   3.028   2.001   4.417  0.6907 -1.1230  0.6529
 3471SOL    HW222050   3.011   1.903   4.532  1.0791 -0.3725  2.7658
 3472SOL     OW22051   3.681   3.573   2.666  0.6734  0.0336  0.0159
 3472SOL    HW122052   3.681   3.498   2.726 -1.0755 -0.4968 -0.6389
 3472SOL    HW222053   3.589   3.596   2.672  1.0883  1.2927  1.4189
 3473SOL     OW22054   2.262   4.459  15.222 -0.4571 -0.0417 -0.1211
 3473SOL    HW122055   2.256   4.551  15.196  1.5059 -0.3714 -1.7420
 3473SOL    HW222056   2.224   4.412  15.149 -0.4832  0.6033 -0.5267
 3474SOL     OW22057   3.034   1.061  13.842  0.4199  0.1395 -0.5079
 3474SOL    HW122058   3.035   1.004  13.765  2.8800  4.0111 -3.3155
 3474SOL    HW222059   2.946   1.097  13.855 -0.1867 -2.2738  2.1989
 3475SOL     OW22060   2.739   1.592   3.523  0.7259 -0.1821 -0.0955
 3475SOL    HW122061   2.793   1.668   3.502 -0.4645  0.3889 -1.1406
 3475SOL    HW222062   2.795   1.517   3.502  0.1217 -1.0231  1.3212
 3476SOL     OW22063   3.023   1.822   2.462 -0.6551  0.1655  0.1892
 3476SOL    HW122064   3.044   1.882   2.390 -1.0206  0.8041  0.6191
 3476SOL    HW222065   3.090   1.757   2.440  1.5013  1.7312  2.1934
 3477SOL     OW22066   3.110   2.787   1.954  0.3838 -0.3636  0.0023
 3477SOL    HW122067   3.065   2.704   1.969  2.6143 -1.5299  0.0563
 3477SOL    HW222068   3.045   2.847   1.991  2.6953  0.8261  2.1232
 3478SOL     OW22069   2.833   2.462   4.892  0.7280  0.5376  0.0574
 3478SOL    HW122070   2.882   2.382   4.870 -0.3780 -0.4742  1.2739
 3478SOL    HW222071   2.745   2.429   4.908  1.7261 -1.7473  0.8688
 3479SOL     OW22072   4.338   2.898   7.562 -0.2888  0.4731 -0.3842
 3479SOL    HW122073   4.394   2.832   7.521  0.7110  1.0470  0.0707
 3479SOL    HW222074   4.283   2.844   7.619  0.7438  0.4915  0.6285
 3480SOL     OW22075   0.364   1.734  11.771 -0.2194 -0.2905 -0.3764
 3480SOL    HW122076   0.278   1.741  11.813  0.0510  0.1248  0.1007
 3480SOL    HW222077   0.372   1.645  11.738  0.3115 -1.6127  3.3680
 3481SOL     OW22078   3.797   3.840  16.295 -0.5008  0.3242  0.1485
 3481SOL    HW122079   3.720   3.890  16.272  0.4362  1.8868  0.4216
 3481SOL    HW222080   3.780   3.751  16.263 -0.6155  1.7649 -3.8321
 3482SOL     OW22081   1.799   0.594   8.706 -0.0033 -0.7851  0.3053
 3482SOL    HW122082   1.773   0.513   8.662  2.1686 -1.5947  0.5016
 3482SOL    HW222083   1.727   0.656   8.694 -0.1657 -1.5781 -2.7352
 3483SOL     OW22084   2.725   0.655   3.879  0.3473  0.8880  0.1548
 3483SOL    HW122085   2.727   0.693   3.791  2.5682  1.5461  0.4857
 3483SOL    HW222086   2.707   0.734   3.930  1.1266  1.0401  0.2000
 3484SOL     OW22087   2.556   2.602   5.428 -0.0604 -0.4569  0.1297
 3484SOL    HW122088   2.635   2.602   5.483 -0.4356  0.5309  0.6761
 3484SOL    HW222089   2.491   2.614   5.497 -1.1138  1.2341 -1.1639
 3485SOL     OW22090   2.491   3.010  16.554 -0.3674 -0.1648  0.3482
 3485SOL    HW122091   2.582   2.996  16.530 -0.6634 -1.1080 -0.2264
 3485SOL    HW222092   2.484   3.103  16.532  0.1559 -0.2917 -0.3303
 3486SOL     OW22093   3.247   0.049  13.118 -0.2481  0.1640 -0.7864
 3486SOL    HW122094   3.338   0.034  13.092 -0.2468  0.0618 -0.7269
 3486SOL    HW222095   3.203   0.008  13.044 -0.6657  1.2651 -1.1430
 3487SOL     OW22096   0.700   2.343  16.452  0.0778 -0.4815  0.5498
 3487SOL    HW122097   0.645   2.415  16.421  0.8050 -0.7849 -1.4863
 3487SOL    HW222098   0.718   2.361  16.544 -0.8244  4.4936 -0.2412
 3488SOL     OW22099   4.606   0.027   5.227  0.1057  0.6411  0.2611
 3488SOL    HW122100   4.520   0.067   5.216  0.5704  1.7703  0.8230
 3488SOL    HW222101   4.567   4.692   5.278 -0.2988 -0.9393 -2.2353
 3489SOL     OW22102   1.765   4.112   3.246  0.3827 -0.1418 -0.2233
 3489SOL    HW122103   1.721   4.147   3.323  0.6829 -0.9508  0.3108
 3489SOL    HW222104   1.700   4.131   3.178 -0.0433  0.2885  0.3020
 3490SOL     OW22105   2.544   2.944  14.234  0.7497  0.2933  0.5194
 3490SOL    HW122106   2.579   2.937  14.145  1.0536  1.3837  0.5567
 3490SOL    HW222107   2.586   2.876  14.287 -0.0989  1.8504  3.1685
 3491SOL     OW22108   1.848   2.638   5.007 -0.7071  0.1701 -1.1238
 3491SOL    HW122109   1.781   2.574   5.029 -1.5201  1.4733  0.2019
 3491SOL    HW222110   1.791   2.711   4.983  0.0829  0.4846 -2.0609
 3492SOL     OW22111   2.223   1.341   8.873 -0.0518 -0.4899  0.3419
 3492SOL    HW122112   2.312   1.345   8.907 -0.7137 -0.6054  2.0773
 3492SOL    HW222113   2.170   1.368   8.948  0.6153  0.8998  0.3091
 3493SOL     OW22114   0.207   2.274   7.027  0.0939  0.3956  0.1411
 3493SOL    HW122115   0.142   2.251   6.961 -0.8454 -0.3027  1.3230
 3493SOL    HW222116   0.285   2.239   6.984 -0.6893 -0.6047 -0.4509
 3494SOL     OW22117   2.088   3.109   2.571 -0.4908 -0.3403 -0.2174
 3494SOL    HW122118   2.138   3.183   2.538  0.5320 -1.4493 -1.1277
 3494SOL    HW222119   2.127   3.033   2.527  0.9704  0.6639 -0.6448
 3495SOL     OW22120   1.172   4.259  11.801 -0.1789  0.0731  0.2638
 3495SOL    HW122121   1.108   4.245  11.731  0.6167 -0.0710 -0.4356
 3495SOL    HW222122   1.143   4.205  11.874 -0.2665  0.1784  0.3074
 3496SOL     OW22123   4.233   2.152  15.633 -0.3563  0.4602 -0.1271
 3496SOL    HW122124   4.253   2.136  15.725 -1.1523 -1.5996 -0.3078
 3496SOL    HW222125   4.186   2.071  15.612 -0.0399  0.2925 -0.1995
 3497SOL     OW22126   4.300   2.997  17.021  0.3888  0.2902  0.0704
 3497SOL    HW122127   4.377   2.972  16.970 -0.0375 -0.4494 -0.2212
 3497SOL    HW222128   4.233   2.980  16.955 -0.8288 -0.5818  1.5404
 3498SOL     OW22129   3.668   0.549  11.046 -0.2192  0.2190 -0.0100
 3498SOL    HW122130   3.736   0.565  11.111  2.0173  0.4059 -2.3837
 3498SOL    HW222131   3.709   0.483  10.991  1.1199  1.4787 -0.5313
 3499SOL     OW22132   1.161   3.892   3.967  0.6175 -0.2110  0.2717
 3499SOL    HW122133   1.250   3.919   3.947  0.9613 -1.8080 -0.3533
 3499SOL    HW222134   1.127   3.954   4.032 -0.2469  0.7861 -1.1040
 3500SOL     OW22135   4.268   4.373   5.478 -0.1417  0.1551 -0.1612
 3500SOL    HW122136   4.176   4.353   5.460 -0.3318  0.8744  0.0214
 3500SOL    HW222137   4.268   4.464   5.507  1.4730  0.9016 -2.5782
 3501SOL     OW22138   1.421   2.164  16.386  0.3497 -0.0583 -0.1814
 3501SOL    HW122139   1.342   2.151  16.334  2.0564 -2.8581 -2.0416
 3501SOL    HW222140   1.388   2.183  16.474  0.3651 -1.3918  0.1051
 3502SOL     OW22141   4.381   2.106   9.005 -0.0003 -0.2233  0.3089
 3502SOL    HW122142   4.469   2.090   9.038  0.0413  0.2308  0.4160
 3502SOL    HW222143   4.330   2.034   9.042 -3.5112  1.6647 -0.7679
 3503SOL     OW22144   0.967   2.115   5.988  0.5795  0.1785 -0.1698
 3503SOL    HW122145   0.938   2.103   5.898  0.5871  2.1459 -0.4451
 3503SOL    HW222146   0.947   2.028   6.021 -0.0011 -0.0110 -1.0191
 3504SOL     OW22147   0.690   4.013   0.969  0.2149  0.7212  0.5912
 3504SOL    HW122148   0.740   3.971   0.900  0.7725  4.7463 -1.4859
 3504SOL    HW222149   0.669   3.937   1.023 -1.0548  0.4102 -0.3257
 3505SOL     OW22150   3.738   3.255   8.486 -0.1293 -0.0454 -0.2450
 3505SOL    HW122151   3.743   3.163   8.511  1.3198  0.3029  0.7563
 3505SOL    HW222152   3.789   3.247   8.405 -1.5329 -1.1283 -1.0212
 3506SOL     OW22153   2.427   2.115   3.927  0.8513  0.3873 -1.0697
 3506SOL    HW122154   2.431   2.168   4.006  2.6717  1.9364 -2.2137
 3506SOL    HW222155   2.348   2.152   3.888  0.8495  2.0839  0.5749
 3507SOL     OW22156   0.987   4.002   3.423  0.9348 -0.3200  0.8640
 3507SOL    HW122157   1.033   3.925   3.389 -1.5676 -1.4466  0.0318
 3507SOL    HW222158   0.930   3.970   3.493 -0.5202  0.8218  0.2177
 3508SOL     OW22159   4.482   0.681   3.482 -0.0695 -0.1411 -0.2277
 3508SOL    HW122160   4.566   0.637   3.491 -0.8119 -1.7109 -1.0165
 3508SOL    HW222161   4.510   0.760   3.435 -0.8886  1.4216  1.8948
 3509SOL     OW22162   1.965   1.130  11.406  0.2604 -0.0010 -0.5145
 3509SOL    HW122163   1.893   1.164  11.353 -0.3328  0.5254  0.6374
 3509SOL    HW222164   2.006   1.073  11.342  1.2001  0.0209  0.0642
 3510SOL     OW22165   0.095   1.321   4.327 -0.0293  0.0667 -0.4163
 3510SOL    HW122166   0.115   1.229   4.311 -2.7815 -0.8376  1.4263
 3510SOL    HW222167   0.066   1.348   4.240  1.3261  0.7441 -0.6760
 3511SOL     OW22168   2.889   1.141  10.736  0.5374  0.5783  0.0260
 3511SOL    HW122169   2.864   1.063  10.687  0.7057  0.9866 -0.7211
 3511SOL    HW222170   2.978   1.124  10.765  0.9391  1.4363 -0.7044
 3512SOL     OW22171   0.544   0.972   6.657 -0.3320 -0.1305  0.2167
 3512SOL    HW122172   0.558   0.945   6.747 -0.4975 -1.3505 -0.1295
 3512SOL    HW222173   0.455   1.007   6.661  0.0197  0.6718  1.1339
 3513SOL     OW22174   1.611   2.831   5.141 -0.3096  0.5329  0.3864
 3513SOL    HW122175   1.624   2.826   5.046 -0.6775 -0.7363  0.4041
 3513SOL    HW222176   1.613   2.926   5.145  0.0272  0.5932 -1.2819
 3514SOL     OW22177   1.977   2.366   3.266  0.1256  0.3005  0.2108
 3514SOL    HW122178   1.888   2.337   3.247  0.0156  0.4527  0.4964
 3514SOL    HW222179   1.955   2.428   3.336 -2.2185 -0.0279 -0.2460
 3515SOL     OW22180   0.832   4.246   6.104  0.1174 -0.3550 -0.3188
 3515SOL    HW122181   0.815   4.325   6.053 -0.0974 -0.0890  0.1635
 3515SOL    HW222182   0.789   4.182   6.047  0.2588 -0.1807 -0.6243
 3516SOL     OW22183   2.382   4.245   4.171 -0.5201  0.3586 -0.2924
 3516SOL    HW122184   2.375   4.185   4.245 -0.0867 -0.3131 -0.8007
 3516SOL    HW222185   2.464   4.211   4.136 -0.7141  0.0003 -0.3918
 3517SOL     OW22186   2.222   1.918   8.435 -0.0176 -0.7247 -0.0668
 3517SOL    HW122187   2.196   1.828   8.452 -0.2979 -0.3307  1.6814
 3517SOL    HW222188   2.276   1.910   8.357 -1.9341 -1.5623 -1.3039
 3518SOL     OW22189   4.356   0.906   5.698  0.4687  0.4416 -0.0756
 3518SOL    HW122190   4.368   0.939   5.609  0.6611 -1.6260 -0.8170
 3518SOL    HW222191   4.439   0.927   5.740 -0.3080  1.4858  0.9379
 3519SOL     OW22192   3.369   2.105   8.457 -0.0671  0.4802 -0.2214
 3519SOL    HW122193   3.461   2.106   8.429  0.5447  1.3945  1.8298
 3519SOL    HW222194   3.321   2.146   8.385 -1.2439  1.5263  1.1532
 3520SOL     OW22195   0.991   0.619   5.241  0.1841  0.0400  0.7973
 3520SOL    HW122196   1.070   0.673   5.249 -1.1525  2.0789  0.1660
 3520SOL    HW222197   1.021   0.531   5.216  0.2910  0.5273 -0.8279
 3521SOL     OW22198   1.745   2.497   9.473 -0.0644  0.4976 -0.1014
 3521SOL    HW122199   1.752   2.471   9.381 -3.1539  0.5159 -0.3610
 3521SOL    HW222200   1.751   2.592   9.461 -1.8645  0.8337  1.6529
 3522SOL     OW22201   2.494   2.368   2.041  0.0664  0.0965  0.3497
 3522SOL    HW122202   2.443   2.392   2.118 -0.3238  1.4779 -0.3437
 3522SOL    HW222203   2.455   2.416   1.968  2.0187  0.7330 -0.2816
 3523SOL     OW22204   1.487   3.382   0.992  0.4161 -0.2863 -0.6027
 3523SOL    HW122205   1.527   3.390   0.906  2.1560  0.7028  0.2986
 3523SOL    HW222206   1.398   3.409   0.968 -0.2447 -2.5431 -0.7055
 3524SOL     OW22207   0.563   3.919   9.001  0.3956 -0.1673 -0.4371
 3524SOL    HW122208   0.580   3.883   9.087  1.7977  1.4731 -0.0230
 3524SOL    HW222209   0.637   3.980   8.993  0.7372 -0.8605 -2.5780
 3525SOL     OW22210   4.145   3.080  17.219  0.0652  0.1909 -0.4713
 3525SOL    HW122211   4.066   3.086  17.166 -1.3503  0.4038  1.6709
 3525SOL    HW222212   4.206   3.034  17.161  1.6703 -1.5308  2.5592
 3526SOL     OW22213   1.363   1.382   2.364  0.3340 -0.0790  0.4380
 3526SOL    HW122214   1.281   1.400   2.319 -0.0683 -1.4232  0.6161
 3526SOL    HW222215   1.380   1.457   2.420 -1.3256 -0.5333  1.5370
 3527SOL     OW22216   0.278   3.216   0.316 -0.1718  0.0033  0.1030
 3527SOL    HW122217   0.312   3.196   0.229  3.6813  1.4606  1.2506
 3527SOL    HW222218   0.228   3.135   0.323 -0.9947  0.8023  3.5944
 3528SOL     OW22219   1.609   0.721  10.108 -0.5963  0.3743  0.1258
 3528SOL    HW122220   1.598   0.786  10.039  0.0765 -1.5920 -1.8713
 3528SOL    HW222221   1.674   0.767  10.161 -0.7171 -0.9583  1.4364
 3529SOL     OW22222   3.697   0.769   0.749  0.7609 -0.3893 -0.2217
 3529SOL    HW122223   3.673   0.758   0.841  2.2175  0.5563  0.2657
 3529SOL    HW222224   3.638   0.709   0.704  1.0075 -0.1116 -0.9095
 3530SOL     OW22225   4.123   1.032   4.995 -0.1778 -0.0093  0.2493
 3530SOL    HW122226   4.206   1.072   5.023  0.6215 -3.5861  2.9933
 3530SOL    HW222227   4.076   1.108   4.960 -0.0980  0.2876  0.7837
 3531SOL     OW22228   0.314   3.848  15.172  0.1435 -0.3059  0.4887
 3531SOL    HW122229   0.279   3.932  15.141  0.2070 -0.2068  0.6792
 3531SOL    HW222230   0.239   3.792  15.153  0.3321 -0.8282  1.2764
 3532SOL     OW22231   1.229   0.831   7.307  0.0829 -0.2124  0.0542
 3532SOL    HW122232   1.301   0.803   7.364  0.6895 -0.5761 -0.8991
 3532SOL    HW222233   1.214   0.921   7.335  3.4686  0.9950 -2.1176
 3533SOL     OW22234   1.738   3.969   5.912 -0.1843  0.6020  0.1904
 3533SOL    HW122235   1.794   3.941   5.840 -0.1971 -0.9158  0.7640
 3533SOL    HW222236   1.681   4.032   5.869 -0.8784 -1.4892 -1.9750
 3534SOL     OW22237   4.338   2.755   8.927  0.5704  0.2305  0.2173
 3534SOL    HW122238   4.350   2.786   8.837 -0.9751  0.3182  0.0465
 3534SOL    HW222239   4.295   2.832   8.962 -1.4356 -1.0834  0.6261
 3535SOL     OW22240   1.203   3.660   9.149  0.4198 -0.1295  0.5383
 3535SOL    HW122241   1.232   3.587   9.203 -0.5405 -0.9227 -0.0069
 3535SOL    HW222242   1.108   3.674   9.154  0.7627  1.8105  1.6261
 3536SOL     OW22243   0.407   3.102   8.550  0.3166  0.4597  0.2796
 3536SOL    HW122244   0.341   3.154   8.597 -0.8496 -1.0262  0.2798
 3536SOL    HW222245   0.375   3.127   8.463  1.8193 -1.3411 -0.7802
 3537SOL     OW22246   3.386   1.943  12.566 -0.0194 -0.6540  0.5810
 3537SOL    HW122247   3.457   1.957  12.503 -0.4077 -0.8217  0.1098
 3537SOL    HW222248   3.309   1.952  12.510  0.8028 -0.0200 -0.4398
 3538SOL     OW22249   2.544   1.244  13.578  0.0410 -0.1988  0.1838
 3538SOL    HW122250   2.615   1.184  13.601  0.8680  0.1711 -1.4063
 3538SOL    HW222251   2.499   1.205  13.504  0.0893  1.1021 -0.5273
 3539SOL     OW22252   0.143   0.029   2.164  0.2394  0.3914 -0.2086
 3539SOL    HW122253   0.221   4.722   2.199  1.2366  2.2132 -0.1959
 3539SOL    HW222254   0.092   0.049   2.243 -1.6307 -1.2183 -0.9967
 3540SOL     OW22255   3.299   0.353   7.016 -0.2052 -0.0807  0.1701
 3540SOL    HW122256   3.276   0.295   7.088  1.6491 -0.0662  0.7651
 3540SOL    HW222257   3.241   0.318   6.948  0.0703 -0.1297 -0.0410
 3541SOL     OW22258   4.159   3.276   1.011  0.0316  0.3386 -0.5410
 3541SOL    HW122259   4.248   3.308   0.994  0.7612 -1.9655 -1.0587
 3541SOL    HW222260   4.189   3.220   1.083 -0.7540 -1.2671 -1.4612
 3542SOL     OW22261   1.885   4.094  15.771 -0.3824 -0.0311  0.0826
 3542SOL    HW122262   1.843   4.159  15.715 -0.5264  0.7644  1.0971
 3542SOL    HW222263   1.893   4.156  15.844 -2.0793  0.8579 -0.4832
 3543SOL     OW22264   4.595   3.805   6.602  0.2148  0.5596  0.1327
 3543SOL    HW122265   4.641   3.733   6.646  0.9486  0.7591 -0.3112
 3543SOL    HW222266   4.583   3.862   6.678  0.9880 -0.8138  1.2986
 3544SOL     OW22267   0.305   3.969   0.629  0.2254 -0.2394  0.5785
 3544SOL    HW122268   0.377   4.007   0.678 -1.7631  5.1726 -0.7627
 3544SOL    HW222269   0.276   3.900   0.689 -1.3436 -1.3262 -1.3959
 3545SOL     OW22270   2.984   2.538  13.984 -0.0657  0.2063  0.5412
 3545SOL    HW122271   2.956   2.505  14.069 -1.9362 -0.4682 -0.3293
 3545SOL    HW222272   3.005   2.452  13.946 -0.7269  0.2353  0.1104
 3546SOL     OW22273   3.425   4.040  13.012 -0.7938 -0.4473  0.2871
 3546SOL    HW122274   3.423   4.107  13.080 -0.7638 -1.8852  1.7259
 3546SOL    HW222275   3.412   3.958  13.060  0.3184 -0.5296  0.4477
 3547SOL     OW22276   2.116   4.327   6.497 -0.1306  0.4285 -0.7174
 3547SOL    HW122277   2.174   4.396   6.464  1.8581  0.2802  2.4451
 3547SOL    HW222278   2.174   4.254   6.477  0.4003  0.9618 -1.0925
 3548SOL     OW22279   2.974   4.341  12.753  0.5910  0.8499 -0.6902
 3548SOL    HW122280   2.901   4.336  12.691 -1.4440  0.5175  1.7075
 3548SOL    HW222281   3.037   4.380  12.693 -1.6277  1.5834 -2.5599
 3549SOL     OW22282   1.554   2.333  15.268 -0.1845  0.3598 -0.1920
 3549SOL    HW122283   1.568   2.384  15.347  0.7859  0.2725 -0.3050
 3549SOL    HW222284   1.633   2.361  15.222  0.1028  0.5887  0.4474
 3550SOL     OW22285   0.278   1.640   2.370 -0.5014  0.1109  0.1104
 3550SOL    HW122286   0.275   1.735   2.381  0.3900  0.1125  0.3392
 3550SOL    HW222287   0.369   1.623   2.345 -0.9242 -1.8126 -0.0909
 3551SOL     OW22288   3.913   4.332  15.438 -0.3868  0.6792  0.1410
 3551SOL    HW122289   3.995   4.292  15.467  0.5210  0.5958 -2.5395
 3551SOL    HW222290   3.901   4.317  15.344 -1.7554  0.1739  0.3913
 3552SOL     OW22291   3.803   3.414   4.258  0.9300  0.4614 -0.1280
 3552SOL    HW122292   3.777   3.333   4.214 -0.2677  1.2178 -0.8287
 3552SOL    HW222293   3.879   3.452   4.213 -0.1828  1.0690 -1.5220
 3553SOL     OW22294   0.635   2.572   0.143  0.4288  0.0137  0.1629
 3553SOL    HW122295   0.645   2.561   0.237  1.2775 -0.3317  0.0329
 3553SOL    HW222296   0.703   2.511   0.115 -0.5107 -1.7787  1.8244
 3554SOL     OW22297   1.091   0.164   5.292  0.0562  0.3702  0.4004
 3554SOL    HW122298   1.145   0.113   5.352  1.3412 -2.4276 -3.1570
 3554SOL    HW222299   1.010   0.126   5.326  0.9511  0.2272  2.4013
 3555SOL     OW22300   2.002   0.607  11.270  0.3214 -0.5368 -0.1748
 3555SOL    HW122301   1.956   0.577  11.348 -0.8395 -2.3516 -1.5868
 3555SOL    HW222302   1.952   0.573  11.197  0.8920  0.6317 -1.1215
 3556SOL     OW22303   0.888   1.113  10.015  0.1574 -0.2909  0.1396
 3556SOL    HW122304   0.798   1.145  10.018  0.1145 -0.3648 -0.4690
 3556SOL    HW222305   0.894   1.090  10.108 -0.0022  1.1969  0.5154
 3557SOL     OW22306   1.061   2.042  15.192 -0.3122  0.4799  0.0185
 3557SOL    HW122307   1.141   2.079  15.155 -0.8484  2.3321  0.7004
 3557SOL    HW222308   0.997   2.064  15.125 -1.0952  0.5627  0.7957
 3558SOL     OW22309   3.737   1.506   3.636 -0.3287  0.3144  0.4201
 3558SOL    HW122310   3.813   1.482   3.583  1.1039  0.4198  2.4311
 3558SOL    HW222311   3.704   1.571   3.574 -0.8521 -0.4183 -0.0680
 3559SOL     OW22312   0.195   1.766   8.920 -0.1352 -0.2047 -0.3640
 3559SOL    HW122313   0.189   1.701   8.850  0.8222 -1.7762  0.9985
 3559SOL    HW222314   0.284   1.792   8.898  0.4213 -1.7233  0.0931
 3560SOL     OW22315   2.953   2.692   7.551 -0.1836  0.0415 -1.5174
 3560SOL    HW122316   2.958   2.786   7.568 -1.7026 -0.3423  1.0749
 3560SOL    HW222317   3.041   2.671   7.518  1.3211  1.0335  1.8889
 3561SOL     OW22318   3.020   0.689   6.244 -0.1828  0.0065  0.0998
 3561SOL    HW122319   3.010   0.602   6.283  0.6993 -0.3797 -0.5368
 3561SOL    HW222320   3.017   0.741   6.325  2.7130 -0.5833  0.6072
 3562SOL     OW22321   2.523   0.859   3.196 -0.3727  0.0071 -0.3611
 3562SOL    HW122322   2.469   0.790   3.233 -0.4670 -0.0383 -0.5822
 3562SOL    HW222323   2.545   0.904   3.277 -0.2663 -0.1445 -0.3055
 3563SOL     OW22324   0.760   4.658  14.296  0.2259  0.5440 -0.4214
 3563SOL    HW122325   0.755   0.017  14.308  0.2711  0.7307 -1.9889
 3563SOL    HW222326   0.848   4.646  14.332 -0.2883  2.1713  1.4113
 3564SOL     OW22327   0.788   1.454  16.052  0.8227  0.5376  0.8857
 3564SOL    HW122328   0.875   1.483  16.027 -0.8209  2.3073 -2.7038
 3564SOL    HW222329   0.742   1.441  15.969  0.9922  3.6269  0.2820
 3565SOL     OW22330   0.007   0.498   7.742  0.5239 -0.3885  0.2721
 3565SOL    HW122331   0.100   0.479   7.732  0.3315 -0.8865 -0.6325
 3565SOL    HW222332   4.733   0.464   7.830  0.3039  0.9945  0.7788
 3566SOL     OW22333   3.226   1.337   1.530 -0.8593 -0.3340  0.2321
 3566SOL    HW122334   3.195   1.396   1.461 -1.4672  1.1392  1.7707
 3566SOL    HW222335   3.155   1.346   1.594  0.6068 -2.3690  2.1534
 3567SOL     OW22336   0.744   1.163   5.900  0.1084  0.1274 -0.6657
 3567SOL    HW122337   0.665   1.126   5.940  0.5834  2.7963  2.7545
 3567SOL    HW222338   0.795   1.200   5.972 -2.3673  1.0796  0.6012
 3568SOL     OW22339   3.773   1.836  13.710  0.0441  0.1973  0.7593
 3568SOL    HW122340   3.702   1.834  13.645  1.4749 -0.8048 -0.7866
 3568SOL    HW222341   3.727   1.889  13.774  0.8322  1.4578  0.2757
 3569SOL     OW22342   1.207   4.181  17.708  0.8806  0.0023 -0.1192
 3569SOL    HW122343   1.173   4.226   0.042 -0.3133 -1.1886  0.0574
 3569SOL    HW222344   1.131   4.148  17.660  1.2039 -0.7675 -0.1105
 3570SOL     OW22345   2.756   1.779   1.054 -0.0763  0.0446 -0.7061
 3570SOL    HW122346   2.842   1.805   1.021  0.2681  1.2458  1.1193
 3570SOL    HW222347   2.697   1.792   0.979  0.6153  3.9692 -0.5733
 3571SOL     OW22348   1.489   4.305   0.602 -0.5713  0.2245 -0.6436
 3571SOL    HW122349   1.539   4.284   0.680 -0.9188 -1.4443 -0.8793
 3571SOL    HW222350   1.447   4.385   0.636 -1.1607 -1.0951  1.7436
 3572SOL     OW22351   3.017   1.487   0.925  0.1576  0.7282  0.0360
 3572SOL    HW122352   3.012   1.414   0.987  1.3474  1.7397  1.3173
 3572SOL    HW222353   3.107   1.519   0.931 -0.3504  2.1312  0.0647
 3573SOL     OW22354   1.193   3.151   8.846 -0.0096  0.4546  0.5421
 3573SOL    HW122355   1.210   3.200   8.765 -1.1220  0.9322  0.5958
 3573SOL    HW222356   1.275   3.135   8.892  1.2465  3.9896 -0.4255
 3574SOL     OW22357   0.330   0.816   4.916  0.2856  0.1656 -0.0744
 3574SOL    HW122358   0.319   0.846   5.006 -1.5031  0.5002 -0.4168
 3574SOL    HW222359   0.424   0.828   4.904 -0.7248  4.1346 -4.0603
 3575SOL     OW22360   1.041   4.147   8.242 -0.1225  0.8511 -0.0767
 3575SOL    HW122361   1.030   4.098   8.161 -1.5042 -0.7601  1.0571
 3575SOL    HW222362   0.974   4.108   8.299  0.8586  0.9526  1.1588
 3576SOL     OW22363   2.072   2.023   8.008  0.0676 -0.1736  0.5422
 3576SOL    HW122364   2.088   2.112   8.039  1.7356 -0.8342  1.5509
 3576SOL    HW222365   2.065   2.048   7.916 -1.0388 -3.0889 -0.1423
 3577SOL     OW22366   4.338   0.875  17.296  0.0298 -0.7018  0.3879
 3577SOL    HW122367   4.255   0.829  17.304 -0.2336 -0.1762  0.7086
 3577SOL    HW222368   4.371   0.873  17.386  0.5145  0.7406  0.2366
 3578SOL     OW22369   0.875   3.413   6.297  0.3842 -0.3682  0.1918
 3578SOL    HW122370   0.968   3.420   6.272  0.0540  1.4539 -0.5326
 3578SOL    HW222371   0.866   3.354   6.372 -0.0132 -2.2462 -1.3324
 3579SOL     OW22372   2.644   2.067   2.794  0.2330  0.5645  0.5457
 3579SOL    HW122373   2.635   2.091   2.886  0.3729  0.3156  0.6251
 3579SOL    HW222374   2.713   2.126   2.765  0.6477 -0.3080 -0.2470
 3580SOL     OW22375   1.598   4.395   2.942  0.0090  0.0239  0.6192
 3580SOL    HW122376   1.549   4.476   2.953 -0.0668 -0.5691  4.6894
 3580SOL    HW222377   1.679   4.436   2.913 -0.4402  0.6170  0.2187
 3581SOL     OW22378   1.052   1.460   2.919 -0.1717  0.3998 -0.0502
 3581SOL    HW122379   1.099   1.429   2.996 -0.7925  0.5657  0.3994
 3581SOL    HW222380   0.986   1.391   2.916 -0.7697  0.9672 -0.0528
 3582SOL     OW22381   2.540   0.586   4.718  0.1922  0.0859  0.2911
 3582SOL    HW122382   2.606   0.565   4.784  0.3412  0.1421  0.1595
 3582SOL    HW222383   2.516   0.497   4.690 -2.6109 -0.0334  3.0908
 3583SOL     OW22384   2.725   1.623  15.759  0.4382 -0.2982 -0.0550
 3583SOL    HW122385   2.789   1.689  15.733 -0.2390  0.4973  0.2853
 3583SOL    HW222386   2.725   1.569  15.680  1.8770 -2.7134  1.6190
 3584SOL     OW22387   3.743   2.780   0.932  0.5402  0.1623  0.1505
 3584SOL    HW122388   3.698   2.842   0.875  1.3886 -1.0859 -1.8955
 3584SOL    HW222389   3.667   2.722   0.937  0.4007  0.3241 -0.0850
 3585SOL     OW22390   0.597   1.951   7.989  0.4127 -0.0749  0.3754
 3585SOL    HW122391   0.591   1.952   7.894  0.7688  0.1530  0.3573
 3585SOL    HW222392   0.531   1.885   8.011 -1.7463  1.6927 -0.9394
 3586SOL     OW22393   2.752   4.685   3.118 -0.0531 -0.2141  1.0874
 3586SOL    HW122394   2.660   4.696   3.144  0.0388  3.8485 -0.3480
 3586SOL    HW222395   2.767   0.016   3.052  2.0112 -2.4104 -0.6746
 3587SOL     OW22396   4.309   3.566  14.254  0.3738  0.1231 -0.0358
 3587SOL    HW122397   4.275   3.500  14.194 -1.2292  1.9961 -1.1975
 3587SOL    HW222398   4.343   3.517  14.329  0.2736  1.4365  0.8864
 3588SOL     OW22399   4.275   4.036  12.678 -0.0083  0.5916 -0.2892
 3588SOL    HW122400   4.255   4.129  12.684 -2.3090  0.0773  0.2210
 3588SOL    HW222401   4.206   4.012  12.616  2.0609 -0.1900 -2.2942
 3589SOL     OW22402   1.087   0.952   7.067  0.1741 -0.6746  0.3024
 3589SOL    HW122403   1.087   0.888   7.138  1.1352  1.1539  1.9281
 3589SOL    HW222404   1.152   1.013   7.101 -0.9791  0.4590  0.5003
 3590SOL     OW22405   0.151   1.571   8.731 -0.2530 -0.0084 -0.3634
 3590SOL    HW122406   0.217   1.507   8.759 -2.8319 -2.0248  1.1649
 3590SOL    HW222407   0.191   1.602   8.649 -1.7285  0.0560 -1.0577
 3591SOL     OW22408   2.158   0.112   2.025  0.1517 -0.5372 -0.2371
 3591SOL    HW122409   2.130   0.181   2.085  0.9101 -2.3997  2.2635
 3591SOL    HW222410   2.093   0.113   1.954  1.0173  1.0244 -1.0129
 3592SOL     OW22411   3.557   0.086   7.775 -0.8856  0.2573 -0.6752
 3592SOL    HW122412   3.553   0.018   7.707  1.0833  0.3102 -0.8424
 3592SOL    HW222413   3.521   0.160   7.727 -1.7722 -0.7322 -1.5484
 3593SOL     OW22414   4.554   2.413   5.630 -0.2983  0.0982  0.3139
 3593SOL    HW122415   4.515   2.499   5.622  1.5365  1.1740  2.9380
 3593SOL    HW222416   4.588   2.417   5.720  1.6605 -0.5069 -0.3846
 3594SOL     OW22417   1.269   0.907   4.668 -0.1707 -0.4016  0.4669
 3594SOL    HW122418   1.245   0.816   4.650  2.8337 -0.4703 -3.2603
 3594SOL    HW222419   1.364   0.911   4.680 -0.2377 -0.7916  1.1345
 3595SOL     OW22420   3.471   1.056  16.141 -0.2827  0.2535 -0.8292
 3595SOL    HW122421   3.487   1.008  16.059  2.5782  0.3066 -0.2895
 3595SOL    HW222422   3.401   1.111  16.106 -0.5492  0.2490 -0.2957
 3596SOL     OW22423   1.410   3.664   1.413 -0.3032  0.2230  0.5466
 3596SOL    HW122424   1.437   3.601   1.347  3.1162  2.8916 -0.6392
 3596SOL    HW222425   1.496   3.678   1.453 -0.8956 -0.5245  2.0711
 3597SOL     OW22426   0.764   1.306   3.678  0.5883  0.2120 -0.0987
 3597SOL    HW122427   0.749   1.328   3.586 -0.0658 -0.9124 -0.2637
 3597SOL    HW222428   0.675   1.326   3.705  2.0864  4.2952  1.7789
 3598SOL     OW22429   4.136   4.256  14.833  0.1095  0.2579  0.3527
 3598SOL    HW122430   4.059   4.268  14.889 -1.1702 -2.3992 -0.8155
 3598SOL    HW222431   4.130   4.162  14.817  0.1802  0.4631 -0.8451
 3599SOL     OW22432   2.323   1.013   1.675 -0.0794 -1.0692 -0.2033
 3599SOL    HW122433   2.253   0.972   1.725 -1.6360 -1.1761 -2.4692
 3599SOL    HW222434   2.398   0.955   1.685 -0.9570 -2.1689  0.0241
 3600SOL     OW22435   3.717   0.729   4.712  0.3105 -0.4618  0.3057
 3600SOL    HW122436   3.795   0.781   4.693 -0.7635  1.7816  2.0860
 3600SOL    HW222437   3.662   0.750   4.637 -0.6967 -2.6776  0.4389
 3601SOL     OW22438   4.053   1.261   1.645  0.1090 -0.4490  0.8460
 3601SOL    HW122439   4.071   1.167   1.645 -0.7554 -0.6115 -2.2788
 3601SOL    HW222440   4.106   1.284   1.569 -0.7951 -2.0823 -0.2851
 3602SOL     OW22441   3.925   1.611   1.225  0.1403  0.3822 -0.9566
 3602SOL    HW122442   4.009   1.607   1.179  0.6998 -2.1371  0.2511
 3602SOL    HW222443   3.870   1.657   1.162 -0.8259  1.1385  0.4539
 3603SOL     OW22444   1.828   2.921   2.533 -0.4738  0.1788  0.1897
 3603SOL    HW122445   1.866   2.887   2.614 -1.3905 -1.8191 -0.2219
 3603SOL    HW222446   1.905   2.908   2.477 -0.0478  0.2358  0.7655
 3604SOL     OW22447   0.058   2.568   5.439 -0.1260 -0.2624 -0.2643
 3604SOL    HW122448   0.035   2.555   5.347 -1.3607 -3.2880  0.4911
 3604SOL    HW222449   0.008   2.647   5.460 -0.6352  0.0855 -2.7044
 3605SOL     OW22450   2.487   1.379   1.078  0.5818  0.0142 -0.3607
 3605SOL    HW122451   2.562   1.422   1.119  0.6983  0.9244 -1.5177
 3605SOL    HW222452   2.527   1.342   1.000  2.0077  1.0523 -0.1165
 3606SOL     OW22453   3.919   2.786   4.910  0.4087  0.2989 -0.0796
 3606SOL    HW122454   3.881   2.742   4.833 -0.6954 -0.4504  0.8992
 3606SOL    HW222455   3.927   2.708   4.965 -4.5206 -2.2493 -2.9684
 3607SOL     OW22456   0.533   3.101   5.665  0.0671 -0.3199 -0.0866
 3607SOL    HW122457   0.590   3.177   5.673  0.0812 -0.5042  1.5407
 3607SOL    HW222458   0.598   3.042   5.704  0.8920  0.3493 -0.4354
 3608SOL     OW22459   1.161   0.938   8.026 -0.4214 -0.4464 -0.3583
 3608SOL    HW122460   1.256   0.927   8.039 -0.9573 -3.5864  0.9678
 3608SOL    HW222461   1.148   0.848   7.996  2.2817 -1.0291  0.1860
 3609SOL     OW22462   4.380   1.427   6.195 -0.9001 -0.3201 -0.8306
 3609SOL    HW122463   4.443   1.471   6.138 -1.0945  1.8441  0.6352
 3609SOL    HW222464   4.404   1.338   6.168 -1.6396 -0.9222  0.4626
 3610SOL     OW22465   3.197   3.725   8.362  0.7658 -0.5570  0.1601
 3610SOL    HW122466   3.274   3.673   8.339  1.1503 -0.5918  1.5298
 3610SOL    HW222467   3.166   3.679   8.440 -0.6184  1.2067  0.6700
 3611SOL     OW22468   2.718   3.620   1.011 -0.9404 -0.2266 -0.0406
 3611SOL    HW122469   2.805   3.614   1.050 -1.5919 -0.1357  1.4059
 3611SOL    HW222470   2.707   3.525   1.009 -0.6419 -0.2837  1.0751
 3612SOL     OW22471   4.588   0.167  10.050  0.1284  0.0561 -0.1186
 3612SOL    HW122472   4.617   0.089  10.097 -0.0044  0.5638  0.8305
 3612SOL    HW222473   4.580   0.228  10.124  2.2910 -0.8822  0.8990
 3613SOL     OW22474   2.725   0.840   3.675  0.1570 -0.1737 -0.1665
 3613SOL    HW122475   2.700   0.856   3.584  0.4523  2.2765  0.1783
 3613SOL    HW222476   2.820   0.836   3.675  0.0992 -1.1781  4.7084
 3614SOL     OW22477   0.981   2.336   1.301 -0.4624 -0.4538 -0.0840
 3614SOL    HW122478   1.023   2.368   1.380  0.7819 -1.4504 -0.3278
 3614SOL    HW222479   0.980   2.413   1.244  1.2207 -0.8240 -0.6164
 3615SOL     OW22480   2.230   2.963  13.602 -0.1666 -1.0582  0.1123
 3615SOL    HW122481   2.256   2.926  13.686 -0.1829 -0.9055  0.1837
 3615SOL    HW222482   2.219   2.880  13.556  0.9640 -1.4585  0.5623
 3616SOL     OW22483   3.077   1.901  13.603  0.3259 -0.7151 -0.0354
 3616SOL    HW122484   3.109   1.872  13.518  1.0809 -2.1645  0.7469
 3616SOL    HW222485   3.005   1.953  13.567 -1.9504 -2.1402  2.4220
 3617SOL     OW22486   3.803   1.674  16.342  0.7032 -0.0392 -0.2061
 3617SOL    HW122487   3.733   1.610  16.352  1.6386 -1.0573 -0.1465
 3617SOL    HW222488   3.803   1.693  16.248  1.6495  2.6009  0.3303
 3618SOL     OW22489   0.134   0.138  17.697  0.3599 -0.4544  0.1078
 3618SOL    HW122490   0.125   0.043  17.709  0.9943 -0.2900  1.8078
 3618SOL    HW222491   0.229   0.144  17.697  0.2237  1.3072  2.0276
 3619SOL     OW22492   1.891   1.288   6.011  0.0168  0.3245  0.0514
 3619SOL    HW122493   1.834   1.326   6.078 -2.1864  0.2960 -1.8082
 3619SOL    HW222494   1.840   1.298   5.931  0.8705  1.3206 -0.3535
 3620SOL     OW22495   1.415   3.954   2.873 -0.3096  0.3691  0.0336
 3620SOL    HW122496   1.482   3.985   2.813  1.7348 -0.8287  1.6775
 3620SOL    HW222497   1.463   3.881   2.914  2.7476  2.6030  0.4156
 3621SOL     OW22498   1.757   3.929   3.723 -0.0043 -0.2597 -0.0050
 3621SOL    HW122499   1.845   3.944   3.758 -0.3461  1.0378  0.3014
 3621SOL    HW222500   1.714   4.014   3.725  0.7018  0.0779  0.7830
 3622SOL     OW22501   2.009   0.212   9.123 -0.4655  0.1111  0.3036
 3622SOL    HW122502   1.985   0.179   9.036  0.4323  3.8868 -1.4240
 3622SOL    HW222503   2.030   0.304   9.106  0.5428  0.3610  2.9519
 3623SOL     OW22504   2.659   2.761   3.142  0.4667  0.2082  0.0676
 3623SOL    HW122505   2.747   2.788   3.168  0.4387 -0.6140  0.9924
 3623SOL    HW222506   2.609   2.842   3.132  1.0474  0.6772  1.0526
 3624SOL     OW22507   1.756   2.344   6.006  0.0293 -0.0082 -0.0540
 3624SOL    HW122508   1.759   2.340   6.101 -1.3142 -0.7281 -0.0396
 3624SOL    HW222509   1.704   2.265   5.987  0.7917 -0.6426  0.5110
 3625SOL     OW22510   2.333   4.658   6.778 -0.2614  0.4801 -0.0138
 3625SOL    HW122511   2.294   4.572   6.761 -0.6601  0.2272  2.1701
 3625SOL    HW222512   2.314   4.672   6.870  3.3701  1.3647  0.6010
 3626SOL     OW22513   1.281   4.397   2.510 -0.0605  0.1458 -0.4678
 3626SOL    HW122514   1.236   4.477   2.537 -0.2339 -0.3261  0.6340
 3626SOL    HW222515   1.311   4.361   2.594  0.6803  1.6686 -0.0670
 3627SOL     OW22516   0.175   0.038   5.661 -0.2280 -0.0444 -0.3235
 3627SOL    HW122517   0.109   0.025   5.593 -0.6990  0.2381  0.0831
 3627SOL    HW222518   0.223   0.114   5.628 -1.1876  0.8720  0.3937
 3628SOL     OW22519   3.892   0.514   7.972  0.4701  0.3096  0.8820
 3628SOL    HW122520   3.944   0.571   7.915  0.7914  0.0649  0.9341
 3628SOL    HW222521   3.857   0.451   7.909  2.6109 -0.6562  0.6806
 3629SOL     OW22522   0.723   0.485   7.376  0.2043  0.6863  0.2125
 3629SOL    HW122523   0.724   0.580   7.370  1.0704  0.6276 -0.6576
 3629SOL    HW222524   0.719   0.464   7.282  2.4666 -1.2724  0.5584
 3630SOL     OW22525   4.255   3.168  13.921 -0.2766  0.6444 -0.0996
 3630SOL    HW122526   4.179   3.140  13.972  2.3698 -0.6898  3.1459
 3630SOL    HW222527   4.285   3.246  13.969 -0.8119  0.9672 -0.2937
 3631SOL     OW22528   4.328   3.452  10.502 -0.0896  0.1984  0.2854
 3631SOL    HW122529   4.355   3.421  10.588  1.6859  0.7078 -0.0996
 3631SOL    HW222530   4.335   3.547  10.510  0.0726  0.1131  1.1504
 3632SOL     OW22531   0.423   0.001   4.300 -0.0508  0.0048  0.2399
 3632SOL    HW122532   0.371   0.006   4.380 -1.0658  1.9809 -0.5628
 3632SOL    HW222533   0.505   0.040   4.329 -1.1437  1.6512  1.1265
 3633SOL     OW22534   3.206   2.222   8.266 -0.1632 -0.4714 -0.1405
 3633SOL    HW122535   3.181   2.198   8.176 -1.2715 -0.5863  0.2038
 3633SOL    HW222536   3.143   2.294   8.274 -0.5306 -0.6693 -1.1405
 3634SOL     OW22537   0.216   0.101   1.138 -0.0355  0.2809  0.2097
 3634SOL    HW122538   0.170   0.020   1.115 -0.2559  0.1028  1.2929
 3634SOL    HW222539   0.286   0.087   1.074  0.6059  0.1920  0.9281
 3635SOL     OW22540   2.373   3.835   3.679  0.3152 -0.4039  0.1250
 3635SOL    HW122541   2.343   3.857   3.767  0.0007 -1.2497  0.2224
 3635SOL    HW222542   2.308   3.774   3.647  1.7968 -1.1935 -1.4008
 3636SOL     OW22543   2.151   0.799  11.936 -0.7151 -0.2611 -0.7387
 3636SOL    HW122544   2.234   0.781  11.891  0.0466  1.0361  0.1610
 3636SOL    HW222545   2.156   0.724  11.995  0.5249  0.4064  0.0186
 3637SOL     OW22546   1.688   3.584  16.935  0.1942  0.2706  0.0472
 3637SOL    HW122547   1.767   3.561  16.984  0.4958  1.1587 -0.0270
 3637SOL    HW222548   1.681   3.678  16.950 -1.0704  0.3560 -1.1007
 3638SOL     OW22549   1.924   1.206  13.063  0.2147  0.3893  0.4218
 3638SOL    HW122550   1.832   1.195  13.042 -0.4177  1.7262  2.4745
 3638SOL    HW222551   1.921   1.243  13.151  0.7189 -1.1800  1.1071
 3639SOL     OW22552   4.029   0.619   7.753  0.3193  0.5815  0.0991
 3639SOL    HW122553   4.073   0.553   7.701 -0.1332  0.6393 -0.3542
 3639SOL    HW222554   3.940   0.608   7.719  0.4286 -3.5672  1.2046
 3640SOL     OW22555   4.255   1.444  15.019  0.0424 -0.0775 -0.2962
 3640SOL    HW122556   4.207   1.522  14.991 -1.8416 -1.1032  0.0782
 3640SOL    HW222557   4.281   1.407  14.934  0.7489 -0.5800  0.1359
 3641SOL     OW22558   1.155   1.165   6.084 -1.1399 -0.8670  0.1830
 3641SOL    HW122559   1.073   1.167   6.036 -0.7850  1.0408 -0.3510
 3641SOL    HW222560   1.143   1.088   6.139  1.3650 -0.1954  1.6764
 3642SOL     OW22561   4.232   1.666   2.053  0.3232  0.4047 -0.2598
 3642SOL    HW122562   4.258   1.751   2.088  1.3019 -0.8410  2.0441
 3642SOL    HW222563   4.298   1.604   2.085 -0.1150  0.0021 -0.1305
 3643SOL     OW22564   0.013   0.991   4.531  0.3636 -0.0448 -0.1052
 3643SOL    HW122565   0.064   1.065   4.497 -1.0401  0.8145 -0.3370
 3643SOL    HW222566   0.079   0.949   4.587  0.4235 -0.7919 -0.7433
 3644SOL     OW22567   4.680   3.841   2.866 -0.3287  0.0356  0.2696
 3644SOL    HW122568   0.028   3.870   2.831 -0.7804 -0.3331 -1.1422
 3644SOL    HW222569   4.657   3.901   2.937 -1.5575  0.2089 -0.2586
 3645SOL     OW22570   1.959   2.177   3.717 -0.2490  0.4266  0.8173
 3645SOL    HW122571   1.943   2.128   3.636 -1.6257  1.2898  0.5584
 3645SOL    HW222572   1.953   2.269   3.690  0.5528 -0.3062 -1.9031
 3646SOL     OW22573   2.406   2.107  16.116 -0.4049 -0.5311 -0.7048
 3646SOL    HW122574   2.413   2.025  16.164  3.4627  0.9118  1.1875
 3646SOL    HW222575   2.499   2.130  16.107 -0.2310 -1.3910 -1.0961
 3647SOL     OW22576   3.112   1.859  13.332  0.1716  0.2615 -0.1328
 3647SOL    HW122577   3.127   1.798  13.260  1.5234  0.8106 -0.3180
 3647SOL    HW222578   3.050   1.919  13.293 -1.3530 -1.4816 -0.3934
 3648SOL     OW22579   3.542   1.895   2.565  0.6753 -0.6095 -0.0144
 3648SOL    HW122580   3.577   1.984   2.560 -2.4173  0.5498 -1.1023
 3648SOL    HW222581   3.570   1.866   2.478  1.5990 -2.3045  0.8511
 3649SOL     OW22582   3.222   0.540   1.335  0.1052  0.3420 -0.4233
 3649SOL    HW122583   3.168   0.559   1.257  0.5867 -0.5002 -0.9636
 3649SOL    HW222584   3.290   0.606   1.324  0.2953  0.5780  2.3483
 3650SOL     OW22585   2.712   3.873   7.584 -0.1213 -0.2584  0.2540
 3650SOL    HW122586   2.788   3.914   7.624 -0.6850 -0.6111  1.6665
 3650SOL    HW222587   2.719   3.779   7.600  2.3008  0.1316  1.5345
 3651SOL     OW22588   2.768   1.239   4.764  0.1676  0.0333 -0.2028
 3651SOL    HW122589   2.792   1.249   4.671 -0.5865  0.5730 -0.3451
 3651SOL    HW222590   2.673   1.240   4.746  0.4577  1.6601 -1.7143
 3652SOL     OW22591   0.701   1.877   7.014 -0.4231 -0.2397 -0.3386
 3652SOL    HW122592   0.757   1.854   7.088  1.6838  0.9884 -1.5794
 3652SOL    HW222593   0.623   1.913   7.057  0.6806 -0.4453  1.8413
 3653SOL     OW22594   3.803   3.010   8.566 -0.0887 -0.3062 -0.1441
 3653SOL    HW122595   3.817   2.932   8.513 -0.0230 -0.2841 -0.1592
 3653SOL    HW222596   3.818   2.980   8.656  0.3832  2.0429  0.5718
 3654SOL     OW22597   3.107   1.590   1.694  0.0975 -0.3777 -0.8662
 3654SOL    HW122598   3.031   1.569   1.748 -0.3506  1.5689 -0.7360
 3654SOL    HW222599   3.104   1.685   1.682  2.2770 -0.1823  0.2125
 3655SOL     OW22600   0.024   1.592   4.597 -0.0027  0.0702 -0.0609
 3655SOL    HW122601   4.726   1.598   4.687  0.0305 -2.0628  0.1038
 3655SOL    HW222602   0.108   1.548   4.609 -0.9893 -1.4725  1.1900
 3656SOL     OW22603   0.213   0.316  10.698 -0.2367  0.3622  0.0710
 3656SOL    HW122604   0.236   0.286  10.610  2.0393  0.9955  0.4468
 3656SOL    HW222605   0.139   0.370  10.670 -1.2190 -0.7477  0.5358
 3657SOL     OW22606   3.797   3.004   9.270 -0.4348 -1.0247 -0.2346
 3657SOL    HW122607   3.781   2.912   9.290  1.6724 -0.9935  1.6704
 3657SOL    HW222608   3.888   2.991   9.240 -0.0058 -0.4848  0.8555
 3658SOL     OW22609   4.121   3.636   4.754 -0.2689 -0.2205  0.4372
 3658SOL    HW122610   4.135   3.568   4.820  0.3437 -1.6394 -1.1627
 3658SOL    HW222611   4.027   3.623   4.738  0.1370 -2.7013  0.1074
 3659SOL     OW22612   0.671   1.399   5.670  0.1136  0.2409  0.0271
 3659SOL    HW122613   0.678   1.316   5.717 -1.0017  2.4407  4.0233
 3659SOL    HW222614   0.747   1.409   5.613  3.3141  0.8754  4.4466
 3660SOL     OW22615   1.461   1.242   3.032 -0.0222  0.4946  0.3735
 3660SOL    HW122616   1.509   1.225   3.113  1.8812  0.8338 -0.6734
 3660SOL    HW222617   1.514   1.209   2.959 -1.8411 -2.7679  0.5271
 3661SOL     OW22618   2.241   3.902   2.859  0.5923  0.4922  0.4115
 3661SOL    HW122619   2.173   3.840   2.832  1.8499  0.0311 -1.7262
 3661SOL    HW222620   2.275   3.860   2.938 -1.4494  0.6840  1.3944
 3662SOL     OW22621   0.984   0.949   9.835 -0.1309  0.3779  0.1080
 3662SOL    HW122622   1.066   0.999   9.841  0.4321 -0.5876  0.5183
 3662SOL    HW222623   0.938   0.998   9.902  0.5661 -1.8468  2.1927
 3663SOL     OW22624   2.819   2.232  10.819 -0.0368 -0.2239  0.3137
 3663SOL    HW122625   2.814   2.136  10.818  1.1916 -0.2948  1.4111
 3663SOL    HW222626   2.895   2.235  10.760 -0.6130  1.7560 -0.3028
 3664SOL     OW22627   3.538   0.217   5.698 -0.6648  0.0966  0.4223
 3664SOL    HW122628   3.511   0.193   5.610  1.0376 -0.7241  0.1102
 3664SOL    HW222629   3.453   0.244   5.732  0.4904 -0.5821  3.8338
 3665SOL     OW22630   1.968   3.042   3.244 -0.2698  0.2095  0.1622
 3665SOL    HW122631   2.020   3.083   3.175  0.3576  0.9484  1.0713
 3665SOL    HW222632   1.898   3.105   3.254 -0.8090 -0.1871 -1.1289
 3666SOL     OW22633   1.731   0.309   8.665 -0.0245 -0.0644  0.1728
 3666SOL    HW122634   1.691   0.279   8.584  1.4960 -0.6173 -0.3873
 3666SOL    HW222635   1.799   0.247   8.691  0.4310  0.2957 -0.1432
 3667SOL     OW22636   0.523   3.160  17.422  0.2797  0.2286  0.7840
 3667SOL    HW122637   0.564   3.073  17.428 -1.7939 -0.7260  1.1781
 3667SOL    HW222638   0.454   3.154  17.488 -2.9725  0.8264 -2.5009
 3668SOL     OW22639   4.023   3.932   4.359 -0.5885  0.0844 -0.0886
 3668SOL    HW122640   4.108   3.969   4.333 -1.8307  1.0234 -2.8985
 3668SOL    HW222641   4.048   3.868   4.425 -1.0771  1.7370  1.6740
 3669SOL     OW22642   3.607   2.961   2.659  0.2917 -0.1963  0.4171
 3669SOL    HW122643   3.682   2.901   2.660 -0.3150 -0.9653 -0.3269
 3669SOL    HW222644   3.630   3.022   2.729  0.7437  0.6134 -0.4407
 3670SOL     OW22645   2.883   2.404  10.467  0.3964  0.0819  0.3023
 3670SOL    HW122646   2.893   2.405  10.372  0.6471  2.1082  0.3631
 3670SOL    HW222647   2.947   2.334  10.482 -0.0436 -0.1003  1.3842
 3671SOL     OW22648   1.876   1.153  14.800  0.8119 -1.0612  0.0173
 3671SOL    HW122649   1.925   1.162  14.719  0.4765  2.8273  0.2361
 3671SOL    HW222650   1.834   1.068  14.791 -1.8488  0.0979  1.1315
 3672SOL     OW22651   4.529   0.509   1.344 -0.1141  1.0833 -0.7364
 3672SOL    HW122652   4.568   0.543   1.425 -1.5169  0.1767  0.3216
 3672SOL    HW222653   4.602   0.516   1.282 -1.6172  2.4008 -2.3639
 3673SOL     OW22654   4.396   1.492   5.211 -0.1845  0.1720 -0.0870
 3673SOL    HW122655   4.409   1.485   5.305 -2.1712 -0.3619  0.1606
 3673SOL    HW222656   4.433   1.580   5.200  0.3704 -0.0598 -0.0457
 3674SOL     OW22657   4.234   2.162   6.960 -0.3262 -0.0228  0.5179
 3674SOL    HW122658   4.263   2.116   6.881 -0.8773 -1.7202  1.2918
 3674SOL    HW222659   4.185   2.095   7.008 -0.4186  0.4140  1.0327
 3675SOL     OW22660   2.600   4.159   3.838 -0.2228 -0.0059 -0.0650
 3675SOL    HW122661   2.521   4.208   3.818 -1.6067 -1.9138  0.7415
 3675SOL    HW222662   2.586   4.129   3.928  2.9457 -3.4735 -0.7227
 3676SOL     OW22663   1.916   4.246   8.563  0.3322 -0.1201 -0.5158
 3676SOL    HW122664   1.907   4.306   8.489  0.4720 -0.5460 -0.8770
 3676SOL    HW222665   1.974   4.175   8.537  1.1285  0.1649  0.4266
 3677SOL     OW22666   1.726   2.979   7.904  0.5927  0.0500  0.0052
 3677SOL    HW122667   1.669   2.903   7.916 -1.1547  1.3133 -0.3488
 3677SOL    HW222668   1.669   3.035   7.958  1.6662  0.7800  0.3944
 3678SOL     OW22669   1.086   4.037   0.842 -0.3700  0.7266 -1.0640
 3678SOL    HW122670   1.130   3.952   0.839  1.9167  1.8412  0.3907
 3678SOL    HW222671   0.995   4.009   0.845  0.7740 -2.9946 -0.8987
 3679SOL     OW22672   3.881   2.511  15.109 -0.4753  0.4475  0.6188
 3679SOL    HW122673   3.918   2.470  15.188  2.7836  0.6106 -0.8394
 3679SOL    HW222674   3.953   2.507  15.046 -2.1574 -0.7436 -1.2132
 3680SOL     OW22675   2.506   1.009  11.222  0.0021  0.4954 -0.4795
 3680SOL    HW122676   2.564   1.000  11.146 -1.9994 -4.0028 -1.4626
 3680SOL    HW222677   2.527   1.093  11.263 -2.5500  0.3233  1.1747
 3681SOL     OW22678   3.162   1.161  10.806 -0.0670  0.2619  0.8932
 3681SOL    HW122679   3.209   1.197  10.730  1.3006 -1.0980  1.0907
 3681SOL    HW222680   3.148   1.234  10.866 -1.7146 -0.0136  0.8304
 3682SOL     OW22681   3.852   3.417   6.628 -0.5047 -0.1127 -0.1198
 3682SOL    HW122682   3.894   3.388   6.547  0.0587  1.7510 -0.4876
 3682SOL    HW222683   3.763   3.427   6.596  0.3476  2.1707 -1.8086
 3683SOL     OW22684   0.043   0.530   2.371  0.1903  0.1624 -0.8508
 3683SOL    HW122685   0.067   0.483   2.450 -0.2325 -1.3960 -1.6461
 3683SOL    HW222686   4.692   0.559   2.397 -0.7364 -3.0932 -0.3282
 3684SOL     OW22687   1.276   3.151   1.024  0.3177 -0.0278  0.1187
 3684SOL    HW122688   1.269   3.233   0.974  0.9957 -0.0662 -0.0324
 3684SOL    HW222689   1.193   3.162   1.071  0.7880 -0.6733  1.1008
 3685SOL     OW22690   3.506   2.439   0.959  0.1154  0.1338 -0.1043
 3685SOL    HW122691   3.506   2.500   0.885  0.2806  0.2365 -0.0216
 3685SOL    HW222692   3.599   2.424   0.979  0.3463  0.1102 -1.1767
 3686SOL     OW22693   1.930   3.183  13.675  0.0997  0.5113 -0.0680
 3686SOL    HW122694   1.856   3.238  13.700 -0.1430 -0.1704  0.7080
 3686SOL    HW222695   1.894   3.132  13.601  0.0334  0.0880  0.2553
 3687SOL     OW22696   0.909   0.353   2.395  0.2706 -0.3786  0.4249
 3687SOL    HW122697   0.820   0.381   2.414 -0.2758 -1.7234 -0.1298
 3687SOL    HW222698   0.957   0.419   2.444 -1.5802  0.6999  0.7795
 3688SOL     OW22699   3.206   3.412   5.557  1.1623 -0.4771 -0.6286
 3688SOL    HW122700   3.124   3.455   5.584  0.3748 -2.1508 -0.3649
 3688SOL    HW222701   3.227   3.354   5.630  1.1334 -1.5508 -1.4827
 3689SOL     OW22702   1.960   3.336   9.822  0.3899  0.2226 -0.3910
 3689SOL    HW122703   2.010   3.285   9.760  1.2662  1.8694 -1.0338
 3689SOL    HW222704   1.902   3.267   9.855  0.2560  0.2166 -0.6403
 3690SOL     OW22705   2.121   2.414   3.582 -0.0675 -0.3970  0.1602
 3690SOL    HW122706   2.200   2.453   3.619 -1.2268  0.5589  1.6357
 3690SOL    HW222707   2.169   2.337   3.553  1.5189  0.1159  1.4503
 3691SOL     OW22708   4.711   0.871   8.214  0.0041  0.2072  0.1004
 3691SOL    HW122709   0.030   0.833   8.282  2.1297 -0.1432 -1.7901
 3691SOL    HW222710   4.726   0.965   8.211 -0.2376  0.1935 -1.8395
 3692SOL     OW22711   3.832   3.454  10.397  0.5457 -0.5115 -0.1113
 3692SOL    HW122712   3.913   3.414  10.429  0.4259 -0.5364  0.1680
 3692SOL    HW222713   3.769   3.385  10.421 -1.2708  0.8818 -0.9572
 3693SOL     OW22714   2.164   0.121   6.245  0.0454 -0.3733  0.1342
 3693SOL    HW122715   2.135   0.090   6.159 -2.3598  1.9622  0.1023
 3693SOL    HW222716   2.260   0.117   6.240  0.1338  0.8076  0.9066
 3694SOL     OW22717   1.227   0.826   5.301  0.2292  0.8833  0.7119
 3694SOL    HW122718   1.290   0.768   5.345  1.9884  1.1159 -1.5031
 3694SOL    HW222719   1.278   0.845   5.222 -1.5944  0.9122 -0.4609
 3695SOL     OW22720   3.890   2.535   3.658 -0.0369 -0.3223  0.0361
 3695SOL    HW122721   3.942   2.493   3.589  0.5207  0.6493 -0.1344
 3695SOL    HW222722   3.809   2.563   3.617  0.5911 -1.5906 -2.0690
 3696SOL     OW22723   2.073   1.522   2.112 -0.1460  0.5683  0.3342
 3696SOL    HW122724   2.135   1.461   2.070  0.7875  2.1879 -0.6394
 3696SOL    HW222725   2.126   1.598   2.135 -0.9160  0.4173  2.5862
 3697SOL     OW22726   1.629   3.382   9.126 -0.3750  0.5981  1.0232
 3697SOL    HW122727   1.552   3.349   9.173 -0.1835  0.9352  1.5637
 3697SOL    HW222728   1.599   3.457   9.076 -0.1416 -0.4840 -0.7566
 3698SOL     OW22729   0.208   1.900   5.881  0.5430 -0.0499  0.1038
 3698SOL    HW122730   0.301   1.921   5.883  0.5215  0.2829 -1.9315
 3698SOL    HW222731   0.175   1.985   5.851  2.5857  0.9514  0.6627
 3699SOL     OW22732   2.992   4.632   3.647 -0.0833  0.0945  0.0179
 3699SOL    HW122733   3.016   4.577   3.573 -1.2512  0.2990 -0.5199
 3699SOL    HW222734   2.900   4.650   3.627 -0.5838  1.2559  3.4400
 3700SOL     OW22735   4.700   0.623  16.478 -0.8203 -0.0184 -0.1275
 3700SOL    HW122736   0.059   0.613  16.486 -0.6842 -0.0451 -1.6402
 3700SOL    HW222737   4.680   0.552  16.417 -0.5216  0.7812 -1.1561
 3701SOL     OW22738   0.791   3.802   4.919  0.0765  0.1874 -0.4423
 3701SOL    HW122739   0.739   3.826   4.842  1.3397 -0.5323 -1.5268
 3701SOL    HW222740   0.875   3.825   4.879  0.1800 -0.4305 -0.5804
 3702SOL     OW22741   1.940   2.653   7.633 -0.3552  0.0686  0.7992
 3702SOL    HW122742   1.863   2.624   7.583 -0.9521  1.3525  0.9781
 3702SOL    HW222743   1.930   2.746   7.652  3.4794  1.1522 -2.4808
 3703SOL     OW22744   4.315   0.899   3.226 -0.1378 -0.5671  0.5406
 3703SOL    HW122745   4.255   0.944   3.167 -0.6029 -0.6417  0.9613
 3703SOL    HW222746   4.314   0.952   3.305 -1.9993  0.4836 -0.1828
 3704SOL     OW22747   4.651   1.663  11.111  0.0289 -0.3580 -0.3839
 3704SOL    HW122748   4.721   1.625  11.165 -1.0029  2.6917  3.0756
 3704SOL    HW222749   4.620   1.733  11.168  0.4470 -0.3036 -0.2205
 3705SOL     OW22750   4.016   2.909   2.078  0.4885 -0.5007  0.1053
 3705SOL    HW122751   4.061   2.991   2.095  0.5953 -0.5916  0.2567
 3705SOL    HW222752   3.963   2.896   2.157  0.6993 -2.5225 -0.0904
 3706SOL     OW22753   2.710   2.919   2.458 -0.2750  0.2551  0.0430
 3706SOL    HW122754   2.678   2.980   2.391 -2.6011  1.2256  2.0232
 3706SOL    HW222755   2.770   2.973   2.510  0.9894 -0.1843 -0.9674
 3707SOL     OW22756   2.020   3.969   2.377  0.2034  0.0787 -0.1021
 3707SOL    HW122757   2.088   3.919   2.422 -0.6548  0.3520  1.4861
 3707SOL    HW222758   2.072   4.011   2.308 -2.1186 -0.2277 -2.0343
 3708SOL     OW22759   1.933   2.269   6.509  0.2453 -0.2606  0.6286
 3708SOL    HW122760   1.986   2.205   6.556 -0.9385 -2.1517 -0.5949
 3708SOL    HW222761   1.879   2.210   6.456  0.5457  0.5436 -0.5613
 3709SOL     OW22762   2.826   2.731   2.278 -0.6163  0.2793  0.6900
 3709SOL    HW122763   2.791   2.789   2.346 -2.8011 -0.6591  0.3478
 3709SOL    HW222764   2.807   2.646   2.319 -0.5052 -0.0147  0.1253
 3710SOL     OW22765   3.851   0.966   9.430 -0.4471  0.3809 -0.3295
 3710SOL    HW122766   3.874   0.890   9.483  0.0748  2.1447  1.9938
 3710SOL    HW222767   3.773   1.006   9.470  1.9226 -0.7125  5.4055
 3711SOL     OW22768   0.119   2.983   2.469 -0.3073  0.1424  0.1750
 3711SOL    HW122769   0.124   2.892   2.441  0.3051  0.1063  0.3960
 3711SOL    HW222770   0.031   3.012   2.447 -0.0942 -1.0647 -2.2666
 3712SOL     OW22771   1.985   1.366   6.650 -0.0832 -0.4291 -0.0056
 3712SOL    HW122772   1.947   1.369   6.562 -0.6698 -0.6660  0.2444
 3712SOL    HW222773   2.008   1.458   6.657 -1.9387  0.1168 -1.2233
 3713SOL     OW22774   3.342   2.445   6.102 -0.0463 -0.5271  0.6650
 3713SOL    HW122775   3.385   2.387   6.164  1.3053 -0.1849  0.0564
 3713SOL    HW222776   3.259   2.406   6.129  0.1158  0.2560  2.2800
 3714SOL     OW22777   2.813   1.036  15.634 -0.4904 -0.0468  0.4152
 3714SOL    HW122778   2.746   1.035  15.703  1.1331  2.8572  2.0223
 3714SOL    HW222779   2.754   1.066  15.564  0.3259  0.4124 -0.0728
 3715SOL     OW22780   0.687   3.797   4.459  0.0815 -0.3232 -0.0892
 3715SOL    HW122781   0.632   3.861   4.414  0.2654  1.1548  1.7826
 3715SOL    HW222782   0.683   3.725   4.396 -0.2509 -0.4437  0.0646
 3716SOL     OW22783   2.443   1.418  16.780 -0.1683 -0.5531  0.6102
 3716SOL    HW122784   2.485   1.349  16.831 -1.0079 -1.2287  0.3945
 3716SOL    HW222785   2.434   1.481  16.851 -2.9895  0.8630 -1.0006
 3717SOL     OW22786   1.370   0.834  15.095  0.0800  0.2264  0.0707
 3717SOL    HW122787   1.341   0.918  15.059  0.4113  0.8257  1.2038
 3717SOL    HW222788   1.364   0.780  15.016  3.3496  0.6821 -0.4824
 3718SOL     OW22789   4.087   0.651  12.684 -0.1690 -0.4415  0.1561
 3718SOL    HW122790   4.037   0.596  12.624  1.3195 -1.6351  0.0060
 3718SOL    HW222791   4.085   0.597  12.763 -0.1106 -0.1020  0.3895
 3719SOL     OW22792   3.392   0.456  10.011  0.0220  0.0623 -0.3919
 3719SOL    HW122793   3.389   0.423  10.100 -0.7599 -1.5475 -1.0294
 3719SOL    HW222794   3.483   0.431   9.993 -0.7722 -1.9647 -1.4895
 3720SOL     OW22795   2.349   4.637   7.614  0.1880  0.1826 -0.2500
 3720SOL    HW122796   2.357   4.690   7.535 -0.3843 -0.8319 -0.9840
 3720SOL    HW222797   2.337   4.549   7.578  1.7142  0.2270 -0.8625
 3721SOL     OW22798   2.761   2.896  15.371 -0.3120  0.6371  0.0946
 3721SOL    HW122799   2.685   2.888  15.314  0.4176 -0.4249 -0.7257
 3721SOL    HW222800   2.797   2.808  15.382 -0.6866  0.1271 -2.6050
 3722SOL     OW22801   1.078   2.988   4.504 -0.2269 -0.4600  0.0547
 3722SOL    HW122802   1.021   3.028   4.439 -2.2846 -0.5955  1.8093
 3722SOL    HW222803   1.057   3.047   4.575  0.9430 -0.5744  0.4941
 3723SOL     OW22804   1.162   1.570  16.722 -0.4993 -0.1478  0.7055
 3723SOL    HW122805   1.180   1.565  16.628 -0.1712 -0.5997  0.7921
 3723SOL    HW222806   1.217   1.500  16.756  0.4885  0.1724 -0.2302
 3724SOL     OW22807   4.459   3.622   8.926  0.2615  0.0046 -0.4501
 3724SOL    HW122808   4.485   3.713   8.910 -0.8783  0.3949 -0.1052
 3724SOL    HW222809   4.364   3.625   8.917  0.2561  1.7511  0.1842
 3725SOL     OW22810   4.009   3.718   4.527 -0.3111 -0.1728 -0.0983
 3725SOL    HW122811   4.019   3.649   4.462  2.1432 -0.9246  1.0904
 3725SOL    HW222812   4.071   3.687   4.594 -1.0428 -1.3293  0.0427
 3726SOL     OW22813   0.544   3.587  16.350  0.0062  0.1912 -0.7548
 3726SOL    HW122814   0.506   3.504  16.321 -0.1402 -0.7201  2.0796
 3726SOL    HW222815   0.621   3.577  16.405 -0.3501  3.4033  0.3288
 3727SOL     OW22816   0.409   0.603   5.180  0.1037  0.7702 -0.0312
 3727SOL    HW122817   0.343   0.558   5.232  1.2865 -0.7024  0.2188
 3727SOL    HW222818   0.438   0.676   5.234  1.7422 -0.7548  1.1415
 3728SOL     OW22819   1.675   1.371   3.582  0.5888 -0.0382 -0.2245
 3728SOL    HW122820   1.598   1.420   3.608  1.0009  0.6651 -0.3476
 3728SOL    HW222821   1.745   1.411   3.634  1.2931 -1.3105 -0.1853
 3729SOL     OW22822   0.309   0.557   7.763  0.4134  0.3971 -0.1282
 3729SOL    HW122823   0.283   0.609   7.838  0.6478 -0.7817  0.7708
 3729SOL    HW222824   0.284   0.624   7.699 -2.0959  1.1331  1.6391
 3730SOL     OW22825   1.215   4.316   6.072 -0.7130  0.2169 -0.6251
 3730SOL    HW122826   1.150   4.266   6.121  1.7238 -0.9399  1.4240
 3730SOL    HW222827   1.285   4.256   6.095 -0.1562  1.4507  0.8847
 3731SOL     OW22828   0.104   3.426   0.780 -0.2490 -0.2574 -0.1177
 3731SOL    HW122829   0.140   3.409   0.693  0.8367  0.7132  0.1417
 3731SOL    HW222830   0.119   3.337   0.813  1.1921 -0.1330 -0.4377
 3732SOL     OW22831   1.688   0.186  16.638 -0.3621 -0.1122  0.5107
 3732SOL    HW122832   1.682   0.094  16.664 -1.0257  0.0347  0.8930
 3732SOL    HW222833   1.722   0.227  16.717 -0.5627  3.1276 -1.0645
 3733SOL     OW22834   3.225   2.051  12.108  0.5262  0.1213 -0.0853
 3733SOL    HW122835   3.305   2.021  12.065  1.0210  0.6551  0.4531
 3733SOL    HW222836   3.224   2.020  12.199 -2.9310 -0.4770 -0.3139
 3734SOL     OW22837   4.093   4.241  14.569 -0.2385  0.5818 -0.6610
 3734SOL    HW122838   4.010   4.192  14.566 -0.8114  1.4542  0.8361
 3734SOL    HW222839   4.108   4.242  14.663 -0.8077 -3.3706 -0.5008
 3735SOL     OW22840   3.222   2.919   8.400 -0.3641 -0.3728  0.1772
 3735SOL    HW122841   3.161   2.928   8.327 -0.3334 -3.0046 -0.1814
 3735SOL    HW222842   3.299   2.888   8.354  0.4990  1.7550  0.1827
 3736SOL     OW22843   2.020   2.443   9.423  0.3881 -0.1747 -0.0152
 3736SOL    HW122844   1.931   2.454   9.456 -0.2837  0.2203 -1.9297
 3736SOL    HW222845   2.069   2.519   9.454 -2.9578  0.7825  2.9206
 3737SOL     OW22846   3.259   1.346   0.354 -0.0458  0.5362 -0.0189
 3737SOL    HW122847   3.211   1.330   0.436 -2.8587 -1.9647 -2.1618
 3737SOL    HW222848   3.254   1.254   0.328  0.9721 -0.5119  3.5126
 3738SOL     OW22849   2.117   2.323   2.596  0.1529  0.3527 -0.0209
 3738SOL    HW122850   2.106   2.255   2.663 -2.1339  0.5020 -0.2564
 3738SOL    HW222851   2.027   2.355   2.601  0.0733  0.2835 -1.1561
 3739SOL     OW22852   1.874   2.059   7.627  0.0955 -0.1531 -0.0307
 3739SOL    HW122853   1.808   2.000   7.664 -0.1963  1.9133  2.7837
 3739SOL    HW222854   1.864   2.042   7.534 -2.6725 -2.0811  0.6269
 3740SOL     OW22855   1.738   3.544   5.501  0.4474 -0.1077  0.1841
 3740SOL    HW122856   1.756   3.452   5.483 -0.7070 -0.4408  0.7418
 3740SOL    HW222857   1.642   3.538   5.509  0.4778  2.5045  2.4128
 3741SOL     OW22858   0.166   4.098   4.512 -0.1682  0.4349 -0.0533
 3741SOL    HW122859   0.101   4.167   4.517 -2.4361 -1.5537 -2.2013
 3741SOL    HW222860   0.105   4.025   4.501 -1.8696  1.8735 -0.0940
 3742SOL     OW22861   3.930   2.420   6.070 -0.1656 -0.8721 -0.3827
 3742SOL    HW122862   3.888   2.468   6.141 -0.7018 -2.2785  0.2323
 3742SOL    HW222863   3.868   2.440   6.000 -1.0513  1.5520  1.0981
 3743SOL     OW22864   2.409   1.761  12.823 -0.8039 -0.3038 -0.2218
 3743SOL    HW122865   2.403   1.729  12.913 -1.0238 -0.1230 -0.1706
 3743SOL    HW222866   2.485   1.709  12.799  0.5355  1.6540 -0.1950
 3744SOL     OW22867   1.295   2.989   4.089  0.4980 -0.2808  0.4879
 3744SOL    HW122868   1.210   2.975   4.047  1.0256 -0.9171 -0.3767
 3744SOL    HW222869   1.278   3.061   4.150  0.7426  0.1731  0.0291
 3745SOL     OW22870   3.399   3.568   3.206  0.1471 -0.6649 -0.7991
 3745SOL    HW122871   3.457   3.643   3.191 -0.6175  0.0454 -0.1654
 3745SOL    HW222872   3.338   3.558   3.133 -1.6103 -0.8393  0.7043
 3746SOL     OW22873   0.659   3.248   2.928 -0.0448  0.3130 -0.5377
 3746SOL    HW122874   0.719   3.190   2.880  1.5516  0.0474  1.7522
 3746SOL    HW222875   0.592   3.181   2.941  0.4455 -0.0765  0.0097
 3747SOL     OW22876   0.891   3.511   8.456  0.5658  0.4312 -0.3190
 3747SOL    HW122877   0.821   3.533   8.516  0.4876 -0.1936 -0.1828
 3747SOL    HW222878   0.968   3.480   8.505 -0.4431  1.3557  1.8311
 3748SOL     OW22879   1.143   0.650  16.425  0.0556  0.2547 -0.0695
 3748SOL    HW122880   1.133   0.647  16.520  1.8991  1.8522  0.1740
 3748SOL    HW222881   1.181   0.565  16.404 -1.1399 -0.3259  0.1121
 3749SOL     OW22882   0.618   4.415   3.080 -0.8276 -0.8022  0.0737
 3749SOL    HW122883   0.686   4.410   3.146 -1.1270 -1.3350  0.3371
 3749SOL    HW222884   0.660   4.368   3.008  1.9316  1.0140  0.4942
 3750SOL     OW22885   4.302   1.954  10.490 -0.3491  0.2769  0.0594
 3750SOL    HW122886   4.296   2.039  10.535  1.7786  0.6109 -0.3117
 3750SOL    HW222887   4.230   1.964  10.427 -1.0850 -0.2802  0.8126
 3751SOL     OW22888   1.653   1.619   5.904 -0.4607  0.7532  0.7026
 3751SOL    HW122889   1.600   1.563   5.848  0.4378  0.4607  0.1520
 3751SOL    HW222890   1.610   1.704   5.897 -1.3530  0.3222  0.9975
 3752SOL     OW22891   4.477   2.846   8.246 -0.2357  0.3949  0.0132
 3752SOL    HW122892   4.548   2.826   8.307  1.4370 -1.7343 -2.6189
 3752SOL    HW222893   4.529   2.888   8.178  0.7998 -1.3835 -0.2955
 3753SOL     OW22894   0.338   0.773   7.939  0.4017 -0.2179 -0.3064
 3753SOL    HW122895   0.416   0.724   7.966 -1.4719 -2.7368  0.6076
 3753SOL    HW222896   0.379   0.859   7.931  0.0568 -0.0779 -0.5682
 3754SOL     OW22897   1.110   1.459   3.792  0.1359 -0.4689 -0.6907
 3754SOL    HW122898   1.098   1.458   3.887 -0.0529 -1.5867 -0.7287
 3754SOL    HW222899   1.136   1.367   3.786  0.5180 -0.2854 -1.7383
 3755SOL     OW22900   0.382   3.165   3.709  0.4316  0.2880  0.3865
 3755SOL    HW122901   0.387   3.083   3.759  3.3184  0.6312  0.6922
 3755SOL    HW222902   0.299   3.203   3.738  0.3660 -0.3758  1.0737
 3756SOL     OW22903   2.374   0.586   8.585 -0.3557  0.4343 -0.5541
 3756SOL    HW122904   2.445   0.527   8.611  0.7191  1.9157 -0.0422
 3756SOL    HW222905   2.428   0.642   8.528  0.3891 -2.1560 -2.3737
 3757SOL     OW22906   3.567   1.450   8.505 -0.8382 -0.0577  0.2384
 3757SOL    HW122907   3.632   1.403   8.454 -0.6739  1.8543 -1.3322
 3757SOL    HW222908   3.571   1.399   8.585 -1.5706  2.3435  1.8291
 3758SOL     OW22909   3.563   1.229   1.355  0.3874  0.3524  0.0872
 3758SOL    HW122910   3.507   1.266   1.287  0.5088 -0.7612 -0.6230
 3758SOL    HW222911   3.602   1.310   1.385  0.1048  0.5668 -0.1209
 3759SOL     OW22912   1.822   1.508   7.480 -0.1708 -0.3974 -0.2111
 3759SOL    HW122913   1.876   1.545   7.409 -0.7876  0.7592 -0.0804
 3759SOL    HW222914   1.832   1.420   7.443 -0.0725 -1.1217  1.5529
 3760SOL     OW22915   2.316   0.112   5.723 -0.5562 -0.1758  0.6247
 3760SOL    HW122916   2.381   0.181   5.729 -1.2489  0.4032  1.5905
 3760SOL    HW222917   2.317   0.085   5.631  0.6011  0.4445  0.4656
 3761SOL     OW22918   4.311   1.109   7.185  0.7664 -0.7636 -0.4128
 3761SOL    HW122919   4.247   1.135   7.119 -1.5726  2.4265  3.1018
 3761SOL    HW222920   4.283   1.150   7.267  1.0856 -1.3830  0.0052
 3762SOL     OW22921   4.426   4.088   0.174 -0.2048  0.2196  0.3475
 3762SOL    HW122922   4.498   4.139   0.211 -1.5777  3.8220 -1.9761
 3762SOL    HW222923   4.380   4.062   0.254 -0.8235 -0.9147 -0.3718
 3763SOL     OW22924   0.743   0.486   2.023 -0.6501 -0.4284  0.0403
 3763SOL    HW122925   0.827   0.466   1.982 -0.8001 -1.8284  0.4076
 3763SOL    HW222926   0.773   0.523   2.107  0.7093 -1.8325  0.1556
 3764SOL     OW22927   1.401   2.351   8.700  0.8191  0.2716  0.3952
 3764SOL    HW122928   1.323   2.390   8.739  0.7568  0.5313  0.0068
 3764SOL    HW222929   1.441   2.312   8.778  2.7304 -0.1949 -0.8336
 3765SOL     OW22930   1.378   1.205  13.030  0.2123  0.1098  0.0379
 3765SOL    HW122931   1.391   1.234  12.939 -1.4007  0.7535  0.0058
 3765SOL    HW222932   1.288   1.237  13.037  0.2669  0.3250 -0.2029
 3766SOL     OW22933   2.839   2.529   9.082  0.0798  0.0910  0.2483
 3766SOL    HW122934   2.849   2.447   9.032  1.0438 -0.1831  0.9045
 3766SOL    HW222935   2.896   2.585   9.030 -2.6816  1.7863 -0.9533
 3767SOL     OW22936   1.564   1.665   3.612 -0.6589 -0.4910  0.9090
 3767SOL    HW122937   1.610   1.654   3.695 -1.3056  1.4494  1.5022
 3767SOL    HW222938   1.472   1.652   3.634 -0.8970  0.0355  0.2430
 3768SOL     OW22939   4.519   0.602   2.373  0.4193 -0.2300  0.0483
 3768SOL    HW122940   4.477   0.674   2.326 -0.1032  0.0833  0.9808
 3768SOL    HW222941   4.459   0.533   2.345 -0.3461  0.8959 -1.0952
 3769SOL     OW22942   2.401   3.155   4.308  0.4405 -0.4759  0.6078
 3769SOL    HW122943   2.382   3.249   4.312 -1.7820 -0.7420 -3.1667
 3769SOL    HW222944   2.495   3.167   4.296  0.3429 -1.1279 -0.8821
 3770SOL     OW22945   1.468   4.210   7.901  0.2528 -0.8643 -0.2629
 3770SOL    HW122946   1.439   4.284   7.847  0.7096 -2.2281 -2.3607
 3770SOL    HW222947   1.440   4.233   7.989 -0.4105 -1.4094 -0.3320
 3771SOL     OW22948   1.256   0.131   2.521 -0.2431 -0.8081  0.0651
 3771SOL    HW122949   1.268   0.120   2.615 -0.5801 -1.4940  0.0331
 3771SOL    HW222950   1.286   0.221   2.509 -0.1856 -0.8618 -0.2001
 3772SOL     OW22951   4.099   2.724   3.740  0.0529 -1.0945  0.1232
 3772SOL    HW122952   4.164   2.706   3.672 -0.5182 -0.1690 -0.6600
 3772SOL    HW222953   4.057   2.638   3.742 -0.6980 -0.7541 -1.0485
 3773SOL     OW22954   0.888   0.927  17.253  0.0835 -0.3271  0.7792
 3773SOL    HW122955   0.888   0.891  17.341 -0.3171  1.2000  1.3965
 3773SOL    HW222956   0.819   0.993  17.259  1.8350  1.2821  2.9327
 3774SOL     OW22957   4.134   2.647  13.832  0.0173  0.0289  0.0294
 3774SOL    HW122958   4.091   2.652  13.917 -2.3523 -0.3563 -1.1606
 3774SOL    HW222959   4.113   2.558  13.805 -4.3799  1.4482 -1.2052
 3775SOL     OW22960   3.281   1.418   9.142 -0.1304 -0.2512 -0.0503
 3775SOL    HW122961   3.319   1.474   9.075 -0.5226  0.9782  0.7513
 3775SOL    HW222962   3.244   1.486   9.199 -2.1694 -0.6843 -0.8850
 3776SOL     OW22963   2.192   0.051  10.951  0.1712 -0.0536 -0.5528
 3776SOL    HW122964   2.277   0.074  10.913  1.1493 -1.4056  0.8534
 3776SOL    HW222965   2.223   4.711  11.000  2.9934  1.9170  0.7507
 3777SOL     OW22966   2.978   3.047  15.172  0.6737 -0.3582 -0.8681
 3777SOL    HW122967   2.919   3.122  15.162  0.8215 -0.4394 -2.3557
 3777SOL    HW222968   2.999   3.030  15.080  1.3492  0.9188 -0.9574
 3778SOL     OW22969   2.683   2.413   2.791  0.5640  0.3023  0.1326
 3778SOL    HW122970   2.610   2.473   2.804  0.5210  0.1036  0.8284
 3778SOL    HW222971   2.749   2.431   2.859  1.5979  0.3732 -0.8910
 3779SOL     OW22972   4.075   1.150   3.539 -0.1993 -0.4526 -0.0363
 3779SOL    HW122973   3.980   1.139   3.548 -0.1804 -0.9631 -0.5019
 3779SOL    HW222974   4.082   1.238   3.577  0.2311 -2.0032  3.5146
 3780SOL     OW22975   0.342   1.907   4.505  0.0140 -0.0574 -0.5450
 3780SOL    HW122976   0.389   1.950   4.576 -0.1847 -2.2348  0.8995
 3780SOL    HW222977   0.409   1.848   4.469  1.5025  1.5502 -0.3765
 3781SOL     OW22978   0.651   4.555   4.020  0.9872  0.3380 -0.5526
 3781SOL    HW122979   0.564   4.529   4.051  1.0939  0.3595 -0.2333
 3781SOL    HW222980   0.698   4.536   4.102 -0.0184 -1.4486 -0.3915
 3782SOL     OW22981   3.204   1.901   3.318  0.1867 -0.5521  0.0083
 3782SOL    HW122982   3.163   1.856   3.391  1.2282  1.5219  1.8564
 3782SOL    HW222983   3.295   1.871   3.320  0.7033  1.0557  0.2184
 3783SOL     OW22984   2.987   0.777  14.146  0.1810 -0.0476  0.0640
 3783SOL    HW122985   2.969   0.700  14.199 -2.8779 -0.3118 -1.3618
 3783SOL    HW222986   3.003   0.846  14.211 -0.8052 -1.5916  1.9542
 3784SOL     OW22987   3.940   1.808   2.316  0.2845 -0.1420 -0.2157
 3784SOL    HW122988   3.927   1.741   2.249  0.7944 -0.5778  0.1195
 3784SOL    HW222989   4.008   1.764   2.367 -0.4157 -0.4994  0.4008
 3785SOL     OW22990   0.593   4.145   9.227  0.2219 -0.7118 -0.1570
 3785SOL    HW122991   0.547   4.067   9.258 -1.7254 -0.2973 -2.0776
 3785SOL    HW222992   0.675   4.134   9.276 -0.1406  0.6032  0.7553
 3786SOL     OW22993   1.740   4.392   7.010  0.3130 -0.0132  0.0813
 3786SOL    HW122994   1.815   4.434   7.053  1.5019 -1.4651 -0.5351
 3786SOL    HW222995   1.756   4.402   6.916 -0.6210  1.1223  0.0463
 3787SOL     OW22996   1.290   3.082   7.980  0.3109  0.1230 -0.0629
 3787SOL    HW122997   1.211   3.027   7.981  0.5613 -0.2290  0.2401
 3787SOL    HW222998   1.356   3.014   7.967 -1.2311 -1.4961  0.4128
 3788SOL     OW22999   2.419   0.924  12.609 -0.9913 -0.0763 -0.1713
 3788SOL    HW123000   2.351   0.983  12.640 -0.4153 -0.4318  1.7559
 3788SOL    HW223001   2.429   0.960  12.521 -0.9383  1.5939  0.5303
 3789SOL     OW23002   0.170   3.300   7.707  0.0688  0.0786  0.4971
 3789SOL    HW123003   0.141   3.391   7.708  0.8149  0.3437 -1.1613
 3789SOL    HW223004   0.227   3.310   7.630 -0.5628 -0.9577 -0.1040
 3790SOL     OW23005   3.982   2.965   1.641 -0.0034 -0.0440  0.2039
 3790SOL    HW123006   3.971   2.870   1.647 -1.4530  0.0581 -0.7296
 3790SOL    HW223007   3.912   2.992   1.700 -0.3495 -2.0494  0.7086
 3791SOL     OW23008   3.270   4.378  16.243 -0.2348  0.1516  1.1565
 3791SOL    HW123009   3.365   4.375  16.233 -0.0683  1.0020  2.4933
 3791SOL    HW223010   3.275   4.343  16.332  0.6763 -2.9542 -0.1110
 3792SOL     OW23011   3.502   3.459  10.345  0.9189  0.1004 -0.2424
 3792SOL    HW123012   3.526   3.530  10.405  0.1168 -0.0212  0.2307
 3792SOL    HW223013   3.553   3.489  10.270  0.9129 -1.6774 -0.9557
 3793SOL     OW23014   1.014   2.966   5.966 -0.3428 -0.0595 -0.0249
 3793SOL    HW123015   1.056   3.012   5.894 -0.0384 -0.1927  0.0659
 3793SOL    HW223016   1.093   2.959   6.020 -0.3577 -2.1761 -0.2671
 3794SOL     OW23017   1.715   1.240  12.832  0.0777 -0.6970 -0.0258
 3794SOL    HW123018   1.661   1.319  12.827  0.9844 -0.1929 -1.7597
 3794SOL    HW223019   1.681   1.201  12.912 -0.0975 -2.0896 -0.7869
 3795SOL     OW23020   0.456   3.974  15.358 -0.1482 -0.1585  0.3859
 3795SOL    HW123021   0.437   3.905  15.422 -0.3866  0.2941  0.7971
 3795SOL    HW223022   0.403   3.938  15.286 -2.9040  1.3446  1.6749
 3796SOL     OW23023   0.117   0.335   1.829  0.0910 -0.7863 -0.6946
 3796SOL    HW123024   0.168   0.294   1.760  1.1651  0.2610 -0.5329
 3796SOL    HW223025   0.176   0.406   1.856  1.1814 -1.9289 -0.0469
 3797SOL     OW23026   3.319   4.351   4.491 -0.4165 -0.0659  0.5680
 3797SOL    HW123027   3.347   4.316   4.576 -1.8850 -0.9560  0.6836
 3797SOL    HW223028   3.225   4.332   4.501  0.0414 -1.6819  1.8039
 3798SOL     OW23029   3.962   4.711   2.186  0.0879 -0.4457 -0.0884
 3798SOL    HW123030   3.942   4.620   2.166  1.3346 -1.2549  2.3076
 3798SOL    HW223031   3.891   0.008   2.240  0.6185  2.6134 -1.2809
 3799SOL     OW23032   4.164   3.584   5.351  0.0637  0.0093 -0.2489
 3799SOL    HW123033   4.116   3.666   5.360  1.7689  1.0620 -0.6612
 3799SOL    HW223034   4.086   3.530   5.342 -0.9559  1.1936  1.4971
 3800SOL     OW23035   2.414   3.802   3.388  0.6803  0.4052 -0.1406
 3800SOL    HW123036   2.415   3.891   3.352 -1.7443 -0.4036 -2.2611
 3800SOL    HW223037   2.408   3.815   3.482  0.5015  1.2657 -0.2624
 3801SOL     OW23038   4.497   0.574  12.669 -0.0248 -0.0716  0.1382
 3801SOL    HW123039   4.569   0.584  12.606  0.9037 -0.9989  1.0682
 3801SOL    HW223040   4.451   0.499  12.631 -3.7505  0.6989  3.1442
 3802SOL     OW23041   4.647   0.759   6.870  0.0874 -0.7434  0.1242
 3802SOL    HW123042   4.579   0.825   6.860  0.0929 -1.0558 -2.0950
 3802SOL    HW223043   4.654   0.758   6.965  1.4830  1.8474  0.0531
 3803SOL     OW23044   1.664   0.179   5.823 -0.4376  0.6202 -0.3809
 3803SOL    HW123045   1.652   0.197   5.916 -1.8137  3.0660 -1.0369
 3803SOL    HW223046   1.749   0.135   5.817 -0.7301 -0.1127  0.8089
 3804SOL     OW23047   1.576   3.495   6.451  0.0526 -0.4432  0.2992
 3804SOL    HW123048   1.618   3.581   6.459  3.3752 -2.0495  0.2921
 3804SOL    HW223049   1.542   3.482   6.540 -1.3272  1.5951  0.0668
 3805SOL     OW23050   4.592   2.508  12.505  0.6648 -0.2857 -0.0872
 3805SOL    HW123051   4.503   2.533  12.480  0.8012 -0.4548 -0.7630
 3805SOL    HW223052   4.639   2.554  12.436 -0.4919  1.0611  0.0282
 3806SOL     OW23053   0.858   4.563  15.405  0.0500 -0.3684 -0.4179
 3806SOL    HW123054   0.834   4.471  15.406 -3.1487  0.4823  0.2659
 3806SOL    HW223055   0.789   4.612  15.450 -1.0404 -1.0683 -1.3143
 3807SOL     OW23056   2.592   1.370   9.219  0.4533  0.5159  0.2402
 3807SOL    HW123057   2.568   1.277   9.215 -0.0105  0.6927 -1.1961
 3807SOL    HW223058   2.508   1.416   9.212 -0.2930 -0.5534  2.0980
 3808SOL     OW23059   1.469   2.687   0.409  0.5199  0.5548 -0.2600
 3808SOL    HW123060   1.488   2.644   0.326 -1.7037  0.1013 -0.5353
 3808SOL    HW223061   1.558   2.717   0.427 -0.1542  3.8646 -2.5657
 3809SOL     OW23062   4.539   4.067   0.488 -0.3861  0.0673  0.2645
 3809SOL    HW123063   4.534   4.116   0.570  0.8262 -0.6876  0.7992
 3809SOL    HW223064   4.568   4.139   0.433  0.2038 -1.3194 -1.2501
 3810SOL     OW23065   0.699   4.128   7.815 -0.0678  0.7189  0.3087
 3810SOL    HW123066   0.725   4.055   7.872  2.8786  0.9601 -0.7391
 3810SOL    HW223067   0.679   4.074   7.739  2.8893  1.0647 -0.7012
 3811SOL     OW23068   0.798   3.534   4.045 -0.1317  0.0501  0.2377
 3811SOL    HW123069   0.852   3.613   4.046  0.7272 -0.5288 -1.0656
 3811SOL    HW223070   0.765   3.549   3.957  1.6555  0.5048 -0.3568
 3812SOL     OW23071   2.409   0.290   7.209 -0.0559 -0.1330 -0.5438
 3812SOL    HW123072   2.410   0.353   7.137 -0.5540  0.6131  0.0992
 3812SOL    HW223073   2.386   0.345   7.283 -1.1976 -0.3989 -0.6860
 3813SOL     OW23074   2.179   4.037   0.894 -0.2831 -0.0318  0.0734
 3813SOL    HW123075   2.091   4.068   0.871  0.5155 -0.3497 -3.3629
 3813SOL    HW223076   2.172   4.013   0.986 -0.6324 -0.4646 -0.0694
 3814SOL     OW23077   4.039   3.613  17.506 -0.1106  0.0925 -0.2674
 3814SOL    HW123078   3.959   3.618  17.453 -1.1004  0.5594  1.2802
 3814SOL    HW223079   4.048   3.706  17.522 -2.0252  0.4427 -1.2838
 3815SOL     OW23080   2.363   1.433   3.473  0.2850 -0.3928  0.4196
 3815SOL    HW123081   2.415   1.402   3.399 -0.0959  0.3529 -0.1609
 3815SOL    HW223082   2.300   1.362   3.468  2.8969 -2.4569 -3.1246
 3816SOL     OW23083   0.203   3.342   3.161  0.0645  0.3139  0.1893
 3816SOL    HW123084   0.180   3.358   3.253 -3.0680  1.5498 -0.8408
 3816SOL    HW223085   0.148   3.403   3.112 -0.0968 -0.3382 -0.4330
 3817SOL     OW23086   2.370   1.986   5.812  0.2984 -0.0706 -0.3172
 3817SOL    HW123087   2.314   1.995   5.736  0.4324  0.8743 -0.3022
 3817SOL    HW223088   2.452   1.945   5.785 -0.1104 -1.0106 -0.1475
 3818SOL     OW23089   4.065   3.489   7.624  0.6654 -0.1673 -0.5711
 3818SOL    HW123090   4.032   3.409   7.665  0.8269 -0.8340 -1.7547
 3818SOL    HW223091   4.088   3.531   7.707 -1.8827  0.5430 -0.1898
 3819SOL     OW23092   4.299   2.190  10.699 -0.1323 -0.2703 -0.0029
 3819SOL    HW123093   4.317   2.106  10.741 -0.5883  0.1189  0.9596
 3819SOL    HW223094   4.233   2.228  10.756 -1.4731  0.8008 -2.2601
 3820SOL     OW23095   2.651   2.266   0.382 -0.2656  0.2231 -0.1695
 3820SOL    HW123096   2.636   2.175   0.355  0.0031 -0.3610  1.6798
 3820SOL    HW223097   2.610   2.261   0.468 -0.3523  0.4213 -0.2001
 3821SOL     OW23098   3.828   0.437   6.715  0.1183  0.2694  0.2623
 3821SOL    HW123099   3.876   0.517   6.695  2.5691 -0.9220  1.4635
 3821SOL    HW223100   3.749   0.438   6.660 -1.3422  2.4536  2.3962
 3822SOL     OW23101   3.415   0.119   9.741 -0.3390  0.4964 -0.5260
 3822SOL    HW123102   3.504   0.154   9.746  0.2008 -0.8070 -1.0948
 3822SOL    HW223103   3.391   0.124   9.648  4.2864 -0.5410 -1.7359
 3823SOL     OW23104   0.242   2.777  11.725  0.4732  0.1472 -0.0292
 3823SOL    HW123105   0.269   2.773  11.633  0.1722  0.0390 -0.1104
 3823SOL    HW223106   0.317   2.738  11.770  1.0767 -0.4400 -1.5236
 3824SOL     OW23107   4.573   0.242  15.014  0.0439 -0.2967 -0.3856
 3824SOL    HW123108   4.645   0.286  15.060 -0.5465 -1.5803  1.7448
 3824SOL    HW223109   4.596   0.250  14.921 -1.3346  0.1299 -0.6901
 3825SOL     OW23110   1.865   4.148   9.401  0.2774  0.7342  0.7072
 3825SOL    HW123111   1.861   4.183   9.312  1.0737 -0.8486  0.0524
 3825SOL    HW223112   1.785   4.096   9.410  0.4731  0.4482  0.7766
 3826SOL     OW23113   2.036   1.176   8.131  0.2041  0.3309  0.2314
 3826SOL    HW123114   2.079   1.155   8.047 -1.4552  2.6754 -1.1953
 3826SOL    HW223115   2.042   1.082   8.148 -1.4665  0.5905  2.2695
 3827SOL     OW23116   3.949   0.895   4.667 -0.4743 -0.8479  0.4384
 3827SOL    HW123117   3.987   0.811   4.693 -1.9071 -1.9506 -0.9968
 3827SOL    HW223118   4.034   0.930   4.639  0.2069 -1.3356  1.8753
 3828SOL     OW23119   1.701   2.334   5.649  0.0380  0.0322 -0.0817
 3828SOL    HW123120   1.702   2.241   5.629  1.0096  0.5822 -2.5511
 3828SOL    HW223121   1.719   2.382   5.568  2.1111  1.8652  1.4476
 3829SOL     OW23122   0.879   3.879   7.089 -0.3383 -0.2097 -0.4759
 3829SOL    HW123123   0.865   3.793   7.050  1.1573 -0.2778 -0.8667
 3829SOL    HW223124   0.936   3.851   7.161 -1.8150 -0.8993  0.4327
 3830SOL     OW23125   0.195   2.891   6.015  0.0350 -0.2495  0.1458
 3830SOL    HW123126   0.187   2.980   5.980 -4.0423 -1.9773 -3.4610
 3830SOL    HW223127   0.263   2.854   5.959 -0.4087  0.3567 -0.7897
 3831SOL     OW23128   4.457   0.378   4.349  0.4758  0.0577  0.2975
 3831SOL    HW123129   4.518   0.422   4.407  0.0900  0.8665  0.0897
 3831SOL    HW223130   4.389   0.365   4.416  0.6281 -1.7146  0.1170
 3832SOL     OW23131   2.132   3.195   4.757 -0.1080 -0.4830  0.3365
 3832SOL    HW123132   2.106   3.193   4.665 -1.9221  1.5690  0.8069
 3832SOL    HW223133   2.225   3.173   4.755  0.2009  0.9006 -0.7569
 3833SOL     OW23134   3.583   3.251   6.559 -0.2201 -0.5781 -0.0078
 3833SOL    HW123135   3.598   3.266   6.465 -3.0122  0.8493 -0.2367
 3833SOL    HW223136   3.517   3.183   6.549 -1.9592  1.1026 -0.0514
 3834SOL     OW23137   1.585   1.650  13.723  0.9528  0.3750 -0.5977
 3834SOL    HW123138   1.525   1.607  13.784  0.6533  2.0157  0.2677
 3834SOL    HW223139   1.578   1.742  13.748  3.0315  0.3763 -0.0685
 3835SOL     OW23140   3.881   4.047   1.852 -0.4732  0.2932  0.2851
 3835SOL    HW123141   3.845   4.104   1.784  1.0297  0.3839 -0.4321
 3835SOL    HW223142   3.880   3.957   1.819  1.0708 -0.2431  1.6654
 3836SOL     OW23143   0.022   2.755   9.527 -0.5689  0.0489 -0.3783
 3836SOL    HW123144   4.709   2.836   9.539 -1.7330 -0.7501  0.1774
 3836SOL    HW223145   0.083   2.788   9.460 -0.6876 -0.8869 -0.9465
 3837SOL     OW23146   0.107   1.873  17.706 -0.1547  1.1008  0.0771
 3837SOL    HW123147   0.033   1.813  17.696  0.3980  0.3329  0.5615
 3837SOL    HW223148   0.172   1.845  17.642 -1.9454 -2.8594 -0.0509
 3838SOL     OW23149   2.031   0.183   2.797 -0.1776  0.1681 -0.0275
 3838SOL    HW123150   2.077   0.158   2.717  1.4841  1.6334  0.4655
 3838SOL    HW223151   1.964   0.242   2.763  0.1407  0.7833  0.4125
 3839SOL     OW23152   1.220   1.059   9.910  0.0989  0.7992  0.4812
 3839SOL    HW123153   1.240   1.152   9.899  0.9735  0.5603 -0.0102
 3839SOL    HW223154   1.306   1.016   9.908  0.3638  1.2066  3.0704
 3840SOL     OW23155   3.153   1.115   2.797 -0.0682  0.1842  0.5474
 3840SOL    HW123156   3.134   1.209   2.790 -2.4461 -0.4809 -1.6122
 3840SOL    HW223157   3.237   1.117   2.750  1.0958 -0.6132  2.5808
 3841SOL     OW23158   0.951   0.596   7.635 -0.5733  0.2554  0.1244
 3841SOL    HW123159   0.892   0.521   7.636  0.9346 -0.9294 -0.6838
 3841SOL    HW223160   1.024   0.558   7.586 -0.3283  0.7203  0.1259
 3842SOL     OW23161   0.564   1.093  13.618 -0.2829 -0.2144 -0.6391
 3842SOL    HW123162   0.651   1.087  13.579 -0.0189  1.4204 -0.2845
 3842SOL    HW223163   0.536   1.002  13.605  2.1910 -0.9956 -0.4709
 3843SOL     OW23164   3.988   2.581   6.853 -0.2855 -0.7473  0.3524
 3843SOL    HW123165   3.929   2.650   6.824 -1.7466 -2.3185 -0.4845
 3843SOL    HW223166   4.072   2.625   6.841  0.9768 -1.9540  4.6615
 3844SOL     OW23167   2.867   0.139   5.623 -0.4500  0.4471 -0.1325
 3844SOL    HW123168   2.828   0.226   5.621 -0.6204  0.3618 -0.6843
 3844SOL    HW223169   2.926   0.145   5.699  0.9445 -2.6379 -0.9488
 3845SOL     OW23170   3.169   2.895  17.047 -0.1114  0.4283 -0.1328
 3845SOL    HW123171   3.087   2.923  17.088  1.8026  1.9072  2.6958
 3845SOL    HW223172   3.206   2.824  17.101 -0.4693  1.3819  1.3558
 3846SOL     OW23173   1.127   0.023   6.494  0.5674 -0.0377  0.2457
 3846SOL    HW123174   1.127   0.014   6.589 -2.8889 -2.3422  0.0270
 3846SOL    HW223175   1.039   0.060   6.486  1.0710  1.2664  0.7453
 3847SOL     OW23176   3.001   1.940  17.299 -0.8522  0.3612  0.4724
 3847SOL    HW123177   3.071   2.004  17.288  0.8075 -1.4708  0.3507
 3847SOL    HW223178   2.948   1.984  17.365  0.4563  0.2744  1.5721
 3848SOL     OW23179   2.945   2.671   6.436  0.0399  0.1725 -0.9481
 3848SOL    HW123180   3.040   2.658   6.430 -0.1784 -0.9481 -2.0327
 3848SOL    HW223181   2.918   2.609   6.504  1.7936  0.3711 -0.0620
 3849SOL     OW23182   3.760   3.475  14.430  0.3251  0.3985 -0.0337
 3849SOL    HW123183   3.719   3.556  14.461  0.9290  1.3185 -1.6940
 3849SOL    HW223184   3.766   3.427  14.513  2.1440  0.6933 -0.0152
 3850SOL     OW23185   0.857   3.204   3.442 -0.0622  0.0073  0.3644
 3850SOL    HW123186   0.803   3.283   3.446 -0.3370 -0.0520 -2.0610
 3850SOL    HW223187   0.858   3.196   3.346 -0.7680 -0.8135  0.4266
 3851SOL     OW23188   4.013   1.801   9.731 -0.5193  0.4214 -0.0272
 3851SOL    HW123189   3.963   1.792   9.811 -0.4880 -0.1149 -0.0682
 3851SOL    HW223190   4.100   1.825   9.764 -0.3206  0.0409 -0.2565
 3852SOL     OW23191   2.269   2.695  11.527  0.2457 -0.0794  0.2423
 3852SOL    HW123192   2.223   2.630  11.474  2.4753 -0.8208 -0.7760
 3852SOL    HW223193   2.266   2.777  11.478  0.8141  0.6859  1.4850
 3853SOL     OW23194   3.547   4.426  15.621 -0.1897 -0.3147  0.4011
 3853SOL    HW123195   3.577   4.514  15.641  2.5918 -0.7844 -1.7963
 3853SOL    HW223196   3.453   4.442  15.631  0.1345  0.5994  1.9049
 3854SOL     OW23197   0.901   2.087   1.356  0.1839  0.7004  0.1041
 3854SOL    HW123198   0.817   2.075   1.312  0.2059 -0.9138  0.5147
 3854SOL    HW223199   0.933   2.172   1.325 -1.7085  0.7978 -1.6192
 3855SOL     OW23200   0.174   0.813   4.692 -0.0412 -0.2989  0.3541
 3855SOL    HW123201   0.217   0.829   4.776 -0.1919 -0.7954  0.5305
 3855SOL    HW223202   0.246   0.762   4.654 -0.4248  0.4002 -1.2878
 3856SOL     OW23203   0.618   2.145   8.512 -0.2865 -0.0094 -0.1942
 3856SOL    HW123204   0.527   2.151   8.483 -0.8505  3.8071  2.3877
 3856SOL    HW223205   0.652   2.226   8.474 -2.4593  0.8811 -0.2937
 3857SOL     OW23206   1.565   4.400   5.345 -0.4425 -0.2458 -0.1548
 3857SOL    HW123207   1.557   4.493   5.369 -1.0319 -0.7126  1.4693
 3857SOL    HW223208   1.496   4.358   5.396 -1.7586  1.3999 -0.5727
 3858SOL     OW23209   0.226   2.292  15.770 -0.1999  0.2990 -0.7655
 3858SOL    HW123210   0.260   2.381  15.780 -0.4681  0.6041 -2.6323
 3858SOL    HW223211   0.308   2.248  15.747 -0.9450 -1.5556  0.1709
 3859SOL     OW23212   2.235   2.269  11.010  0.3552  0.4411  0.2781
 3859SOL    HW123213   2.290   2.319  11.070  0.2832 -0.6273  1.2339
 3859SOL    HW223214   2.225   2.187  11.058 -0.3397 -0.2295 -1.0073
 3860SOL     OW23215   2.569   0.366   9.235  0.2645  0.5028  0.1459
 3860SOL    HW123216   2.476   0.383   9.216 -0.1891 -1.5856  0.5803
 3860SOL    HW223217   2.600   0.444   9.188 -0.9682 -0.7044 -2.6383
 3861SOL     OW23218   1.664   1.158  13.080 -0.3387 -0.3187  0.1613
 3861SOL    HW123219   1.570   1.174  13.071 -0.3499 -0.1561  0.5481
 3861SOL    HW223220   1.668   1.099  13.156 -0.1274  0.6512  0.9034
 3862SOL     OW23221   3.380   0.065  12.798 -0.0942  0.1763  0.3432
 3862SOL    HW123222   3.415   0.016  12.872  0.4932  1.7130  1.0921
 3862SOL    HW223223   3.290   0.032  12.806 -0.7666  1.9851  0.3161
 3863SOL     OW23224   4.278   0.593   5.526  0.4889  0.5043  0.0591
 3863SOL    HW123225   4.315   0.507   5.544 -1.7704 -0.3860  0.4136
 3863SOL    HW223226   4.224   0.596   5.605  0.9580  1.2140  0.3500
 3864SOL     OW23227   2.105   2.773   3.681 -0.9078 -0.0440  0.4639
 3864SOL    HW123228   2.033   2.803   3.625  0.0516 -1.4045 -1.5043
 3864SOL    HW223229   2.179   2.815   3.639 -0.5578  0.4159  1.5433
 3865SOL     OW23230   4.487   2.484   7.627  0.1860 -0.1306  0.6462
 3865SOL    HW123231   4.486   2.556   7.690  0.2834  1.3387 -1.0334
 3865SOL    HW223232   4.416   2.435   7.667 -0.4226 -0.6513 -1.0410
 3866SOL     OW23233   4.506   1.985   6.781  0.2199 -0.1159 -0.6707
 3866SOL    HW123234   4.503   1.964   6.874  2.1273 -3.1208 -1.3035
 3866SOL    HW223235   4.414   1.971   6.762 -0.1384 -0.1143  1.0506
 3867SOL     OW23236   2.851   3.679   3.010 -0.0361  0.6121  0.1350
 3867SOL    HW123237   2.762   3.666   2.976 -0.0006  0.3617  0.1368
 3867SOL    HW223238   2.850   3.667   3.104  1.1722  0.1277  0.0915
 3868SOL     OW23239   0.170   2.707  16.302  0.4443  0.7024  0.1117
 3868SOL    HW123240   0.189   2.667  16.387  1.0511  1.5082  0.3566
 3868SOL    HW223241   0.110   2.643  16.265 -1.0354  1.8168  0.5881
 3869SOL     OW23242   2.289   2.978   7.938  0.0938  0.5327  0.0510
 3869SOL    HW123243   2.334   3.060   7.917 -2.3278  2.2285  1.3986
 3869SOL    HW223244   2.200   3.001   7.964 -0.4640 -1.7382  0.0834
 3870SOL     OW23245   2.566   0.276  12.480  0.0746 -0.1064 -0.0343
 3870SOL    HW123246   2.636   0.219  12.511  1.4010  1.3135 -0.4158
 3870SOL    HW223247   2.600   0.305  12.395 -0.1330 -1.8144 -0.6868
 3871SOL     OW23248   1.659   1.290  14.449 -0.0086  0.9077 -0.2043
 3871SOL    HW123249   1.745   1.268  14.484 -0.5507  0.8831  1.1337
 3871SOL    HW223250   1.599   1.249  14.512 -0.1327  1.3828 -0.0117
 3872SOL     OW23251   4.186   4.103   6.399 -0.1024 -0.2133  0.3117
 3872SOL    HW123252   4.265   4.108   6.452  0.1349  3.6525 -0.4437
 3872SOL    HW223253   4.123   4.046   6.445 -0.4805 -0.4379 -0.4939
 3873SOL     OW23254   4.687   0.534   5.319  0.1201 -0.2564 -0.1901
 3873SOL    HW123255   4.647   0.612   5.282  0.7382  1.2086  2.2175
 3873SOL    HW223256   4.687   0.482   5.238 -1.4980  0.1679 -0.4566
 3874SOL     OW23257   4.090   4.675   8.370  0.4232  0.8618  0.2599
 3874SOL    HW123258   4.180   4.709   8.375 -0.1878  2.2327  1.9379
 3874SOL    HW223259   4.096   4.612   8.299 -0.4901  0.3301  0.6629
 3875SOL     OW23260   2.451   1.519  10.122 -0.0005  0.9996 -0.5379
 3875SOL    HW123261   2.480   1.435  10.088 -0.3000 -0.2647  2.3087
 3875SOL    HW223262   2.372   1.534  10.069 -0.7945  2.2133  0.9674
 3876SOL     OW23263   0.059   0.742   3.395  0.3245 -0.0914 -0.0952
 3876SOL    HW123264   0.127   0.727   3.460 -0.0221  0.5350  0.4045
 3876SOL    HW223265   0.084   0.681   3.325 -2.3962 -0.0383 -1.1090
 3877SOL     OW23266   4.289   4.517   6.631  0.0486  0.0649  0.9995
 3877SOL    HW123267   4.371   4.497   6.677 -0.4137  0.7170  2.1273
 3877SOL    HW223268   4.274   4.603   6.672 -0.2255  0.7544 -0.5716
 3878SOL     OW23269   4.378   2.554   2.463 -0.4607  0.4791  0.2761
 3878SOL    HW123270   4.371   2.471   2.416  0.3528 -0.6789  2.1858
 3878SOL    HW223271   4.318   2.604   2.407 -2.0751 -0.0336  1.5234
 3879SOL     OW23272   1.066   2.755  11.075  0.2781  1.1648  0.3165
 3879SOL    HW123273   1.129   2.764  11.004 -1.8005  1.4084 -1.5214
 3879SOL    HW223274   1.096   2.827  11.131  3.5632  0.3644 -0.4205
 3880SOL     OW23275   3.994   0.409   1.278 -0.1614 -0.3668 -0.2328
 3880SOL    HW123276   4.089   0.404   1.264 -0.3409  0.6435 -1.8703
 3880SOL    HW223277   3.971   0.441   1.191  0.5947 -1.4054 -0.8099
 3881SOL     OW23278   2.364   4.002   4.318  0.3104  0.1649  0.1096
 3881SOL    HW123279   2.270   4.007   4.331  0.9170 -0.5701  4.6510
 3881SOL    HW223280   2.381   3.908   4.313  3.0000  0.6443  0.0670
 3882SOL     OW23281   3.047   2.331   5.913 -0.4797 -0.1338  0.1611
 3882SOL    HW123282   3.052   2.426   5.912  0.8847 -0.2005  0.7601
 3882SOL    HW223283   2.957   2.314   5.885 -0.6294  0.6428  0.1863
 3883SOL     OW23284   3.731   1.074   4.344  0.2283  0.0418 -0.3132
 3883SOL    HW123285   3.645   1.057   4.304  1.3433 -1.6097 -2.0016
 3883SOL    HW223286   3.709   1.142   4.408  1.5938  1.5757 -1.4878
 3884SOL     OW23287   1.108   2.625   5.781  0.0404  0.6310  0.7509
 3884SOL    HW123288   1.157   2.582   5.711 -0.7986 -0.1479  0.6361
 3884SOL    HW223289   1.093   2.712   5.744 -1.0205  1.1730  2.4539
 3885SOL     OW23290   0.362   3.228   9.540  0.1413  0.0787  0.2624
 3885SOL    HW123291   0.407   3.284   9.603  0.9931  0.0237 -0.2978
 3885SOL    HW223292   0.385   3.142   9.574  0.5832  0.1401  0.1179
 3886SOL     OW23293   0.107   2.990   4.869 -0.8098  0.5627 -0.2112
 3886SOL    HW123294   0.144   2.911   4.908 -0.2696  1.5835  1.3227
 3886SOL    HW223295   0.030   2.959   4.822 -0.7003  1.2656 -0.8672
 3887SOL     OW23296   3.371   0.036  11.418 -0.0558 -0.3902  0.0127
 3887SOL    HW123297   3.419   0.033  11.336 -0.4809  0.8274 -0.2799
 3887SOL    HW223298   3.287   0.063  11.380 -1.4143  0.1813  3.3504
 3888SOL     OW23299   2.455   0.082  17.069  0.2679  0.1874  0.1088
 3888SOL    HW123300   2.538   0.125  17.048  1.1582 -1.2436  0.6682
 3888SOL    HW223301   2.396   0.157  17.069  0.0901  0.0555 -0.8647
 3889SOL     OW23302   1.239   2.516   0.089 -0.2374 -1.1920 -0.3078
 3889SOL    HW123303   1.331   2.545   0.090 -0.3393 -0.9347  1.1090
 3889SOL    HW223304   1.210   2.521  17.741  2.8974 -1.7781 -1.3244
 3890SOL     OW23305   4.258   2.694   6.343  0.0293  0.3301  0.0745
 3890SOL    HW123306   4.171   2.709   6.307 -0.1189 -1.3549 -0.2687
 3890SOL    HW223307   4.239   2.704   6.437  2.3783  0.0149  0.6075
 3891SOL     OW23308   0.188   2.241  14.664 -0.0593 -0.0611 -0.1030
 3891SOL    HW123309   0.233   2.268  14.745 -0.4906  0.1695  0.0599
 3891SOL    HW223310   0.182   2.146  14.669 -0.6472 -0.0433 -0.4404
 3892SOL     OW23311   4.382   2.989   7.071  0.3782 -0.3675 -0.1911
 3892SOL    HW123312   4.426   2.905   7.083 -1.9727 -1.2855  1.9048
 3892SOL    HW223313   4.435   3.042   7.131  0.2894  0.9038 -1.2464
 3893SOL     OW23314   4.733   3.012   6.543 -0.4206 -0.1767 -0.0312
 3893SOL    HW123315   4.694   2.996   6.630  2.0623 -0.5074  1.0149
 3893SOL    HW223316   4.661   2.978   6.490 -0.2210  0.4039 -0.6674
 3894SOL     OW23317   4.194   2.619   7.300  0.8170  0.2001 -0.3395
 3894SOL    HW123318   4.229   2.583   7.219 -1.1352  0.6233 -1.3622
 3894SOL    HW223319   4.106   2.643   7.271  1.8471  0.2514 -3.3862
 3895SOL     OW23320   4.713   1.751  13.182  0.0407  0.1144 -0.0869
 3895SOL    HW123321   0.027   1.715  13.108  0.0418 -0.9392  0.4322
 3895SOL    HW223322   4.672   1.824  13.136 -0.6246 -0.2933 -0.1332
 3896SOL     OW23323   0.926   2.330  17.014 -0.2631 -0.5663  0.0630
 3896SOL    HW123324   0.966   2.274  16.947 -0.2352 -0.3412 -0.1076
 3896SOL    HW223325   0.955   2.418  16.990 -0.7207 -0.9324 -1.8994
 3897SOL     OW23326   1.128   1.336  15.108 -0.9919 -0.5534  0.1265
 3897SOL    HW123327   1.064   1.392  15.066  1.4764  1.5247 -0.8523
 3897SOL    HW223328   1.129   1.367  15.199  0.9672  2.4199 -0.9101
 3898SOL     OW23329   2.316   1.862  10.212  0.5197 -0.1102  0.4836
 3898SOL    HW123330   2.300   1.874  10.305 -1.8828  0.4503  0.0097
 3898SOL    HW223331   2.401   1.819  10.217  0.0071 -1.4154 -1.7947
 3899SOL     OW23332   3.487   0.360  11.760  0.1400 -0.1660 -0.3842
 3899SOL    HW123333   3.527   0.305  11.828  0.3352 -0.1866 -0.5165
 3899SOL    HW223334   3.558   0.368  11.696 -0.2294 -1.6345 -0.9922
 3900SOL     OW23335   3.740   0.784   3.869  0.2155  0.2929 -0.3248
 3900SOL    HW123336   3.720   0.691   3.879  0.7071  0.3104  0.7486
 3900SOL    HW223337   3.738   0.780   3.773 -0.0799  1.0764 -0.3517
 3901SOL     OW23338   1.636   4.650  15.404  0.5052  0.9547 -0.5343
 3901SOL    HW123339   1.599   4.710  15.469  0.0044 -1.1126  1.0753
 3901SOL    HW223340   1.552   4.609  15.385 -0.4069  0.7738  3.8683
 3902SOL     OW23341   0.990   1.948   9.124  0.3849  0.2992  0.3494
 3902SOL    HW123342   1.039   1.880   9.171  0.7226 -0.4589 -1.1058
 3902SOL    HW223343   0.930   1.985   9.189  0.5052 -0.0288  0.6498
 3903SOL     OW23344   2.439   1.862   6.852  0.4777 -0.7152 -0.6042
 3903SOL    HW123345   2.377   1.899   6.915  0.9334 -2.4360  0.8443
 3903SOL    HW223346   2.510   1.821   6.901 -0.1370  0.0768  0.9637
 3904SOL     OW23347   2.064   0.087  14.438 -0.0663  1.0673 -0.3753
 3904SOL    HW123348   2.067   0.182  14.448 -0.8109  1.0876 -0.3449
 3904SOL    HW223349   2.137   0.065  14.381  0.9669  0.2955  1.2239
 3905SOL     OW23350   0.501   3.785   2.165  0.8478 -0.4324  0.4753
 3905SOL    HW123351   0.414   3.819   2.143  1.4127 -0.9495 -2.5418
 3905SOL    HW223352   0.542   3.824   2.088 -0.2120  1.0076  0.6546
 3906SOL     OW23353   2.352   0.718  12.978  0.4077  0.2321  0.3456
 3906SOL    HW123354   2.413   0.781  12.940 -0.8163  1.2643  0.0741
 3906SOL    HW223355   2.407   0.673  13.043 -0.3789 -2.8990 -1.1434
 3907SOL     OW23356   3.315   1.868  13.019  0.1559  0.5348  0.3359
 3907SOL    HW123357   3.329   1.807  13.091 -0.2333  0.8418  0.6664
 3907SOL    HW223358   3.292   1.808  12.948 -0.9092 -0.3208  1.4163
 3908SOL     OW23359   2.296   4.426  16.688 -0.2864 -0.2636  0.0092
 3908SOL    HW123360   2.316   4.491  16.755  2.3025 -0.5762 -0.4690
 3908SOL    HW223361   2.309   4.480  16.610  1.2069 -1.5913 -0.6737
 3909SOL     OW23362   3.994   4.642   4.833 -0.3018 -0.2083  0.1591
 3909SOL    HW123363   3.941   4.565   4.852 -0.2291 -0.8569 -2.2112
 3909SOL    HW223364   4.002   4.680   4.920  0.4078  1.7507 -0.7623
 3910SOL     OW23365   4.618   3.724   1.881  0.3996  0.6618 -0.3603
 3910SOL    HW123366   4.629   3.636   1.846 -1.4864  0.7080 -1.0380
 3910SOL    HW223367   4.682   3.717   1.953 -0.1490  0.9036  0.1552
 3911SOL     OW23368   0.241   4.486   2.413 -0.4998  0.3929  0.1038
 3911SOL    HW123369   0.276   4.568   2.379 -0.7307  0.6808  0.5481
 3911SOL    HW223370   0.151   4.503   2.440 -1.1007 -1.0883 -1.0005
 3912SOL     OW23371   2.605   0.106   9.116 -0.1824  0.6198 -0.0216
 3912SOL    HW123372   2.606   0.187   9.166  0.2299  0.1094  0.7913
 3912SOL    HW223373   2.521   0.066   9.140 -0.1710  1.6070  1.6377
 3913SOL     OW23374   1.494   0.683  13.540 -0.0748  0.4203  0.3798
 3913SOL    HW123375   1.484   0.778  13.545  0.9370  0.4435  1.9395
 3913SOL    HW223376   1.449   0.652  13.618  0.3442 -0.5560  0.2340
 3914SOL     OW23377   3.901   3.606   1.527 -0.4027  0.4535 -0.2097
 3914SOL    HW123378   3.938   3.550   1.458  1.9340  2.6801 -0.7571
 3914SOL    HW223379   3.980   3.660   1.534 -0.1538  0.2391 -1.3592
 3915SOL     OW23380   0.513   2.330  10.995 -0.0080 -0.0124  0.5200
 3915SOL    HW123381   0.477   2.298  10.913  1.1305  0.0386 -0.0076
 3915SOL    HW223382   0.550   2.408  10.954  1.2075 -1.3256 -0.9422
 3916SOL     OW23383   1.953   0.004   6.389  0.4296 -0.0280  0.4594
 3916SOL    HW123384   1.900   0.002   6.309 -1.7420 -0.9099  1.9282
 3916SOL    HW223385   2.026   0.052   6.349  1.1548 -0.8611  0.7882
 3917SOL     OW23386   4.250   3.639   4.273 -0.3380  0.4011 -0.1928
 3917SOL    HW123387   4.304   3.562   4.258 -0.1739  0.0523  2.1917
 3917SOL    HW223388   4.184   3.631   4.205 -0.2477 -0.0636 -0.2264
 3918SOL     OW23389   1.461   2.786  10.519  0.2556  0.0712  0.1624
 3918SOL    HW123390   1.547   2.746  10.504  0.0427  0.1712 -1.3204
 3918SOL    HW223391   1.420   2.716  10.570  1.2330 -1.2932 -0.9222
 3919SOL     OW23392   4.356   3.622  12.278  0.5479 -0.1328 -0.1230
 3919SOL    HW123393   4.449   3.636  12.298  0.4066  1.1733 -0.4367
 3919SOL    HW223394   4.319   3.689  12.335 -0.2268  0.9334 -1.9119
 3920SOL     OW23395   0.594   0.635  17.233 -0.0617 -0.3107  0.0528
 3920SOL    HW123396   0.668   0.659  17.177  0.1099  0.3008  0.5322
 3920SOL    HW223397   0.583   0.725  17.265  1.0889 -0.4830  0.9623
 3921SOL     OW23398   2.660   1.355  15.876  0.1962  0.2830 -0.2460
 3921SOL    HW123399   2.594   1.422  15.857 -1.4638 -0.6363  2.3441
 3921SOL    HW223400   2.736   1.375  15.821  0.1680  0.3374 -0.2658
 3922SOL     OW23401   0.702   1.944   6.621 -0.2765  0.0049 -0.1146
 3922SOL    HW123402   0.619   1.991   6.613  0.5078  1.0662 -2.0938
 3922SOL    HW223403   0.765   2.011   6.646 -0.6198 -0.0473  0.9033
 3923SOL     OW23404   0.304   3.923  16.743 -0.5124 -0.5415  0.5163
 3923SOL    HW123405   0.246   3.899  16.672 -2.2382  0.5633  1.5596
 3923SOL    HW223406   0.277   3.864  16.814 -1.1959 -1.6318 -0.6569
 3924SOL     OW23407   3.646   1.007   8.153  0.4752 -0.0004 -0.3504
 3924SOL    HW123408   3.712   1.025   8.221 -2.0712  0.4030  2.0326
 3924SOL    HW223409   3.572   1.037   8.206 -0.1811  0.7445 -1.6917
 3925SOL     OW23410   0.339   2.683   8.350  0.0243  0.3941  0.1641
 3925SOL    HW123411   0.291   2.724   8.278 -1.9122  0.3927  1.4641
 3925SOL    HW223412   0.290   2.717   8.425 -1.3788  0.3152 -0.7133
 3926SOL     OW23413   2.979   0.853  16.399  0.5481  0.6517 -0.0614
 3926SOL    HW123414   2.908   0.909  16.429 -1.3393 -0.3132 -2.7993
 3926SOL    HW223415   3.055   0.909  16.416  1.5611 -0.6802 -0.1979
 3927SOL     OW23416   2.789   3.875  13.621  0.0121  0.4312  0.1677
 3927SOL    HW123417   2.800   3.782  13.601  3.5790  0.9597 -0.3928
 3927SOL    HW223418   2.749   3.906  13.540  0.1389  1.4740  0.4933
 3928SOL     OW23419   2.301   1.113  13.475  0.7224  0.3041 -0.0280
 3928SOL    HW123420   2.225   1.133  13.421  1.1585 -0.1287 -0.8038
 3928SOL    HW223421   2.258   1.062  13.543  0.2521  1.7253  0.7391
 3929SOL     OW23422   1.604   3.610  10.777  0.4052 -0.0366  0.1256
 3929SOL    HW123423   1.644   3.675  10.834 -1.2905 -0.8208  2.2293
 3929SOL    HW223424   1.678   3.557  10.749  0.8829  0.5297  0.3238
 3930SOL     OW23425   2.965   3.229   4.728 -0.3037  0.5242  0.4706
 3930SOL    HW123426   3.023   3.224   4.804  0.3023  0.1964 -0.0140
 3930SOL    HW223427   2.880   3.199   4.760 -0.4440  0.7223  0.2854
 3931SOL     OW23428   2.430   0.133  13.372 -0.1954  0.7838 -0.5095
 3931SOL    HW123429   2.377   0.056  13.392  1.1962 -0.4032 -1.3983
 3931SOL    HW223430   2.369   0.204  13.396 -1.3909 -0.4062 -0.0537
 3932SOL     OW23431   1.420   1.810  14.421  0.4357 -0.0468 -0.4359
 3932SOL    HW123432   1.476   1.740  14.455 -1.6411 -0.8354  1.3974
 3932SOL    HW223433   1.420   1.876  14.490  0.2637 -1.4221  0.8732
 3933SOL     OW23434   4.502   3.213   8.137  0.0175 -0.0311 -0.2481
 3933SOL    HW123435   4.577   3.184   8.188  1.3650  0.7940 -1.7855
 3933SOL    HW223436   4.425   3.173   8.177  0.6865 -1.4374 -0.3740
 3934SOL     OW23437   3.939   1.669  15.291  0.5458  0.0993 -0.1757
 3934SOL    HW123438   4.017   1.618  15.268  2.2889  3.4365 -1.6634
 3934SOL    HW223439   3.883   1.637  15.221  0.3332  0.2196 -0.0605
 3935SOL     OW23440   1.777   4.657  12.988 -0.0124 -0.1258 -0.1165
 3935SOL    HW123441   1.762   4.598  13.062  0.9527 -2.3558 -1.6895
 3935SOL    HW223442   1.849   4.613  12.943 -0.0313  1.0039 -1.2649
 3936SOL     OW23443   0.525   2.906   9.525 -0.0647  0.4634 -0.5360
 3936SOL    HW123444   0.597   2.842   9.520  0.6666  1.1234  1.7858
 3936SOL    HW223445   0.508   2.906   9.430 -0.3726  0.7904 -0.4780
 3937SOL     OW23446   0.325   4.035   6.108 -0.2816  0.1686  0.3121
 3937SOL    HW123447   0.268   3.971   6.064 -0.4207 -1.5782  3.0049
 3937SOL    HW223448   0.369   4.080   6.036  0.3075 -0.1294  0.4848
 3938SOL     OW23449   2.964   1.600   1.212 -0.4115  0.0026 -0.1988
 3938SOL    HW123450   2.995   1.628   1.126  0.9986  2.5658  1.1579
 3938SOL    HW223451   2.964   1.678   1.268 -1.1050  0.4593 -0.8366
 3939SOL     OW23452   3.942   1.529   6.661 -0.0152  0.7476  0.0029
 3939SOL    HW123453   4.031   1.511   6.692 -0.2040 -0.4647 -0.1731
 3939SOL    HW223454   3.886   1.483   6.723  0.2936  1.5583  0.8923
 3940SOL     OW23455   3.707   3.684   8.620  0.6615 -0.2139 -0.4832
 3940SOL    HW123456   3.651   3.639   8.556 -0.3808 -1.5042  1.3089
 3940SOL    HW223457   3.666   3.660   8.704 -0.7979 -0.5502 -1.2811
 3941SOL     OW23458   4.481   0.590   3.983 -0.1399 -0.4849  0.4417
 3941SOL    HW123459   4.455   0.501   4.007 -2.5279 -0.5726 -2.3908
 3941SOL    HW223460   4.466   0.636   4.065 -1.1519 -1.2549  0.6881
 3942SOL     OW23461   2.642   1.137   7.469 -0.0928 -0.5369  0.0120
 3942SOL    HW123462   2.603   1.064   7.518 -0.1364  1.2496  2.6429
 3942SOL    HW223463   2.682   1.103   7.389 -1.5455 -1.9725 -0.0932
 3943SOL     OW23464   1.500   4.344  12.547 -0.8649  0.0502 -0.2757
 3943SOL    HW123465   1.416   4.388  12.532 -1.5774 -1.1717  0.1357
 3943SOL    HW223466   1.472   4.253  12.541  0.2147 -0.3267  0.4981
 3944SOL     OW23467   0.170   0.152   7.721  0.0366 -0.5821  0.3623
 3944SOL    HW123468   0.095   0.174   7.666  1.9926 -1.1762 -2.5553
 3944SOL    HW223469   0.143   0.067   7.755 -2.7047 -1.0597 -3.0723
 3945SOL     OW23470   1.675   2.393  12.510 -0.3110  0.2156  0.0778
 3945SOL    HW123471   1.648   2.334  12.439 -0.6174  1.4364 -0.8233
 3945SOL    HW223472   1.699   2.336  12.582  2.6366  2.0177  0.5188
 3946SOL     OW23473   2.010   1.695   9.597 -0.1803 -0.3108  0.2793
 3946SOL    HW123474   2.010   1.783   9.559  2.4760 -0.3222  0.2408
 3946SOL    HW223475   2.090   1.665   9.556  0.6090  0.7769  1.0200
 3947SOL     OW23476   4.362   4.136   3.148  0.7441 -0.4146  0.0261
 3947SOL    HW123477   4.453   4.137   3.179  1.2145  2.8487 -1.4374
 3947SOL    HW223478   4.320   4.110   3.230 -1.2390 -0.9929 -1.1757
 3948SOL     OW23479   0.896   1.936  13.604  0.0705  0.1459 -0.1369
 3948SOL    HW123480   0.919   1.908  13.515 -0.3441  0.1497 -0.2428
 3948SOL    HW223481   0.980   1.967  13.639  1.0816 -1.6972 -0.9591
 3949SOL     OW23482   2.280   3.431  11.812 -0.4044  0.1652  0.2685
 3949SOL    HW123483   2.366   3.469  11.830 -0.7384  0.8527  0.4121
 3949SOL    HW223484   2.270   3.376  11.889  0.7348 -0.0047  0.2953
 3950SOL     OW23485   0.460   3.361   6.737 -0.6839 -0.6894  0.1613
 3950SOL    HW123486   0.413   3.377   6.655  1.1560  1.2895 -0.4961
 3950SOL    HW223487   0.427   3.439   6.781  0.2300 -0.5522  0.6014
 3951SOL     OW23488   4.437   3.272   1.307  0.3946 -0.1868 -0.2523
 3951SOL    HW123489   4.412   3.349   1.255  0.7789  0.0514 -0.0881
 3951SOL    HW223490   4.367   3.212   1.284  1.4907 -1.0359 -1.3140
 3952SOL     OW23491   1.141   0.550   2.169  0.4807  0.7580 -0.1083
 3952SOL    HW123492   1.184   0.597   2.098  0.4347  2.9820  1.3156
 3952SOL    HW223493   1.082   0.611   2.213  0.5488  1.2058 -0.6411
 3953SOL     OW23494   1.672   2.141  13.190 -0.3272  0.2111 -0.0376
 3953SOL    HW123495   1.681   2.233  13.163 -3.5016  0.2003 -1.0647
 3953SOL    HW223496   1.609   2.110  13.125  0.7546  2.1723 -2.0149
 3954SOL     OW23497   1.908   1.624   0.723  0.3703 -0.2378 -0.2303
 3954SOL    HW123498   1.838   1.564   0.698 -0.2788  0.9913 -1.3521
 3954SOL    HW223499   1.898   1.688   0.653 -0.5810  1.2771  1.3019
 3955SOL     OW23500   2.038   2.591   4.552 -0.2927 -0.3827 -0.4294
 3955SOL    HW123501   2.108   2.651   4.575 -0.1461 -0.8030  0.2321
 3955SOL    HW223502   1.994   2.635   4.480 -0.2681  0.9452  0.3801
 3956SOL     OW23503   2.491   2.513  10.711  0.2745  0.1335 -0.0374
 3956SOL    HW123504   2.510   2.606  10.700 -1.2719  0.5433  0.7631
 3956SOL    HW223505   2.549   2.466  10.651 -1.9334  1.3808 -3.2010
 3957SOL     OW23506   4.533   3.769   5.710 -0.2668  0.4883 -0.2324
 3957SOL    HW123507   4.494   3.708   5.648 -1.1305  0.4066  0.3891
 3957SOL    HW223508   4.461   3.826   5.735  0.3900  1.1970  0.0597
 3958SOL     OW23509   3.932   0.464  14.018  0.0826  0.1851 -0.5702
 3958SOL    HW123510   3.925   0.507  14.103  2.5957 -0.2007 -0.1484
 3958SOL    HW223511   3.841   0.467  13.989  0.1657  0.9749 -0.7406
 3959SOL     OW23512   4.677   1.788   3.784 -0.2928 -0.0287 -0.0058
 3959SOL    HW123513   0.019   1.798   3.729  0.6543 -0.5881  1.2499
 3959SOL    HW223514   4.721   1.770   3.867  0.3189 -1.8526 -0.7339
 3960SOL     OW23515   4.122   3.282   5.130 -0.6683  0.1257 -0.0300
 3960SOL    HW123516   4.029   3.271   5.150 -0.8596 -1.5726 -1.8252
 3960SOL    HW223517   4.167   3.250   5.208 -0.8145  0.0878  0.0386
 3961SOL     OW23518   3.883   0.441  10.013 -0.2382 -0.0021 -0.2361
 3961SOL    HW123519   3.896   0.440   9.918  0.5559  1.9871 -0.1408
 3961SOL    HW223520   3.812   0.378  10.025 -0.1729 -0.3728 -1.6777
 3962SOL     OW23521   3.916   1.977   4.781 -0.2389 -0.3480 -0.3470
 3962SOL    HW123522   3.895   1.991   4.689 -0.8650  0.9887  0.0041
 3962SOL    HW223523   3.996   1.925   4.789  0.0737 -0.0082 -1.3255
 3963SOL     OW23524   1.720   4.517   0.040 -0.4199  0.3485  0.3170
 3963SOL    HW123525   1.665   4.509  17.705 -3.6428 -1.0982  2.7198
 3963SOL    HW223526   1.804   4.540   0.001 -0.2926 -0.8631 -0.1264
 3964SOL     OW23527   3.377   1.295   6.727  0.1464 -0.1938  0.3419
 3964SOL    HW123528   3.447   1.241   6.692  1.0721  1.2564 -0.0638
 3964SOL    HW223529   3.412   1.343   6.802 -1.2725 -1.1036  1.5702
 3965SOL     OW23530   3.037   2.663   1.328  0.5931  0.1129  0.4156
 3965SOL    HW123531   3.001   2.718   1.398 -0.9733  0.0444 -0.3458
 3965SOL    HW223532   3.112   2.624   1.373 -0.1388  1.4607  2.7824
 3966SOL     OW23533   0.369   0.461   6.189  0.1259 -0.4717  0.3376
 3966SOL    HW123534   0.326   0.478   6.273  0.4418  0.5630  0.2850
 3966SOL    HW223535   0.376   0.551   6.156 -0.9373 -1.0094 -1.3720
 3967SOL     OW23536   3.559   2.000   1.917 -0.4480 -0.0791 -0.2487
 3967SOL    HW123537   3.585   1.928   1.860  3.0009  1.7202 -0.9535
 3967SOL    HW223538   3.486   2.041   1.871  1.6212 -0.7826 -4.1746
 3968SOL     OW23539   1.879   0.618  10.201  0.4953 -0.3946 -0.1985
 3968SOL    HW123540   1.931   0.551  10.244  1.9331  0.8984  0.0417
 3968SOL    HW223541   1.944   0.686  10.187 -0.1999  0.5466  1.1760
 3969SOL     OW23542   3.658   1.113   1.626  0.0711 -0.4183 -0.2758
 3969SOL    HW123543   3.704   1.197   1.632  0.6322 -0.7600  0.1557
 3969SOL    HW223544   3.593   1.141   1.561  0.0766  0.0540 -0.0763
 3970SOL     OW23545   0.148   3.602   3.569 -0.8655  0.4847 -0.0512
 3970SOL    HW123546   0.177   3.691   3.549  0.9076 -0.0102  0.3055
 3970SOL    HW223547   0.224   3.576   3.621 -0.7767  1.2487  0.1955
 3971SOL     OW23548   0.089   0.199  11.891  0.0487 -0.0669  0.0872
 3971SOL    HW123549   0.130   0.112  11.894 -0.2405 -0.1832  0.5686
 3971SOL    HW223550   0.000   0.176  11.865  0.2586  0.2001 -0.8692
 3972SOL     OW23551   1.805   3.638   8.556  0.0424 -0.1701  0.3087
 3972SOL    HW123552   1.852   3.561   8.527  1.3316  0.1557  1.5408
 3972SOL    HW223553   1.760   3.677   8.481  2.4537  0.9608 -0.5405
 3973SOL     OW23554   1.562   4.726   8.390  0.9735 -0.4874 -0.0619
 3973SOL    HW123555   1.603   4.667   8.327 -0.4570 -0.3018 -1.1677
 3973SOL    HW223556   1.569   4.689   8.477  3.1584  0.1429  0.0439
 3974SOL     OW23557   3.373   4.374  16.535 -0.1444 -0.1889  0.3397
 3974SOL    HW123558   3.355   4.280  16.542  1.4064 -0.5032  0.0708
 3974SOL    HW223559   3.462   4.384  16.570 -0.1553  0.7627  0.0939
 3975SOL     OW23560   1.359   3.854   5.716 -0.0667  0.2237  0.0388
 3975SOL    HW123561   1.417   3.924   5.688  0.2779 -0.0546  0.0501
 3975SOL    HW223562   1.277   3.900   5.700 -0.2899 -0.2625 -0.2195
 3976SOL     OW23563   0.968   0.518  10.494  0.4060  0.0346 -0.0161
 3976SOL    HW123564   1.026   0.457  10.448 -1.9970 -1.7222 -0.6669
 3976SOL    HW223565   1.005   0.524  10.582 -1.1642  0.7965  0.5913
 3977SOL     OW23566   4.255   1.117   3.044 -0.4013  0.1785 -0.3258
 3977SOL    HW123567   4.299   1.201   3.034 -2.6734  1.5992  1.7332
 3977SOL    HW223568   4.284   1.063   2.970 -0.4327 -2.3338  1.4797
 3978SOL     OW23569   2.707   4.102   5.201 -0.3731 -0.5513 -0.0644
 3978SOL    HW123570   2.716   4.169   5.269  0.0983 -2.3584  1.6622
 3978SOL    HW223571   2.612   4.102   5.190 -0.5029 -3.7277  1.1013
 3979SOL     OW23572   2.665   0.480  12.716  0.1229  0.1773  0.1299
 3979SOL    HW123573   2.661   0.437  12.631 -0.6621 -0.3011  0.4061
 3979SOL    HW223574   2.664   0.570  12.683  1.1340 -0.2159 -0.9608
 3980SOL     OW23575   0.781   2.666  15.757 -0.0418 -0.5277 -0.7332
 3980SOL    HW123576   0.729   2.722  15.816  0.5181  1.9281 -2.5535
 3980SOL    HW223577   0.712   2.608  15.725 -1.8729  0.3780  1.4732
 3981SOL     OW23578   0.683   2.478  12.186  0.2470 -0.0704 -0.9092
 3981SOL    HW123579   0.631   2.399  12.172  2.1760 -1.1498 -1.8409
 3981SOL    HW223580   0.756   2.468  12.125  2.0876  1.5072  1.0641
 3982SOL     OW23581   0.237   4.444   1.659  0.7754 -0.0569 -0.4626
 3982SOL    HW123582   0.159   4.433   1.604 -0.8775  0.4014  1.7672
 3982SOL    HW223583   0.203   4.419   1.745  0.9472 -0.1367 -0.4180
 3983SOL     OW23584   4.341   2.098   0.234  0.2935  0.0407 -0.3282
 3983SOL    HW123585   4.309   2.141   0.155  0.4842 -0.0644 -0.4627
 3983SOL    HW223586   4.366   2.164   0.299 -0.6509 -1.3037  1.3937
 3984SOL     OW23587   4.641   2.118   2.111 -0.3530  0.7075 -0.1418
 3984SOL    HW123588   4.709   2.176   2.076 -0.4842  2.6558  2.7979
 3984SOL    HW223589   4.673   2.111   2.201 -0.6282 -1.6300 -0.2370
 3985SOL     OW23590   2.446   1.520   5.361  0.6777 -0.7174 -0.3722
 3985SOL    HW123591   2.530   1.537   5.319  0.3017 -0.2392 -0.9287
 3985SOL    HW223592   2.399   1.481   5.287 -0.2296  1.2020 -0.8194
 3986SOL     OW23593   1.925   2.930  14.248  0.2533  0.2469 -0.5876
 3986SOL    HW123594   1.920   2.938  14.343  0.2901 -2.1703 -0.4014
 3986SOL    HW223595   1.837   2.901  14.224  0.8570 -1.0371 -1.2166
 3987SOL     OW23596   4.265   2.913  12.624  0.0483  0.1511 -0.1457
 3987SOL    HW123597   4.281   2.910  12.718  0.4257 -1.0108 -0.2465
 3987SOL    HW223598   4.207   2.989  12.619 -2.5121 -1.8047  0.0796
 3988SOL     OW23599   2.435   4.102  12.007  0.5338 -0.0788  0.4168
 3988SOL    HW123600   2.406   4.159  11.935  1.9980 -1.6499 -1.4086
 3988SOL    HW223601   2.424   4.167  12.076  2.9845  0.8166 -0.0449
 3989SOL     OW23602   2.634   0.758  11.924 -0.2972  0.4202 -1.2034
 3989SOL    HW123603   2.647   0.802  11.840  0.3665  0.4229 -1.0976
 3989SOL    HW223604   2.651   0.824  11.991  0.1112 -0.5027 -0.4001
 3990SOL     OW23605   4.626   4.478   8.048  0.3272 -0.3115 -0.1674
 3990SOL    HW123606   4.590   4.391   8.063 -2.8564  0.8037 -1.2177
 3990SOL    HW223607   4.717   4.453   8.039  0.7158  0.8026  0.6456
 3991SOL     OW23608   0.681   4.648   7.044 -0.2008  0.1467 -0.3842
 3991SOL    HW123609   0.604   4.600   7.012  0.7685 -2.1391  0.7140
 3991SOL    HW223610   0.738   4.631   6.969  1.0672  2.2752  0.1092
 3992SOL     OW23611   4.535   2.682  10.271  0.7028 -0.4824  0.1540
 3992SOL    HW123612   4.608   2.742  10.254  0.8522 -0.5482  0.5493
 3992SOL    HW223613   4.542   2.680  10.367 -2.0416  0.9483  0.3947
 3993SOL     OW23614   0.282   3.056  14.180 -0.1700 -0.0617  0.0109
 3993SOL    HW123615   0.326   3.085  14.259  0.2249  0.6708 -0.4796
 3993SOL    HW223616   0.236   2.985  14.226  0.8951 -2.0524 -2.0148
 3994SOL     OW23617   4.194   2.819   6.977 -0.1007 -0.2566 -0.2292
 3994SOL    HW123618   4.264   2.873   7.015 -1.0827  2.1973 -1.9060
 3994SOL    HW223619   4.220   2.730   6.999 -2.0910 -0.6764  0.3470
 3995SOL     OW23620   3.773   1.232   0.749  0.3298 -0.3990 -0.0615
 3995SOL    HW123621   3.691   1.209   0.705  1.5012 -2.9627 -0.9363
 3995SOL    HW223622   3.835   1.208   0.679 -1.3684 -3.2494 -0.5965
 3996SOL     OW23623   3.091   3.928   9.973 -0.4950  0.4131  0.1513
 3996SOL    HW123624   3.087   3.972   9.887 -0.1998  1.8228  0.8507
 3996SOL    HW223625   3.010   3.956  10.016 -0.9678  1.6890 -1.5490
 3997SOL     OW23626   2.770   0.087  15.759  0.2600 -0.0867 -0.0935
 3997SOL    HW123627   2.678   0.093  15.734  0.4439  0.6161 -0.6172
 3997SOL    HW223628   2.768   0.030  15.835  0.7413 -3.2659 -2.4775
 3998SOL     OW23629   1.287   4.123   8.355 -0.4786 -0.5624 -0.3184
 3998SOL    HW123630   1.230   4.139   8.430  0.5185  1.6609 -0.0516
 3998SOL    HW223631   1.219   4.138   8.290  0.3377 -1.7985 -1.4735
 3999SOL     OW23632   4.524   3.790   8.277 -0.6171 -0.4559  0.0435
 3999SOL    HW123633   4.536   3.737   8.355 -2.1277 -0.6994  0.1180
 3999SOL    HW223634   4.477   3.736   8.214 -0.1015 -3.0321  1.8928
 4000SOL     OW23635   3.354   2.680   2.713 -0.0459 -0.2171  0.0823
 4000SOL    HW123636   3.268   2.713   2.688 -0.1193 -1.0073 -0.6941
 4000SOL    HW223637   3.344   2.609   2.777  0.1963  1.3892  1.8939
 4001SOL     OW23638   1.344   2.561   9.679 -0.4658  0.0345 -0.5339
 4001SOL    HW123639   1.305   2.502   9.614 -0.6114  1.9978 -2.2019
 4001SOL    HW223640   1.436   2.538   9.660  0.0084 -0.0474  1.8991
 4002SOL     OW23641   1.296   2.418  13.084  0.6323 -0.2295  0.5837
 4002SOL    HW123642   1.220   2.382  13.039  0.0702  0.4908  0.9570
 4002SOL    HW223643   1.275   2.505  13.118 -0.9356 -0.2208 -0.4376
 4003SOL     OW23644   0.898   4.207   1.321  0.0624  0.0358  0.0523
 4003SOL    HW123645   0.935   4.175   1.239 -2.3000 -0.8301 -0.6671
 4003SOL    HW223646   0.974   4.254   1.356  0.3899  0.6197 -1.4736
 4004SOL     OW23647   2.638   2.732   8.941  0.2885 -0.0965 -0.0958
 4004SOL    HW123648   2.718   2.770   8.977 -0.7863  1.9902  0.0711
 4004SOL    HW223649   2.664   2.639   8.941  1.5849  0.2692 -0.5906
 4005SOL     OW23650   4.426   3.877   8.008  1.0188  0.6323  0.3513
 4005SOL    HW123651   4.356   3.812   8.019  1.4287  0.2084  0.4878
 4005SOL    HW223652   4.401   3.944   8.071  0.3821  2.2376 -1.6463
 4006SOL     OW23653   1.358   1.606  10.857 -0.6150 -0.1941 -0.2793
 4006SOL    HW123654   1.411   1.632  10.781 -2.0528  0.1864 -1.1416
 4006SOL    HW223655   1.385   1.673  10.920 -2.2802  1.1261 -0.9590
 4007SOL     OW23656   3.524   1.813   0.709 -0.1208 -0.5958 -0.2240
 4007SOL    HW123657   3.567   1.898   0.694 -3.1890  1.0794  0.5348
 4007SOL    HW223658   3.547   1.760   0.632  1.2733  0.7007 -0.7038
 4008SOL     OW23659   2.159   1.746   2.820  0.0050 -0.1765  0.1281
 4008SOL    HW123660   2.122   1.775   2.737 -1.1438 -1.4691  0.1864
 4008SOL    HW223661   2.083   1.757   2.878 -0.6610  0.9307 -0.9497
 4009SOL     OW23662   4.218   2.087   4.370 -0.3714 -0.4952 -0.3590
 4009SOL    HW123663   4.235   2.063   4.279  1.8618 -1.8916  0.4366
 4009SOL    HW223664   4.211   2.000   4.409  0.8480 -1.2296 -1.8202
 4010SOL     OW23665   1.775   1.572   2.833 -0.1375 -0.0214  0.0513
 4010SOL    HW123666   1.776   1.479   2.813  0.9516 -0.0598  0.2916
 4010SOL    HW223667   1.687   1.575   2.871 -0.4506 -2.0941 -0.5241
 4011SOL     OW23668   2.058   2.052   4.489 -0.6026 -0.9417  0.5191
 4011SOL    HW123669   2.041   2.143   4.513  0.3204  0.3388 -3.6506
 4011SOL    HW223670   2.122   2.060   4.417 -1.4857 -1.8197 -0.3566
 4012SOL     OW23671   2.552   3.815   0.885 -0.7251  0.2744  0.2370
 4012SOL    HW123672   2.604   3.739   0.911  2.1877  1.9258 -0.7582
 4012SOL    HW223673   2.574   3.860   0.967 -1.4053  0.9200  0.0612
 4013SOL     OW23674   1.177   2.155   9.875 -0.3226  0.4416 -0.3933
 4013SOL    HW123675   1.186   2.155   9.971  1.1853  1.7603 -0.5514
 4013SOL    HW223676   1.264   2.150   9.837  0.3496 -0.7970  1.2794
 4014SOL     OW23677   0.245   2.190   4.361 -0.7728  0.0013 -0.0238
 4014SOL    HW123678   0.205   2.128   4.300  0.5262  0.0613 -0.9345
 4014SOL    HW223679   0.189   2.179   4.438 -1.0583  0.1770 -0.2044
 4015SOL     OW23680   1.121   0.390   3.403  0.0432 -0.0617 -0.1671
 4015SOL    HW123681   1.059   0.420   3.470  0.5716 -1.5446  0.9975
 4015SOL    HW223682   1.139   0.301   3.435  0.0257  0.4434  1.2799
 4016SOL     OW23683   3.142   2.497   5.594 -0.3692  0.0570  0.2990
 4016SOL    HW123684   3.064   2.442   5.600 -0.5373 -0.0544 -2.5825
 4016SOL    HW223685   3.205   2.445   5.543  0.3944 -1.4367  2.7825
 4017SOL     OW23686   0.443   4.598   3.666  0.0343  0.0917 -0.3136
 4017SOL    HW123687   0.535   4.619   3.676 -0.2680  1.1558  0.2001
 4017SOL    HW223688   0.435   4.561   3.578  1.7055  0.2466 -0.5247
 4018SOL     OW23689   1.517   1.858   0.563 -0.2299 -0.1829 -0.0440
 4018SOL    HW123690   1.440   1.914   0.573 -0.7277 -0.6699 -1.1137
 4018SOL    HW223691   1.586   1.924   0.571 -0.5581  0.0416  0.9347
 4019SOL     OW23692   3.621   2.244   4.577  0.3487 -0.3018 -0.1066
 4019SOL    HW123693   3.611   2.157   4.539 -0.1645 -0.3010  0.0288
 4019SOL    HW223694   3.636   2.226   4.670  0.1912  3.2572  0.6312
 4020SOL     OW23695   3.336   0.257   8.234 -0.2169 -0.1227 -0.5414
 4020SOL    HW123696   3.342   0.245   8.329  1.1726  0.1648 -0.5936
 4020SOL    HW223697   3.428   0.259   8.206 -0.9529 -0.6963 -3.0016
 4021SOL     OW23698   4.049   3.086   5.627 -0.4510  0.6479 -0.2138
 4021SOL    HW123699   3.972   3.141   5.613 -0.7747  0.5359  1.1030
 4021SOL    HW223700   4.052   3.090   5.723 -0.9386  0.7375 -0.2028
 4022SOL     OW23701   0.881   0.450   8.786 -0.1283  0.3447 -0.0348
 4022SOL    HW123702   0.890   0.529   8.840  1.8740 -0.4770  0.8459
 4022SOL    HW223703   0.882   0.389   8.860 -1.2718 -0.8551 -1.0085
 4023SOL     OW23704   3.064   3.730  11.774 -0.0900 -0.1586  0.3550
 4023SOL    HW123705   3.117   3.653  11.755  0.4816  0.6898 -1.4743
 4023SOL    HW223706   3.125   3.781  11.828  0.5768 -1.2405  0.6184
 4024SOL     OW23707   2.373   3.000   9.587  0.4114 -0.5203  0.1438
 4024SOL    HW123708   2.417   3.072   9.632  1.4903 -0.1332 -1.5154
 4024SOL    HW223709   2.359   3.051   9.507 -3.2595 -3.2963 -0.9974
 4025SOL     OW23710   1.586   2.257   7.230 -0.0971 -0.0381 -0.2664
 4025SOL    HW123711   1.591   2.183   7.169 -0.5849 -0.0881 -0.2418
 4025SOL    HW223712   1.567   2.327   7.167  0.5084 -0.2709 -0.7096
 4026SOL     OW23713   3.487   3.016   5.794 -0.1328  0.5384 -0.1569
 4026SOL    HW123714   3.536   3.015   5.876  1.7669  1.1904 -1.2802
 4026SOL    HW223715   3.420   2.952   5.818 -1.4834  2.3032  0.7943
 4027SOL     OW23716   2.642   3.856   0.649  0.1702 -0.8226 -0.2400
 4027SOL    HW123717   2.585   3.839   0.724  0.7809  3.3321  1.1687
 4027SOL    HW223718   2.720   3.893   0.690 -0.2154 -0.5418  0.2374
 4028SOL     OW23719   3.388   1.341   8.693  0.1123 -0.1527  0.3491
 4028SOL    HW123720   3.343   1.329   8.610 -1.2030 -1.5058  1.2434
 4028SOL    HW223721   3.335   1.407   8.737  0.6048  0.9979 -0.7979
 4029SOL     OW23722   2.933   4.650  10.970 -0.2897  0.0398  0.6062
 4029SOL    HW123723   3.011   4.645  11.026 -0.4860 -2.3761  0.6334
 4029SOL    HW223724   2.859   4.657  11.030 -0.9615  0.3627 -0.2645
 4030SOL     OW23725   2.607   2.111   3.063  0.5781 -0.2162  0.3424
 4030SOL    HW123726   2.588   2.029   3.109 -0.3082 -0.2426 -0.0570
 4030SOL    HW223727   2.600   2.177   3.131  0.6113  0.2349 -0.0905
 4031SOL     OW23728   4.277   4.675  10.961 -0.1499 -0.0986 -0.0096
 4031SOL    HW123729   4.347   4.730  10.998 -2.0323  1.8228  0.7160
 4031SOL    HW223730   4.316   4.589  10.946  0.7282  0.1458  0.8318
 4032SOL     OW23731   3.723   2.310  10.317  0.3346  0.6040 -0.3648
 4032SOL    HW123732   3.642   2.361  10.321 -0.5422 -0.7928 -0.4723
 4032SOL    HW223733   3.783   2.383  10.299 -0.0917  1.5955  2.2315
 4033SOL     OW23734   1.378   3.484   7.279 -0.0577 -0.1800 -0.3474
 4033SOL    HW123735   1.393   3.397   7.315  0.6681  0.6217  1.2806
 4033SOL    HW223736   1.340   3.523   7.357 -1.5403 -1.4698 -0.4236
 4034SOL     OW23737   2.104   0.611  14.381 -0.2142  0.0220 -0.0934
 4034SOL    HW123738   2.028   0.656  14.342 -0.4544 -0.1031  0.2286
 4034SOL    HW223739   2.177   0.629  14.322 -0.3550 -3.6600 -1.3492
 4035SOL     OW23740   2.530   4.706   8.283  0.2058 -0.1592 -0.4814
 4035SOL    HW123741   2.482   4.736   8.206 -0.2562 -0.8073 -0.4450
 4035SOL    HW223742   2.567   4.620   8.260 -1.4447 -1.9610  3.6392
 4036SOL     OW23743   1.819   4.056   9.103  0.2669  0.3608 -0.4772
 4036SOL    HW123744   1.733   4.029   9.070  0.1556  0.3710 -0.2031
 4036SOL    HW223745   1.851   3.977   9.147  0.2223  1.1993  1.0609
 4037SOL     OW23746   0.843   0.572   4.359 -0.0513  0.4343 -0.2893
 4037SOL    HW123747   0.773   0.579   4.294  0.3855 -0.8912 -0.8905
 4037SOL    HW223748   0.920   0.604   4.311 -0.4594  2.5544  0.4640
 4038SOL     OW23749   3.437   4.106  11.890  0.5745  0.0062  0.0838
 4038SOL    HW123750   3.417   4.142  11.804 -2.4831 -0.4398  0.5850
 4038SOL    HW223751   3.392   4.175  11.939  0.4069  0.7563 -1.1293
 4039SOL     OW23752   3.940   1.791   6.722  0.0655 -0.2783 -0.0350
 4039SOL    HW123753   3.974   1.836   6.645 -1.9176 -1.7438 -1.7549
 4039SOL    HW223754   3.920   1.700   6.699 -1.0242  0.0963 -0.5648
 4040SOL     OW23755   4.415   3.149  13.193  0.0603  0.2105 -0.2663
 4040SOL    HW123756   4.511   3.143  13.192 -0.0684 -2.0882  0.7399
 4040SOL    HW223757   4.401   3.172  13.285 -0.9551  0.4693 -0.4923
 4041SOL     OW23758   2.214   2.523   0.744 -0.2577  0.0316 -0.6409
 4041SOL    HW123759   2.233   2.582   0.671  4.0910  1.2484  1.4511
 4041SOL    HW223760   2.125   2.491   0.733 -1.2419  2.8496 -0.7580
 4042SOL     OW23761   1.372   2.259   3.093  0.1942  0.3805  0.2345
 4042SOL    HW123762   1.297   2.250   3.034  0.1724 -1.1689  0.4940
 4042SOL    HW223763   1.439   2.277   3.027 -1.1116 -0.1413 -1.2384
 4043SOL     OW23764   1.678   0.156   2.024  0.1421 -0.1039  0.1560
 4043SOL    HW123765   1.689   0.063   2.045 -1.3043 -0.2652  0.2367
 4043SOL    HW223766   1.583   0.159   2.037  0.0948  1.3791 -0.5628
 4044SOL     OW23767   4.565   4.253   4.273 -0.5149  0.3253  0.1903
 4044SOL    HW123768   4.615   4.193   4.217 -0.1720  1.6497 -0.9208
 4044SOL    HW223769   4.496   4.192   4.300 -1.0491  0.5956 -0.5601
 4045SOL     OW23770   1.998   0.001   4.094 -0.3226  0.0342  0.1931
 4045SOL    HW123771   2.000   4.712   4.186  0.6004  1.2048  0.4893
 4045SOL    HW223772   2.047   4.666   4.053 -0.4755  0.3478 -0.5329
 4046SOL     OW23773   1.040   1.871   3.411  0.2103 -0.6036 -0.0654
 4046SOL    HW123774   0.976   1.920   3.463  0.6653 -0.1342  0.0549
 4046SOL    HW223775   1.039   1.780   3.440 -1.6690  0.4808  3.3609
 4047SOL     OW23776   4.146   2.416   1.530  0.1699 -0.2690  0.1799
 4047SOL    HW123777   4.124   2.403   1.438 -1.5127  3.1896  0.0866
 4047SOL    HW223778   4.146   2.324   1.558  0.5927 -0.3913 -0.2229
 4048SOL     OW23779   4.612   4.682  10.200  0.1053  0.0151 -0.5041
 4048SOL    HW123780   4.616   4.618  10.129 -1.0706  0.2565 -0.7958
 4048SOL    HW223781   4.523   4.666  10.232  0.7476 -0.6873  0.9399
 4049SOL     OW23782   1.620   0.134  12.607 -0.3575 -0.2839 -0.2082
 4049SOL    HW123783   1.672   0.141  12.687 -3.0146 -2.1513  1.6934
 4049SOL    HW223784   1.613   0.224  12.574  1.6853 -0.3430 -0.8130
 4050SOL     OW23785   1.809   0.365   2.733  0.5349 -0.2162 -0.2528
 4050SOL    HW123786   1.854   0.376   2.649  0.0839 -1.1711 -0.6148
 4050SOL    HW223787   1.732   0.315   2.706 -0.5688 -0.4407  3.3268
 4051SOL     OW23788   2.082   4.681   4.584  0.2299  0.2814  0.1850
 4051SOL    HW123789   2.104   4.592   4.557  0.0920  0.4385 -0.4656
 4051SOL    HW223790   2.103   4.669   4.676 -0.9104 -2.2819  0.0840
 4052SOL     OW23791   2.811   2.109   7.042 -0.2483 -0.6065  0.0214
 4052SOL    HW123792   2.834   2.185   6.989 -2.3099  0.3498  0.5046
 4052SOL    HW223793   2.862   2.128   7.121 -0.9787 -0.2750  0.4121
 4053SOL     OW23794   4.673   1.475   3.850 -0.5048 -0.0253  0.0676
 4053SOL    HW123795   4.717   1.494   3.767 -1.7795 -1.3581 -0.9004
 4053SOL    HW223796   4.584   1.508   3.839 -0.9769 -1.2485  0.2869
 4054SOL     OW23797   0.683   1.166   4.983  0.2934  0.2689  0.1334
 4054SOL    HW123798   0.696   1.236   4.919 -0.0627 -0.3193 -0.5782
 4054SOL    HW223799   0.587   1.170   4.990  0.1679  0.4620 -1.6462
 4055SOL     OW23800   1.591   2.560   6.671 -0.1731 -0.0917  0.1913
 4055SOL    HW123801   1.582   2.492   6.605 -0.6831 -1.3837  1.6021
 4055SOL    HW223802   1.659   2.516   6.722  0.4169  1.5740  0.8509
 4056SOL     OW23803   0.030   1.822   1.875 -0.1342  0.0481 -0.6403
 4056SOL    HW123804   0.085   1.761   1.825  1.9139  0.2960  1.2960
 4056SOL    HW223805   0.028   1.896   1.814  0.2502  1.2154  0.7565
 4057SOL     OW23806   3.276   1.853   2.200  0.1504  0.5418 -0.3398
 4057SOL    HW123807   3.190   1.888   2.180 -1.5230 -2.2287  1.9762
 4057SOL    HW223808   3.289   1.784   2.135 -0.4980  0.5225 -0.4412
 4058SOL     OW23809   3.466   1.342   9.961  0.0287 -0.1720  0.6621
 4058SOL    HW123810   3.516   1.299   9.892  1.2354 -0.9311  2.0264
 4058SOL    HW223811   3.469   1.276  10.030 -1.2511 -0.8676  0.0412
 4059SOL     OW23812   1.015   4.085   6.926 -0.3534  0.3446 -0.2029
 4059SOL    HW123813   0.985   4.002   6.965  0.3274  1.6427  3.0813
 4059SOL    HW223814   1.022   4.140   7.004 -0.0558  0.2982 -0.1969
 4060SOL     OW23815   3.205   4.258   5.542 -0.8648  0.2344  0.2283
 4060SOL    HW123816   3.292   4.285   5.572 -0.2931  0.0451 -1.2659
 4060SOL    HW223817   3.140   4.313   5.586 -1.4264  0.2310 -0.5869
 4061SOL     OW23818   4.075   1.050   2.690  0.2786  0.7545  0.4897
 4061SOL    HW123819   4.146   1.103   2.653 -0.6432  1.6548  0.0086
 4061SOL    HW223820   4.000   1.039   2.632  1.6403  0.3527 -1.1874
 4062SOL     OW23821   3.282   3.226   8.088 -0.1859  0.7374  0.8338
 4062SOL    HW123822   3.334   3.240   8.167  1.8197 -1.2733 -0.1100
 4062SOL    HW223823   3.214   3.294   8.094 -3.1206 -2.1480 -0.0465
 4063SOL     OW23824   4.222   1.591   9.182  0.0926  0.4967 -0.2346
 4063SOL    HW123825   4.232   1.497   9.165  2.1839  0.2681  2.2133
 4063SOL    HW223826   4.274   1.594   9.263 -0.6727  4.5749  0.1102
 4064SOL     OW23827   3.418   3.981   8.436 -0.3005  0.0717 -0.2461
 4064SOL    HW123828   3.391   3.950   8.523  1.5698 -1.2315 -0.1154
 4064SOL    HW223829   3.363   3.927   8.379 -1.1282  0.1355  0.4893
 4065SOL     OW23830   2.327   0.839   2.107  0.2276  0.2116  0.0640
 4065SOL    HW123831   2.387   0.913   2.104 -1.0179  1.0733 -3.3070
 4065SOL    HW223832   2.313   0.831   2.013 -2.0892  0.2306  0.4037
 4066SOL     OW23833   0.924   2.276   8.282  0.0769 -0.3515 -0.8139
 4066SOL    HW123834   0.873   2.212   8.233  0.5541 -1.1042 -0.3202
 4066SOL    HW223835   0.961   2.201   8.328 -0.5399 -2.0129 -3.0513
 4067SOL     OW23836   0.133   3.837  16.545  0.3410 -0.4642 -0.7105
 4067SOL    HW123837   0.057   3.856  16.491 -1.9798  1.5336  3.2579
 4067SOL    HW223838   0.175   3.769  16.492  1.5481  0.2521 -0.6808
 4068SOL     OW23839   1.403   1.495   7.940  0.6299 -0.7431  0.0360
 4068SOL    HW123840   1.354   1.535   7.869  1.2737  0.9506  0.5374
 4068SOL    HW223841   1.483   1.471   7.894  1.1321 -2.0634  1.5755
 4069SOL     OW23842   3.194   1.111   3.396  0.1623  0.6210  0.2082
 4069SOL    HW123843   3.184   1.193   3.444  1.6184  1.6869 -1.3160
 4069SOL    HW223844   3.103   1.090   3.374  0.4252  0.7429 -0.9971
 4070SOL     OW23845   4.214   2.847   1.183 -0.8728 -0.0945  0.5596
 4070SOL    HW123846   4.253   2.809   1.262  0.4195 -0.5144 -0.2711
 4070SOL    HW223847   4.154   2.778   1.155  1.4067 -1.5157 -0.8259
 4071SOL     OW23848   3.505   1.769   9.197 -0.7378  0.4268  0.0392
 4071SOL    HW123849   3.457   1.745   9.277 -0.5615 -1.4860 -0.4430
 4071SOL    HW223850   3.530   1.859   9.219  1.8629  0.1204 -1.7609
 4072SOL     OW23851   1.321   2.785   0.852  0.6642  0.0157 -0.3334
 4072SOL    HW123852   1.272   2.856   0.810  0.8214 -0.3357 -1.1053
 4072SOL    HW223853   1.398   2.780   0.796  1.8670 -0.1378  1.3144
 4073SOL     OW23854   4.486   0.658  16.658  0.0393 -0.4055 -0.2475
 4073SOL    HW123855   4.530   0.667  16.573 -0.1164 -0.2406 -0.3128
 4073SOL    HW223856   4.539   0.710  16.719  1.3064 -0.9074 -0.9121
 4074SOL     OW23857   3.704   2.269   5.296 -0.1792 -0.0404  0.1250
 4074SOL    HW123858   3.778   2.213   5.321  0.9403  1.5466  0.3876
 4074SOL    HW223859   3.670   2.301   5.380 -1.2176 -0.7014 -0.0454
 4075SOL     OW23860   4.593   1.554  12.191 -0.4305 -0.2416  0.3771
 4075SOL    HW123861   4.681   1.580  12.164 -0.8583  1.9892  1.1286
 4075SOL    HW223862   4.588   1.605  12.272  1.4644 -4.1844  2.9745
 4076SOL     OW23863   2.438   3.015   2.693 -0.0740  0.7277 -0.4740
 4076SOL    HW123864   2.511   2.954   2.708  0.2969  1.5890  1.2327
 4076SOL    HW223865   2.367   2.955   2.716 -0.3658  1.4277  0.4382
 4077SOL     OW23866   1.623   4.036  12.941  0.4015  0.1462 -0.6094
 4077SOL    HW123867   1.586   4.125  12.939  0.1737  0.0600 -0.1829
 4077SOL    HW223868   1.706   4.061  12.899  0.0237  0.7264 -1.0129
 4078SOL     OW23869   2.776   4.205  16.067  0.3291  1.0263  0.4385
 4078SOL    HW123870   2.773   4.132  16.128 -1.5762 -1.1299 -2.2347
 4078SOL    HW223871   2.699   4.193  16.012 -0.2676  1.0201  1.2768
 4079SOL     OW23872   1.563   2.886   9.195 -0.5437  0.4610 -0.2282
 4079SOL    HW123873   1.648   2.898   9.153 -0.1069  3.0114  1.3398
 4079SOL    HW223874   1.573   2.802   9.240  1.4961  0.4068 -0.7541
 4080SOL     OW23875   4.689   4.686   7.229 -0.0365 -0.3066  0.0350
 4080SOL    HW123876   4.642   4.723   7.304  1.0778 -0.7431  0.9456
 4080SOL    HW223877   0.001   4.618   7.277  3.5148  1.0619 -1.6163
 4081SOL     OW23878   1.100   0.812   4.896 -0.1861  0.2870  0.2088
 4081SOL    HW123879   1.046   0.784   4.971 -1.0708 -0.1824 -0.6088
 4081SOL    HW223880   1.104   0.742   4.831  1.3953 -1.1627  1.8464
 4082SOL     OW23881   4.555   4.733   2.087 -0.1528  0.1524 -0.4249
 4082SOL    HW123882   4.598   0.060   2.144 -0.9491 -0.2048  0.5822
 4082SOL    HW223883   4.509   4.668   2.141  0.5591 -1.1549 -1.3803
 4083SOL     OW23884   0.470   4.525   1.923 -0.2282 -0.0497  0.3930
 4083SOL    HW123885   0.406   4.594   1.904  0.6789  1.2272  1.9794
 4083SOL    HW223886   0.415   4.448   1.937  1.0486 -1.1467 -0.7050
 4084SOL     OW23887   4.487   2.809   4.087 -0.2257  0.2734 -0.1060
 4084SOL    HW123888   4.397   2.778   4.080 -1.0730  3.0308 -1.4444
 4084SOL    HW223889   4.532   2.786   4.005  1.1342 -0.3192  0.8183
 4085SOL     OW23890   2.659   1.509   3.122 -0.1764 -0.3158  0.0821
 4085SOL    HW123891   2.597   1.501   3.049  0.4448  1.3849 -0.6417
 4085SOL    HW223892   2.640   1.596   3.154 -1.1239 -1.1231  1.6678
 4086SOL     OW23893   0.469   0.584  13.968 -0.4114 -0.5420 -0.8352
 4086SOL    HW123894   0.412   0.508  13.980 -1.6921  0.6107  0.2566
 4086SOL    HW223895   0.529   0.537  13.909 -0.0639 -0.7916 -0.2771
 4087SOL     OW23896   3.579   0.202   8.670  0.2028  0.6540  0.0892
 4087SOL    HW123897   3.648   0.165   8.726 -0.7859  1.5030  1.8366
 4087SOL    HW223898   3.537   0.260   8.733  0.6890 -0.3781  1.3634
 4088SOL     OW23899   3.256   0.206   3.836 -0.0709 -0.1313  0.3764
 4088SOL    HW123900   3.274   0.291   3.795  0.5147  0.2916  1.4975
 4088SOL    HW223901   3.236   0.157   3.756 -2.7810  0.7638  0.5061
 4089SOL     OW23902   0.494   3.291   4.611  0.0626 -0.3597 -1.2996
 4089SOL    HW123903   0.514   3.208   4.569  0.8280 -0.3303 -0.9998
 4089SOL    HW223904   0.573   3.315   4.661  0.3748 -2.5283 -0.7382
 4090SOL     OW23905   4.562   1.168   2.861 -0.1339 -0.0718 -0.3152
 4090SOL    HW123906   4.481   1.131   2.826  0.5297 -0.5144 -1.3697
 4090SOL    HW223907   4.617   1.162   2.783  0.1721 -2.2458  0.0635
 4091SOL     OW23908   0.798   3.826   1.466  0.4248  0.4737  0.0581
 4091SOL    HW123909   0.893   3.841   1.463  0.5155  0.1707  1.3165
 4091SOL    HW223910   0.787   3.735   1.494 -0.5921  0.5159 -0.1932
 4092SOL     OW23911   0.008   2.365   6.196  0.3559  0.8373  0.3402
 4092SOL    HW123912   4.731   2.326   6.283  0.8647  1.3525  0.6544
 4092SOL    HW223913   4.655   2.390   6.174  0.4195 -1.1232 -2.1174
 4093SOL     OW23914   0.261   3.537   6.667  0.5235  0.4945 -0.3632
 4093SOL    HW123915   0.181   3.514   6.620  1.8945 -2.2639 -1.3801
 4093SOL    HW223916   0.240   3.629   6.679  0.0022  0.4678 -1.0736
 4094SOL     OW23917   3.079   2.802   9.438 -0.0532  0.4704 -0.0230
 4094SOL    HW123918   3.105   2.788   9.529 -2.2218  0.0196  0.5462
 4094SOL    HW223919   3.169   2.812   9.410  0.0933 -1.9178 -0.3600
 4095SOL     OW23920   4.501   2.290   0.407 -0.2604  0.3785  0.1903
 4095SOL    HW123921   4.591   2.318   0.419 -0.7905  2.4073 -0.5345
 4095SOL    HW223922   4.520   2.199   0.427 -0.0845 -0.0550 -2.0224
 4096SOL     OW23923   1.351   3.643   6.158  0.3539 -0.1373 -0.2799
 4096SOL    HW123924   1.425   3.699   6.136 -0.0133 -0.3836 -2.1526
 4096SOL    HW223925   1.282   3.708   6.143  0.8164  0.9153  2.1549
 4097SOL     OW23926   2.151   2.134   7.733 -0.9920  0.3058  0.4217
 4097SOL    HW123927   2.236   2.179   7.728 -0.9704  0.1062 -0.8486
 4097SOL    HW223928   2.093   2.196   7.689 -1.0568  1.1335  1.6538
 4098SOL     OW23929   1.610   4.114   8.528 -0.1626  0.5295  0.3183
 4098SOL    HW123930   1.531   4.088   8.574  0.5996  0.3260  1.5034
 4098SOL    HW223931   1.664   4.112   8.607 -0.4457  0.1203  0.4992
 4099SOL     OW23932   1.754   1.406  14.760 -0.0547  0.1728  0.5283
 4099SOL    HW123933   1.768   1.312  14.748 -0.8069  0.4499 -2.4108
 4099SOL    HW223934   1.663   1.411  14.731 -0.0099 -2.6100 -0.0675
 4100SOL     OW23935   3.767   0.006   4.583  0.0006 -0.1050 -0.3452
 4100SOL    HW123936   3.675   4.726   4.603  0.1741  1.2174  1.4893
 4100SOL    HW223937   3.805   4.663   4.620  0.2048  0.1615  0.0249
 4101SOL     OW23938   0.772   0.635   0.799  0.1200 -0.0539  0.2257
 4101SOL    HW123939   0.734   0.621   0.712  0.8864  1.2886 -0.3300
 4101SOL    HW223940   0.840   0.695   0.767  0.3520 -0.9254 -0.9162
 4102SOL     OW23941   4.650   0.850   0.032 -0.2842  0.6345 -0.0186
 4102SOL    HW123942   4.645   0.866   0.126 -0.9212  0.5285 -0.0329
 4102SOL    HW223943   4.705   0.920  17.741  0.8420  0.6487  1.8368
 4103SOL     OW23944   3.887   4.067   9.562  0.0439  0.2472  0.0732
 4103SOL    HW123945   3.931   3.982   9.571 -0.3200  0.2797  2.3558
 4103SOL    HW223946   3.819   4.065   9.630  2.0128 -0.9613  2.0073
 4104SOL     OW23947   1.728   4.397   3.421 -0.7263  0.2570  0.5932
 4104SOL    HW123948   1.673   4.323   3.445  1.2091 -0.8549  1.6171
 4104SOL    HW223949   1.673   4.458   3.372 -1.2078  0.4820  1.4144
 4105SOL     OW23950   4.369   3.883   5.913 -0.2122  0.1127 -1.1930
 4105SOL    HW123951   4.334   3.849   5.995 -1.8457  2.1338 -1.0611
 4105SOL    HW223952   4.422   3.956   5.946  1.4218 -1.1270 -1.0329
 4106SOL     OW23953   4.042   3.616   9.862 -0.3990 -0.2677 -0.4257
 4106SOL    HW123954   4.136   3.602   9.874 -0.2980 -0.8665 -1.8498
 4106SOL    HW223955   4.027   3.529   9.825  0.2335 -1.3721  1.9081
 4107SOL     OW23956   0.243   3.731   7.259  0.3242  0.2346 -0.1993
 4107SOL    HW123957   0.274   3.647   7.226 -0.1739  0.2340 -0.6506
 4107SOL    HW223958   0.181   3.754   7.191 -0.8588  0.5522  0.9895
 4108SOL     OW23959   2.226   3.018   9.104  0.3325  0.0170 -0.6145
 4108SOL    HW123960   2.140   3.002   9.065 -0.4939  0.2438  1.1012
 4108SOL    HW223961   2.287   3.045   9.036  0.5319  1.2075  0.0475
 4109SOL     OW23962   4.620   1.597   4.356 -0.3900 -0.4290  0.5454
 4109SOL    HW123963   4.624   1.502   4.342  2.2846 -0.4662  1.4807
 4109SOL    HW223964   4.661   1.597   4.442  3.2962 -1.9728 -1.1850
 4110SOL     OW23965   2.310   0.842   2.758 -0.4675  0.0407  0.2068
 4110SOL    HW123966   2.281   0.879   2.841 -1.2787  1.1075 -0.5462
 4110SOL    HW223967   2.259   0.898   2.699  3.7584  1.2809 -2.2827
 4111SOL     OW23968   1.733   2.142  10.948 -0.4580  0.0769  0.1014
 4111SOL    HW123969   1.792   2.212  10.976 -0.9693  0.5351  0.0511
 4111SOL    HW223970   1.793   2.069  10.937  0.1818  0.3072  2.0733
 4112SOL     OW23971   4.152   1.558   1.097  0.1885 -0.0148 -0.4280
 4112SOL    HW123972   4.235   1.516   1.076  0.4916 -0.0689  0.8407
 4112SOL    HW223973   4.175   1.651   1.091 -0.5650  0.0920 -1.6701
 4113SOL     OW23974   1.074   2.790   7.316  0.4786 -0.2297 -0.1359
 4113SOL    HW123975   1.031   2.813   7.234  0.0307  1.4598  0.5775
 4113SOL    HW223976   1.080   2.874   7.362 -0.4503  0.1456 -0.7152
 4114SOL     OW23977   0.974   0.315  12.220  0.1235 -0.0666  0.5359
 4114SOL    HW123978   0.972   0.313  12.316  1.9928  0.6888  0.5937
 4114SOL    HW223979   0.880   0.300  12.209  0.2280 -1.6270  1.7650
 4115SOL     OW23980   3.603   1.871   9.614  0.4033 -0.0455 -0.1791
 4115SOL    HW123981   3.663   1.946   9.608 -0.6342  0.7440 -0.6576
 4115SOL    HW223982   3.634   1.819   9.688 -0.2957  2.3954  1.8195
 4116SOL     OW23983   3.448   0.345   4.090 -0.2616 -0.1247  0.5674
 4116SOL    HW123984   3.406   0.260   4.104  0.0820  0.2138  3.6010
 4116SOL    HW223985   3.537   0.315   4.070 -0.2972  1.4698 -2.0479
 4117SOL     OW23986   4.318   0.542   2.948  0.1659 -0.0501  0.0067
 4117SOL    HW123987   4.329   0.483   3.022  0.6692  0.9856  0.7517
 4117SOL    HW223988   4.294   0.491   2.870  0.7402 -0.6893  0.2402
 4118SOL     OW23989   1.125   1.713   7.328 -0.5765  0.1434  0.4537
 4118SOL    HW123990   1.193   1.658   7.367 -0.6955  0.0873  0.5845
 4118SOL    HW223991   1.107   1.778   7.396 -1.1704 -0.1464  0.5733
 4119SOL     OW23992   3.080   4.550   6.486 -0.1578  0.5134 -0.6025
 4119SOL    HW123993   3.024   4.476   6.462  1.0306 -0.7800  0.6058
 4119SOL    HW223994   3.034   4.591   6.560  1.9188  1.5407  0.1048
 4120SOL     OW23995   3.150   1.899   1.645  0.0806 -0.2661  0.3944
 4120SOL    HW123996   3.114   1.907   1.734 -0.5245  0.1211  0.1173
 4120SOL    HW223997   3.114   1.976   1.602  1.8923  0.9029  0.9673
 4121SOL     OW23998   0.374   0.463  17.174  0.0222 -0.0376 -0.4064
 4121SOL    HW123999   0.432   0.539  17.174  0.1686 -0.1545  0.4590
 4121SOL    HW224000   0.429   0.415  17.111 -2.9479 -0.6858 -2.5216
 4122SOL     OW24001   1.558   1.739   9.386  0.6848  0.7174  0.2957
 4122SOL    HW124002   1.602   1.781   9.459  0.7862  0.6517  0.2731
 4122SOL    HW224003   1.621   1.671   9.358  1.1403  1.3311 -0.1714
 4123SOL     OW24004   0.290   2.726  15.974 -0.0016  0.0503  0.7729
 4123SOL    HW124005   0.278   2.815  15.940  1.0493 -0.2327 -0.3254
 4123SOL    HW224006   0.278   2.742  16.068 -1.1245  0.5630  0.5419
 4124SOL     OW24007   4.134   3.353   1.842  0.0073 -0.0652 -0.2117
 4124SOL    HW124008   4.181   3.350   1.925 -2.1249  0.2246  1.0120
 4124SOL    HW224009   4.121   3.260   1.824  3.1930 -0.3293 -1.1047
 4125SOL     OW24010   0.606   0.941   4.689 -0.4469  0.2201 -0.0153
 4125SOL    HW124011   0.700   0.933   4.675 -0.5183  2.2344 -1.5692
 4125SOL    HW224012   0.595   0.881   4.763 -1.5752  1.6886  0.9958
 4126SOL     OW24013   1.924   1.205   2.093  0.0683  0.3131  0.6761
 4126SOL    HW124014   1.929   1.207   1.998 -0.8160 -1.4935  0.5975
 4126SOL    HW224015   1.870   1.283   2.108 -0.7607  0.3046 -2.2298
 4127SOL     OW24016   2.762   3.762   4.594 -0.5757 -0.3422 -0.3384
 4127SOL    HW124017   2.770   3.857   4.599 -2.1713 -0.1511 -1.1178
 4127SOL    HW224018   2.786   3.742   4.503  1.2997 -0.5825  0.2194
 4128SOL     OW24019   2.935   2.766   3.257  0.0904  0.9711  0.2037
 4128SOL    HW124020   3.007   2.730   3.310  0.1445 -2.1139 -1.9475
 4128SOL    HW224021   2.966   2.855   3.240 -1.1842  0.8912 -2.4879
 4129SOL     OW24022   0.314   4.324   2.002 -0.3169 -0.1531 -0.3618
 4129SOL    HW124023   0.318   4.286   2.090  0.8048  1.1662  0.1659
 4129SOL    HW224024   0.260   4.256   1.963 -1.6994  0.5034  0.3969
 4130SOL     OW24025   1.154   4.623   2.574 -0.1192  0.2118  0.6384
 4130SOL    HW124026   1.067   4.622   2.533 -0.3579  1.2161  1.1294
 4130SOL    HW224027   1.189   4.704   2.538  0.3720  0.1275  0.9312
 4131SOL     OW24028   2.574   0.939   3.453 -0.3835  0.3077 -0.4333
 4131SOL    HW124029   2.624   1.017   3.425 -0.4121  0.8970  1.1556
 4131SOL    HW224030   2.482   0.960   3.441  0.6134  3.6603 -2.2498
 4132SOL     OW24031   2.383   3.725   6.995 -0.3730  0.3458  0.3650
 4132SOL    HW124032   2.476   3.724   7.019 -0.3812 -0.6156  0.3563
 4132SOL    HW224033   2.357   3.653   7.052 -3.0052  1.4938  0.6236
 4133SOL     OW24034   2.338   0.706  11.712  0.0827 -0.0494 -0.2542
 4133SOL    HW124035   2.314   0.757  11.635 -0.8904  0.2403  0.2385
 4133SOL    HW224036   2.419   0.667  11.680  0.6530  2.1259 -1.4801
 4134SOL     OW24037   4.329   3.369   6.447 -0.0172 -0.3820  0.3867
 4134SOL    HW124038   4.262   3.407   6.390 -2.4589 -3.3892  1.2606
 4134SOL    HW224039   4.298   3.279   6.453 -0.6727 -0.1813 -0.0065
 4135SOL     OW24040   2.013   0.807   5.000  0.2105 -0.4868  0.0602
 4135SOL    HW124041   2.071   0.817   4.925  0.8343 -1.4932  0.4066
 4135SOL    HW224042   2.077   0.817   5.071  0.9128 -1.6772 -0.3978
 4136SOL     OW24043   2.278   2.325   5.285  0.2905  0.4406  0.2193
 4136SOL    HW124044   2.361   2.306   5.328 -0.1988  0.8619  1.3241
 4136SOL    HW224045   2.222   2.326   5.362  1.8907 -0.7087  1.4142
 4137SOL     OW24046   4.704   1.931   0.722 -0.1104 -0.0673  0.4493
 4137SOL    HW124047   4.690   2.023   0.745  2.1781  0.7528 -1.4935
 4137SOL    HW224048   0.042   1.919   0.781 -1.5744  0.9774  2.5357
 4138SOL     OW24049   2.575   1.584  10.558  0.0715  0.5230 -0.1688
 4138SOL    HW124050   2.551   1.635  10.482 -1.9561 -0.4092 -0.1466
 4138SOL    HW224051   2.488   1.544  10.556 -0.5626  1.8973  0.0105
 4139SOL     OW24052   1.893   3.989   1.213 -0.0020 -0.2274 -0.8525
 4139SOL    HW124053   1.907   3.958   1.124  0.5275 -1.2059 -0.4280
 4139SOL    HW224054   1.939   4.072   1.202  1.7337 -0.4679  4.1809
 4140SOL     OW24055   0.657   2.930  14.874  0.1133 -0.2918 -0.0116
 4140SOL    HW124056   0.576   2.921  14.823  0.6372  0.0850 -0.9143
 4140SOL    HW224057   0.716   2.978  14.816 -1.3441 -0.8071 -1.9308
 4141SOL     OW24058   3.151   2.983  17.683 -0.3162  0.0922 -0.1096
 4141SOL    HW124059   3.148   2.992  17.588  0.4046  1.3701 -0.0090
 4141SOL    HW224060   3.111   3.065  17.713 -0.0158 -0.1546  0.9782
 4142SOL     OW24061   4.542   3.983  15.602  0.2690 -0.0078 -0.4580
 4142SOL    HW124062   4.509   3.914  15.545 -1.7065 -0.5293  1.3270
 4142SOL    HW224063   4.460   4.018  15.638  1.3702  1.5123  0.5654
 4143SOL     OW24064   4.569   0.432   7.352 -0.0518 -0.2317  0.5691
 4143SOL    HW124065   4.627   0.373   7.305  0.2974  1.8748 -1.6582
 4143SOL    HW224066   4.631   0.499   7.383 -1.6569  0.3036  2.6924
 4144SOL     OW24067   1.868   4.025   2.081  0.1534  0.2370 -0.1881
 4144SOL    HW124068   1.796   4.010   2.143 -0.5632 -0.3708 -1.1557
 4144SOL    HW224069   1.851   4.112   2.045  0.6893  1.6810  3.0368
 4145SOL     OW24070   2.820   3.787  11.690 -0.1854  0.4728  0.3881
 4145SOL    HW124071   2.914   3.769  11.682  0.2150  3.0975 -0.6381
 4145SOL    HW224072   2.812   3.768  11.784 -1.6027  1.9098  0.5687
 4146SOL     OW24073   3.272   2.699  12.856  0.0132 -0.7758 -0.2114
 4146SOL    HW124074   3.236   2.654  12.932  0.6875 -0.7695  0.1050
 4146SOL    HW224075   3.201   2.702  12.791 -0.4409  0.4405  0.3453
 4147SOL     OW24076   4.132   0.636   3.144 -0.2707 -0.5723 -0.3912
 4147SOL    HW124077   4.195   0.622   3.073  1.1838 -0.8345  0.9417
 4147SOL    HW224078   4.146   0.727   3.172 -0.8283 -0.1801 -1.3875
 4148SOL     OW24079   2.492   3.478   6.582 -0.2639 -0.9445  0.1385
 4148SOL    HW124080   2.453   3.491   6.669 -0.2460 -0.1026  0.0186
 4148SOL    HW224081   2.520   3.564   6.550  0.0678 -1.4175 -0.8465
 4149SOL     OW24082   3.198   1.088   4.036 -0.3516  0.2255 -0.4389
 4149SOL    HW124083   3.118   1.105   3.988  0.7061 -0.4729 -2.4673
 4149SOL    HW224084   3.256   1.158   4.005  2.9747 -2.3195 -0.0228
 4150SOL     OW24085   3.490   2.638   4.553 -0.2783  0.1583 -0.0639
 4150SOL    HW124086   3.556   2.691   4.509  0.6366  0.6217  1.8232
 4150SOL    HW224087   3.446   2.702   4.609 -0.5020 -0.3158  0.2996
 4151SOL     OW24088   0.088   0.087   5.077  0.4186  0.0061 -0.5742
 4151SOL    HW124089   0.042   0.119   4.999 -1.2289  0.4302  0.5706
 4151SOL    HW224090   0.015   0.045   5.122  2.0413 -0.8268  1.2679
 4152SOL     OW24091   3.142   2.023   9.664  0.1524 -0.4369  0.0571
 4152SOL    HW124092   3.102   2.101   9.703  0.9337  0.3099 -0.6475
 4152SOL    HW224093   3.231   2.046   9.638 -1.0561  0.1638 -3.6169
 4153SOL     OW24094   2.662   3.337   8.863  0.3343 -0.1264 -0.3316
 4153SOL    HW124095   2.733   3.399   8.881 -0.4683  1.0078 -1.0835
 4153SOL    HW224096   2.628   3.365   8.778  0.1911 -0.6705 -0.4540
 4154SOL     OW24097   2.561   0.711   8.376  0.2044 -0.1202 -0.1732
 4154SOL    HW124098   2.555   0.803   8.403  0.8928 -0.2787  0.5141
 4154SOL    HW224099   2.555   0.718   8.281  0.2569 -1.9257 -0.3045
 4155SOL     OW24100   4.390   2.415   6.440 -0.0144  0.5838  0.1714
 4155SOL    HW124101   4.478   2.450   6.431 -0.0115  0.3860 -0.5789
 4155SOL    HW224102   4.341   2.478   6.388 -1.6162  0.8553  1.9687
 4156SOL     OW24103   2.733   4.445   0.492 -0.4417 -0.7582 -0.0671
 4156SOL    HW124104   2.706   4.360   0.524  0.1990 -1.8365 -2.4056
 4156SOL    HW224105   2.780   4.417   0.413 -0.3347  1.8147 -0.9215
 4157SOL     OW24106   2.558   2.422   9.175  0.0315  0.3669 -0.5985
 4157SOL    HW124107   2.640   2.378   9.153 -0.8989 -0.3042 -2.7397
 4157SOL    HW224108   2.520   2.415   9.088 -4.0173 -0.2738  1.2222
 4158SOL     OW24109   0.710   2.876   6.133 -0.5264 -0.2946  0.5576
 4158SOL    HW124110   0.658   2.858   6.211  0.4786  1.7469  1.7129
 4158SOL    HW224111   0.762   2.795   6.134  0.3164  0.2449  0.6963
 4159SOL     OW24112   0.160   3.780   0.792 -0.0663 -0.2157  0.3435
 4159SOL    HW124113   0.078   3.732   0.806 -0.4000 -0.2668 -1.6846
 4159SOL    HW224114   0.217   3.703   0.800 -2.0691 -1.5795  1.5937
 4160SOL     OW24115   1.729   2.434   9.199  0.1362  0.3273 -0.3482
 4160SOL    HW124116   1.664   2.459   9.133  1.1175  2.4693 -0.5351
 4160SOL    HW224117   1.807   2.415   9.147  0.8577 -1.4252  1.3859
 4161SOL     OW24118   3.941   1.632   5.845 -0.1910  0.0940  0.0843
 4161SOL    HW124119   3.999   1.700   5.809 -1.4931  0.2816 -1.6550
 4161SOL    HW224120   4.002   1.565   5.874 -0.2600 -0.0178 -0.0281
 4162SOL     OW24121   3.022   1.964   9.938 -0.3723  0.2913 -0.1930
 4162SOL    HW124122   3.072   2.027   9.886 -0.8982 -0.6645 -1.8536
 4162SOL    HW224123   3.091   1.898   9.937 -1.5317 -0.9296  0.4771
 4163SOL     OW24124   1.147   0.677   8.371 -0.5782 -0.3231 -0.1350
 4163SOL    HW124125   1.117   0.639   8.454 -0.2958 -0.9719 -0.3301
 4163SOL    HW224126   1.189   0.758   8.401 -1.4358  0.2415 -0.4486
 4164SOL     OW24127   1.108   4.100   0.299  0.3001 -0.2132  0.0390
 4164SOL    HW124128   1.200   4.077   0.312  1.0699  2.5829 -0.5836
 4164SOL    HW224129   1.122   4.184   0.256 -0.8613 -0.5778 -1.0877
 4165SOL     OW24130   0.429   2.059   6.055  0.0894 -0.6183  0.3283
 4165SOL    HW124131   0.482   2.087   5.981 -0.9111 -0.1645 -0.2220
 4165SOL    HW224132   0.344   2.087   6.022 -0.8123 -1.1960  2.1337
 4166SOL     OW24133   3.948   1.489   3.440 -0.2434  0.6432 -0.5170
 4166SOL    HW124134   3.956   1.443   3.356 -1.9662  3.0563 -2.0241
 4166SOL    HW224135   3.898   1.563   3.405 -1.6140 -0.1068 -0.1684
 4167SOL     OW24136   2.628   4.046   4.901 -0.0898  0.5382 -0.7303
 4167SOL    HW124137   2.610   3.961   4.861 -1.4881 -1.3493  3.9198
 4167SOL    HW224138   2.668   4.017   4.983  2.4690 -1.6413 -2.7386
 4168SOL     OW24139   1.233   1.875   9.359 -1.0326  0.3176  0.5950
 4168SOL    HW124140   1.197   1.909   9.441 -2.7397 -2.3757  0.9859
 4168SOL    HW224141   1.317   1.921   9.347  0.6871 -2.1595  3.1422
 4169SOL     OW24142   3.363   0.064   5.452 -0.1972  0.0507  0.4581
 4169SOL    HW124143   3.291   0.081   5.392  1.0131 -0.0719 -1.0180
 4169SOL    HW224144   3.373   4.705   5.442  1.0686  0.1983  0.2995
 4170SOL     OW24145   2.396   4.007   2.626 -0.0238 -0.2246 -0.2453
 4170SOL    HW124146   2.356   3.999   2.712  0.7717 -2.2648 -0.0805
 4170SOL    HW224147   2.361   3.932   2.578 -0.8622  2.0497 -3.2222
 4171SOL     OW24148   4.432   3.178   8.435 -0.5798  0.0223  0.3553
 4171SOL    HW124149   4.496   3.164   8.505 -1.1150 -0.0541  0.8199
 4171SOL    HW224150   4.441   3.272   8.418 -0.8031 -0.0477 -0.1625
 4172SOL     OW24151   1.385   0.569   3.106  0.5637 -0.2612 -0.0782
 4172SOL    HW124152   1.392   0.664   3.103 -0.6625 -0.1775 -0.6006
 4172SOL    HW224153   1.476   0.550   3.124  0.6810 -0.4802 -0.8716
 4173SOL     OW24154   2.714   1.328   9.499  0.2150 -0.1434 -0.7762
 4173SOL    HW124155   2.624   1.296   9.504 -0.7477  2.6075 -0.4999
 4173SOL    HW224156   2.721   1.325   9.404  0.4362 -0.1690 -0.7572
 4174SOL     OW24157   2.694   3.194  16.003  0.6361  0.6234  0.7331
 4174SOL    HW124158   2.645   3.274  15.987  0.3410  0.2538 -0.1844
 4174SOL    HW224159   2.767   3.211  15.944  1.3869  0.7293  1.6782
 4175SOL     OW24160   2.833   0.012  16.818 -0.1327 -0.3187 -0.4722
 4175SOL    HW124161   2.867   4.724  16.732  1.0616  1.5077 -0.5002
 4175SOL    HW224162   2.903   0.067  16.850 -0.8404  0.1073  0.3441
 4176SOL     OW24163   1.281   3.924   5.207  0.1980  0.1144 -0.1633
 4176SOL    HW124164   1.370   3.935   5.174  1.0671 -1.6303  1.6440
 4176SOL    HW224165   1.271   4.013   5.240  0.5767  0.0446  0.1390
 4177SOL     OW24166   4.312   4.372   4.122  0.1957  0.0493 -0.1502
 4177SOL    HW124167   4.369   4.300   4.151 -0.0141  0.8936  2.3448
 4177SOL    HW224168   4.373   4.443   4.101  1.3218 -1.5288 -2.2320
 4178SOL     OW24169   1.764   1.167   1.692 -0.3276 -0.3732  0.5671
 4178SOL    HW124170   1.708   1.163   1.614 -3.1002 -0.6275  2.5635
 4178SOL    HW224171   1.696   1.212   1.742 -0.5502 -0.6732  0.5360
 4179SOL     OW24172   3.485   1.932   5.798 -0.3664  0.5312 -0.5565
 4179SOL    HW124173   3.471   1.919   5.892  2.8114  0.4349 -0.0706
 4179SOL    HW224174   3.556   1.870   5.781 -0.6101  0.1880 -0.3112
 4180SOL     OW24175   1.061   0.671   9.823  0.5162 -0.2801 -0.2549
 4180SOL    HW124176   1.012   0.754   9.826  0.6089 -0.2557  0.4358
 4180SOL    HW224177   1.151   0.702   9.823  0.1201  0.9117 -0.2829
 4181SOL     OW24178   2.533   4.053  16.985  0.4812 -0.2023 -0.3753
 4181SOL    HW124179   2.543   4.148  16.990  2.7133 -0.5952  2.6035
 4181SOL    HW224180   2.617   4.019  17.016 -0.0997 -0.4199  0.9560
 4182SOL     OW24181   0.834   1.757  15.835  0.1884  0.2546  0.6628
 4182SOL    HW124182   0.809   1.693  15.768 -0.8567  1.2165  0.1385
 4182SOL    HW224183   0.922   1.729  15.859  0.2371  0.7243  1.0206
 4183SOL     OW24184   0.991   1.983   3.160  0.5677 -0.1068 -0.0580
 4183SOL    HW124185   0.896   1.980   3.150  0.5300  0.5683  0.1037
 4183SOL    HW224186   1.007   1.943   3.245 -2.2724  0.3120  0.6583
 4184SOL     OW24187   1.988   1.207  11.007  0.0732 -0.4858  0.0039
 4184SOL    HW124188   1.998   1.174  10.918 -0.0904  0.8120 -0.4886
 4184SOL    HW224189   2.077   1.234  11.026  0.5415 -1.3908 -0.8720
 4185SOL     OW24190   2.814   3.455   7.407  0.6514  0.2530 -0.6287
 4185SOL    HW124191   2.821   3.518   7.335 -0.9499  0.2873 -0.7426
 4185SOL    HW224192   2.861   3.378   7.374 -0.0620 -0.2422 -0.4669
 4186SOL     OW24193   0.785   2.214   2.073 -0.0573 -0.3574  0.3937
 4186SOL    HW124194   0.718   2.155   2.039 -1.2349  1.1458  0.1365
 4186SOL    HW224195   0.862   2.157   2.079  1.9198  2.0157 -2.6537
 4187SOL     OW24196   1.185   2.638  13.208 -0.2581 -0.5649 -0.3710
 4187SOL    HW124197   1.247   2.643  13.280 -0.2705  0.8842 -0.4596
 4187SOL    HW224198   1.160   2.730  13.203  0.2992 -0.3943 -0.0519
 4188SOL     OW24199   4.620   1.033  13.776  0.1810 -0.3053  0.8892
 4188SOL    HW124200   4.686   1.030  13.845  0.0042 -0.3950  1.0548
 4188SOL    HW224201   4.673   1.006  13.701 -0.2144  0.3918  0.3685
 4189SOL     OW24202   4.345   1.082   5.306 -0.1872 -0.1230  0.3461
 4189SOL    HW124203   4.323   0.992   5.327 -2.2126  0.3997  0.4018
 4189SOL    HW224204   4.440   1.078   5.321 -0.1752 -0.3755  0.2033
 4190SOL     OW24205   1.318   0.947   6.583 -0.0154 -0.1559 -0.2244
 4190SOL    HW124206   1.377   1.022   6.572 -1.6052  1.3499  1.5774
 4190SOL    HW224207   1.242   0.999   6.557 -0.8041 -0.5662  1.2675
 4191SOL     OW24208   3.375   2.599   7.987  0.1101  0.0932  0.0290
 4191SOL    HW124209   3.346   2.516   7.949 -2.1778  1.4518 -1.1934
 4191SOL    HW224210   3.348   2.657   7.915  0.6561  0.8110  0.4031
 4192SOL     OW24211   2.296   1.384  10.782 -0.0382  0.4277  0.0298
 4192SOL    HW124212   2.318   1.291  10.780  0.1506  0.5213 -1.6400
 4192SOL    HW224213   2.362   1.420  10.842 -0.6301  1.9019 -0.1935
 4193SOL     OW24214   4.554   0.731   5.189  0.3615  0.2196  0.6943
 4193SOL    HW124215   4.471   0.776   5.205  0.5659  0.5532  0.8378
 4193SOL    HW224216   4.556   0.757   5.096  0.7494  0.7898  0.8612
 4194SOL     OW24217   0.736   1.683  11.053  0.4625  0.1458 -0.0850
 4194SOL    HW124218   0.796   1.653  11.121  2.0500 -0.0514 -1.5506
 4194SOL    HW224219   0.703   1.758  11.102  1.3712  1.1665 -1.0063
 4195SOL     OW24220   4.667   0.170   8.462 -0.5850  0.2504  0.2213
 4195SOL    HW124221   4.709   0.209   8.539 -0.0833 -0.4124  0.2807
 4195SOL    HW224222   4.709   0.084   8.464  2.9813  1.9770 -0.4827
 4196SOL     OW24223   2.277   1.503  11.332 -0.0532  0.3157 -0.7172
 4196SOL    HW124224   2.358   1.555  11.340 -0.5424  1.1383 -1.0855
 4196SOL    HW224225   2.209   1.565  11.358 -0.3950  0.8286 -2.8319
 4197SOL     OW24226   2.017   0.630   7.129 -0.5715  0.1268 -0.2334
 4197SOL    HW124227   2.079   0.593   7.066 -0.8747 -2.1822  0.8288
 4197SOL    HW224228   1.938   0.646   7.077 -0.0681  0.6737 -0.8376
 4198SOL     OW24229   2.343   3.540   3.956 -0.0048  0.3469  0.3217
 4198SOL    HW124230   2.261   3.586   3.939  0.0648 -0.1341 -1.2816
 4198SOL    HW224231   2.411   3.604   3.935  1.3321 -1.2904 -0.3294
 4199SOL     OW24232   0.641   0.798   4.917  0.0539  0.2335  0.1658
 4199SOL    HW124233   0.648   0.705   4.936 -3.6981 -0.0225  0.2003
 4199SOL    HW224234   0.657   0.840   5.001  3.9904 -1.1476  0.0939
 4200SOL     OW24235   3.220   2.767   3.278  0.0384 -0.2430 -0.1824
 4200SOL    HW124236   3.210   2.794   3.187  1.7984 -0.2243 -0.3731
 4200SOL    HW224237   3.293   2.706   3.275 -0.3288 -0.6932  0.0910
 4201SOL     OW24238   2.691   2.015   8.183 -0.1419 -0.4509  0.5289
 4201SOL    HW124239   2.701   2.108   8.208  1.0396 -0.3830 -0.1792
 4201SOL    HW224240   2.661   2.017   8.093  1.4956 -0.4543 -0.0155
 4202SOL     OW24241   2.881   3.328   2.358 -0.1972 -0.1027 -0.4227
 4202SOL    HW124242   2.948   3.396   2.353  0.0081 -0.4005 -1.5934
 4202SOL    HW224243   2.814   3.363   2.416  0.3006 -0.5846  0.4523
 4203SOL     OW24244   0.638   2.824  13.051  0.5721  0.0653  0.1685
 4203SOL    HW124245   0.673   2.890  13.110  0.2186 -0.6865  1.2244
 4203SOL    HW224246   0.719   2.789  13.012  1.0991  1.1593  0.2805
 4204SOL     OW24247   1.100   2.086   8.422 -0.1091 -0.3147 -0.0416
 4204SOL    HW124248   1.178   2.089   8.477  0.3257  1.6352 -0.8005
 4204SOL    HW224249   1.035   2.062   8.489  1.4969  0.5150  1.8134
 4205SOL     OW24250   1.241   3.312   3.831  0.3569  0.6526  0.1961
 4205SOL    HW124251   1.195   3.389   3.864  0.0426  1.1481 -1.4405
 4205SOL    HW224252   1.188   3.294   3.754  0.9610  0.6483 -0.2196
 4206SOL     OW24253   2.409   3.088   8.916  0.3810 -0.6704  0.0482
 4206SOL    HW124254   2.372   3.082   8.828 -0.3209 -1.2553  0.3841
 4206SOL    HW224255   2.394   3.180   8.937 -0.7983 -0.9725  0.5286
 4207SOL     OW24256   2.874   1.424   3.375 -0.3314  0.3762  0.3757
 4207SOL    HW124257   2.936   1.363   3.335 -1.1839 -0.9539  1.1082
 4207SOL    HW224258   2.852   1.470   3.294  0.3056 -0.8108 -0.4705
 4208SOL     OW24259   4.197   4.171   7.225  0.0361 -0.1075  0.1878
 4208SOL    HW124260   4.244   4.171   7.309 -1.2392  3.4944  0.8984
 4208SOL    HW224261   4.222   4.086   7.190  0.7453  0.0533  0.2844
 4209SOL     OW24262   0.916   2.630   1.834  0.8143  0.3461 -0.6199
 4209SOL    HW124263   0.849   2.595   1.893 -0.3779  1.4452 -1.3192
 4209SOL    HW224264   0.980   2.648   1.903 -1.2688  0.7728  1.2035
 4210SOL     OW24265   3.634   2.787   7.856  0.5295  0.2423 -0.1330
 4210SOL    HW124266   3.617   2.720   7.790  1.3187 -0.4836  0.3985
 4210SOL    HW224267   3.594   2.762   7.939  2.4321  0.9174  0.9801
 4211SOL     OW24268   3.814   1.730  16.069  0.6685  0.1724 -0.1755
 4211SOL    HW124269   3.750   1.795  16.042  0.7309  0.5327  0.5594
 4211SOL    HW224270   3.837   1.702  15.980  1.0043 -0.4818  0.1188
 4212SOL     OW24271   0.853   1.513  13.353 -0.6970 -0.2917  0.1356
 4212SOL    HW124272   0.796   1.551  13.286 -0.3242  0.7466  0.4126
 4212SOL    HW224273   0.801   1.540  13.428 -0.3134 -2.1662  1.0729
 4213SOL     OW24274   3.886   1.649   3.219  0.2602  0.1950 -0.5473
 4213SOL    HW124275   3.925   1.723   3.174 -1.8749  2.0974  0.7074
 4213SOL    HW224276   3.907   1.566   3.176  1.2581 -0.4018  1.0618
 4214SOL     OW24277   3.039   3.949   4.682  0.3833  0.2120 -0.1783
 4214SOL    HW124278   2.953   3.975   4.651  0.3216  0.3177  0.0839
 4214SOL    HW224279   3.006   3.878   4.738  0.8022  0.2732  0.1477
 4215SOL     OW24280   1.439   4.172  10.225  0.3109 -0.2046  0.5324
 4215SOL    HW124281   1.354   4.149  10.263  1.4202 -3.4112  1.1097
 4215SOL    HW224282   1.426   4.132  10.139  1.6548  0.2583  0.1202
 4216SOL     OW24283   3.281   1.612   5.769 -0.3762  0.0367  0.2291
 4216SOL    HW124284   3.217   1.548   5.738 -1.5110  1.3304 -0.0576
 4216SOL    HW224285   3.335   1.622   5.691  0.2418 -0.7510  0.5475
 4217SOL     OW24286   4.121   2.835   5.065 -0.1496  0.3742 -0.3452
 4217SOL    HW124287   4.055   2.835   4.996 -0.1523  1.4568 -0.3295
 4217SOL    HW224288   4.204   2.859   5.025  0.9517  0.3502  1.9256
 4218SOL     OW24289   2.687   2.234   4.135  0.0172  0.1895  0.4065
 4218SOL    HW124290   2.755   2.274   4.190  1.8818 -0.1670 -1.6231
 4218SOL    HW224291   2.631   2.182   4.191  0.6973 -2.3287 -1.2672
 4219SOL     OW24292   2.706   2.161   2.241 -0.4766  0.6187 -0.4742
 4219SOL    HW124293   2.696   2.075   2.199 -0.1395  0.5530 -0.4229
 4219SOL    HW224294   2.628   2.171   2.295  0.2275  1.8093  0.3221
 4220SOL     OW24295   2.273   4.141   6.363  0.2084 -0.1285  0.0734
 4220SOL    HW124296   2.224   4.157   6.282  1.7645  0.7407 -0.7029
 4220SOL    HW224297   2.264   4.046   6.379  1.4558 -0.2110  0.2438
 4221SOL     OW24298   1.862   2.648   6.102  0.2775 -0.2021  0.3683
 4221SOL    HW124299   1.849   2.627   6.194  0.8617  2.5441  1.0760
 4221SOL    HW224300   1.775   2.682   6.078  0.0377 -0.6335  0.6234
 4222SOL     OW24301   1.950   2.937   2.057  0.2217  0.0470 -0.0493
 4222SOL    HW124302   1.875   2.973   2.009  0.1288 -0.8640 -0.5776
 4222SOL    HW224303   1.911   2.949   2.144  0.0056  3.0246 -0.5372
 4223SOL     OW24304   1.077   4.538   4.403 -0.0803  0.0890  0.2581
 4223SOL    HW124305   1.044   4.456   4.366 -0.7557 -1.1556  3.5672
 4223SOL    HW224306   1.008   4.595   4.370 -0.1168 -0.1098 -0.0076
 4224SOL     OW24307   1.964   1.938  11.999  0.0596  0.0023  0.1066
 4224SOL    HW124308   2.019   1.966  12.072 -0.9128 -0.6452  1.0884
 4224SOL    HW224309   1.973   2.019  11.948  0.1851 -0.7501 -1.0509
 4225SOL     OW24310   3.244   1.874   7.776  0.2637  0.3874 -0.3660
 4225SOL    HW124311   3.210   1.906   7.692  0.4987  2.6484  0.4102
 4225SOL    HW224312   3.311   1.817   7.738  1.7935  1.2317  1.0728
 4226SOL     OW24313   4.673   0.759   6.577  0.0470  0.4263 -0.4881
 4226SOL    HW124314   0.028   0.787   6.574 -0.2890  1.5877  0.1923
 4226SOL    HW224315   4.656   0.743   6.670  0.4279 -0.2176 -0.5296
 4227SOL     OW24316   3.262   3.987  12.274  0.6320 -0.1235  0.5984
 4227SOL    HW124317   3.266   3.919  12.206 -1.8806  1.1496 -0.8143
 4227SOL    HW224318   3.309   4.059  12.232 -1.3406  0.7758 -0.0319
 4228SOL     OW24319   0.542   3.320   8.335 -0.1581  0.0578 -0.2692
 4228SOL    HW124320   0.614   3.259   8.325  0.1374  0.1829  1.0385
 4228SOL    HW224321   0.574   3.402   8.374 -1.6813  0.6387 -0.2261
 4229SOL     OW24322   1.523   3.355   7.944  0.2273 -0.2837  0.8159
 4229SOL    HW124323   1.607   3.344   7.900  0.1938 -0.3336  0.7642
 4229SOL    HW224324   1.538   3.400   8.027  0.3471 -1.5285  1.4769
 4230SOL     OW24325   3.776   0.249   7.814  0.7456 -0.2094  0.2270
 4230SOL    HW124326   3.790   0.279   7.724 -1.0554  2.9650  0.9885
 4230SOL    HW224327   3.687   0.216   7.801  1.4428 -1.7687 -0.5539
 4231SOL     OW24328   1.581   1.472   9.769  0.1737 -0.0474  0.0501
 4231SOL    HW124329   1.536   1.538   9.717 -0.9080 -0.5904  0.2845
 4231SOL    HW224330   1.552   1.509   9.853 -0.5650  1.0816 -0.7077
 4232SOL     OW24331   2.532   3.086   3.306 -0.1964  0.3532 -0.3314
 4232SOL    HW124332   2.607   3.135   3.340 -0.0971  0.1686 -0.2838
 4232SOL    HW224333   2.504   3.042   3.386 -2.7668 -0.2126 -1.5382
 4233SOL     OW24334   3.227   3.472   6.516 -0.6456  0.4632 -0.0651
 4233SOL    HW124335   3.153   3.457   6.458 -0.0586 -2.4612 -0.0169
 4233SOL    HW224336   3.230   3.400   6.579 -0.5129 -0.2583 -0.9067
 4234SOL     OW24337   3.537   4.276   5.485  0.0313 -0.4463 -0.5461
 4234SOL    HW124338   3.536   4.195   5.535  1.4502  0.3912  0.8435
 4234SOL    HW224339   3.624   4.310   5.506 -0.5223  0.2841  0.5466
 4235SOL     OW24340   3.812   4.344   6.778  0.1152  0.0478  0.0397
 4235SOL    HW124341   3.779   4.429   6.808 -0.3998  0.4802 -1.8046
 4235SOL    HW224342   3.882   4.376   6.721 -0.6664  2.8396  0.6344
 4236SOL     OW24343   0.395   1.648  15.782 -0.0171 -0.4976  0.1596
 4236SOL    HW124344   0.480   1.661  15.825  0.9071 -0.5698 -1.6779
 4236SOL    HW224345   0.422   1.674  15.695 -0.3483 -0.4346  0.0765
 4237SOL     OW24346   3.291   1.033  13.445 -0.3494  0.3334 -0.3310
 4237SOL    HW124347   3.319   1.053  13.355  1.8651 -0.2275  0.2194
 4237SOL    HW224348   3.372   0.986  13.467 -1.4073 -1.1823  0.3750
 4238SOL     OW24349   3.723   1.229   2.840 -0.3360  0.3947 -0.3057
 4238SOL    HW124350   3.814   1.255   2.853 -0.9049  0.6657  3.3014
 4238SOL    HW224351   3.736   1.136   2.824 -1.2099  0.2775 -0.3359
 4239SOL     OW24352   4.031   2.580   0.899 -0.1380  0.0398  0.9569
 4239SOL    HW124353   4.065   2.510   0.843 -0.7696 -0.3239  1.0326
 4239SOL    HW224354   4.093   2.654   0.892  0.4492 -0.4897  0.5393
 4240SOL     OW24355   3.541   3.101   9.129  0.1764 -0.3620  0.3661
 4240SOL    HW124356   3.624   3.061   9.155  0.4453 -0.6287 -0.9136
 4240SOL    HW224357   3.559   3.107   9.036  0.7450 -0.0168  0.4989
 4241SOL     OW24358   3.700   0.752   3.607  0.5759 -0.2598  0.2966
 4241SOL    HW124359   3.769   0.687   3.593  1.1436  0.0595  1.6835
 4241SOL    HW224360   3.636   0.711   3.548 -0.9133 -0.6961  2.2184
 4242SOL     OW24361   4.438   1.897  10.094 -0.3801  0.2936  0.6639
 4242SOL    HW124362   4.468   1.906  10.004 -3.0877 -2.0934 -0.4858
 4242SOL    HW224363   4.436   1.986  10.128 -1.4878  0.0746  1.1999
 4243SOL     OW24364   3.692   4.395   3.076  0.4095 -0.3843  0.2583
 4243SOL    HW124365   3.599   4.373   3.072  0.9962 -2.6131 -0.8606
 4243SOL    HW224366   3.728   4.321   3.127  0.3717  0.1631  1.0845
 4244SOL     OW24367   0.060   0.647   3.663  0.0342  0.2902  0.1331
 4244SOL    HW124368   0.070   0.666   3.757  0.6669  0.0167  0.1243
 4244SOL    HW224369   0.016   0.563   3.668  2.4909 -1.0447 -0.8504
 4245SOL     OW24370   2.565   1.807  13.102 -0.0400 -0.1384 -0.0259
 4245SOL    HW124371   2.656   1.829  13.084  0.6476  0.0490  3.7108
 4245SOL    HW224372   2.563   1.717  13.134 -0.7129 -0.1379 -0.0606
 4246SOL     OW24373   2.511   4.624  17.232 -0.4951 -0.3751 -0.4827
 4246SOL    HW124374   2.599   4.648  17.259 -0.6868 -1.1784  0.8506
 4246SOL    HW224375   2.493   4.687  17.162 -1.1163  2.3308  2.1461
 4247SOL     OW24376   4.117   4.205   9.617  0.2896  0.6090  0.1798
 4247SOL    HW124377   4.159   4.211   9.532 -0.1462 -2.0765 -0.2207
 4247SOL    HW224378   4.036   4.164   9.588  2.5453 -3.1388 -0.8072
 4248SOL     OW24379   2.587   1.744   9.312 -0.2918  0.6276 -0.1318
 4248SOL    HW124380   2.640   1.779   9.384  2.1419 -0.8217 -1.2048
 4248SOL    HW224381   2.530   1.817   9.288 -0.7258  0.4160  0.2557
 4249SOL     OW24382   1.592   0.255   8.415  0.2002 -0.1444 -0.3084
 4249SOL    HW124383   1.567   0.162   8.408 -2.6924  0.5709  0.5744
 4249SOL    HW224384   1.508   0.302   8.411  0.0745 -0.3952 -0.6174
 4250SOL     OW24385   3.826   1.561   6.124  0.1592  0.1131  0.6981
 4250SOL    HW124386   3.785   1.633   6.077 -0.3130 -0.8776 -0.3919
 4250SOL    HW224387   3.908   1.571   6.077 -0.5955  0.0569 -0.6278
 4251SOL     OW24388   1.035   3.734   1.208  0.5862  0.5295 -0.1105
 4251SOL    HW124389   1.087   3.671   1.259 -1.7816  0.6916  2.5030
 4251SOL    HW224390   1.081   3.725   1.124  1.5075 -0.1996  0.4766
 4252SOL     OW24391   4.394   1.459   1.038  0.2062 -0.2949  0.0059
 4252SOL    HW124392   4.430   1.451   0.950  0.3378 -1.7609  0.1944
 4252SOL    HW224393   4.424   1.379   1.082 -0.4179 -1.0902 -0.9930
 4253SOL     OW24394   4.245   0.458   2.684 -0.5409 -0.0914 -0.0291
 4253SOL    HW124395   4.275   0.472   2.594 -0.6576  0.1250 -0.0358
 4253SOL    HW224396   4.209   0.370   2.672 -0.8803  0.3561 -2.1605
 4254SOL     OW24397   0.560   1.122   5.641 -0.1577 -0.2714  0.1788
 4254SOL    HW124398   0.589   1.101   5.552 -0.8612  1.3664 -0.4399
 4254SOL    HW224399   0.539   1.031   5.662  0.4582 -0.8873 -1.7853
 4255SOL     OW24400   1.660   3.209   3.888  0.5071 -0.0150 -0.4214
 4255SOL    HW124401   1.632   3.181   3.975 -0.9922 -0.0627 -0.9189
 4255SOL    HW224402   1.612   3.292   3.884 -0.8680 -0.7228  1.3325
 4256SOL     OW24403   2.360   1.851   4.120  0.4252  0.1064  0.1921
 4256SOL    HW124404   2.411   1.793   4.064  0.0317 -1.6948  1.7169
 4256SOL    HW224405   2.276   1.806   4.109  0.6696 -0.9551  2.5813
 4257SOL     OW24406   3.939   3.162   4.734 -0.3386  0.1144 -0.2039
 4257SOL    HW124407   3.895   3.227   4.678  0.3575  0.4349 -0.3756
 4257SOL    HW224408   3.936   3.094   4.667 -1.8509 -0.2040  0.1741
 4258SOL     OW24409   3.745   4.439   6.342 -0.7323 -0.5653 -0.3847
 4258SOL    HW124410   3.705   4.526   6.332  0.1841  0.0225  1.2355
 4258SOL    HW224411   3.807   4.445   6.414 -0.1181 -0.3472 -0.9344
 4259SOL     OW24412   1.282   2.960  16.859  0.0101  0.2113 -0.0944
 4259SOL    HW124413   1.316   2.994  16.776  2.4550 -0.3082  0.6828
 4259SOL    HW224414   1.249   3.038  16.903 -0.3783 -0.1342  0.2255
 4260SOL     OW24415   1.478   2.490   4.298 -0.3116 -0.8418  0.0315
 4260SOL    HW124416   1.551   2.479   4.236 -2.3902  1.5359 -2.8703
 4260SOL    HW224417   1.470   2.585   4.297 -2.2536 -0.9953  2.2249
 4261SOL     OW24418   0.336   3.454  10.988 -0.4690 -0.1395 -0.0673
 4261SOL    HW124419   0.342   3.525  10.924 -0.7998 -0.2893 -0.2655
 4261SOL    HW224420   0.265   3.488  11.042 -0.1042  0.9087 -0.2470
 4262SOL     OW24421   1.585   0.452   2.311  0.1333  0.4684 -0.1193
 4262SOL    HW124422   1.564   0.362   2.338  1.4645  0.6784  1.6209
 4262SOL    HW224423   1.532   0.462   2.232  0.1266 -1.2970 -0.3423
 4263SOL     OW24424   2.771   4.329   7.060 -0.1479 -0.1200 -0.1478
 4263SOL    HW124425   2.853   4.377   7.048  2.2016 -3.9582  0.6656
 4263SOL    HW224426   2.723   4.353   6.981 -0.2024  0.3164  0.0163
 4264SOL     OW24427   3.056   3.817   4.277  0.2800  0.2549 -0.0789
 4264SOL    HW124428   3.136   3.867   4.292 -0.8189  2.0580 -0.1855
 4264SOL    HW224429   3.059   3.801   4.182  0.4231 -0.8626  0.1104
 4265SOL     OW24430   4.243   1.961   2.824 -0.2373 -0.3656 -0.4276
 4265SOL    HW124431   4.313   1.907   2.861  0.4080 -0.2040 -1.4060
 4265SOL    HW224432   4.161   1.914   2.840 -0.3833  0.1856  0.4590
 4266SOL     OW24433   0.583   2.476  15.676 -0.1133  0.4186 -0.5391
 4266SOL    HW124434   0.497   2.511  15.700 -0.0111 -0.0313  0.4747
 4266SOL    HW224435   0.561   2.386  15.698  0.2220  0.4102 -0.2263
 4267SOL     OW24436   2.159   2.555   8.116  0.4980 -0.8247 -0.4197
 4267SOL    HW124437   2.186   2.539   8.207 -1.1191 -0.9223  0.0476
 4267SOL    HW224438   2.239   2.584   8.073 -1.0256 -0.2914 -2.8613
 4268SOL     OW24439   1.925   0.333   5.587  0.0961  0.3967 -0.0402
 4268SOL    HW124440   1.898   0.278   5.660 -0.1214  2.4875  1.4493
 4268SOL    HW224441   1.853   0.391   5.565  0.4855  0.6261 -0.7109
 4269SOL     OW24442   3.784   2.837   7.552 -0.8254  0.1825  0.1260
 4269SOL    HW124443   3.853   2.879   7.500  0.4606 -0.8179  1.0545
 4269SOL    HW224444   3.803   2.872   7.639  1.2841 -2.1763  0.5888
 4270SOL     OW24445   2.276   2.966  14.259  0.5731  0.1457 -0.3776
 4270SOL    HW124446   2.297   2.927  14.344  0.8569 -1.1865 -1.0582
 4270SOL    HW224447   2.367   2.976  14.230  0.6504  1.0037  0.1523
 4271SOL     OW24448   4.350   2.831   2.227  0.7318  0.3434 -0.0700
 4271SOL    HW124449   4.428   2.828   2.172  1.9273 -2.3533  1.7646
 4271SOL    HW224450   4.284   2.852   2.161  0.0501  0.1655  0.5545
 4272SOL     OW24451   0.864   1.271   3.001 -0.2987  0.1800  0.3591
 4272SOL    HW124452   0.800   1.217   2.955 -0.3231  1.7504 -1.4954
 4272SOL    HW224453   0.895   1.226   3.080 -1.8974  0.5496  1.1855
 4273SOL     OW24454   0.709   4.111   0.535  0.5973 -0.1033  0.4695
 4273SOL    HW124455   0.804   4.120   0.532  0.9258 -3.4560  0.2456
 4273SOL    HW224456   0.675   4.144   0.452  1.8737 -0.5898 -0.2451
 4274SOL     OW24457   1.425   0.387   3.833  0.0001 -0.0784  0.8338
 4274SOL    HW124458   1.420   0.300   3.793 -2.6809  1.3463 -1.9742
 4274SOL    HW224459   1.355   0.436   3.790  0.2899  0.1859  0.6660
 4275SOL     OW24460   1.251   0.931   7.671 -0.2889  0.3782  0.3048
 4275SOL    HW124461   1.306   0.913   7.748 -1.3914 -0.0645  0.9864
 4275SOL    HW224462   1.304   0.900   7.597 -2.5029 -3.5356  0.3437
 4276SOL     OW24463   3.593   1.350   6.451  0.1067 -0.3858 -0.1165
 4276SOL    HW124464   3.653   1.422   6.472 -0.4579 -0.1072  0.5024
 4276SOL    HW224465   3.642   1.324   6.372  0.2179  1.9405 -0.8054
 4277SOL     OW24466   0.450   2.635   3.019 -0.3398  0.5300  0.3636
 4277SOL    HW124467   0.414   2.551   3.048  0.7913 -1.0492 -2.8203
 4277SOL    HW224468   0.382   2.700   3.034 -0.2031  0.7508  0.0229
 4278SOL     OW24469   4.102   1.499  13.603 -0.1937  0.2507  0.6264
 4278SOL    HW124470   4.171   1.523  13.665  0.2005 -0.2686  0.3838
 4278SOL    HW224471   4.045   1.569  13.637  0.4853  1.3787 -0.5562
 4279SOL     OW24472   0.351   1.989   8.674 -0.8185 -0.1023 -0.9632
 4279SOL    HW124473   0.446   1.977   8.664 -0.3755  1.9847  0.7047
 4279SOL    HW224474   0.332   2.022   8.586  1.9738 -0.0163 -1.5357
 4280SOL     OW24475   0.757   0.294   4.249 -0.1790 -0.0853  0.0033
 4280SOL    HW124476   0.733   0.374   4.202  0.3469  0.4761  0.6914
 4280SOL    HW224477   0.852   0.305   4.251 -0.1819 -0.4301  2.3336
 4281SOL     OW24478   3.575   2.829   8.698 -0.3138  0.7818 -0.1904
 4281SOL    HW124479   3.552   2.737   8.682 -2.4042  0.7277  3.1406
 4281SOL    HW224480   3.670   2.829   8.686 -0.4181 -0.1589 -1.0864
 4282SOL     OW24481   0.509   1.640   6.852 -0.2990 -0.2627 -0.2396
 4282SOL    HW124482   0.538   1.555   6.886 -1.1201 -0.5670 -0.2924
 4282SOL    HW224483   0.592   1.680   6.827  0.0330 -1.1295 -0.5286
 4283SOL     OW24484   0.783   1.530   3.823  0.2325 -0.4576 -0.3915
 4283SOL    HW124485   0.856   1.525   3.885 -1.4018 -1.8514  1.3918
 4283SOL    HW224486   0.801   1.454   3.768  0.0246 -0.4296 -0.4967
 4284SOL     OW24487   1.821   0.920   1.867 -0.2852  0.0487  0.0099
 4284SOL    HW124488   1.850   0.931   1.958 -0.2774  0.6555 -0.0649
 4284SOL    HW224489   1.903   0.952   1.830  0.4673  1.6508  3.0213
 4285SOL     OW24490   1.261   0.945  10.193 -0.1624 -0.4658  0.2480
 4285SOL    HW124491   1.241   0.852  10.189 -1.8726 -0.0750 -0.2088
 4285SOL    HW224492   1.230   0.980  10.109  1.5681  2.9520  1.0259
 4286SOL     OW24493   1.628   1.806   8.861  0.1712 -0.3461 -0.3887
 4286SOL    HW124494   1.674   1.722   8.865  0.7426 -0.0542 -0.9436
 4286SOL    HW224495   1.588   1.800   8.774 -1.2515  2.4248  0.0962
 4287SOL     OW24496   3.302   1.903  10.880  0.4116  0.2335 -0.8494
 4287SOL    HW124497   3.342   1.975  10.929 -0.7017  0.5486 -0.4089
 4287SOL    HW224498   3.375   1.862  10.834  0.7986 -0.6779  0.5999
 4288SOL     OW24499   2.336   3.191   2.130 -0.2323 -0.1719  0.3410
 4288SOL    HW124500   2.407   3.252   2.151  0.1861 -0.5218 -0.0439
 4288SOL    HW224501   2.273   3.257   2.102 -0.2630 -0.1611  0.4373
 4289SOL     OW24502   2.996   4.426  16.194  0.0113 -0.5230  0.3839
 4289SOL    HW124503   2.964   4.382  16.272 -1.1402  1.3630  0.9726
 4289SOL    HW224504   3.089   4.403  16.189  0.2528  0.9123 -1.6502
 4290SOL     OW24505   3.251   2.806   4.357 -0.3807  0.0731 -0.1275
 4290SOL    HW124506   3.230   2.885   4.307 -1.4670  0.1918  0.5263
 4290SOL    HW224507   3.261   2.747   4.282 -1.7178 -0.0497 -0.2089
 4291SOL     OW24508   0.113   3.029   1.703 -0.0928 -0.3252 -0.3908
 4291SOL    HW124509   0.156   2.975   1.637 -0.7230 -0.4300 -0.7203
 4291SOL    HW224510   0.075   3.097   1.646  0.2924  0.4355  0.2591
 4292SOL     OW24511   3.139   0.808   9.429 -0.2307 -0.0429 -0.2255
 4292SOL    HW124512   3.229   0.799   9.459 -1.0684  0.8653  2.6278
 4292SOL    HW224513   3.102   0.866   9.497  1.7222  1.0362 -0.0892
 4293SOL     OW24514   4.315   3.170   4.925 -0.3629 -0.0874 -0.1716
 4293SOL    HW124515   4.381   3.226   4.966 -1.7135  0.0987  1.7313
 4293SOL    HW224516   4.230   3.202   4.954  0.0282 -0.2396  1.1540
 4294SOL     OW24517   0.591   0.113   8.753  0.1671  0.4536 -0.3043
 4294SOL    HW124518   0.499   0.116   8.726 -0.0678  2.2021  0.7245
 4294SOL    HW224519   0.627   0.190   8.709 -2.1499  1.1741 -0.9459
 4295SOL     OW24520   1.204   2.858  15.196 -0.3916  0.3199 -0.1416
 4295SOL    HW124521   1.140   2.893  15.133  1.0111  0.4398 -1.5067
 4295SOL    HW224522   1.210   2.935  15.253  0.2334 -0.2244  0.5187
 4296SOL     OW24523   0.481   2.772   3.728  0.0239 -0.4115 -0.2200
 4296SOL    HW124524   0.414   2.818   3.778 -0.0700 -1.5624  0.7035
 4296SOL    HW224525   0.566   2.812   3.747 -0.0397 -0.9249  1.1262
 4297SOL     OW24526   1.489   1.627   6.177 -0.0980  0.2552 -0.2999
 4297SOL    HW124527   1.400   1.631   6.143 -0.5581 -0.4838  0.8261
 4297SOL    HW224528   1.516   1.715   6.149 -2.9876  1.0477 -0.5383
 4298SOL     OW24529   0.546   2.877   6.569  0.4901 -0.0468  0.3469
 4298SOL    HW124530   0.566   2.967   6.543  0.4749  0.0826  0.7775
 4298SOL    HW224531   0.506   2.893   6.655  2.4460  0.8990  1.0844
 4299SOL     OW24532   3.816   4.150  14.476 -0.0116 -0.2951 -0.2331
 4299SOL    HW124533   3.885   4.149  14.410  0.3151  1.3718  0.0978
 4299SOL    HW224534   3.751   4.094  14.434 -0.5304  0.8883 -0.9914
 4300SOL     OW24535   3.992   2.812  17.036 -0.1354  0.5114 -0.1413
 4300SOL    HW124536   3.976   2.718  17.048  0.2289  0.4967  0.2197
 4300SOL    HW224537   3.960   2.842  17.121 -1.8017 -1.2977 -0.1282
 4301SOL     OW24538   0.907   1.953  11.388  0.4190 -0.0329  0.2181
 4301SOL    HW124539   0.879   2.022  11.328  0.3933  0.3805  0.6999
 4301SOL    HW224540   0.870   1.988  11.470 -1.9011 -1.3773 -0.2495
 4302SOL     OW24541   2.126   2.619   9.582 -0.8356  0.4225  0.1951
 4302SOL    HW124542   2.072   2.636   9.658 -1.6607  1.6325 -0.6692
 4302SOL    HW224543   2.212   2.656   9.604 -0.7604 -1.1230  2.4841
 4303SOL     OW24544   0.171   2.262   8.011  0.5094 -0.3557  0.5103
 4303SOL    HW124545   0.174   2.320   7.935  1.8960 -1.3434 -0.1944
 4303SOL    HW224546   0.119   2.308   8.077 -0.8155  0.2189 -0.9566
 4304SOL     OW24547   2.017   1.028  11.701 -0.2378  0.4901  0.0336
 4304SOL    HW124548   2.090   0.981  11.660  0.1788 -0.1401  1.4761
 4304SOL    HW224549   1.986   1.076  11.625  0.4792 -2.0318 -1.8457
 4305SOL     OW24550   3.332   2.790   7.114  0.1646 -0.2277  0.2604
 4305SOL    HW124551   3.337   2.843   7.034  0.4745 -2.1190 -0.9780
 4305SOL    HW224552   3.244   2.755   7.104  1.1469 -2.6494  0.1640
 4306SOL     OW24553   1.445   3.890   7.421 -0.1081  0.6081  0.2274
 4306SOL    HW124554   1.485   3.839   7.351 -1.6258  0.1993 -0.3393
 4306SOL    HW224555   1.518   3.950   7.435  1.7486 -1.4502 -0.6119
 4307SOL     OW24556   4.729   4.184  11.162  0.7347 -0.2192 -0.2267
 4307SOL    HW124557   4.646   4.156  11.199  1.2569 -0.6117  0.6387
 4307SOL    HW224558   4.707   4.268  11.121  1.1472  1.3117  2.6404
 4308SOL     OW24559   0.144   2.889  10.001 -0.2038 -0.4077  0.3108
 4308SOL    HW124560   0.238   2.899   9.987 -0.3730  0.3751 -0.2664
 4308SOL    HW224561   0.137   2.800  10.036  1.5945  0.5001  2.9514
 4309SOL     OW24562   3.749   1.768   2.693  0.3342  0.8328  0.2998
 4309SOL    HW124563   3.806   1.823   2.639  1.1470 -0.3100 -0.0153
 4309SOL    HW224564   3.664   1.791   2.656  1.3596  0.0609 -2.5046
 4310SOL     OW24565   1.391   0.534   6.621  0.2232 -0.2227  0.2567
 4310SOL    HW124566   1.371   0.454   6.671  0.8010 -0.9207 -0.6349
 4310SOL    HW224567   1.449   0.497   6.555 -1.7042  0.2873 -1.7127
 4311SOL     OW24568   3.681   2.222   6.808 -0.6036 -0.2538 -0.1683
 4311SOL    HW124569   3.734   2.253   6.881 -0.0157  0.3774 -0.8674
 4311SOL    HW224570   3.705   2.129   6.800  1.5122  0.1904  0.9169
 4312SOL     OW24571   2.332   2.186   7.028  0.8387  0.3766 -0.5780
 4312SOL    HW124572   2.259   2.224   7.077  0.1471  0.1711 -1.4476
 4312SOL    HW224573   2.343   2.108   7.082 -0.7487 -0.5202 -1.5721
 4313SOL     OW24574   1.993   0.871   8.153  0.2599 -0.1535  0.2119
 4313SOL    HW124575   1.997   0.868   8.249  2.1737 -1.4113  0.0693
 4313SOL    HW224576   2.054   0.799   8.135 -3.2014 -3.5964  2.2437
 4314SOL     OW24577   4.700   3.243  10.919 -0.0749 -0.1103 -0.0983
 4314SOL    HW124578   4.723   3.192  10.997  0.3059  0.1153 -0.0672
 4314SOL    HW224579   4.606   3.232  10.904 -0.3569 -0.6506  2.1768
 4315SOL     OW24580   2.875   0.722   2.241 -0.4460  0.0032 -0.1906
 4315SOL    HW124581   2.921   0.683   2.316 -0.8587 -0.0463  0.0338
 4315SOL    HW224582   2.846   0.638   2.206  0.6789 -1.1057  1.5137
 4316SOL     OW24583   1.269   2.026   9.064 -0.1743 -0.0788 -0.1210
 4316SOL    HW124584   1.305   1.988   9.143  1.8462 -0.3890 -1.1827
 4316SOL    HW224585   1.174   2.023   9.076 -0.2604  0.8416 -0.5702
 4317SOL     OW24586   2.212   2.296  16.187  0.6477  0.0040 -0.6393
 4317SOL    HW124587   2.206   2.256  16.274  1.0846 -1.6589 -1.3640
 4317SOL    HW224588   2.284   2.248  16.145  1.5838  1.4977 -0.7317
 4318SOL     OW24589   0.516   3.155   6.253 -0.5342 -0.3331 -0.4705
 4318SOL    HW124590   0.443   3.217   6.246 -1.0571 -0.8582  0.4323
 4318SOL    HW224591   0.462   3.078   6.271 -0.3882 -0.2388  0.3405
 4319SOL     OW24592   4.627   3.498   1.725  0.1167 -0.3241 -0.2557
 4319SOL    HW124593   4.576   3.417   1.735 -1.1893  0.7031  1.4042
 4319SOL    HW224594   4.627   3.505   1.630 -0.7634  1.2954 -0.1210
 4320SOL     OW24595   0.745   2.941   3.445  0.2283 -0.1836 -0.2479
 4320SOL    HW124596   0.659   2.952   3.404  0.2238  0.6366 -0.0153
 4320SOL    HW224597   0.760   3.034   3.460 -2.6269  0.1622  0.4768
 4321SOL     OW24598   2.296   2.168   5.055 -0.3048  0.6100 -0.2372
 4321SOL    HW124599   2.272   2.235   5.120 -1.2676  1.5392 -1.5426
 4321SOL    HW224600   2.296   2.093   5.114  0.2797  0.7117 -0.1095
 4322SOL     OW24601   1.113   3.816   8.451 -0.6297  0.2355  0.5050
 4322SOL    HW124602   1.060   3.743   8.485 -0.0417 -1.3821 -2.0422
 4322SOL    HW224603   1.060   3.844   8.376  0.1926  0.8107  0.1441
 4323SOL     OW24604   3.965   4.285   2.056  0.0826 -0.1946  0.1250
 4323SOL    HW124605   4.050   4.312   2.020  1.0917 -4.1077 -0.5166
 4323SOL    HW224606   3.949   4.207   2.002 -1.1701  0.0984  0.0848
 4324SOL     OW24607   2.985   4.126   9.807 -0.2916 -0.0247  0.2671
 4324SOL    HW124608   3.073   4.159   9.787 -0.5450 -0.7150 -2.0489
 4324SOL    HW224609   2.976   4.172   9.890 -3.0253 -2.8993  1.5303
 4325SOL     OW24610   1.434   4.464  10.965 -0.2232 -0.4035  0.3962
 4325SOL    HW124611   1.395   4.530  10.908 -0.4503  0.3702  1.4592
 4325SOL    HW224612   1.496   4.518  11.014 -0.1621 -0.8989  0.8630
 4326SOL     OW24613   4.019   1.247  15.290 -0.0384  0.5950 -0.4568
 4326SOL    HW124614   4.021   1.342  15.298 -0.5258  0.3990  2.0746
 4326SOL    HW224615   3.929   1.231  15.262  0.5909 -1.5868 -1.2350
 4327SOL     OW24616   2.669   0.154   2.786  0.5311  0.2505  0.1678
 4327SOL    HW124617   2.732   0.192   2.846  1.0633  2.3895 -1.7411
 4327SOL    HW224618   2.708   0.189   2.706 -0.1847 -1.5843 -1.0022
 4328SOL     OW24619   1.257   4.080  16.271  0.9738  0.4329 -0.6037
 4328SOL    HW124620   1.318   4.023  16.320  0.0101  1.6490  2.0187
 4328SOL    HW224621   1.178   4.069  16.324  1.3451  0.4065 -0.0446
 4329SOL     OW24622   0.077   3.059   2.025  0.1170  0.2102  0.4139
 4329SOL    HW124623   0.128   3.135   2.052  1.0795 -0.2316 -0.1958
 4329SOL    HW224624   0.096   3.047   1.932  1.1754 -0.9643  0.7802
 4330SOL     OW24625   3.454   0.675   3.483 -0.3387  0.1022 -0.0383
 4330SOL    HW124626   3.389   0.607   3.501 -3.1718  2.2673 -1.9610
 4330SOL    HW224627   3.407   0.748   3.523  0.7303  1.2099 -0.8232
 4331SOL     OW24628   0.331   0.385   3.370 -0.2404 -0.9206  0.0958
 4331SOL    HW124629   0.249   0.385   3.322 -0.1579  3.6946 -0.1250
 4331SOL    HW224630   0.294   0.347   3.450  2.0030 -0.3799  1.4044
 4332SOL     OW24631   3.526   2.161   7.232 -0.1277  0.3518  0.8575
 4332SOL    HW124632   3.607   2.194   7.273 -1.0319  1.1354  2.0150
 4332SOL    HW224633   3.552   2.085   7.181  0.0926 -0.0018  1.4966
 4333SOL     OW24634   4.653   4.001  13.118  0.0725 -0.1664 -0.8323
 4333SOL    HW124635   4.612   3.918  13.091  2.4243 -1.7256  0.4384
 4333SOL    HW224636   0.010   3.984  13.101  0.0249 -0.1548 -1.1185
 4334SOL     OW24637   4.212   3.158  17.455 -0.8037 -0.2987  0.0387
 4334SOL    HW124638   4.167   3.115  17.382 -1.4465  0.0708  0.2176
 4334SOL    HW224639   4.191   3.248  17.432  0.3769  0.0868  0.4584
 4335SOL     OW24640   1.127   3.458   2.302  0.4592  0.0837 -0.2062
 4335SOL    HW124641   1.072   3.530   2.272  0.9602  0.4306 -0.2794
 4335SOL    HW224642   1.125   3.485   2.394 -1.3401 -0.5884 -0.0607
 4336SOL     OW24643   4.243   1.062  15.711 -0.0424 -0.4287 -0.0981
 4336SOL    HW124644   4.262   0.971  15.731  0.9069 -0.8212 -2.8003
 4336SOL    HW224645   4.311   1.076  15.645 -0.2145  1.8486  0.2091
 4337SOL     OW24646   4.475   2.922   6.594 -0.1738  0.2545 -0.2718
 4337SOL    HW124647   4.509   2.967   6.672  0.4263 -0.1170 -0.3235
 4337SOL    HW224648   4.472   2.832   6.626  2.7653  0.8590  1.7204
 4338SOL     OW24649   1.437   1.782  13.119 -0.2943  0.4933  0.4877
 4338SOL    HW124650   1.438   1.723  13.043 -1.9529 -0.5105  1.2601
 4338SOL    HW224651   1.419   1.720  13.190  0.9699  0.2279  0.5873
 4339SOL     OW24652   0.934   2.224   9.809  0.4194 -0.1623 -0.8599
 4339SOL    HW124653   1.025   2.195   9.816  0.2252 -1.0708 -2.0942
 4339SOL    HW224654   0.926   2.255   9.899 -4.4530  0.0831 -1.3686
 4340SOL     OW24655   0.786   1.822   3.874  0.3215 -0.1345 -0.3393
 4340SOL    HW124656   0.834   1.746   3.842 -2.4725 -1.4218 -1.4940
 4340SOL    HW224657   0.713   1.831   3.813 -1.6412 -0.0351  2.0218
 4341SOL     OW24658   3.179   3.991  16.211 -0.2395 -0.2880 -0.4289
 4341SOL    HW124659   3.150   3.901  16.223  0.3942 -0.4972 -0.4754
 4341SOL    HW224660   3.163   4.002  16.117  1.1546 -1.9928 -0.8604
 4342SOL     OW24661   1.633   2.238   1.378 -0.1172  0.1371  0.4655
 4342SOL    HW124662   1.567   2.301   1.347  1.6231  1.6349 -0.1921
 4342SOL    HW224663   1.574   2.166   1.400  0.0072 -0.2663 -0.5366
 4343SOL     OW24664   0.845   2.470   3.107  0.2478 -0.2232 -0.6620
 4343SOL    HW124665   0.899   2.427   3.173  0.9572  0.6671 -0.6621
 4343SOL    HW224666   0.779   2.406   3.079  0.4832 -1.6794  2.1425
 4344SOL     OW24667   1.878   1.169   7.709  0.1606  0.0607 -0.2693
 4344SOL    HW124668   1.918   1.256   7.717 -1.3326  0.7845 -0.7324
 4344SOL    HW224669   1.952   1.110   7.695  0.6674  0.5814  0.2217
 4345SOL     OW24670   4.134   2.741   6.602  0.0022 -0.2749 -0.1779
 4345SOL    HW124671   4.043   2.715   6.590 -0.2758  0.2099  0.9097
 4345SOL    HW224672   4.113   2.823   6.647 -0.8933  0.0855 -1.2659
 4346SOL     OW24673   1.987   0.550  13.761 -0.2663  0.5200  0.3406
 4346SOL    HW124674   1.933   0.527  13.837 -1.8195  3.6375  0.1879
 4346SOL    HW224675   2.064   0.580  13.808 -0.8760  0.0399  1.6579
 4347SOL     OW24676   2.650   4.469   8.206 -0.4024  0.3909 -0.1650
 4347SOL    HW124677   2.741   4.492   8.188  0.8708 -1.6979  3.5069
 4347SOL    HW224678   2.648   4.377   8.233 -1.4546  0.8280  1.1841
 4348SOL     OW24679   3.625   0.892   5.629  0.0101  0.5245 -0.2503
 4348SOL    HW124680   3.532   0.885   5.649 -0.4600 -0.3851 -2.7309
 4348SOL    HW224681   3.661   0.861   5.712 -0.4390 -0.5590 -0.4507
 4349SOL     OW24682   2.366   2.228  13.679  0.3785  0.1234  0.2736
 4349SOL    HW124683   2.342   2.304  13.732  2.0725  2.5304 -2.3287
 4349SOL    HW224684   2.414   2.175  13.743  1.9433  0.2744 -0.7520
 4350SOL     OW24685   3.911   1.685  11.641  0.0968 -0.1942  0.2964
 4350SOL    HW124686   3.951   1.772  11.643 -1.7458  0.6381  1.6596
 4350SOL    HW224687   3.836   1.692  11.699 -2.2129  0.1472 -2.7075
 4351SOL     OW24688   4.400   3.147   7.761  0.1828 -0.0275  0.0784
 4351SOL    HW124689   4.333   3.110   7.703 -2.6845  0.0363  3.3722
 4351SOL    HW224690   4.351   3.154   7.843  0.9409 -2.3092  0.7470
 4352SOL     OW24691   4.440   0.765   4.710 -0.0251  0.0682 -0.0747
 4352SOL    HW124692   4.529   0.767   4.676 -0.3174  0.8205 -0.7843
 4352SOL    HW224693   4.394   0.716   4.642 -0.4555  2.4574 -1.5141
 4353SOL     OW24694   0.860   3.020  14.675 -0.1834 -0.0898  0.0193
 4353SOL    HW124695   0.879   2.932  14.643  1.6522  0.2490  0.1817
 4353SOL    HW224696   0.932   3.072  14.639 -0.0902  0.1281  0.5166
 4354SOL     OW24697   1.819   1.338   9.809  0.2303  0.5878  0.5087
 4354SOL    HW124698   1.866   1.420   9.821  0.8364  0.0443  1.8158
 4354SOL    HW224699   1.733   1.376   9.786  1.6359  3.1214 -0.5940
 4355SOL     OW24700   4.293   1.176  15.275 -0.0546 -0.2954  0.4109
 4355SOL    HW124701   4.314   1.172  15.181 -3.4798 -0.1307 -0.3398
 4355SOL    HW224702   4.198   1.177  15.279 -0.0439  2.0026  0.1846
 4356SOL     OW24703   4.338   3.713   5.121 -0.8051 -0.4021 -0.4380
 4356SOL    HW124704   4.307   3.655   5.191  1.9427 -0.3981  0.7667
 4356SOL    HW224705   4.272   3.782   5.133  0.2939  0.7598 -1.0255
 4357SOL     OW24706   2.917   4.207  10.918 -0.4684 -0.5510 -0.1987
 4357SOL    HW124707   2.904   4.225  11.012  3.0963  1.0489 -0.0121
 4357SOL    HW224708   2.936   4.293  10.880  0.6180 -1.6146 -2.0508
 4358SOL     OW24709   2.768   1.319   0.440  0.4167  0.2641 -0.2039
 4358SOL    HW124710   2.750   1.225   0.444  0.1036  0.4675  3.1422
 4358SOL    HW224711   2.684   1.354   0.410  1.1526 -0.1582 -2.7734
 4359SOL     OW24712   1.515   1.615  17.538  0.0803 -0.7067 -0.0539
 4359SOL    HW124713   1.465   1.583  17.463 -3.1443 -0.4769  1.9799
 4359SOL    HW224714   1.600   1.613  17.496  0.7749  0.6574  1.2687
 4360SOL     OW24715   0.750   0.407   3.111  0.3941  0.2487  0.0857
 4360SOL    HW124716   0.733   0.451   3.194  0.7306 -0.7640  0.7017
 4360SOL    HW224717   0.804   0.334   3.143 -1.0581 -1.3390 -1.0345
 4361SOL     OW24718   2.149   3.909   4.957 -0.3314 -0.1038  0.4155
 4361SOL    HW124719   2.143   3.862   4.874 -2.9006 -1.2612  1.2364
 4361SOL    HW224720   2.056   3.931   4.967 -0.1407  0.8831 -0.0564
 4362SOL     OW24721   1.561   0.471   6.435  0.2009 -0.4210  0.1228
 4362SOL    HW124722   1.597   0.392   6.394 -1.4922 -1.2640  0.2447
 4362SOL    HW224723   1.592   0.533   6.368  1.3054  0.3729  1.3904
 4363SOL     OW24724   2.649   0.857   2.361  0.3879  0.1647 -0.5268
 4363SOL    HW124725   2.594   0.780   2.343 -0.3893  0.3827  0.8977
 4363SOL    HW224726   2.738   0.831   2.338  1.2937  0.6166  2.4835
 4364SOL     OW24727   2.172   0.114  12.845  0.2458 -0.3361 -0.2593
 4364SOL    HW124728   2.208   0.201  12.860 -1.6874  0.6339 -1.2395
 4364SOL    HW224729   2.227   0.078  12.775 -1.5242 -1.3008 -1.1627
 4365SOL     OW24730   1.905   1.191  14.538 -0.1198  0.1415 -0.0433
 4365SOL    HW124731   1.957   1.229  14.467  0.2591 -1.1308 -0.4490
 4365SOL    HW224732   1.930   1.102  14.513  0.0018  0.1630 -0.0019
 4366SOL     OW24733   3.952   2.812   2.918  0.1596  0.4187 -0.4672
 4366SOL    HW124734   3.882   2.786   2.858  0.8252 -1.8080 -0.2755
 4366SOL    HW224735   3.919   2.768   2.997  0.5905  0.4710 -0.2601
 4367SOL     OW24736   3.834   1.496   4.513 -0.6796  0.0936 -0.4206
 4367SOL    HW124737   3.919   1.532   4.486 -0.6376 -0.3376 -0.8502
 4367SOL    HW224738   3.829   1.542   4.597  2.0856 -1.4356  0.5820
 4368SOL     OW24739   1.726   3.811   5.513 -0.6986 -0.5062 -0.8624
 4368SOL    HW124740   1.776   3.758   5.452  1.7522  0.3787  0.3802
 4368SOL    HW224741   1.636   3.790   5.487  0.5932 -1.7258 -4.2519
 4369SOL     OW24742   2.437   0.228   2.475  0.0461 -0.2022  0.3096
 4369SOL    HW124743   2.441   0.322   2.458  0.8656 -0.6355 -1.9791
 4369SOL    HW224744   2.443   0.230   2.570  1.0028 -1.6661  0.2818
 4370SOL     OW24745   1.466   1.497   3.222 -0.5418 -0.0510  0.3708
 4370SOL    HW124746   1.530   1.434   3.254 -0.1429  0.8629  1.4054
 4370SOL    HW224747   1.408   1.497   3.298 -0.8331 -1.6760  0.1454
 4371SOL     OW24748   0.632   2.923   1.929 -0.1526 -0.1039  0.2975
 4371SOL    HW124749   0.640   2.898   2.021  0.2221 -0.2494  0.2269
 4371SOL    HW224750   0.561   2.986   1.925  1.5869  1.9175  1.2990
 4372SOL     OW24751   0.025   3.468   9.297 -0.1797 -0.2750  0.0082
 4372SOL    HW124752   4.670   3.495   9.285  0.2008  1.0536  0.1032
 4372SOL    HW224753   0.052   3.517   9.375  1.2741 -0.1872 -0.5467
 4373SOL     OW24754   2.907   0.050   4.108  0.2519  0.4415 -0.0160
 4373SOL    HW124755   2.957   0.015   4.035  2.3941  1.0347  1.1807
 4373SOL    HW224756   2.885   0.133   4.066 -3.6852 -0.5215  0.1191
 4374SOL     OW24757   1.569   3.220   6.699  0.1304  0.4277  0.4251
 4374SOL    HW124758   1.585   3.146   6.757 -1.1975 -0.7002 -0.6242
 4374SOL    HW224759   1.522   3.281   6.755  0.5447  0.5655  0.6250
 4375SOL     OW24760   3.869   1.952   1.930 -0.0312 -0.5055  0.3391
 4375SOL    HW124761   3.848   1.966   2.022 -1.8226  0.1608 -0.1704
 4375SOL    HW224762   3.921   1.872   1.932  1.5150  0.4800  0.0794
 4376SOL     OW24763   1.982   0.108   4.987 -0.2547 -0.7888 -0.2210
 4376SOL    HW124764   1.961   0.051   5.061  3.8987 -2.7494 -0.5626
 4376SOL    HW224765   2.014   0.047   4.920  1.5980  2.2806 -2.1234
 4377SOL     OW24766   4.141   2.190   9.643  0.6406  0.5838  0.2064
 4377SOL    HW124767   4.087   2.118   9.675  1.1252  0.7268  1.3261
 4377SOL    HW224768   4.131   2.176   9.548  1.4142  0.4062  0.1517
 4378SOL     OW24769   3.743   4.679   3.962  0.2944 -0.1707  0.8002
 4378SOL    HW124770   3.726   4.720   4.046 -2.4577 -1.4887  0.8828
 4378SOL    HW224771   3.815   4.630   4.003 -1.3913 -1.0125  2.7407
 4379SOL     OW24772   2.512   0.121   8.529 -0.6510 -0.3469 -0.2118
 4379SOL    HW124773   2.508   0.071   8.447  1.4982  1.6484 -1.5126
 4379SOL    HW224774   2.583   0.182   8.512  1.0835 -1.8671  1.6529
 4380SOL     OW24775   4.301   1.278  11.956  0.3790 -0.0315  0.0209
 4380SOL    HW124776   4.260   1.308  11.875 -2.5244 -3.1368  0.3144
 4380SOL    HW224777   4.315   1.184  11.942  0.9263  0.0786 -0.1989
 4381SOL     OW24778   4.537   3.320   5.084 -0.3753  0.6019  0.0521
 4381SOL    HW124779   4.534   3.373   5.163 -2.6204  1.2466 -0.4697
 4381SOL    HW224780   4.626   3.341   5.055 -1.0288  1.1323 -1.5430
 4382SOL     OW24781   2.035   4.026  13.872  0.3868  0.0809 -0.6716
 4382SOL    HW124782   2.070   4.090  13.810  0.5510  0.8319  0.2010
 4382SOL    HW224783   2.118   3.988  13.902 -0.7704 -0.9444  1.2413
 4383SOL     OW24784   2.560   3.685  13.916  0.0019 -0.1232 -0.6452
 4383SOL    HW124785   2.501   3.720  13.849 -0.2116  0.5895 -0.0871
 4383SOL    HW224786   2.595   3.614  13.862 -0.5522 -1.2643  0.5138
 4384SOL     OW24787   2.022   3.766   2.038 -0.7320  0.2822 -0.0482
 4384SOL    HW124788   2.068   3.850   2.032  3.3246 -1.8705  0.7923
 4384SOL    HW224789   1.962   3.780   2.110  0.2547  0.0126  0.8272
 4385SOL     OW24790   0.018   4.727   5.950  0.2428  0.6581 -0.2361
 4385SOL    HW124791   0.085   0.021   5.888  0.4964  0.5411 -0.0195
 4385SOL    HW224792   0.063   0.020   6.029 -1.4445 -1.4451  1.5197
 4386SOL     OW24793   1.425   2.051  13.061  0.0117  0.2661 -0.0170
 4386SOL    HW124794   1.423   1.963  13.098 -2.8607  0.7212  0.8847
 4386SOL    HW224795   1.345   2.095  13.089 -0.0891 -0.4694  0.8402
 4387SOL     OW24796   1.998   0.228   1.800  0.6625  0.4059  0.1538
 4387SOL    HW124797   1.998   0.222   1.704  0.0893  1.2037  0.1056
 4387SOL    HW224798   1.922   0.285   1.807  1.5801  2.0945 -3.6022
 4388SOL     OW24799   4.448   1.251   4.071 -0.1968 -0.0007 -0.6130
 4388SOL    HW124800   4.469   1.165   4.034  2.1152  0.6201 -0.7656
 4388SOL    HW224801   4.392   1.291   4.004  0.0561  2.8593  0.9123
 4389SOL     OW24802   1.934   2.583  14.968  0.3531 -0.3005  0.0346
 4389SOL    HW124803   1.981   2.540  14.897 -1.0926  0.3267 -1.2906
 4389SOL    HW224804   1.987   2.662  14.975 -0.2627  0.3835 -3.0450
 4390SOL     OW24805   3.566   1.931  12.808  0.2104 -0.5567  0.3575
 4390SOL    HW124806   3.603   2.019  12.809  1.0122 -0.9267  4.1984
 4390SOL    HW224807   3.499   1.944  12.741  1.3709 -1.2707 -0.9449
 4391SOL     OW24808   1.704   0.110   6.762  0.1564 -0.1348 -0.3394
 4391SOL    HW124809   1.745   0.045   6.705  0.1784 -0.1356 -0.3224
 4391SOL    HW224810   1.786   0.142   6.799  0.3120  0.8735 -1.5457
 4392SOL     OW24811   0.577   2.358  16.931 -0.0079  0.0556 -0.0913
 4392SOL    HW124812   0.486   2.332  16.916 -0.2056  0.8751 -0.3053
 4392SOL    HW224813   0.616   2.275  16.959  1.0638  0.1048 -1.4016
 4393SOL     OW24814   4.415   3.398   8.760  0.4581  0.1085 -0.4856
 4393SOL    HW124815   4.440   3.479   8.804 -1.9562  0.3524  0.4873
 4393SOL    HW224816   4.329   3.381   8.800  0.9301 -1.1431  0.0022
 4394SOL     OW24817   0.501   1.689   6.050 -0.0690  0.5959 -0.0743
 4394SOL    HW124818   0.517   1.702   5.957 -0.3898  2.5223  0.1358
 4394SOL    HW224819   0.541   1.761   6.099  1.6962 -0.2359 -0.3291
 4395SOL     OW24820   0.087   2.317   3.868 -0.0343  0.1000 -0.0174
 4395SOL    HW124821   0.046   2.372   3.935  0.9772  0.6972  0.1187
 4395SOL    HW224822   0.165   2.299   3.921  1.5575 -0.1524 -2.4633
 4396SOL     OW24823   3.931   0.582   6.346 -0.3173 -0.2564  0.4649
 4396SOL    HW124824   4.013   0.535   6.333 -1.8198 -2.5256 -0.7249
 4396SOL    HW224825   3.883   0.528   6.409 -1.8433 -0.0697 -0.5340
 4397SOL     OW24826   2.117   3.393  15.187  0.0841  0.1912  0.2949
 4397SOL    HW124827   2.124   3.458  15.117 -0.2631  0.7765  0.8055
 4397SOL    HW224828   2.188   3.331  15.165 -0.5088  0.7127 -3.0358
 4398SOL     OW24829   3.559   4.591  16.666 -0.2043 -0.3039 -0.6246
 4398SOL    HW124830   3.489   4.627  16.721  0.5378  2.2038 -1.2903
 4398SOL    HW224831   3.634   4.617  16.719  0.5197 -0.8603 -1.3770
 4399SOL     OW24832   4.554   3.913   1.350  0.0109 -0.4179  0.2241
 4399SOL    HW124833   4.537   3.988   1.408  1.0161  1.0495 -1.3794
 4399SOL    HW224834   4.648   3.931   1.341  0.3071 -2.3487 -0.4010
 4400SOL     OW24835   2.176   2.048  13.037  0.5908 -0.1514 -0.6123
 4400SOL    HW124836   2.090   2.017  13.064  1.5253 -1.0393  1.3167
 4400SOL    HW224837   2.161   2.135  12.998 -0.7780  0.3849  1.1298
 4401SOL     OW24838   1.538   2.231   9.416 -0.8985 -0.6088 -0.0065
 4401SOL    HW124839   1.581   2.309   9.380 -0.2919 -1.3626 -0.9024
 4401SOL    HW224840   1.594   2.203   9.488 -2.2407 -0.6858  1.0054
 4402SOL     OW24841   3.106   4.611   2.520 -0.1506 -0.2169  0.0527
 4402SOL    HW124842   3.018   4.586   2.492 -1.7435  2.2761  2.8414
 4402SOL    HW224843   3.098   4.573   2.608  0.9869 -2.5436 -0.8615
 4403SOL     OW24844   4.300   0.759  12.519  0.3047  0.0651 -0.2186
 4403SOL    HW124845   4.369   0.739  12.583 -1.1724  2.2818  2.0894
 4403SOL    HW224846   4.224   0.732  12.572  1.1362  1.1991  1.5723
 4404SOL     OW24847   0.291   3.034   4.635  0.2370  0.5067  0.2594
 4404SOL    HW124848   0.270   3.069   4.721 -0.5738 -1.1465  0.7231
 4404SOL    HW224849   0.215   3.069   4.588 -0.0926  0.0776  0.4783
 4405SOL     OW24850   2.145   3.432  11.597  0.6711 -0.3191 -0.2974
 4405SOL    HW124851   2.203   3.416  11.672  0.3248 -0.1207  0.0129
 4405SOL    HW224852   2.205   3.416  11.525  0.2108  0.2457 -0.8074
 4406SOL     OW24853   0.872   1.086   7.340 -0.0133 -0.0896 -0.6147
 4406SOL    HW124854   0.858   1.116   7.430 -0.1648  2.7997 -1.6173
 4406SOL    HW224855   0.908   0.998   7.350 -1.4590 -0.4991  0.9678
 4407SOL     OW24856   4.442   0.173   7.211 -0.1526  0.3552  0.2619
 4407SOL    HW124857   4.411   0.156   7.300 -1.9731 -0.2572 -0.4924
 4407SOL    HW224858   4.537   0.186   7.212 -0.1012  0.0857 -0.7225
 4408SOL     OW24859   1.750   4.279   1.989 -0.2935  0.2394 -0.0713
 4408SOL    HW124860   1.671   4.266   2.041 -0.4917 -0.4002 -0.5369
 4408SOL    HW224861   1.714   4.272   1.901 -0.2121 -2.2412  0.0989
 4409SOL     OW24862   1.064   0.323   3.698  0.2754 -0.0070 -0.0044
 4409SOL    HW124863   1.115   0.403   3.708 -0.4810  0.7253 -1.9834
 4409SOL    HW224864   1.088   0.282   3.781  0.8243 -1.7920 -1.0351
 4410SOL     OW24865   0.162   1.559   9.146 -0.3906 -0.4861  0.3556
 4410SOL    HW124866   0.219   1.510   9.087  4.4042  1.8098  3.0679
 4410SOL    HW224867   0.128   1.491   9.204 -3.1400 -0.3331 -1.1074
 4411SOL     OW24868   4.519   0.944   4.947 -0.9039  0.2526 -0.1565
 4411SOL    HW124869   4.497   0.952   4.855  1.3135 -1.1679 -0.8020
 4411SOL    HW224870   4.435   0.911   4.982 -1.4589 -0.7146 -2.4428
 4412SOL     OW24871   1.763   2.687  16.679 -0.1729 -0.2918 -0.1895
 4412SOL    HW124872   1.797   2.644  16.758  1.3577  3.4257  1.2115
 4412SOL    HW224873   1.849   2.682  16.638 -0.3700 -0.0604 -0.6343
 4413SOL     OW24874   3.965   0.821   5.040 -0.7477 -0.0903  0.6510
 4413SOL    HW124875   3.981   0.792   4.950 -0.3765  0.1798  0.6298
 4413SOL    HW224876   4.017   0.901   5.043  0.0777 -0.5972  0.1834
 4414SOL     OW24877   1.346   1.161  15.216  0.0130 -0.5312 -0.1519
 4414SOL    HW124878   1.359   1.079  15.265  1.3550 -0.3139 -0.1611
 4414SOL    HW224879   1.251   1.171  15.226  0.0089 -0.1084 -0.6232
 4415SOL     OW24880   2.836   2.952   9.464 -0.1306  0.0503  0.2344
 4415SOL    HW124881   2.924   2.916   9.467 -0.3670 -0.4212  1.5124
 4415SOL    HW224882   2.837   3.007   9.386  1.0756  0.9739  0.8953
 4416SOL     OW24883   4.657   0.005   0.890 -0.3149  0.4782 -0.2754
 4416SOL    HW124884   4.624   4.659   0.926  0.2257  0.9881  1.3799
 4416SOL    HW224885   4.599   0.004   0.814 -2.5670  0.9419  1.4346
 4417SOL     OW24886   1.415   0.851   2.481  0.8658 -0.3902  0.5914
 4417SOL    HW124887   1.397   0.832   2.389 -0.7991  0.7065  0.6857
 4417SOL    HW224888   1.365   0.780   2.521 -0.5094  0.4023  0.2735
 4418SOL     OW24889   3.170   4.073   6.713 -0.3028  0.3372 -0.2666
 4418SOL    HW124890   3.149   4.121   6.632  0.8886  2.2907  0.5718
 4418SOL    HW224891   3.191   4.142   6.777 -0.5584  0.2361 -0.0768
 4419SOL     OW24892   0.350   0.508   3.799 -0.0105 -0.3473 -0.0527
 4419SOL    HW124893   0.353   0.493   3.894  2.0201  0.1185 -0.0401
 4419SOL    HW224894   0.318   0.598   3.793 -4.6138 -1.8948  1.4790
 4420SOL     OW24895   4.493   0.595   7.689  0.7609 -0.3825  0.1416
 4420SOL    HW124896   4.574   0.550   7.715  1.1866  0.2487 -0.1074
 4420SOL    HW224897   4.515   0.675   7.736  1.4116  0.5448 -1.7620
 4421SOL     OW24898   2.870   4.040   8.637  0.7659  0.0949  0.2283
 4421SOL    HW124899   2.938   4.020   8.573 -1.0456 -2.1261 -0.9968
 4421SOL    HW224900   2.856   4.134   8.624  3.2172  0.6534  1.4526
 4422SOL     OW24901   1.901   2.525   3.028  0.7109  0.0400 -0.2803
 4422SOL    HW124902   1.964   2.481   3.085  0.5412 -0.8407 -0.7616
 4422SOL    HW224903   1.891   2.462   2.955 -1.1102 -0.2080  0.1786
 4423SOL     OW24904   1.055   0.058   7.032  0.0031 -0.1413 -0.0062
 4423SOL    HW124905   1.138   0.097   7.006 -0.3228 -0.4775 -1.5563
 4423SOL    HW224906   1.019   0.138   7.070 -1.8991  0.0121 -2.1817
 4424SOL     OW24907   2.049   1.498  10.762  0.5789 -0.0392 -0.1384
 4424SOL    HW124908   2.056   1.579  10.814 -2.1989 -0.1489  0.4359
 4424SOL    HW224909   2.126   1.447  10.785  1.8167  2.4224  1.2681
 4425SOL     OW24910   4.050   0.948   7.275  0.0541 -0.7745 -0.0285
 4425SOL    HW124911   4.072   0.858   7.252 -0.8594 -1.3484  1.3361
 4425SOL    HW224912   4.048   0.982   7.185  1.1199 -1.2189 -0.2271
 4426SOL     OW24913   3.231   3.489   6.932 -0.4441 -0.2409  0.0759
 4426SOL    HW124914   3.181   3.570   6.936 -2.3657 -1.4222 -0.4353
 4426SOL    HW224915   3.286   3.521   6.861 -0.8204  0.6206  0.1770
 4427SOL     OW24916   1.580   3.568   8.148 -0.3339 -0.2396 -0.2547
 4427SOL    HW124917   1.518   3.512   8.194  0.5577 -0.4888  0.6412
 4427SOL    HW224918   1.574   3.649   8.199 -3.9838 -1.7413  1.6406
 4428SOL     OW24919   1.364   3.401   8.261  0.0495 -0.5989 -0.1303
 4428SOL    HW124920   1.358   3.320   8.312 -0.0390  0.6216  1.7782
 4428SOL    HW224921   1.299   3.382   8.193 -0.4098 -0.4377  0.2667
 4429SOL     OW24922   2.461   3.901  17.674  0.1738  0.0111  0.5157
 4429SOL    HW124923   2.438   3.817  17.634 -1.1135  0.7849 -0.3575
 4429SOL    HW224924   2.508   3.873   0.009  1.5646  1.1549  0.1017
 4430SOL     OW24925   3.615   0.867   8.933 -0.0053 -0.3780 -0.5491
 4430SOL    HW124926   3.560   0.940   8.907  0.2705  0.4894  1.3120
 4430SOL    HW224927   3.650   0.899   9.016  1.6498 -0.8372 -1.0590
 4431SOL     OW24928   0.132   1.354   2.168  0.0741  0.7114  0.1045
 4431SOL    HW124929   0.163   1.342   2.078  1.0646 -2.7104  0.8958
 4431SOL    HW224930   0.217   1.368   2.209 -0.0773  0.8381  0.3725
 4432SOL     OW24931   3.284   4.305  12.044  0.6709 -0.0308  0.4500
 4432SOL    HW124932   3.302   4.276  12.133 -2.4575 -1.0173  0.7419
 4432SOL    HW224933   3.319   4.394  12.041 -1.3834  0.7941  1.0241
 4433SOL     OW24934   3.371   3.283  16.414 -0.6970 -0.0222  0.4556
 4433SOL    HW124935   3.305   3.348  16.440  0.1337  0.7995  0.4934
 4433SOL    HW224936   3.397   3.247  16.498  1.0483 -0.2390 -0.1897
 4434SOL     OW24937   3.996   4.725   5.091  0.0318  0.4346 -0.4375
 4434SOL    HW124938   4.049   4.666   5.144 -1.3648 -1.2686 -0.9165
 4434SOL    HW224939   3.915   4.725   5.142  2.9214 -0.5309  4.1111
 4435SOL     OW24940   0.999   3.795  17.579  0.1176  0.0027  0.5336
 4435SOL    HW124941   1.092   3.792  17.599  0.3286  0.0226 -0.4582
 4435SOL    HW224942   0.973   3.886  17.590  3.0632  0.9447 -0.2953
 4436SOL     OW24943   1.442   0.664   8.497  0.5247  0.0927 -0.2818
 4436SOL    HW124944   1.517   0.697   8.547 -0.7718  0.6280  1.3013
 4436SOL    HW224945   1.384   0.740   8.506 -0.2190 -0.6448  1.1906
 4437SOL     OW24946   3.021   3.578   5.760  0.6575 -0.3838  0.1438
 4437SOL    HW124947   2.927   3.567   5.775  0.6236 -0.4454 -0.1216
 4437SOL    HW224948   3.030   3.670   5.785  1.7992 -0.8366  1.4037
 4438SOL     OW24949   1.147   1.354  13.008 -0.3672  0.1033  0.0425
 4438SOL    HW124950   1.179   1.378  13.095  1.8122 -1.9981 -0.1872
 4438SOL    HW224951   1.059   1.392  13.005 -0.6007 -0.6249 -2.3043
 4439SOL     OW24952   3.358   0.998   1.787  0.4078  0.2065  0.2175
 4439SOL    HW124953   3.390   1.077   1.830  0.2990 -0.0276  0.7173
 4439SOL    HW224954   3.331   1.041   1.706  1.5340  0.9559  0.2431
 4440SOL     OW24955   3.548   4.530   4.841 -0.2142  0.2676 -0.4740
 4440SOL    HW124956   3.527   4.592   4.771 -1.3052 -0.9351 -1.2135
 4440SOL    HW224957   3.490   4.548   4.915  0.3210 -0.0493  0.0152
 4441SOL     OW24958   0.390   0.508   8.578  0.3649 -0.0588  0.2530
 4441SOL    HW124959   0.407   0.586   8.525  0.8025 -0.3003  0.0375
 4441SOL    HW224960   0.378   0.552   8.662 -2.3749  0.1859 -0.2799
 4442SOL     OW24961   2.258   2.628   2.548 -0.4973  0.3121  0.0667
 4442SOL    HW124962   2.230   2.545   2.509  2.2978 -0.0951 -1.0191
 4442SOL    HW224963   2.343   2.638   2.507 -0.2712 -3.0875 -0.3281
 4443SOL     OW24964   3.752   4.711  10.224 -0.3540 -0.3382 -0.3690
 4443SOL    HW124965   3.705   4.699  10.307 -0.6485 -1.9744 -0.7603
 4443SOL    HW224966   3.762   4.622  10.188 -1.1681 -0.7875  0.5068
 4444SOL     OW24967   3.583   4.455  15.917 -0.3527  0.0359 -0.0110
 4444SOL    HW124968   3.511   4.459  15.853 -1.7472 -0.7259  1.5236
 4444SOL    HW224969   3.651   4.397  15.884  0.4231  1.1202 -0.2910
 4445SOL     OW24970   0.357   1.159   8.168 -0.6277 -0.4254 -0.6473
 4445SOL    HW124971   0.417   1.181   8.240 -1.6480 -0.3418  0.1723
 4445SOL    HW224972   0.288   1.112   8.214  0.2451  0.5640  1.7055
 4446SOL     OW24973   0.037   1.947   7.307 -0.6767 -0.6432 -0.2510
 4446SOL    HW124974   0.070   1.932   7.219  0.0276  0.7467 -0.2368
 4446SOL    HW224975   0.046   2.042   7.321  0.3923 -1.3539  3.8604
 4447SOL     OW24976   0.227   4.134   8.527 -0.2631  0.4078  0.8670
 4447SOL    HW124977   0.314   4.159   8.558  0.5137 -1.7541  0.4324
 4447SOL    HW224978   0.251   4.045   8.501 -2.6793  0.0659 -0.1455
 4448SOL     OW24979   3.975   4.718   5.963 -0.4140  0.0827 -0.1466
 4448SOL    HW124980   3.997   0.063   5.918 -1.1360 -0.1706 -0.9545
 4448SOL    HW224981   4.045   4.705   6.027 -0.7076  1.0454  0.3741
 4449SOL     OW24982   4.476   1.086   4.708 -0.6112  0.0645  0.6529
 4449SOL    HW124983   4.485   1.181   4.701 -2.5144  0.3389  1.9365
 4449SOL    HW224984   4.565   1.070   4.679 -0.3719  0.7514  0.9911
 4450SOL     OW24985   4.304   3.126   3.471  0.1522  0.3323 -0.0697
 4450SOL    HW124986   4.320   3.056   3.534  1.4668 -0.2467 -1.0500
 4450SOL    HW224987   4.211   3.125   3.449  0.0977 -1.1532  0.1837
 4451SOL     OW24988   4.228   1.470   6.522 -0.5766 -0.0999  0.1648
 4451SOL    HW124989   4.181   1.485   6.440 -0.1719 -1.5732 -0.3278
 4451SOL    HW224990   4.190   1.387   6.549  0.0692  0.5622  3.0355
 4452SOL     OW24991   0.724   2.286   5.208  0.3781 -0.3194 -0.1443
 4452SOL    HW124992   0.662   2.222   5.174 -0.0696 -0.5448  1.1085
 4452SOL    HW224993   0.761   2.320   5.126  0.4369  0.2547  0.1197
 4453SOL     OW24994   0.308   0.271   3.085 -0.0825 -0.0876 -0.9062
 4453SOL    HW124995   0.264   0.307   3.008  0.0869  0.5589 -0.6970
 4453SOL    HW224996   0.398   0.301   3.067 -0.3947  0.7025 -1.1506
 4454SOL     OW24997   2.895   4.394   3.412  0.2244 -0.1090  0.1523
 4454SOL    HW124998   2.954   4.452   3.364 -2.0031  2.2375  0.2417
 4454SOL    HW224999   2.955   4.376   3.485 -0.3973 -2.5752  0.0287
 4455SOL     OW25000   3.769   4.200   2.690 -0.1460 -0.1085 -0.2009
 4455SOL    HW125001   3.754   4.282   2.736  0.7636  0.7895 -1.4846
 4455SOL    HW225002   3.680   4.182   2.662 -0.3550  0.1374  0.3238
 4456SOL     OW25003   4.491   0.484   8.647 -0.1704  0.2745  0.3780
 4456SOL    HW125004   4.409   0.437   8.633 -0.6974  1.8284 -1.6899
 4456SOL    HW225005   4.466   0.555   8.706  3.5109  2.0102 -0.1788
 4457SOL     OW25006   1.607   2.202  11.231 -0.7444 -0.2682 -0.3828
 4457SOL    HW125007   1.623   2.213  11.137 -0.3114 -1.8222 -0.4847
 4457SOL    HW225008   1.610   2.109  11.253  1.8113  0.1650  1.0326
 4458SOL     OW25009   4.155   0.247   7.822 -0.2714 -0.8359  0.0539
 4458SOL    HW125010   4.212   0.323   7.822 -3.6777  1.7183  0.7332
 4458SOL    HW225011   4.141   0.242   7.727 -1.8448  2.0225  0.1321
 4459SOL     OW25012   2.373   1.033   6.263 -0.2675  0.0193 -0.1214
 4459SOL    HW125013   2.450   0.981   6.239 -0.5137 -1.1205  1.5707
 4459SOL    HW225014   2.394   1.126   6.273  2.2785 -0.5307 -0.3344
 4460SOL     OW25015   1.158   3.576   3.925  0.4156  0.0301  0.6231
 4460SOL    HW125016   1.244   3.614   3.914  0.9097 -1.4860 -0.7476
 4460SOL    HW225017   1.114   3.633   3.988 -1.7963 -1.6606  0.6143
 4461SOL     OW25018   4.302   4.426   1.730 -0.4319  0.5633  0.2001
 4461SOL    HW125019   4.387   4.435   1.687  0.5748 -1.5966  1.7614
 4461SOL    HW225020   4.315   4.487   1.803 -2.0219 -1.2538  1.9782
 4462SOL     OW25021   2.203   3.589   5.283 -0.3949  0.4694  0.0669
 4462SOL    HW125022   2.137   3.611   5.350 -0.4088 -1.1079  0.5822
 4462SOL    HW225023   2.148   3.586   5.205 -0.5880  3.1914  0.0776
 4463SOL     OW25024   3.473   1.285   5.735  0.3992 -0.2344 -0.3793
 4463SOL    HW125025   3.416   1.254   5.805 -1.6359 -3.4886 -3.5415
 4463SOL    HW225026   3.555   1.275   5.783  0.0764 -2.5807 -0.3524
 4464SOL     OW25027   2.406   2.251   8.956 -0.1609  0.0455 -0.5553
 4464SOL    HW125028   2.351   2.184   8.995  0.2566  0.4024  0.6716
 4464SOL    HW225029   2.485   2.212   8.993 -0.4747 -1.3451 -1.3408
 4465SOL     OW25030   0.201   2.889   0.254 -0.1080  0.3249  0.3799
 4465SOL    HW125031   0.232   2.946   0.184 -0.4505  0.1867  0.1193
 4465SOL    HW225032   0.260   2.815   0.246 -1.0543 -0.5803  1.6484
 4466SOL     OW25033   1.294   4.004   3.513 -0.1780 -0.5280 -0.5028
 4466SOL    HW125034   1.331   3.934   3.460  1.4858 -0.0074 -0.0035
 4466SOL    HW225035   1.201   3.981   3.508 -0.0581 -1.0051 -0.5373
 4467SOL     OW25036   0.939   3.581   7.001  0.1218 -0.1873 -0.0217
 4467SOL    HW125037   1.032   3.590   7.020 -0.1632  3.0730 -0.1854
 4467SOL    HW225038   0.938   3.614   6.911  2.4985  0.2814  0.1198
 4468SOL     OW25039   0.739   2.991   2.876  0.1369 -0.8584  0.2720
 4468SOL    HW125040   0.831   2.966   2.874  1.0398  2.2283  2.3883
 4468SOL    HW225041   0.693   2.912   2.849 -1.1088  0.0306 -0.2406
 4469SOL     OW25042   3.596   2.287  13.050  0.6141  0.4085 -0.2204
 4469SOL    HW125043   3.572   2.273  13.142 -0.9150  0.1687 -0.6460
 4469SOL    HW225044   3.598   2.382  13.057  0.4603  0.2279  2.1704
 4470SOL     OW25045   3.298   2.804   4.633 -0.0473 -0.3934  0.3895
 4470SOL    HW125046   3.275   2.808   4.541 -0.3925 -0.3500  0.4758
 4470SOL    HW225047   3.271   2.892   4.658 -1.1679 -1.0158  1.4244
 4471SOL     OW25048   2.622   1.987  14.671  0.2318 -0.0477  0.3347
 4471SOL    HW125049   2.650   1.960  14.758 -2.0951 -0.8751  0.8022
 4471SOL    HW225050   2.619   2.082  14.685  0.6809  0.1113 -0.6360
 4472SOL     OW25051   4.269   4.731   7.704  0.1424  0.3168 -0.1307
 4472SOL    HW125052   4.309   0.048   7.772  1.9415  0.7141 -1.4890
 4472SOL    HW225053   4.287   4.639   7.725 -1.2507 -0.2293 -1.2615
 4473SOL     OW25054   4.583   3.616   4.287 -0.5170 -0.3664  0.1938
 4473SOL    HW125055   4.564   3.660   4.205  1.1281  1.3340  0.7290
 4473SOL    HW225056   4.532   3.539   4.262  0.0629 -1.0886  1.2246
 4474SOL     OW25057   2.581   2.379  15.529 -0.1170 -0.0125  0.7998
 4474SOL    HW125058   2.552   2.431  15.603 -2.1304 -2.0748  1.4779
 4474SOL    HW225059   2.661   2.344  15.569 -1.1531 -1.2901  1.7704
 4475SOL     OW25060   3.928   2.065   3.946 -0.1113 -0.2141 -0.2471
 4475SOL    HW125061   3.994   1.997   3.957 -0.0372  0.1679  1.5266
 4475SOL    HW225062   3.970   2.110   3.873  1.2381  0.1396  0.7501
 4476SOL     OW25063   0.715   1.785   1.089  0.1971 -0.5581  0.5142
 4476SOL    HW125064   0.707   1.734   1.169 -0.0199 -0.9532  0.2385
 4476SOL    HW225065   0.807   1.802   1.105  0.8431 -0.9455 -2.8261
 4477SOL     OW25066   1.044   3.860   4.342 -0.0329 -0.2544 -0.3178
 4477SOL    HW125067   0.984   3.928   4.370  0.3387 -0.0928  0.0782
 4477SOL    HW225068   1.048   3.801   4.417 -2.2081 -1.7332 -1.3237
 4478SOL     OW25069   2.950   2.890   3.723 -0.0961  0.0551  0.3014
 4478SOL    HW125070   3.021   2.863   3.666 -1.2174  1.8700 -1.9515
 4478SOL    HW225071   2.994   2.863   3.804  1.1725  1.2300 -0.0074
 4479SOL     OW25072   2.217   1.873   0.726  0.2521 -0.6061 -0.0892
 4479SOL    HW125073   2.287   1.930   0.757 -0.2863  0.5781 -1.0016
 4479SOL    HW225074   2.139   1.899   0.775  0.0722 -0.9748 -0.1790
 4480SOL     OW25075   1.130   2.344  14.863  0.0507  0.0213  0.0305
 4480SOL    HW125076   1.181   2.387  14.931 -1.0944 -0.0506  0.9276
 4480SOL    HW225077   1.040   2.373  14.877  0.6355  1.6158  0.4200
 4481SOL     OW25078   1.033   0.785  10.354  0.5192  0.1274  0.5831
 4481SOL    HW125079   0.990   0.715  10.306 -1.3751  3.1061 -2.0691
 4481SOL    HW225080   1.125   0.758  10.363  1.3634  2.2876 -1.6576
 4482SOL     OW25081   4.700   2.848   2.142  0.3083  0.7552 -0.3371
 4482SOL    HW125082   0.008   2.916   2.091 -0.2445  2.1354  1.0157
 4482SOL    HW225083   4.736   2.771   2.100  0.3397  0.8203 -0.4301
 4483SOL     OW25084   4.126   0.283  13.532 -0.0442 -0.0149 -0.4491
 4483SOL    HW125085   4.090   0.234  13.607 -1.4291 -0.7547 -1.6011
 4483SOL    HW225086   4.167   0.356  13.577 -1.8142  1.1598 -0.7550
 4484SOL     OW25087   0.922   4.154  14.462  0.1724  0.0884  0.1572
 4484SOL    HW125088   0.831   4.177  14.480 -0.3791 -1.2495 -0.9939
 4484SOL    HW225089   0.916   4.061  14.479 -0.0548  0.6602  3.2193
 4485SOL     OW25090   3.350   0.278   1.368  0.1748  0.1063 -0.0207
 4485SOL    HW125091   3.350   0.372   1.381 -0.8064  0.1737 -0.4693
 4485SOL    HW225092   3.256   0.262   1.380  0.4853 -1.3887  0.4303
 4486SOL     OW25093   2.884   2.979   8.395 -0.0613 -0.2968  0.5407
 4486SOL    HW125094   2.887   2.960   8.301 -1.6327 -0.9407  0.6242
 4486SOL    HW225095   2.865   2.900   8.447  1.5909 -1.2607 -0.3118
 4487SOL     OW25096   3.455   2.476   2.974  0.5082  0.1873 -0.4118
 4487SOL    HW125097   3.420   2.401   3.022 -0.2440 -0.0405 -1.2970
 4487SOL    HW225098   3.525   2.429   2.929 -0.0752 -1.1904  0.1218
 4488SOL     OW25099   3.081   2.065   1.460  0.8717 -0.2533 -0.0024
 4488SOL    HW125100   3.059   2.157   1.473 -0.7416 -0.7010  0.4190
 4488SOL    HW225101   3.111   2.066   1.369  0.4132 -0.8384 -0.1582
 4489SOL     OW25102   0.830   0.348   7.651  0.4821  0.3861  0.1173
 4489SOL    HW125103   0.750   0.302   7.674  1.8980 -1.8776  0.4746
 4489SOL    HW225104   0.800   0.363   7.562 -1.3925 -1.4187  0.4561
 4490SOL     OW25105   2.595   1.872   7.406  0.1175  0.5482 -0.1845
 4490SOL    HW125106   2.522   1.835   7.455 -0.0164 -0.1649 -0.9189
 4490SOL    HW225107   2.663   1.806   7.422 -1.1956 -0.9179 -0.6080
 4491SOL     OW25108   0.733   0.738  14.404  0.4471 -0.2750 -0.5605
 4491SOL    HW125109   0.686   0.773  14.328  0.4872 -0.7208 -0.7903
 4491SOL    HW225110   0.661   0.679  14.426  0.3473 -0.2330 -0.7731
 4492SOL     OW25111   0.216   2.232   1.593 -0.2338 -0.3781 -0.0450
 4492SOL    HW125112   0.290   2.250   1.651 -0.2686  0.0858 -0.1423
 4492SOL    HW225113   0.265   2.208   1.513 -0.3359 -2.0142  0.3807
 4493SOL     OW25114   0.962   2.886   5.084 -0.1625 -0.0616 -0.5496
 4493SOL    HW125115   0.972   2.939   5.163 -0.3809  0.7212 -1.0368
 4493SOL    HW225116   0.991   2.801   5.114  0.5641  0.3602 -0.0756
 4494SOL     OW25117   0.762   3.852   9.503  0.2609 -0.4797  0.1713
 4494SOL    HW125118   0.794   3.865   9.592 -0.2540 -1.4366  0.4995
 4494SOL    HW225119   0.793   3.761   9.496 -2.4329 -1.5453  2.1808
 4495SOL     OW25120   0.752   3.167   6.111 -0.4057  0.4261  0.6575
 4495SOL    HW125121   0.661   3.175   6.139 -0.9973  1.3097 -1.5168
 4495SOL    HW225122   0.752   3.076   6.083  1.8368  0.8799 -0.8229
 4496SOL     OW25123   2.670   3.562  10.654  0.0772 -0.4684  0.6159
 4496SOL    HW125124   2.653   3.518  10.738 -2.8614  3.6611  2.1689
 4496SOL    HW225125   2.623   3.514  10.586 -0.5959  0.6321  0.3134
 4497SOL     OW25126   2.291   2.805   5.668  0.0242 -0.2814  0.1327
 4497SOL    HW125127   2.223   2.840   5.725 -0.8907 -2.2708  0.2461
 4497SOL    HW225128   2.233   2.756   5.610 -0.6190 -0.2213  0.7288
 4498SOL     OW25129   1.061   3.946   1.447  0.0019  0.1727 -0.2891
 4498SOL    HW125130   1.126   3.946   1.377 -1.1786 -3.4034 -1.3605
 4498SOL    HW225131   1.053   4.040   1.466  2.4236  0.2024  0.5410
 4499SOL     OW25132   0.806   0.484  16.964  1.1244  0.4584  0.0066
 4499SOL    HW125133   0.801   0.576  16.988  0.1956  0.0971  1.1968
 4499SOL    HW225134   0.886   0.460  17.012  0.4971 -1.0496  0.3072
 4500SOL     OW25135   1.267   2.706   8.492  0.0860  0.6891  0.0207
 4500SOL    HW125136   1.261   2.728   8.585 -1.9711  0.6354 -0.0985
 4500SOL    HW225137   1.176   2.682   8.473 -0.2326  1.3882  0.6336
 4501SOL     OW25138   0.519   3.190   0.550 -0.2705  0.3124 -0.0789
 4501SOL    HW125139   0.487   3.200   0.461  3.0671  1.4331 -1.1312
 4501SOL    HW225140   0.489   3.101   0.574 -2.6610  0.9228 -0.7947
 4502SOL     OW25141   3.130   3.877   6.515  0.3053  0.0605 -0.5944
 4502SOL    HW125142   3.145   3.945   6.582 -1.5636  0.8715 -1.0016
 4502SOL    HW225143   3.218   3.841   6.500  1.5151  2.3526  0.9422
 4503SOL     OW25144   3.971   3.090   2.879  0.0438  0.2911  0.4245
 4503SOL    HW125145   3.989   2.998   2.899 -2.1266 -0.0651  0.8005
 4503SOL    HW225146   3.962   3.086   2.783 -1.3123 -0.3586  0.5716
 4504SOL     OW25147   0.691   4.294   2.577 -0.2102  0.2404 -0.1232
 4504SOL    HW125148   0.713   4.204   2.601 -0.9385  0.3622  0.9901
 4504SOL    HW225149   0.760   4.335   2.628 -0.8286  1.0424  0.0612
 4505SOL     OW25150   3.656   2.878   3.439 -0.5377  0.1935  0.1738
 4505SOL    HW125151   3.730   2.889   3.499  0.3769  3.0448 -1.4607
 4505SOL    HW225152   3.684   2.924   3.360 -0.4286 -0.4803 -0.1788
 4506SOL     OW25153   4.471   3.560   4.938 -0.1862 -0.1653  0.0092
 4506SOL    HW125154   4.477   3.476   4.985 -1.8347  0.1250  0.7467
 4506SOL    HW225155   4.447   3.627   5.001  1.6575 -2.3289  3.0365
 4507SOL     OW25156   2.608   3.931   7.237 -0.2762 -0.3241  0.2157
 4507SOL    HW125157   2.579   3.980   7.160  1.8750 -0.8859 -0.9339
 4507SOL    HW225158   2.614   4.001   7.303  0.6876  0.2440 -0.4771
 4508SOL     OW25159   4.663   0.538   0.578 -0.8118  0.0492  0.2905
 4508SOL    HW125160   4.575   0.518   0.544 -0.0702 -1.7497 -0.5483
 4508SOL    HW225161   4.648   0.614   0.633 -1.5865  0.7442 -0.8809
 4509SOL     OW25162   0.691   1.379   4.807  0.4077  0.0567 -0.4537
 4509SOL    HW125163   0.784   1.371   4.788  0.0116 -0.4000 -2.2754
 4509SOL    HW225164   0.672   1.469   4.782  1.3359 -0.1524 -1.9272
 4510SOL     OW25165   4.111   4.492   4.243 -0.5806 -0.5030  0.2851
 4510SOL    HW125166   4.108   4.420   4.306  0.0381  0.9397  1.9641
 4510SOL    HW225167   4.169   4.456   4.177  0.1088 -1.1345  1.2398
 4511SOL     OW25168   4.393   2.001   2.433  0.5858 -0.0795 -0.1689
 4511SOL    HW125169   4.473   1.967   2.474 -0.4623 -0.6800  1.3686
 4511SOL    HW225170   4.402   1.990   2.338 -2.1083 -0.6017 -0.3677
 4512SOL     OW25171   0.761   3.113   8.378 -0.2393 -0.2891  0.4555
 4512SOL    HW125172   0.731   3.106   8.468 -0.7495 -0.9941  0.2221
 4512SOL    HW225173   0.852   3.140   8.391  0.6376 -2.0582 -1.9600
 4513SOL     OW25174   3.011   4.459   7.011 -0.6071  0.2832  0.2399
 4513SOL    HW125175   3.057   4.424   6.935  1.6789  0.2828  1.5893
 4513SOL    HW225176   3.043   4.549   7.020 -2.2718  1.0984 -2.0219
 4514SOL     OW25177   0.487   0.541   5.535 -0.1471  0.1225  0.7169
 4514SOL    HW125178   0.418   0.532   5.469  0.2336  2.7346 -0.0249
 4514SOL    HW225179   0.446   0.512   5.617 -0.7611 -0.6767  0.1360
 4515SOL     OW25180   1.184   0.167   6.083  0.0164 -0.1393 -0.5350
 4515SOL    HW125181   1.216   0.236   6.025  1.3943 -3.0429 -3.2302
 4515SOL    HW225182   1.223   0.215   6.156  2.4028 -1.6457 -0.8235
 4516SOL     OW25183   3.926   0.635  14.241  0.1754 -0.3028  0.0138
 4516SOL    HW125184   3.992   0.694  14.204  0.7715 -0.6709  0.5023
 4516SOL    HW225185   3.922   0.674  14.328 -2.0809  0.2101 -0.3209
 4517SOL     OW25186   3.830   3.388  11.543  0.2121 -0.2922 -0.1583
 4517SOL    HW125187   3.745   3.344  11.553  0.2936 -0.5463 -0.5640
 4517SOL    HW225188   3.840   3.386  11.447  0.1337  0.1307 -0.1714
 4518SOL     OW25189   0.710   4.086   4.911  0.0443  0.0836  0.0402
 4518SOL    HW125190   0.692   4.022   4.842 -0.6360 -0.3574  0.6233
 4518SOL    HW225191   0.631   4.096   4.964  0.7928  0.5853  1.0493
 4519SOL     OW25192   3.662   3.011  17.075  0.3055  0.4488 -0.3973
 4519SOL    HW125193   3.737   2.982  17.127 -0.3778  1.3000  1.0625
 4519SOL    HW225194   3.600   2.999  17.146  3.1534 -0.1421  1.9986
 4520SOL     OW25195   4.364   2.060   6.014 -0.6748 -0.3175 -0.1754
 4520SOL    HW125196   4.353   2.052   6.109 -0.5527  1.6817  0.0194
 4520SOL    HW225197   4.326   2.147   6.002 -1.6090 -0.9478 -1.7101
 4521SOL     OW25198   2.495   0.583   6.725 -0.3663  0.3384  0.3391
 4521SOL    HW125199   2.448   0.532   6.660 -4.1012  0.5929  2.8052
 4521SOL    HW225200   2.511   0.666   6.680  0.9319  1.2669  2.4786
 4522SOL     OW25201   2.195   2.472   2.243 -0.2560  0.2350 -0.1849
 4522SOL    HW125202   2.106   2.497   2.268 -0.3919  0.4610 -0.8844
 4522SOL    HW225203   2.230   2.544   2.190 -0.9604  1.0053  0.3971
 4523SOL     OW25204   0.709   2.423   5.628 -0.1824 -0.1173  0.1684
 4523SOL    HW125205   0.696   2.505   5.676  0.8782 -0.9082  1.7742
 4523SOL    HW225206   0.656   2.361   5.678 -0.8112 -0.2615 -0.6525
 4524SOL     OW25207   3.853   0.782   8.687  0.0742 -0.3491  0.0138
 4524SOL    HW125208   3.795   0.823   8.751  1.9842  1.3185  0.6664
 4524SOL    HW225209   3.830   0.824   8.604 -0.3400  1.5547  1.0955
 4525SOL     OW25210   3.937   3.238   7.737 -0.5257  0.1633  0.6451
 4525SOL    HW125211   3.975   3.172   7.679  1.5674  0.9646  1.1129
 4525SOL    HW225212   3.846   3.208   7.746 -0.5839  0.4199  0.8973
 4526SOL     OW25213   2.927   2.205   4.739  0.2051 -0.0993 -0.1895
 4526SOL    HW125214   2.917   2.113   4.765  1.0554 -0.2650 -0.4422
 4526SOL    HW225215   2.866   2.208   4.665  0.0203 -3.5129 -0.1829
 4527SOL     OW25216   3.407   4.519  14.388 -0.3455  0.3429  0.3215
 4527SOL    HW125217   3.471   4.505  14.457 -0.9431  1.0496  1.0352
 4527SOL    HW225218   3.395   4.438  14.340  0.3691  0.6199 -0.3191
 4528SOL     OW25219   0.962   4.063   1.756 -0.5445  0.2091 -0.5706
 4528SOL    HW125220   1.042   4.093   1.713  0.9266 -2.1382  0.5338
 4528SOL    HW225221   0.905   4.115   1.700  0.1693 -0.8010 -2.2286
 4529SOL     OW25222   3.882   0.543   3.652  0.3629 -0.4360  0.6901
 4529SOL    HW125223   3.936   0.606   3.699  1.8186  0.0338 -1.6174
 4529SOL    HW225224   3.944   0.521   3.582 -3.2640  0.3175 -2.7283
 4530SOL     OW25225   2.702   2.638   7.210 -0.5886  0.6434 -0.4631
 4530SOL    HW125226   2.695   2.728   7.179 -3.0670  0.7036  0.2841
 4530SOL    HW225227   2.626   2.592   7.174 -0.4316 -0.0370  0.0653
 4531SOL     OW25228   2.189   3.336   8.969  0.0286 -0.3391 -0.5527
 4531SOL    HW125229   2.146   3.375   9.045  0.3465 -0.0351 -0.5323
 4531SOL    HW225230   2.284   3.341   8.978 -0.0434  0.3598 -0.1716
 4532SOL     OW25231   3.695   4.157  13.729 -0.3622  0.3592  0.4052
 4532SOL    HW125232   3.707   4.247  13.762 -0.7675  0.5324  0.0864
 4532SOL    HW225233   3.620   4.119  13.776 -0.6126  0.3600  0.0053
 4533SOL     OW25234   2.374   1.637  16.388  0.6060  0.3294  0.3351
 4533SOL    HW125235   2.391   1.692  16.311  2.3946  0.7216  1.0096
 4533SOL    HW225236   2.293   1.596  16.356  0.4153  1.9558 -1.3121
 4534SOL     OW25237   1.549   2.426   7.040 -0.5208 -0.1173  0.0199
 4534SOL    HW125238   1.533   2.368   6.965 -1.1055  0.6922 -0.4810
 4534SOL    HW225239   1.613   2.483   6.997  0.5789 -0.1861  1.5825
 4535SOL     OW25240   3.812   1.977   8.866 -0.2247  0.3235  0.0602
 4535SOL    HW125241   3.766   1.937   8.792 -0.6221  1.1486 -0.1392
 4535SOL    HW225242   3.882   2.021   8.818 -0.3946 -0.2751 -0.7436
 4536SOL     OW25243   1.830   4.719   6.135  0.3046 -0.0839  0.1377
 4536SOL    HW125244   1.894   4.651   6.115 -0.5756 -0.7336 -0.4881
 4536SOL    HW225245   1.759   4.664   6.167 -0.4242 -0.1025 -1.4982
 4537SOL     OW25246   1.896   4.304  15.940 -0.0607  0.3937 -0.5309
 4537SOL    HW125247   1.841   4.360  15.994 -2.0762  0.5760 -2.7302
 4537SOL    HW225248   1.986   4.297  15.972 -0.4089 -2.1285 -0.0942
 4538SOL     OW25249   1.259   0.490  16.127 -0.0522  0.0603  0.8451
 4538SOL    HW125250   1.190   0.532  16.076  0.0734 -0.8673 -0.0773
 4538SOL    HW225251   1.257   0.399  16.097 -2.6839  1.1654 -2.3656
 4539SOL     OW25252   0.124   2.370   5.753  0.1008  0.3296  0.6798
 4539SOL    HW125253   0.163   2.429   5.689  1.2074 -1.2816 -0.1412
 4539SOL    HW225254   0.051   2.425   5.781  0.2276  1.1924 -0.7230
 4540SOL     OW25255   3.069   0.233   6.904 -0.3572 -0.3195  0.2397
 4540SOL    HW125256   2.983   0.273   6.893  0.8373  1.9257 -0.8497
 4540SOL    HW225257   3.076   0.200   6.814  1.8251  2.9280 -0.7853
 4541SOL     OW25258   3.146   1.725  13.855  0.5708 -0.4332 -0.4103
 4541SOL    HW125259   3.122   1.723  13.948 -0.8317  1.9505 -0.7179
 4541SOL    HW225260   3.172   1.817  13.842 -0.0868  0.0717  1.8568
 4542SOL     OW25261   2.814   0.883   5.790  0.0834 -0.1075  0.2007
 4542SOL    HW125262   2.731   0.852   5.827 -0.1396 -2.0596 -1.9062
 4542SOL    HW225263   2.796   0.868   5.697  0.9727 -3.3079  0.5236
 4543SOL     OW25264   4.438   4.172   7.813  0.2926  0.2437  0.0877
 4543SOL    HW125265   4.486   4.193   7.893 -1.9243  1.4199  1.1300
 4543SOL    HW225266   4.472   4.254   7.776 -0.7238 -0.0411 -1.4576
 4544SOL     OW25267   1.289   2.370   7.507 -0.1789  0.3334  0.3975
 4544SOL    HW125268   1.291   2.451   7.456 -1.0910  0.3693  0.4114
 4544SOL    HW225269   1.245   2.312   7.444  2.5546  0.4322 -1.5809
 4545SOL     OW25270   2.983   0.881   2.817 -0.0879 -0.4833 -0.3871
 4545SOL    HW125271   2.934   0.898   2.898  2.0104  2.3587  0.2995
 4545SOL    HW225272   3.032   0.964   2.814  1.3146 -1.1783  2.4904
 4546SOL     OW25273   0.902   1.125   3.875 -0.0477 -0.2113 -0.0287
 4546SOL    HW125274   0.832   1.060   3.887 -0.9606  0.7217 -0.3641
 4546SOL    HW225275   0.858   1.172   3.805  1.3918  0.6489 -0.3531
 4547SOL     OW25276   3.975   3.798   5.510 -0.0806 -0.2856  0.4730
 4547SOL    HW125277   4.019   3.878   5.481  3.1098 -1.3143  2.5133
 4547SOL    HW225278   3.883   3.820   5.494  0.1000  0.6337  0.7016
 4548SOL     OW25279   0.835   0.038   8.924 -0.6446  0.3456  0.2309
 4548SOL    HW125280   0.851   4.685   8.956  1.2506  2.1736  4.2504
 4548SOL    HW225281   0.740   0.043   8.934 -0.8053  0.3615 -1.2255
 4549SOL     OW25282   3.242   2.572   9.762  0.0318 -0.1400 -0.4270
 4549SOL    HW125283   3.174   2.633   9.733 -1.3489 -0.9936  0.9604
 4549SOL    HW225284   3.192   2.529   9.832 -0.1794 -0.8095 -0.9783
 4550SOL     OW25285   4.190   2.188   6.454  0.4275 -0.1127 -0.4104
 4550SOL    HW125286   4.270   2.239   6.470  0.4868 -1.0481  2.3057
 4550SOL    HW225287   4.137   2.267   6.443  0.1148  0.0927  2.4183
 4551SOL     OW25288   0.606   0.031   0.363  0.2266 -0.0003  0.3504
 4551SOL    HW125289   0.596   0.123   0.390 -0.9521  0.2082 -0.8153
 4551SOL    HW225290   0.690   0.011   0.404  0.9768  2.8214  0.1948
 4552SOL     OW25291   2.775   1.901   2.125  0.8962 -0.2489  0.3367
 4552SOL    HW125292   2.764   1.948   2.043  0.9704 -0.6628  0.0940
 4552SOL    HW225293   2.768   1.812   2.092 -0.2795 -0.0191 -0.0486
 4553SOL     OW25294   2.043   1.100   3.733  0.1296  0.4013  0.0552
 4553SOL    HW125295   1.957   1.135   3.755  0.3827  0.3289  1.1563
 4553SOL    HW225296   2.096   1.160   3.785 -0.0354  3.4031 -3.2202
 4554SOL     OW25297   0.099   4.551   4.452  0.3421  0.1505 -0.4021
 4554SOL    HW125298   0.141   4.634   4.477  0.4103 -0.1267  0.4155
 4554SOL    HW225299   0.020   4.583   4.408  0.2513  1.5238  0.7547
 4555SOL     OW25300   3.720   2.279   3.005 -0.1380  0.0777 -0.5316
 4555SOL    HW125301   3.650   2.272   2.940  1.5867  2.8363 -2.6655
 4555SOL    HW225302   3.789   2.330   2.962  0.1730 -0.3024 -0.4831
 4556SOL     OW25303   2.984   0.968   5.123 -0.6745  0.3566 -0.2969
 4556SOL    HW125304   2.989   0.988   5.030  0.1278 -1.3155 -0.6090
 4556SOL    HW225305   3.019   1.046   5.168 -0.7124 -1.1560  2.3705
 4557SOL     OW25306   1.323   2.325   9.527 -0.2639 -0.3170  0.0423
 4557SOL    HW125307   1.254   2.352   9.466  0.4201  0.0055 -0.5881
 4557SOL    HW225308   1.389   2.283   9.472 -0.8610 -1.8740  0.5334
 4558SOL     OW25309   4.250   4.090   3.635  0.3154  0.0892  0.2893
 4558SOL    HW125310   4.238   4.022   3.569  1.3675 -0.4010  0.6067
 4558SOL    HW225311   4.219   4.158   3.575  1.4265 -0.1696 -0.5623
 4559SOL     OW25312   3.275   0.808  15.264  0.5840  0.0979  0.1619
 4559SOL    HW125313   3.290   0.885  15.319  0.8598  1.3759 -1.7396
 4559SOL    HW225314   3.332   0.745  15.309 -1.5804  0.4958  3.4318
 4560SOL     OW25315   4.156   0.674   2.124 -0.5821 -0.3551  0.0194
 4560SOL    HW125316   4.160   0.697   2.031 -1.5880 -3.3774 -0.7684
 4560SOL    HW225317   4.064   0.652   2.136 -0.7288 -1.1934 -2.5324
 4561SOL     OW25318   2.410   3.343  16.793  0.5982  0.2983  0.1940
 4561SOL    HW125319   2.457   3.337  16.710 -1.0137  0.7553 -0.7436
 4561SOL    HW225320   2.477   3.361  16.859  0.5670  1.0614  0.0143
 4562SOL     OW25321   0.576   0.913   2.358  0.1387  0.0350 -0.1080
 4562SOL    HW125322   0.571   0.997   2.313 -1.0974  0.8332  1.5106
 4562SOL    HW225323   0.528   0.864   2.291 -0.2811 -0.5994  0.6594
 4563SOL     OW25324   1.940   1.277  12.667 -0.0949 -0.3398 -0.3108
 4563SOL    HW125325   1.880   1.300  12.596  1.1445 -1.5277 -1.7542
 4563SOL    HW225326   1.884   1.245  12.738  2.5007 -2.1071  0.9457
 4564SOL     OW25327   0.474   4.581   7.239  0.0001 -0.5907 -0.0396
 4564SOL    HW125328   0.518   4.644   7.181 -0.7302  0.4600  0.5445
 4564SOL    HW225329   0.432   4.516   7.182  2.6865 -0.3703 -2.2868
 4565SOL     OW25330   0.789   0.301  12.862  0.4116  0.5555  0.1461
 4565SOL    HW125331   0.866   0.273  12.813  1.6665  2.1361  1.1993
 4565SOL    HW225332   0.768   0.217  12.903  1.8836  0.7471  1.2654
 4566SOL     OW25333   1.486   4.427   6.789  0.5234  0.6928 -0.4913
 4566SOL    HW125334   1.579   4.445   6.776  0.2047  3.1487  0.6043
 4566SOL    HW225335   1.478   4.333   6.774 -0.5355  0.8890 -1.1646
 4567SOL     OW25336   4.566   0.757   3.165  0.0272 -0.2311 -0.4339
 4567SOL    HW125337   4.642   0.803   3.200 -2.3543  2.7143  0.8176
 4567SOL    HW225338   4.492   0.816   3.181  3.1965  2.7260  3.4211
 4568SOL     OW25339   1.107   3.226   3.266  0.2659  0.3015  0.2999
 4568SOL    HW125340   1.022   3.270   3.258 -0.3375 -0.8907  0.2242
 4568SOL    HW225341   1.087   3.151   3.321 -0.0891 -0.6305 -1.0969
 4569SOL     OW25342   3.267   0.904   7.169 -0.7742  0.1650  0.3070
 4569SOL    HW125343   3.357   0.886   7.198 -1.2567  0.7137  2.1404
 4569SOL    HW225344   3.220   0.821   7.166  0.7527 -0.7049  0.4072
 4570SOL     OW25345   3.235   4.097   3.473 -0.3402  0.4067  0.2426
 4570SOL    HW125346   3.231   4.067   3.382  2.4374 -1.1553  0.6301
 4570SOL    HW225347   3.178   4.038   3.523 -1.4554  0.5801 -0.8354
 4571SOL     OW25348   3.777   0.882   2.762  0.2623  0.2865 -0.5381
 4571SOL    HW125349   3.811   0.910   2.847  1.6697  1.6923 -1.5744
 4571SOL    HW225350   3.751   0.796   2.796  0.0487  0.0933 -1.2047
 4572SOL     OW25351   4.598   1.418   6.592  0.0814  0.0402  0.6862
 4572SOL    HW125352   4.660   1.487   6.616 -2.5040  2.1491  1.2856
 4572SOL    HW225353   4.541   1.465   6.531  1.2336 -1.6195 -1.7058
 4573SOL     OW25354   3.708   2.615   1.919  0.5566  0.6351 -0.2452
 4573SOL    HW125355   3.800   2.640   1.931  0.8069  0.0485 -0.9171
 4573SOL    HW225356   3.667   2.676   1.979  0.6653  0.1015  0.3797
 4574SOL     OW25357   1.848   3.139   9.296 -0.2443 -0.1273  0.3291
 4574SOL    HW125358   1.852   3.155   9.202 -1.0975  0.1679  0.3405
 4574SOL    HW225359   1.897   3.057   9.305 -0.9245 -0.7109 -1.2189
 4575SOL     OW25360   0.505   3.250   2.164 -0.0632  0.2106 -0.1657
 4575SOL    HW125361   0.572   3.318   2.174 -0.2306  0.7123 -2.4029
 4575SOL    HW225362   0.552   3.172   2.194 -0.6274 -0.3352 -0.6996
 4576SOL     OW25363   2.987   0.922   3.418  0.0704  0.1329  0.2396
 4576SOL    HW125364   2.994   0.855   3.486 -0.4934  1.0318  1.1859
 4576SOL    HW225365   2.993   0.997   3.478  1.1139  0.0352  0.2600
 4577SOL     OW25366   4.547   3.613  15.598  0.4078  0.0742  0.0001
 4577SOL    HW125367   4.569   3.594  15.507 -1.3657 -1.8308 -0.0364
 4577SOL    HW225368   4.633   3.627  15.637  0.0475 -0.3479  0.9240
 4578SOL     OW25369   2.110   0.866  11.456  0.0114  0.2019 -0.3019
 4578SOL    HW125370   2.147   0.869  11.368 -0.6335 -0.7658 -0.6047
 4578SOL    HW225371   2.196   0.883  11.495 -0.6666 -2.3767  2.2862
 4579SOL     OW25372   2.446   4.710   4.447 -0.0818  0.0014 -0.3887
 4579SOL    HW125373   2.450   4.675   4.358  2.0572 -0.1401 -0.2329
 4579SOL    HW225374   2.351   4.714   4.457  0.0422  2.9742 -0.5043
 4580SOL     OW25375   2.644   2.016  10.363 -0.2293  0.2072 -0.1475
 4580SOL    HW125376   2.631   1.967  10.444 -0.2207  0.2258 -0.1347
 4580SOL    HW225377   2.740   2.014  10.360 -0.1298  0.3071  2.7737
 4581SOL     OW25378   2.843   1.114  16.259  0.5382  0.5125 -0.9718
 4581SOL    HW125379   2.755   1.120  16.299  0.3705 -0.5007 -1.1982
 4581SOL    HW225380   2.825   1.094  16.168  1.5255 -3.8166 -0.1904
 4582SOL     OW25381   3.904   4.142   4.218 -0.0067  0.3623  0.1754
 4582SOL    HW125382   3.914   4.173   4.128 -0.7595 -0.4810 -0.1973
 4582SOL    HW225383   3.955   4.061   4.221 -3.5741 -1.8755  0.4756
 4583SOL     OW25384   1.669   0.586  14.554 -0.3251  0.1777  0.2242
 4583SOL    HW125385   1.683   0.499  14.590  1.7712  0.1969 -0.5331
 4583SOL    HW225386   1.590   0.617  14.599 -0.7511  2.3842 -2.0699
 4584SOL     OW25387   0.642   2.633   5.800  0.7907 -0.3551  0.4809
 4584SOL    HW125388   0.724   2.671   5.831  1.0921  0.3827 -1.2126
 4584SOL    HW225389   0.610   2.596   5.883  1.2967 -1.4557  0.1930
 4585SOL     OW25390   4.074   0.914  12.129 -0.9392 -0.5142  0.2622
 4585SOL    HW125391   4.103   0.955  12.211  1.4030 -0.2440 -0.6758
 4585SOL    HW225392   4.001   0.973  12.110  1.3780  2.7328  1.3236
 4586SOL     OW25393   2.705   1.528   1.184 -0.1275  0.0162 -0.0582
 4586SOL    HW125394   2.676   1.584   1.112 -0.1957  0.4955  0.3371
 4586SOL    HW225395   2.798   1.547   1.192  0.0266 -0.4064 -0.9287
 4587SOL     OW25396   3.809   1.357  11.473 -0.1501 -0.2288 -0.4104
 4587SOL    HW125397   3.903   1.347  11.490 -0.4670 -1.4786  0.5644
 4587SOL    HW225398   3.809   1.386  11.381 -2.3628 -3.5136 -1.4294
 4588SOL     OW25399   3.877   0.901   4.101  0.8224 -0.3217  0.0245
 4588SOL    HW125400   3.852   0.848   4.026 -0.5801 -0.2268  0.4216
 4588SOL    HW225401   3.942   0.960   4.066  0.6080 -0.5715 -0.7927
 4589SOL     OW25402   0.895   3.281   1.348  0.3644 -0.0155  0.0904
 4589SOL    HW125403   0.946   3.362   1.348 -0.7146  0.6780  1.9127
 4589SOL    HW225404   0.945   3.224   1.406  0.5464 -0.6543 -0.7033
 4590SOL     OW25405   4.463   0.497   7.094 -0.3187 -0.7971 -0.0617
 4590SOL    HW125406   4.509   0.577   7.120  0.2298 -0.8825 -0.7805
 4590SOL    HW225407   4.467   0.444   7.174 -2.2422  0.0565  0.6037
 4591SOL     OW25408   2.962   2.545  14.506  0.2502  0.4407  0.1990
 4591SOL    HW125409   3.039   2.557  14.562 -0.3580 -0.8226  1.2916
 4591SOL    HW225410   2.932   2.460  14.537  2.9686 -0.8886 -0.8353
 4592SOL     OW25411   0.762   3.636   5.316 -0.0234  0.2603  0.0631
 4592SOL    HW125412   0.706   3.700   5.274 -0.6987 -1.6478 -1.9314
 4592SOL    HW225413   0.778   3.573   5.246 -1.6778  0.9079 -0.8762
 4593SOL     OW25414   3.291   4.447  15.940  0.2265 -0.4155  0.5386
 4593SOL    HW125415   3.326   4.417  16.024  2.7119  2.7277  0.6213
 4593SOL    HW225416   3.284   4.541  15.955  0.8088 -0.2814 -0.0215
 4594SOL     OW25417   1.852   4.447  15.296 -0.1120  0.0127  0.3919
 4594SOL    HW125418   1.776   4.465  15.351 -1.4301 -0.2620 -1.3307
 4594SOL    HW225419   1.926   4.422  15.351 -0.1471 -0.6454  0.1392
 4595SOL     OW25420   1.084   4.320   2.354  0.0238 -0.1458  0.1835
 4595SOL    HW125421   1.139   4.336   2.431  0.3880 -0.1206 -0.0818
 4595SOL    HW225422   1.043   4.404   2.339 -1.1535 -0.9302 -0.9926
 4596SOL     OW25423   0.634   2.022   1.973  0.0719 -0.4912 -0.2265
 4596SOL    HW125424   0.542   2.050   1.979  0.8939  1.7392  2.3916
 4596SOL    HW225425   0.635   1.941   2.025  1.6076  0.2057  0.8597
 4597SOL     OW25426   3.250   0.027  13.903 -0.2274  0.0788 -0.1276
 4597SOL    HW125427   3.342   0.040  13.882 -0.0078  1.4588  1.6680
 4597SOL    HW225428   3.258   4.728  13.991  1.8277  0.4895 -0.1599
 4598SOL     OW25429   2.132   0.919  13.785  0.3441  0.1693 -0.1461
 4598SOL    HW125430   2.111   0.938  13.693  0.1210  1.2083  0.1211
 4598SOL    HW225431   2.048   0.890  13.819  0.6330 -0.1287  0.3170
 4599SOL     OW25432   3.772   3.104  14.388 -0.1156  0.1262 -0.3361
 4599SOL    HW125433   3.763   3.021  14.342 -2.2651  1.1636 -1.7767
 4599SOL    HW225434   3.837   3.074  14.452 -0.5039  2.1028  0.9934
 4600SOL     OW25435   2.206   1.340  15.541  0.6925  0.4956 -0.1826
 4600SOL    HW125436   2.218   1.264  15.484 -0.9839 -0.8586  1.2836
 4600SOL    HW225437   2.130   1.372  15.493  0.5744 -2.1655 -1.7784
 4601SOL     OW25438   2.890   1.406   4.941  0.2473  0.1107 -0.4993
 4601SOL    HW125439   2.930   1.471   4.884  0.3745 -0.9728 -1.6745
 4601SOL    HW225440   2.841   1.347   4.882  2.5133 -0.1875 -2.0740
 4602SOL     OW25441   4.145   3.535   3.606 -0.2441  0.3025 -0.0852
 4602SOL    HW125442   4.129   3.594   3.680  1.6743 -0.4959  0.9687
 4602SOL    HW225443   4.093   3.461   3.636 -2.2493  2.3744  1.5306
 4603SOL     OW25444   0.047   1.386  16.332  0.2291  1.1123 -0.1821
 4603SOL    HW125445   4.716   1.446  16.301  0.3077  0.4039 -1.7082
 4603SOL    HW225446   0.105   1.446  16.379  1.1333 -1.2874  1.8064
 4604SOL     OW25447   4.452   1.383   4.686  0.0773  0.3657  0.1580
 4604SOL    HW125448   4.513   1.440   4.733  0.5318 -0.4010  0.4820
 4604SOL    HW225449   4.511   1.362   4.614  0.1352  0.1696  0.2651
 4605SOL     OW25450   0.520   0.834  13.545 -0.0187 -1.1816  0.3962
 4605SOL    HW125451   0.447   0.807  13.489 -0.6616  1.7556 -0.1329
 4605SOL    HW225452   0.588   0.783  13.501 -0.0727  0.2258 -1.3300
 4606SOL     OW25453   2.842   3.473   7.850  0.0679 -0.3898 -0.0691
 4606SOL    HW125454   2.877   3.385   7.836  2.6098  0.6572 -0.2646
 4606SOL    HW225455   2.791   3.457   7.929  0.2033  0.4650  0.1887
 4607SOL     OW25456   1.422   0.186   0.460 -0.3202 -0.8609 -0.2484
 4607SOL    HW125457   1.418   0.093   0.479  0.3265 -1.3587 -2.4487
 4607SOL    HW225458   1.516   0.205   0.464 -0.5409 -0.2575  1.8938
 4608SOL     OW25459   0.272   2.238   1.310  0.2499 -0.3510  0.4312
 4608SOL    HW125460   0.250   2.217   1.219 -3.1694 -1.3593  1.4774
 4608SOL    HW225461   0.274   2.148   1.342 -0.5824 -0.3896  0.3721
 4609SOL     OW25462   2.395   1.941  13.698 -0.5056 -0.3463 -0.1861
 4609SOL    HW125463   2.431   1.855  13.680 -2.0553 -1.3144  1.3014
 4609SOL    HW225464   2.332   1.922  13.768  1.0349  0.6486  1.4842
 4610SOL     OW25465   3.260   0.091   2.770 -0.0676 -0.3392 -0.0882
 4610SOL    HW125466   3.305   0.081   2.685 -0.8597 -0.3285 -0.5044
 4610SOL    HW225467   3.192   0.025   2.779  1.0942 -1.5804 -0.4939
 4611SOL     OW25468   0.391   3.850   1.248  0.3265 -0.3147  0.1471
 4611SOL    HW125469   0.323   3.889   1.193 -0.1022 -1.0540  0.1520
 4611SOL    HW225470   0.369   3.758   1.235 -1.3041  0.3955 -2.0934
 4612SOL     OW25471   3.056   4.251  10.060  0.0154  0.1476 -0.2312
 4612SOL    HW125472   3.045   4.216  10.149 -2.3484  1.3129 -0.0610
 4612SOL    HW225473   3.044   4.344  10.078  0.5281  0.0132  0.8193
 4613SOL     OW25474   2.917   4.687  14.070  0.2917 -0.2442 -0.5246
 4613SOL    HW125475   2.839   4.704  14.122  0.7301 -0.4188  0.1871
 4613SOL    HW225476   2.977   0.025  14.076  0.7441 -0.3954 -3.0774
 4614SOL     OW25477   1.266   1.322   7.664 -0.7427 -0.7798  0.3524
 4614SOL    HW125478   1.221   1.266   7.727  0.7493 -1.9192  0.3959
 4614SOL    HW225479   1.342   1.267   7.645 -1.1237 -1.1712 -0.0261
 4615SOL     OW25480   2.706   2.582   6.753  0.0137 -0.2376  0.1169
 4615SOL    HW125481   2.634   2.613   6.808 -0.7605  1.2566 -1.7327
 4615SOL    HW225482   2.669   2.593   6.665 -0.5653  1.2668  0.5461
 4616SOL     OW25483   2.901   1.478   6.330 -0.2098 -0.5891 -0.0039
 4616SOL    HW125484   2.889   1.561   6.377 -1.8697 -0.2874 -0.9541
 4616SOL    HW225485   2.917   1.502   6.239 -1.1288 -0.0711 -0.0304
 4617SOL     OW25486   1.048   3.746   7.326 -0.1305 -0.2381 -0.4903
 4617SOL    HW125487   1.107   3.815   7.356 -2.3473  0.9348  1.1480
 4617SOL    HW225488   1.073   3.673   7.383  1.4112 -0.3353 -1.2797
 4618SOL     OW25489   2.539   1.034   2.512  0.1333  0.6408 -0.6018
 4618SOL    HW125490   2.564   1.006   2.601 -1.5550 -2.1277 -1.0004
 4618SOL    HW225491   2.590   0.978   2.453 -1.7291 -2.0637  0.3442
 4619SOL     OW25492   2.425   0.385   7.700 -0.6670  0.0965  0.0999
 4619SOL    HW125493   2.390   0.398   7.788 -0.6928  0.1757  0.0776
 4619SOL    HW225494   2.343   0.338   7.684  0.4358 -2.0426  0.6534
 4620SOL     OW25495   1.556   1.500   8.635 -0.3899 -0.0149  0.2076
 4620SOL    HW125496   1.646   1.480   8.659 -0.4440 -1.5725 -0.9223
 4620SOL    HW225497   1.564   1.592   8.609 -1.1987  0.5187  1.8299
 4621SOL     OW25498   3.315   4.349   2.592 -0.2788  0.5746  0.0392
 4621SOL    HW125499   3.346   4.431   2.630  1.2310 -0.2472  0.5958
 4621SOL    HW225500   3.229   4.344   2.633 -0.1742  2.0587  0.4278
 4622SOL     OW25501   1.927   2.355   5.218 -0.2460 -0.0898  0.6938
 4622SOL    HW125502   1.997   2.420   5.210 -1.6626  1.4466  0.8618
 4622SOL    HW225503   1.959   2.283   5.164 -1.3678 -0.6141  0.7378
 4623SOL     OW25504   1.677   4.644  16.773  0.5516  0.0700  0.2987
 4623SOL    HW125505   1.772   4.648  16.769  0.4154 -0.0997 -3.1371
 4623SOL    HW225506   1.661   4.582  16.845 -0.4798  1.7337  1.5075
 4624SOL     OW25507   0.416   3.061  10.236  0.3297  0.3960 -0.3203
 4624SOL    HW125508   0.400   3.120  10.163  2.3197  0.0657 -1.0269
 4624SOL    HW225509   0.506   3.089  10.257  0.6178  1.4101 -2.9334
 4625SOL     OW25510   0.205   3.968   6.895  0.0093  0.5428  0.5962
 4625SOL    HW125511   0.168   4.047   6.855 -0.1164 -0.5146 -1.3880
 4625SOL    HW225512   0.289   3.999   6.929  1.2432 -0.0403 -1.9596
 4626SOL     OW25513   3.762   2.578  16.386  0.1564  0.2688 -0.3499
 4626SOL    HW125514   3.827   2.647  16.403 -2.8057  2.2659  2.8268
 4626SOL    HW225515   3.774   2.532  16.469 -1.2239 -1.9015 -1.3608
 4627SOL     OW25516   4.311   0.966   4.135 -0.3520 -0.2227 -0.0473
 4627SOL    HW125517   4.370   0.892   4.151  0.1647 -0.0638 -1.2573
 4627SOL    HW225518   4.277   0.946   4.048  1.4604 -2.1122 -0.3282
 4628SOL     OW25519   0.091   2.370   0.384 -0.3768  0.0141 -0.0066
 4628SOL    HW125520   0.080   2.278   0.361 -0.6015  0.5182 -1.8956
 4628SOL    HW225521   0.136   2.404   0.307  0.5680 -1.6075 -0.1550
 4629SOL     OW25522   4.230   0.454   8.393  0.2345  0.0692 -0.1384
 4629SOL    HW125523   4.282   0.525   8.432  0.9806 -0.5955  0.0791
 4629SOL    HW225524   4.295   0.384   8.386 -0.0627 -0.2247  0.0392
 4630SOL     OW25525   2.814   3.751   4.879  0.1282 -0.5964 -0.7721
 4630SOL    HW125526   2.772   3.755   4.792 -2.2132  2.3512  0.4680
 4630SOL    HW225527   2.855   3.665   4.876  0.5567 -0.4410  0.9104
 4631SOL     OW25528   3.009   1.805   0.967  0.7535  0.7708  0.2724
 4631SOL    HW125529   3.080   1.775   0.910 -2.1654 -0.8544 -2.4896
 4631SOL    HW225530   3.054   1.857   1.034  0.6689  0.3312  0.6725
 4632SOL     OW25531   3.164   2.325   4.681 -0.0969  0.4773  0.5128
 4632SOL    HW125532   3.215   2.278   4.615  0.8852  0.4870  1.2734
 4632SOL    HW225533   3.074   2.290   4.685  1.0595 -2.7508 -1.9039
 4633SOL     OW25534   2.195   4.107   6.100 -0.4622  0.7918  0.1667
 4633SOL    HW125535   2.227   4.085   6.012  1.3071  1.6379  0.5985
 4633SOL    HW225536   2.187   4.017   6.130  3.8152  0.8985  1.6204
 4634SOL     OW25537   0.966   1.717   8.546 -0.3635  0.0420  0.0236
 4634SOL    HW125538   0.977   1.709   8.452 -2.7435 -1.2563 -0.1412
 4634SOL    HW225539   1.055   1.696   8.575  0.1748  0.3588 -1.3863
 4635SOL     OW25540   4.329   0.607   6.190  0.0519  0.1301 -0.7032
 4635SOL    HW125541   4.359   0.640   6.105  0.9827 -1.0119 -0.8316
 4635SOL    HW225542   4.245   0.569   6.165  0.9290 -0.1673 -3.2653
 4636SOL     OW25543   1.275   1.476   5.175 -0.0926 -0.7775  0.4336
 4636SOL    HW125544   1.195   1.425   5.187 -1.5408  1.3898 -0.0150
 4636SOL    HW225545   1.265   1.498   5.083  1.8844 -0.5052  0.2837
 4637SOL     OW25546   1.854   3.635   3.365 -0.4292 -0.7236 -0.4859
 4637SOL    HW125547   1.846   3.599   3.454  0.9610  1.4561  0.5451
 4637SOL    HW225548   1.824   3.564   3.309  1.1818  1.4863 -4.1550
 4638SOL     OW25549   0.639   1.430   6.938 -0.1257  0.2913  0.4140
 4638SOL    HW125550   0.638   1.335   6.948  0.1741  0.1762 -0.5630
 4638SOL    HW225551   0.717   1.465   6.982  0.0245 -0.8503  1.0387
 4639SOL     OW25552   3.830   2.097   3.190 -0.1052 -0.8238  0.0262
 4639SOL    HW125553   3.770   2.150   3.137 -0.2703 -0.9099  0.1258
 4639SOL    HW225554   3.850   2.025   3.130  1.2452 -1.2678  1.0202
 4640SOL     OW25555   3.657   2.363  13.587  0.0537 -0.4670  0.2478
 4640SOL    HW125556   3.609   2.397  13.512  2.6416 -2.1593 -2.1615
 4640SOL    HW225557   3.687   2.443  13.632 -3.1642 -0.0225  1.5784
 4641SOL     OW25558   0.569   0.768   8.166 -0.0786 -0.1464  0.5696
 4641SOL    HW125559   0.599   0.697   8.110 -1.4951 -1.0863  0.9883
 4641SOL    HW225560   0.650   0.812   8.192 -0.1630 -0.9678  2.2193
 4642SOL     OW25561   0.812   3.179   9.704  0.4642 -0.3167  0.2200
 4642SOL    HW125562   0.884   3.193   9.765 -0.2246 -1.5934  1.3365
 4642SOL    HW225563   0.746   3.149   9.767  0.9103 -0.1302  0.7678
 4643SOL     OW25564   2.655   0.990  10.989 -0.0595 -0.1435 -0.9244
 4643SOL    HW125565   2.722   1.040  11.035  0.5854 -1.3713 -0.5294
 4643SOL    HW225566   2.706   0.938  10.926  0.2457  1.5275 -2.0494
 4644SOL     OW25567   0.386   2.714   9.232  0.9900  0.5702 -0.0759
 4644SOL    HW125568   0.419   2.656   9.163  0.2617 -1.4150  1.2254
 4644SOL    HW225569   0.328   2.645   9.265  1.2544  0.8274  0.9215
 4645SOL     OW25570   0.834   0.194  15.072 -0.8942  0.5044 -0.5170
 4645SOL    HW125571   0.830   0.228  15.161 -3.0908  0.0593 -0.4565
 4645SOL    HW225572   0.866   0.106  15.087  5.0771  2.6876 -0.4057
 4646SOL     OW25573   3.484   2.947   7.268 -0.8266  0.1510  1.0539
 4646SOL    HW125574   3.514   2.996   7.192  2.0902 -1.3398  1.2608
 4646SOL    HW225575   3.420   2.891   7.224  0.3838  1.6266 -2.5461
 4647SOL     OW25576   2.172   3.939   8.077 -0.8718 -0.5926 -0.1898
 4647SOL    HW125577   2.261   3.975   8.078 -1.3843  0.7160 -2.0730
 4647SOL    HW225578   2.158   3.974   7.989  2.1856  0.4952 -0.2187
 4648SOL     OW25579   3.109   1.523   2.987  0.2605  0.5512  0.0435
 4648SOL    HW125580   3.099   1.604   2.935  1.0856  0.5511 -0.1290
 4648SOL    HW225581   3.096   1.561   3.074 -3.0191  0.6773 -0.5245
 4649SOL     OW25582   2.049   4.734   9.575 -0.8311  0.0268 -0.3206
 4649SOL    HW125583   2.020   0.068   9.634  0.8256 -1.0233  1.7415
 4649SOL    HW225584   2.007   4.666   9.627  1.8553  1.5437  3.8600
 4650SOL     OW25585   3.956   4.055   7.216  0.5134 -0.2366  0.0797
 4650SOL    HW125586   3.919   4.080   7.131  3.1548  0.3925 -0.8706
 4650SOL    HW225587   4.045   4.090   7.212  0.7564 -1.1656 -2.5785
 4651SOL     OW25588   0.266   1.372   8.004 -0.2747  0.6166 -0.4843
 4651SOL    HW125589   0.293   1.315   8.077 -1.6669  0.3579 -0.1790
 4651SOL    HW225590   0.290   1.332   7.920 -2.0549 -2.3527  0.4096
 4652SOL     OW25591   3.588   3.493   3.437  0.4276  0.3061 -0.0828
 4652SOL    HW125592   3.503   3.527   3.410  0.9855  1.2820 -0.6223
 4652SOL    HW225593   3.551   3.421   3.488  1.1804 -0.0843 -0.0865
 4653SOL     OW25594   1.150   1.517  14.456 -0.0309 -0.0657 -0.6826
 4653SOL    HW125595   1.187   1.511  14.368  0.2583 -1.1472 -0.4892
 4653SOL    HW225596   1.058   1.510  14.432 -0.5565 -0.0683  1.3257
 4654SOL     OW25597   0.328   4.215   5.647  0.1014  0.1816  0.1255
 4654SOL    HW125598   0.260   4.260   5.698  2.2856  3.4893  0.1787
 4654SOL    HW225599   0.290   4.209   5.559 -0.2433  0.4397  0.2547
 4655SOL     OW25600   1.846   0.318   2.248 -0.1921  0.2330 -0.0844
 4655SOL    HW125601   1.877   0.395   2.200 -0.7596  1.4578  1.5163
 4655SOL    HW225602   1.756   0.309   2.218 -0.7658  1.2088  1.3720
 4656SOL     OW25603   4.629   0.214  17.595 -0.3034 -0.1003  0.0594
 4656SOL    HW125604   4.712   0.204  17.641 -0.7091 -0.2243  0.7703
 4656SOL    HW225605   4.644   0.144  17.531 -3.4225 -1.3939  0.7353
 4657SOL     OW25606   0.067   0.134   8.087 -0.7770 -0.1220  0.1050
 4657SOL    HW125607   0.135   0.145   8.154 -0.5181  2.2542 -0.5272
 4657SOL    HW225608   0.099   0.061   8.034  3.0244  1.7136 -0.1441
 4658SOL     OW25609   3.677   3.632   4.586  0.2073  0.5913 -0.2954
 4658SOL    HW125610   3.596   3.682   4.573  2.5572  4.0001 -1.8755
 4658SOL    HW225611   3.723   3.670   4.511  0.7595  1.0957  0.3048
 4659SOL     OW25612   3.942   4.619  12.006 -0.2087  0.3831 -0.2018
 4659SOL    HW125613   3.878   4.585  11.943 -1.5286  0.6872  0.9596
 4659SOL    HW225614   3.917   4.712  12.011 -0.7593  0.4417 -3.8487
 4660SOL     OW25615   4.055   3.349   9.847 -0.8104 -0.4443  0.8041
 4660SOL    HW125616   4.139   3.340   9.891 -0.6991 -4.0370 -0.1979
 4660SOL    HW225617   3.996   3.333   9.921 -0.4828 -0.8125  0.9769
 4661SOL     OW25618   2.676   4.387   0.774  0.5752  0.2384 -0.6302
 4661SOL    HW125619   2.698   4.337   0.853  1.1347  0.3762 -0.7041
 4661SOL    HW225620   2.610   4.449   0.807  1.9268  0.3382  1.8788
 4662SOL     OW25621   2.420   3.215   5.073  0.2025 -0.4682  0.0228
 4662SOL    HW125622   2.431   3.132   5.027 -0.1852  0.5232 -1.8679
 4662SOL    HW225623   2.461   3.195   5.157 -1.4583 -1.7759  0.5290
 4663SOL     OW25624   0.818   1.187   4.405 -0.4196  0.7267 -1.2824
 4663SOL    HW125625   0.863   1.130   4.467  0.6534  2.4624 -0.4787
 4663SOL    HW225626   0.724   1.170   4.417 -0.1197 -0.3429 -0.5271
 4664SOL     OW25627   1.873   4.016   8.309 -0.0266 -0.2764  0.0891
 4664SOL    HW125628   1.840   4.041   8.396 -0.6117 -0.9897  0.0629
 4664SOL    HW225629   1.953   4.069   8.316  0.9639 -1.7978  0.1101
 4665SOL     OW25630   2.915   3.205   8.032  0.0962 -0.0523  0.1006
 4665SOL    HW125631   2.862   3.201   8.112  0.0261  1.8616  0.1611
 4665SOL    HW225632   2.960   3.285   8.058  0.1332  0.8185 -2.6114
 4666SOL     OW25633   0.024   2.316   9.549  0.1818  0.0536 -0.4268
 4666SOL    HW125634   0.100   2.279   9.502 -0.1171 -2.6724  1.2203
 4666SOL    HW225635   0.014   2.246   9.613 -0.4735  0.0085 -0.5839
 4667SOL     OW25636   4.695   2.405   8.116 -0.2673 -0.4153  0.5819
 4667SOL    HW125637   4.700   2.435   8.207 -0.8466  0.7816  0.2172
 4667SOL    HW225638   4.637   2.455   8.060  2.7512  0.7853 -1.4594
 4668SOL     OW25639   2.376   2.514   1.838  0.5818 -0.6718 -0.0007
 4668SOL    HW125640   2.423   2.574   1.780  0.5223 -1.0063 -0.3916
 4668SOL    HW225641   2.350   2.586   1.896  0.0629 -0.4391 -0.5201
 4669SOL     OW25642   0.574   0.052   1.318  0.0753 -0.4159  0.1622
 4669SOL    HW125643   0.494   0.005   1.339  0.7130 -1.9324 -0.7877
 4669SOL    HW225644   0.637   4.717   1.329  1.8458  1.1951  0.3266
 4670SOL     OW25645   3.562   4.091  16.372 -0.1068  0.1766  0.0503
 4670SOL    HW125646   3.589   4.082  16.281 -0.1842 -0.5118  0.0925
 4670SOL    HW225647   3.556   4.186  16.384 -1.4410  0.2293 -0.9936
 4671SOL     OW25648   0.923   1.478   5.522 -0.4922  0.0963 -0.4083
 4671SOL    HW125649   0.980   1.406   5.496 -0.5117  0.2830 -0.9477
 4671SOL    HW225650   0.991   1.508   5.583 -0.7679 -0.7896  0.3486
 4672SOL     OW25651   2.614   2.931  13.967  0.1197  0.0479  0.0450
 4672SOL    HW125652   2.687   2.871  13.980  0.9399  0.9782 -0.1911
 4672SOL    HW225653   2.659   3.015  13.953  0.1224  0.0895  0.2948
 4673SOL     OW25654   2.965   1.594   7.811  0.2478 -0.3307 -0.0102
 4673SOL    HW125655   3.039   1.536   7.828  0.5188  0.0419  0.0807
 4673SOL    HW225656   2.997   1.620   7.724  1.9541  0.0310  0.7161
 4674SOL     OW25657   1.849   1.982   2.603  0.2079 -0.3095 -0.8237
 4674SOL    HW125658   1.761   1.977   2.566  0.2378  1.1792 -1.1213
 4674SOL    HW225659   1.852   2.077   2.618 -0.2160 -0.1219 -1.9835
 4675SOL     OW25660   2.191   0.568   6.152  0.1361  0.2413  0.0051
 4675SOL    HW125661   2.111   0.517   6.142  0.8295 -1.2260  2.1422
 4675SOL    HW225662   2.170   0.656   6.185 -2.3661  0.2986 -1.7164
 4676SOL     OW25663   1.421   1.171   5.876 -0.1307 -0.2108 -0.3507
 4676SOL    HW125664   1.433   1.130   5.790 -0.9492 -0.2269 -0.4505
 4676SOL    HW225665   1.417   1.093   5.930  2.9845  1.4809  2.3279
 4677SOL     OW25666   3.005   3.076  11.196  0.1532 -0.3311 -0.4639
 4677SOL    HW125667   2.986   3.122  11.114  2.4171 -1.3614 -1.5777
 4677SOL    HW225668   2.927   3.094  11.248 -0.1560  0.1636 -1.1087
 4678SOL     OW25669   0.982   3.370  14.731 -0.4360 -0.2214  0.3486
 4678SOL    HW125670   0.943   3.332  14.652  2.5818 -2.7786  0.0963
 4678SOL    HW225671   1.058   3.312  14.740 -0.1213  0.0463 -0.6070
 4679SOL     OW25672   0.254   3.386   4.634 -0.1038 -0.7589 -0.2264
 4679SOL    HW125673   0.231   3.346   4.718  1.3742 -0.2513  0.4155
 4679SOL    HW225674   0.343   3.350   4.630  1.1580  2.1862  1.0955
 4680SOL     OW25675   1.760   4.411   6.712  0.4915 -0.0814  0.6399
 4680SOL    HW125676   1.778   4.376   6.624  2.3305  0.0056  0.9962
 4680SOL    HW225677   1.807   4.494   6.702 -0.9554  0.3341 -3.1314
 4681SOL     OW25678   3.151   2.059   9.237  0.0743  0.6448  0.3308
 4681SOL    HW125679   3.166   2.088   9.147  2.6257 -0.6144  0.3648
 4681SOL    HW225680   3.222   2.112   9.273  0.5718 -0.0512  0.3693
 4682SOL     OW25681   3.319   3.686  15.949 -0.2040  0.2723 -0.2397
 4682SOL    HW125682   3.296   3.597  15.976  0.2744  1.2161  3.2146
 4682SOL    HW225683   3.388   3.667  15.885 -0.6658 -0.6023 -0.4776
 4683SOL     OW25684   1.147   4.182   8.593 -0.3736  0.5256 -0.2284
 4683SOL    HW125685   1.088   4.106   8.586 -1.3018  1.0312  2.2945
 4683SOL    HW225686   1.105   4.241   8.655  1.7629  2.2307 -0.4092
 4684SOL     OW25687   2.289   2.929   3.134 -0.0040  0.3098 -0.5486
 4684SOL    HW125688   2.237   3.008   3.121 -1.7058 -0.7049  0.1132
 4684SOL    HW225689   2.230   2.862   3.100 -0.0179 -1.1975  2.3782
 4685SOL     OW25690   2.712   2.026  17.590  0.3123  0.1260  0.7231
 4685SOL    HW125691   2.804   2.051  17.576  0.4752 -0.4061  0.8404
 4685SOL    HW225692   2.685   2.021  17.498 -2.5473  1.2079  1.5138
 4686SOL     OW25693   0.052   3.571  13.660 -0.1381  0.7184 -0.0960
 4686SOL    HW125694   0.086   3.520  13.734 -2.1519  0.0209  0.3734
 4686SOL    HW225695   0.014   3.642  13.712  1.2774  0.9872  0.5649
 4687SOL     OW25696   0.006   2.701   1.304 -0.5080 -0.4053  0.2565
 4687SOL    HW125697   0.033   2.734   1.218  0.4243  0.0528  0.7251
 4687SOL    HW225698   4.689   2.625   1.283  1.0974 -1.2030 -0.9996
 4688SOL     OW25699   2.973   0.292   6.012  0.4010  0.4314 -0.7791
 4688SOL    HW125700   2.918   0.306   6.089 -0.0577  2.5526 -1.5057
 4688SOL    HW225701   2.927   0.342   5.946 -0.4297 -0.7426 -1.0936
 4689SOL     OW25702   2.212   0.522  12.806 -0.0588 -0.3082  0.0813
 4689SOL    HW125703   2.286   0.563  12.850 -0.6930 -0.6563  1.4966
 4689SOL    HW225704   2.238   0.514  12.715  0.3444  2.0776 -0.0053
 4690SOL     OW25705   3.158   4.311   8.093 -0.2359  0.3349  0.3910
 4690SOL    HW125706   3.168   4.251   8.167 -0.5498 -0.1478  0.0412
 4690SOL    HW225707   3.184   4.249   8.025  1.7811 -0.7180  2.1287
 4691SOL     OW25708   2.918   1.127  14.172 -0.0897 -0.6607 -0.6143
 4691SOL    HW125709   2.834   1.090  14.200  0.0105 -1.4278 -1.3133
 4691SOL    HW225710   2.910   1.118  14.077 -0.1364  2.7416 -0.9154
 4692SOL     OW25711   3.060   4.643   3.914 -0.1872 -0.0583  0.1720
 4692SOL    HW125712   3.045   4.554   3.949 -1.1660  0.5941  1.4187
 4692SOL    HW225713   3.035   4.628   3.823  0.1538 -0.1772  0.0975
 4693SOL     OW25714   1.443   0.510   4.548 -0.8988 -0.0278  0.1290
 4693SOL    HW125715   1.537   0.491   4.544 -0.9362 -0.1787 -0.0074
 4693SOL    HW225716   1.438   0.542   4.638  0.7374  0.5661  0.0175
 4694SOL     OW25717   4.736   0.901  12.602  0.0011  0.1450 -0.0839
 4694SOL    HW125718   4.659   0.874  12.551  0.6539  0.4129 -1.2180
 4694SOL    HW225719   0.038   0.818  12.632 -2.1183 -0.4650  0.9854
 4695SOL     OW25720   0.322   2.064  12.117  0.2819 -0.4141 -0.2857
 4695SOL    HW125721   0.380   2.025  12.051  3.7571  2.1663  1.1792
 4695SOL    HW225722   0.376   2.141  12.136  0.3454 -0.1080 -1.7360
 4696SOL     OW25723   0.236   1.698   4.274  0.6000  0.3464 -0.2517
 4696SOL    HW125724   0.290   1.734   4.203 -0.1364 -1.6982 -1.8435
 4696SOL    HW225725   0.148   1.722   4.246  0.2281 -0.9546 -0.2012
 4697SOL     OW25726   1.088   3.237   9.481  0.4209 -0.1714  0.3112
 4697SOL    HW125727   1.073   3.176   9.554  1.3545 -2.5133 -1.4603
 4697SOL    HW225728   1.021   3.304   9.496  2.6939  2.3794 -1.1603
 4698SOL     OW25729   1.249   3.596   8.831  0.4410 -0.3273 -0.3056
 4698SOL    HW125730   1.310   3.622   8.762  0.2864  0.9518  0.0284
 4698SOL    HW225731   1.317   3.580   8.897  4.5705  0.5030 -4.4118
 4699SOL     OW25732   2.047   2.283   8.091 -0.5103 -0.1941  0.1200
 4699SOL    HW125733   2.084   2.255   8.174  1.7969 -1.3283 -1.2831
 4699SOL    HW225734   2.066   2.376   8.103  0.8983 -0.3596 -0.8037
 4700SOL     OW25735   3.639   2.587   7.654  0.4569 -0.2025  0.2046
 4700SOL    HW125736   3.549   2.567   7.627 -0.4426  0.4059  2.7233
 4700SOL    HW225737   3.673   2.634   7.578 -2.9283  0.7913 -0.7017
 4701SOL     OW25738   2.819   0.513   5.337  0.5060  0.2839  0.1309
 4701SOL    HW125739   2.730   0.534   5.309  0.5885 -0.1397 -0.4382
 4701SOL    HW225740   2.863   0.579   5.284  0.0861  0.7828  0.4022
 4702SOL     OW25741   4.167   3.616   3.137  0.6456 -0.2928  0.3592
 4702SOL    HW125742   4.192   3.704   3.109  1.1091 -1.0768 -1.7040
 4702SOL    HW225743   4.146   3.568   3.057  0.1719  1.0507 -0.3273
 4703SOL     OW25744   0.121   0.624   8.083 -0.1074  0.0901 -0.0814
 4703SOL    HW125745   0.114   0.559   8.014 -0.5387  0.3813 -0.3157
 4703SOL    HW225746   0.175   0.693   8.044 -0.9392 -0.4124 -2.0748
 4704SOL     OW25747   4.641   2.611   6.459 -0.6020 -0.1715 -0.0724
 4704SOL    HW125748   4.724   2.593   6.416 -0.4397 -2.5829  1.2770
 4704SOL    HW225749   4.657   2.581   6.549 -1.0705  1.4774  0.5687
 4705SOL     OW25750   0.011   4.434  13.172  0.4142  0.2772  0.2486
 4705SOL    HW125751   0.067   4.490  13.225  1.1051  1.4449 -1.7324
 4705SOL    HW225752   0.011   4.490  13.094  1.6962  0.1927  0.1853
 4706SOL     OW25753   1.320   3.594   1.662 -0.1639  0.1437  0.3651
 4706SOL    HW125754   1.354   3.607   1.573 -0.4253  1.6061  0.4803
 4706SOL    HW225755   1.323   3.686   1.690 -1.3110  0.4864 -0.6274
 4707SOL     OW25756   1.600   4.174   5.780  0.4785  0.0741  0.5312
 4707SOL    HW125757   1.519   4.208   5.818  0.4557  0.5258  0.0788
 4707SOL    HW225758   1.657   4.247   5.755 -0.0489  0.7765  1.4090
 4708SOL     OW25759   4.638   4.003   4.644 -0.5944 -0.7513  0.1821
 4708SOL    HW125760   4.694   4.050   4.706 -0.7377 -0.2586 -0.0620
 4708SOL    HW225761   4.631   3.912   4.672 -1.9345 -0.2432  1.5011
 4709SOL     OW25762   3.315   2.416   9.045  0.4496  0.0547 -0.7221
 4709SOL    HW125763   3.395   2.363   9.045  2.5489  3.2131  1.9329
 4709SOL    HW225764   3.341   2.477   8.976 -0.9687  1.0438 -0.3873
 4710SOL     OW25765   1.402   1.754   9.627  0.2639  0.8548 -0.2886
 4710SOL    HW125766   1.434   1.765   9.537  1.3622 -0.2180 -0.0260
 4710SOL    HW225767   1.374   1.843   9.647  0.0510  0.6858  0.1687
 4711SOL     OW25768   2.487   4.194   2.450  0.4783  0.6555  0.4339
 4711SOL    HW125769   2.517   4.244   2.526 -0.8913 -0.0699  1.4484
 4711SOL    HW225770   2.453   4.122   2.503  0.0999  0.1928 -0.4347
 4712SOL     OW25771   0.075   3.421  12.630  0.1406  0.9086  0.3381
 4712SOL    HW125772   0.100   3.443  12.540  0.0286 -2.1918 -0.4472
 4712SOL    HW225773   4.731   3.473  12.640 -0.0098  0.7722 -0.1651
 4713SOL     OW25774   2.979   3.232   3.766  0.6324 -0.4569 -0.1134
 4713SOL    HW125775   2.922   3.203   3.695  0.3071 -1.6906  0.6600
 4713SOL    HW225776   2.918   3.262   3.833 -0.7547 -0.8669 -1.1948
 4714SOL     OW25777   3.411   0.777   5.199 -0.3307  0.0450  0.3929
 4714SOL    HW125778   3.316   0.780   5.212 -0.3585 -0.0904  0.2101
 4714SOL    HW225779   3.427   0.869   5.223 -0.7490 -0.3171  2.0849
 4715SOL     OW25780   0.105   3.357   3.440  0.1919  0.3013 -0.1833
 4715SOL    HW125781   0.099   3.444   3.478  1.7822  0.5114 -0.4236
 4715SOL    HW225782   0.014   3.329   3.434  1.2210 -2.7151 -1.9163
 4716SOL     OW25783   1.526   2.738   2.235 -0.5505  0.6485 -0.0305
 4716SOL    HW125784   1.449   2.729   2.290 -0.8790 -0.5202 -0.7021
 4716SOL    HW225785   1.480   2.768   2.157 -0.9627  1.5642  0.5574
 4717SOL     OW25786   1.619   0.566   8.205 -0.0080  0.9544 -0.0155
 4717SOL    HW125787   1.570   0.554   8.287  1.7744 -0.3791  0.8732
 4717SOL    HW225788   1.599   0.484   8.160  1.3416  0.1914  0.7497
 4718SOL     OW25789   2.012   0.766   8.631  0.0807 -0.0684  0.7190
 4718SOL    HW125790   1.934   0.713   8.650 -0.1839  0.7413  1.8581
 4718SOL    HW225791   2.026   0.739   8.540  1.4453 -1.1439  1.2634
 4719SOL     OW25792   4.098   1.119  16.150  0.2901 -0.4369 -0.3082
 4719SOL    HW125793   4.129   1.103  16.239 -1.8701  0.3206  0.5766
 4719SOL    HW225794   4.078   1.029  16.122  0.6149 -0.3503 -0.8225
 4720SOL     OW25795   2.935   0.593   4.783  0.0363  0.1382  0.4188
 4720SOL    HW125796   2.942   0.579   4.689 -1.0680 -2.3166  0.7097
 4720SOL    HW225797   2.975   0.679   4.799 -0.2471 -0.3927  4.0096
 4721SOL     OW25798   3.113   4.111   4.904 -0.6314  0.4805  0.0716
 4721SOL    HW125799   3.065   4.075   4.829  0.1370 -1.8695  0.6896
 4721SOL    HW225800   3.118   4.033   4.960  0.4893 -0.5105 -1.4058
 4722SOL     OW25801   1.845   3.625   8.139  0.2696 -0.5638 -0.2373
 4722SOL    HW125802   1.780   3.569   8.097  0.8594 -1.4912  0.1011
 4722SOL    HW225803   1.797   3.708   8.136  2.7922  0.8637 -1.9325
 4723SOL     OW25804   2.194   1.773   0.490  0.1333 -0.2362 -0.0541
 4723SOL    HW125805   2.212   1.805   0.579 -2.0138  1.3973 -0.2035
 4723SOL    HW225806   2.099   1.778   0.484  0.1893 -1.5634 -2.0404
 4724SOL     OW25807   0.608   0.812   3.265 -0.1985  0.5123  0.5441
 4724SOL    HW125808   0.567   0.803   3.179 -2.1812  0.1460  1.5350
 4724SOL    HW225809   0.610   0.723   3.299 -2.0574 -0.9572 -3.3243
 4725SOL     OW25810   1.173   3.891   0.558  0.0125 -0.1278 -0.2487
 4725SOL    HW125811   1.211   3.819   0.607  0.4982  1.0949  1.1741
 4725SOL    HW225812   1.079   3.877   0.546 -0.4339  0.4895  2.5291
 4726SOL     OW25813   2.104   4.076  12.963 -0.1105  0.4275 -0.1339
 4726SOL    HW125814   2.051   4.140  12.916 -2.7447 -0.6655  1.3276
 4726SOL    HW225815   2.154   4.144  13.008  1.2276 -1.1642  0.7911
 4727SOL     OW25816   1.026   1.193  16.816  0.2632  0.3527  0.5036
 4727SOL    HW125817   1.120   1.194  16.798  0.1751 -0.6009  0.0025
 4727SOL    HW225818   1.021   1.244  16.897 -0.2193 -2.3715  2.2025
 4728SOL     OW25819   3.116   2.260  10.491 -0.4678 -0.5616 -0.2683
 4728SOL    HW125820   3.092   2.187  10.433 -0.1303 -0.8170 -0.0853
 4728SOL    HW225821   3.203   2.277  10.455  0.8399 -2.1266  2.1505
 4729SOL     OW25822   0.692   1.110   8.509  0.7882  0.0256 -0.1856
 4729SOL    HW125823   0.751   1.184   8.500  0.3151  0.3188 -0.8670
 4729SOL    HW225824   0.750   1.034   8.498 -1.1139 -1.5256  0.5220
 4730SOL     OW25825   4.505   3.758   4.066  0.0728 -0.7114 -0.3442
 4730SOL    HW125826   4.432   3.721   4.017 -1.1104  0.5327  0.4613
 4730SOL    HW225827   4.489   3.852   4.078  0.0379 -0.9053  1.2522
 4731SOL     OW25828   3.223   3.959   3.975 -0.1835 -0.5345  0.8835
 4731SOL    HW125829   3.297   4.018   3.960 -2.3438  2.2907  1.2578
 4731SOL    HW225830   3.270   3.887   4.017 -0.2474 -2.8061 -2.8565
 4732SOL     OW25831   4.481   3.504   5.318  0.0451  0.4187  0.5028
 4732SOL    HW125832   4.461   3.564   5.389 -0.2492  1.4614 -0.4566
 4732SOL    HW225833   4.576   3.507   5.307  0.1267  1.4122  1.4782
 4733SOL     OW25834   1.273   1.093   8.802 -0.5534 -0.1764  0.0587
 4733SOL    HW125835   1.250   1.092   8.709  1.3133 -1.2993 -0.3966
 4733SOL    HW225836   1.345   1.032   8.819  0.7240  1.1634 -0.6016
 4734SOL     OW25837   3.605   1.128   6.700 -0.2502 -0.1306 -0.1366
 4734SOL    HW125838   3.580   1.036   6.691  2.7852 -0.9543 -0.1720
 4734SOL    HW225839   3.694   1.112   6.668  0.1011  1.1435  0.2017
 4735SOL     OW25840   0.424   4.530   6.324  0.7993 -0.8137  0.2073
 4735SOL    HW125841   0.386   4.525   6.237  0.0611 -3.2758  0.6644
 4735SOL    HW225842   0.347   4.524   6.380  0.0538 -0.5482 -0.8060
 4736SOL     OW25843   1.687   4.151  17.352  0.0440 -0.4302  0.1002
 4736SOL    HW125844   1.635   4.219  17.309  3.1784  1.5184 -0.5956
 4736SOL    HW225845   1.779   4.177  17.352 -0.2247  0.4894  1.6262
 4737SOL     OW25846   2.717   3.973   2.342 -0.3686 -0.3513  0.5865
 4737SOL    HW125847   2.726   3.972   2.247 -1.6106  1.7448  0.4373
 4737SOL    HW225848   2.659   4.049   2.348  1.8410  1.2908  1.2271
 4738SOL     OW25849   3.891   3.791  10.434 -0.3585 -0.4318  0.0521
 4738SOL    HW125850   3.982   3.812  10.454  0.2444 -0.3416 -2.8464
 4738SOL    HW225851   3.894   3.793  10.338 -2.9052  1.8566  0.0102
 4739SOL     OW25852   0.823   0.361   5.009  0.0300 -0.7058 -0.2200
 4739SOL    HW125853   0.903   0.355   4.955 -0.1042 -2.7411 -0.1748
 4739SOL    HW225854   0.769   0.344   4.932 -1.9908  1.3183  0.7735
 4740SOL     OW25855   2.971   0.201  16.925 -0.0913 -0.0003  0.7839
 4740SOL    HW125856   3.043   0.160  16.972  0.0712  1.5316  1.8654
 4740SOL    HW225857   3.012   0.280  16.889  0.5381  0.2356  2.0088
 4741SOL     OW25858   3.337   1.959   5.221  0.4371 -0.0673  0.3169
 4741SOL    HW125859   3.270   2.001   5.167  0.0154 -0.0000  0.8946
 4741SOL    HW225860   3.309   1.994   5.305  1.0864  1.2183  0.0049
 4742SOL     OW25861   4.040   3.006  10.506  0.3205 -0.0077 -0.5354
 4742SOL    HW125862   4.016   3.028  10.416  3.3593  0.6685 -1.1791
 4742SOL    HW225863   4.118   2.952  10.492  0.5561  0.0631  0.4835
 4743SOL     OW25864   1.360   1.610  13.885  0.0612 -0.2487  0.0245
 4743SOL    HW125865   1.352   1.596  13.791  0.9030 -0.2883 -0.0466
 4743SOL    HW225866   1.299   1.683  13.894 -0.7680 -1.1082  1.2860
 4744SOL     OW25867   3.527   3.742   2.175 -0.2928  0.0083 -0.2839
 4744SOL    HW125868   3.492   3.830   2.188 -0.6831  0.0260 -1.3978
 4744SOL    HW225869   3.521   3.719   2.267 -2.1726 -1.8688 -0.8693
 4745SOL     OW25870   3.352   4.452   6.422 -0.2268 -0.3500  0.3227
 4745SOL    HW125871   3.359   4.476   6.330 -1.3067  2.6087  1.0166
 4745SOL    HW225872   3.270   4.488   6.458 -0.2062  1.3591 -1.3673
 4746SOL     OW25873   2.692   3.004  13.085  0.0879  0.1991  0.5211
 4746SOL    HW125874   2.750   2.930  13.068  0.4377  0.0644  2.3651
 4746SOL    HW225875   2.659   3.011  12.995 -0.6546 -0.7229  0.7123
 4747SOL     OW25876   1.161   2.982  11.191  0.3301 -0.1102 -0.2277
 4747SOL    HW125877   1.247   2.989  11.231 -0.2090 -1.5356  1.1839
 4747SOL    HW225878   1.112   3.050  11.238  1.2578 -1.7359  3.0915
 4748SOL     OW25879   4.144   2.997   8.901  0.7499  0.0531  0.3647
 4748SOL    HW125880   4.050   3.007   8.913  0.8466 -0.5206  1.5775
 4748SOL    HW225881   4.154   3.044   8.818  0.1278 -2.1552 -0.9612
 4749SOL     OW25882   4.253   2.540  12.693 -0.2073 -0.0517 -0.0450
 4749SOL    HW125883   4.238   2.588  12.774  2.2417 -0.4229  0.6276
 4749SOL    HW225884   4.237   2.450  12.724  0.3711 -0.9769 -2.3948
 4750SOL     OW25885   4.353   4.096   4.360 -0.0246 -0.0303 -0.4461
 4750SOL    HW125886   4.294   4.159   4.403  0.6122 -1.6074  2.6835
 4750SOL    HW225887   4.339   4.015   4.408 -0.3589  1.6735  2.3536
 4751SOL     OW25888   1.544   2.608  15.813  0.0480  0.2546 -0.2346
 4751SOL    HW125889   1.595   2.653  15.880  0.1044 -1.5164  0.8927
 4751SOL    HW225890   1.540   2.666  15.737  0.5363  1.2363  0.4835
 4752SOL     OW25891   1.694   1.105   8.957  0.4175  0.6046 -0.2181
 4752SOL    HW125892   1.655   1.108   8.869  1.1836 -0.7713 -0.5948
 4752SOL    HW225893   1.666   1.191   8.988 -0.3129 -0.2518  1.4518
 4753SOL     OW25894   3.624   0.683  10.795  0.2247 -0.2514 -0.3850
 4753SOL    HW125895   3.592   0.769  10.820 -1.6851 -1.5734  1.6955
 4753SOL    HW225896   3.653   0.653  10.881 -1.2610 -0.7864 -0.0808
 4754SOL     OW25897   1.639   4.551   1.857  0.4478 -0.0070  0.5906
 4754SOL    HW125898   1.650   4.554   1.952 -0.8059 -1.2158  0.7613
 4754SOL    HW225899   1.551   4.587   1.846 -0.1953 -1.7629  0.1025
 4755SOL     OW25900   1.610   1.891   2.509  0.0169 -0.3026 -0.2250
 4755SOL    HW125901   1.562   1.877   2.591  1.9860 -0.6881  0.8466
 4755SOL    HW225902   1.645   1.805   2.487  0.1417  0.6856 -3.7562
 4756SOL     OW25903   0.812   3.710   3.691  0.4242 -0.1053  0.3664
 4756SOL    HW125904   0.890   3.745   3.733  0.1806  2.1476 -1.0252
 4756SOL    HW225905   0.782   3.650   3.759 -1.2433  1.9916  1.5004
 4757SOL     OW25906   1.046   2.128   4.184  0.0451 -0.0674 -0.3348
 4757SOL    HW125907   0.971   2.073   4.160  0.9261 -1.5262  0.1992
 4757SOL    HW225908   1.020   2.212   4.148  0.9019  0.5981  0.5895
 4758SOL     OW25909   0.307   0.060   8.210 -0.6118  0.4226 -0.0292
 4758SOL    HW125910   0.362   0.080   8.285  2.6599 -4.0047 -1.2516
 4758SOL    HW225911   0.362   0.011   8.149 -0.9715 -1.0705  0.8341
 4759SOL     OW25912   1.227   1.819  17.203  0.2714  0.0915  0.9892
 4759SOL    HW125913   1.221   1.772  17.120 -0.5145  0.2636  0.9568
 4759SOL    HW225914   1.221   1.909  17.171  2.2535  0.0449  0.4481
 4760SOL     OW25915   4.632   2.022   0.031 -0.3689  0.0560 -0.1044
 4760SOL    HW125916   4.662   2.111   0.047 -1.3807  0.7719 -2.2179
 4760SOL    HW225917   4.707   1.982  17.731 -0.1860  0.2306  0.0512
 4761SOL     OW25918   2.496   1.213  10.171 -0.5180  0.3254  0.2490
 4761SOL    HW125919   2.432   1.223  10.241  0.6844  0.7848  1.2898
 4761SOL    HW225920   2.569   1.268  10.201 -0.9993  0.4772  1.1371
 4762SOL     OW25921   3.153   0.386   9.296  0.6036  0.0363 -0.2480
 4762SOL    HW125922   3.223   0.448   9.274  0.3473 -1.0603 -4.2078
 4762SOL    HW225923   3.164   0.385   9.391 -2.7652  1.6820  0.1682
 4763SOL     OW25924   4.639   0.297   5.532 -0.5817 -0.1876 -0.4414
 4763SOL    HW125925   4.584   0.325   5.605 -0.1414 -1.2094  0.2889
 4763SOL    HW225926   4.620   0.369   5.472  1.5248  0.1410 -0.7019
 4764SOL     OW25927   1.890   4.626   6.677  0.1117 -0.7654 -0.6695
 4764SOL    HW125928   1.897   4.661   6.587 -0.2921  3.8078  1.0582
 4764SOL    HW225929   1.968   4.657   6.724  0.2499 -3.1732  0.6869
 4765SOL     OW25930   3.651   2.176  12.813 -0.2904  0.0930 -0.1780
 4765SOL    HW125931   3.700   2.232  12.752 -0.8569 -0.4150 -1.0987
 4765SOL    HW225932   3.641   2.229  12.892  0.1275 -1.0851  0.6604
 4766SOL     OW25933   3.041   4.121  12.926  0.1401 -0.1818 -0.2027
 4766SOL    HW125934   3.005   4.188  12.868  0.7613  0.2175 -0.1210
 4766SOL    HW225935   3.132   4.145  12.908  0.3580 -1.7992 -1.2439
 4767SOL     OW25936   4.174   4.170   2.948 -0.2941 -0.1383  0.0720
 4767SOL    HW125937   4.128   4.245   2.986 -0.7878 -0.3527 -0.1098
 4767SOL    HW225938   4.243   4.170   3.015 -1.4516 -0.4986  1.2662
 4768SOL     OW25939   3.335   0.383  11.342 -0.4150  0.0726 -0.2449
 4768SOL    HW125940   3.415   0.331  11.346  0.4025  1.4062  0.9650
 4768SOL    HW225941   3.283   0.337  11.409 -1.2543  1.9031  0.3666
 4769SOL     OW25942   1.120   2.715   9.617  0.4638  0.2634  0.1222
 4769SOL    HW125943   1.190   2.655   9.643  0.5546  0.3788  0.1479
 4769SOL    HW225944   1.066   2.703   9.695  1.1664 -0.6450  0.4620
 4770SOL     OW25945   4.329   1.831   5.252  0.5539  0.2948  0.6679
 4770SOL    HW125946   4.420   1.807   5.230  0.2052  0.5548 -1.0944
 4770SOL    HW225947   4.355   1.897   5.315 -1.2717  0.1587  1.5420
 4771SOL     OW25948   3.503   3.440   2.082 -0.2343 -0.3290 -0.3695
 4771SOL    HW125949   3.576   3.406   2.030  0.6117  0.1302  0.5262
 4771SOL    HW225950   3.526   3.411   2.171 -2.1117 -2.8710 -0.7033
 4772SOL     OW25951   3.208   4.623   7.541 -0.0663 -0.1752 -0.5113
 4772SOL    HW125952   3.227   4.551   7.601 -2.7263 -1.8894 -1.7328
 4772SOL    HW225953   3.149   4.575   7.483 -0.1860 -1.4629  0.6871
 4773SOL     OW25954   0.500   2.634  11.745 -0.2101  0.2607  0.1907
 4773SOL    HW125955   0.477   2.570  11.679 -1.3397  2.7973 -1.8680
 4773SOL    HW225956   0.556   2.694  11.697 -0.8027  0.5373 -0.1555
 4774SOL     OW25957   4.457   0.482   0.101  0.0281 -0.5188  0.2527
 4774SOL    HW125958   4.404   0.481   0.181 -0.6169 -0.4164 -0.1770
 4774SOL    HW225959   4.531   0.428   0.128  2.3377  1.3659 -2.3211
 4775SOL     OW25960   3.854   3.752   5.189  0.2149 -0.3452  1.0262
 4775SOL    HW125961   3.861   3.657   5.175 -1.4673 -0.2503 -0.5200
 4775SOL    HW225962   3.815   3.754   5.276  1.7523  0.2590  1.6938
 4776SOL     OW25963   3.322   1.440   6.458 -0.0231  0.3921 -0.1869
 4776SOL    HW125964   3.370   1.476   6.384  1.0524  0.3881  0.5204
 4776SOL    HW225965   3.390   1.395   6.508  0.4904 -1.1354 -2.2972
 4777SOL     OW25966   3.906   0.062   3.758  0.6648  0.3915  0.4625
 4777SOL    HW125967   3.846   0.113   3.704  0.8826  0.1527 -0.0069
 4777SOL    HW225968   3.848   0.023   3.824 -0.2945  0.2577 -0.4593
 4778SOL     OW25969   3.794   1.291   5.335 -0.0656 -0.7307  0.0891
 4778SOL    HW125970   3.769   1.198   5.337 -0.6771 -0.5660  0.0060
 4778SOL    HW225971   3.816   1.296   5.428 -1.5142  0.0385  0.3875
 4779SOL     OW25972   0.971   4.103   0.554 -0.1643  0.0533 -0.6920
 4779SOL    HW125973   1.005   4.092   0.465 -0.5572  0.5181 -0.8957
 4779SOL    HW225974   1.051   4.070   0.595  0.6408  3.1470  0.2434
 4780SOL     OW25975   0.040   0.150  12.683  0.2967  0.5197  0.2244
 4780SOL    HW125976   0.108   0.086  12.701  1.3048  0.5242 -3.5645
 4780SOL    HW225977   4.724   0.099  12.621  1.2665  2.5012 -2.2546
 4781SOL     OW25978   3.724   2.407   4.036  0.7268  0.2397  0.2232
 4781SOL    HW125979   3.738   2.480   4.095  0.4207  0.4992 -0.0219
 4781SOL    HW225980   3.782   2.336   4.063 -0.4851 -0.0685  2.0148
 4782SOL     OW25981   4.376   3.763   6.188 -0.2133 -0.0801 -0.6981
 4782SOL    HW125982   4.456   3.721   6.157  0.7502 -0.3729  2.2240
 4782SOL    HW225983   4.413   3.826   6.250 -1.1720 -0.5625  0.3588
 4783SOL     OW25984   1.525   3.550   9.768 -0.2915  0.3976 -0.2193
 4783SOL    HW125985   1.612   3.525   9.800  0.0061  1.0359 -0.5265
 4783SOL    HW225986   1.540   3.613   9.698  0.9394  1.0239  0.6048
 4784SOL     OW25987   1.521   4.147   0.847 -0.0913 -0.0927 -0.1804
 4784SOL    HW125988   1.533   4.104   0.932  1.2401  0.6149 -0.0149
 4784SOL    HW225989   1.565   4.079   0.795  0.3972 -1.6239  2.2161
 4785SOL     OW25990   0.358   0.615   7.067  0.0566  0.4039  0.1760
 4785SOL    HW125991   0.371   0.532   7.021  1.0690  0.9601 -0.5670
 4785SOL    HW225992   0.267   0.604   7.095  1.0000  1.0134  3.5015
 4786SOL     OW25993   3.673   1.376  15.414 -0.2262 -0.1973 -0.6962
 4786SOL    HW125994   3.598   1.378  15.355 -1.0726 -2.0963  0.3195
 4786SOL    HW225995   3.654   1.300  15.470  0.5467  0.8944  1.0427
 4787SOL     OW25996   2.732   3.916   6.197 -0.2102 -0.1844  0.3086
 4787SOL    HW125997   2.661   3.862   6.163  0.3901  0.7641 -2.4604
 4787SOL    HW225998   2.816   3.884   6.164 -0.2114  1.0504 -0.8875
 4788SOL     OW25999   4.004   2.428  11.977  0.0410  0.2305  0.1797
 4788SOL    HW126000   3.937   2.459  11.917  0.7821  0.4572 -0.5364
 4788SOL    HW226001   4.070   2.397  11.915  0.9145  0.4865  0.9806
 4789SOL     OW26002   1.930   0.586   6.371  0.0302  0.3746  0.0707
 4789SOL    HW126003   2.008   0.641   6.358 -0.4521  1.5087  2.1039
 4789SOL    HW226004   1.969   0.503   6.398 -0.9135 -0.1358 -0.1426
 4790SOL     OW26005   3.129   1.544   2.077  0.1463 -0.2686 -0.0219
 4790SOL    HW126006   3.177   1.502   2.148 -0.3417 -1.9266 -0.6776
 4790SOL    HW226007   3.040   1.509   2.079  0.8430 -2.0150  0.1003
 4791SOL     OW26008   2.770   2.139   9.739 -0.2204 -0.5380 -0.2198
 4791SOL    HW126009   2.755   2.150   9.645 -3.5816 -0.2468  0.3495
 4791SOL    HW226010   2.677   2.140   9.763  0.4071 -0.3249  2.1729
 4792SOL     OW26011   1.829   2.578   4.094 -0.2042 -0.0850 -0.0612
 4792SOL    HW126012   1.859   2.514   4.159  0.1693 -1.3246 -1.4498
 4792SOL    HW226013   1.903   2.629   4.062  0.4585 -0.5216  0.7869
 4793SOL     OW26014   0.017   2.223  15.953  0.1885  0.3040 -0.0567
 4793SOL    HW126015   0.101   2.235  15.909  1.0257  0.6250  1.6046
 4793SOL    HW226016   4.711   2.309  15.941 -0.9176  0.0068  1.6270
 4794SOL     OW26017   1.181   1.721   6.485  0.1952 -0.3453  0.0233
 4794SOL    HW126018   1.226   1.734   6.568 -3.2071  2.3428  1.3796
 4794SOL    HW226019   1.194   1.626   6.478  0.3706 -0.2330 -1.2989
 4795SOL     OW26020   0.583   4.267   4.469 -0.0113  0.1669 -0.4216
 4795SOL    HW126021   0.502   4.318   4.472 -1.7315 -2.5151 -1.4116
 4795SOL    HW226022   0.625   4.293   4.551 -0.8520  0.9021 -0.2178
 4796SOL     OW26023   0.086   1.259   9.252 -0.3441  0.6694 -0.1920
 4796SOL    HW126024   0.078   1.165   9.234  0.0602  0.8494 -1.2925
 4796SOL    HW226025   0.002   1.274   9.296  0.7180 -0.4044  2.1698
 4797SOL     OW26026   1.411   1.372   0.697  0.6744 -0.0357  0.7204
 4797SOL    HW126027   1.385   1.463   0.686  1.7496  0.2683  0.6848
 4797SOL    HW226028   1.334   1.338   0.743 -1.3751  2.7850 -0.6093
 4798SOL     OW26029   2.964   2.443  11.610 -0.1823 -0.4376  0.1788
 4798SOL    HW126030   2.985   2.520  11.556  0.7790 -0.5950  0.3266
 4798SOL    HW226031   3.028   2.456  11.680  1.5835  1.6108 -1.8120
 4799SOL     OW26032   3.163   0.413   2.584 -0.2583 -0.2611 -0.0032
 4799SOL    HW126033   3.154   0.449   2.672  0.9519  2.1265 -0.8556
 4799SOL    HW226034   3.259   0.408   2.579 -0.1851 -0.4864  1.5630
 4800SOL     OW26035   2.329   1.661   8.053 -0.1136 -0.3087  0.4612
 4800SOL    HW126036   2.300   1.730   8.113  0.8804 -0.2378  0.8516
 4800SOL    HW226037   2.246   1.656   8.006 -0.0462  0.7629  0.2331
 4801SOL     OW26038   1.038   0.017  13.415 -0.1025  0.4332  0.0019
 4801SOL    HW126039   1.103   4.685  13.431 -1.7397 -0.3794  3.2332
 4801SOL    HW226040   1.076   0.054  13.335  2.6801  2.4016  2.2676
 4802SOL     OW26041   3.980   2.997   0.634 -0.2248 -0.1287  0.1703
 4802SOL    HW126042   4.046   2.977   0.700 -0.6320 -1.4890  0.1789
 4802SOL    HW226043   3.944   2.908   0.628 -0.8443  0.0375  1.4172
 4803SOL     OW26044   0.685   4.092   7.062 -0.0301  0.4714 -0.2729
 4803SOL    HW126045   0.733   4.170   7.035 -0.0980 -0.4787 -3.1797
 4803SOL    HW226046   0.757   4.044   7.103 -0.5167  0.0773  0.1201
 4804SOL     OW26047   2.318   4.604  13.253 -0.0702  0.6336 -0.2866
 4804SOL    HW126048   2.269   4.595  13.171  0.5595  3.4912 -0.9924
 4804SOL    HW226049   2.272   4.680  13.291  0.3818  0.0595  1.4154
 4805SOL     OW26050   1.530   3.774   7.187 -0.5839  0.1488 -0.2217
 4805SOL    HW126051   1.537   3.859   7.145 -0.3462 -0.0065 -0.4940
 4805SOL    HW226052   1.447   3.749   7.146 -0.9666 -0.7672  1.0782
 4806SOL     OW26053   2.707   4.246   2.965  0.2000 -0.3812  0.0790
 4806SOL    HW126054   2.678   4.238   2.874  1.7631 -0.7485 -0.3916
 4806SOL    HW226055   2.626   4.248   3.015  0.6445  2.2346  0.6869
 4807SOL     OW26056   4.618   2.655   2.605  0.3545  0.7269 -0.0280
 4807SOL    HW126057   4.683   2.678   2.538 -0.4081  1.7274 -0.4310
 4807SOL    HW226058   4.536   2.688   2.568 -0.8515  0.9055  2.8431
 4808SOL     OW26059   1.473   1.037   3.359 -0.5763 -0.0229 -0.3821
 4808SOL    HW126060   1.524   0.996   3.429  1.2527  0.7485 -1.2793
 4808SOL    HW226061   1.524   1.117   3.347 -1.3772  0.5306 -0.1107
 4809SOL     OW26062   4.047   1.641   8.243  0.1346  0.1564  0.4918
 4809SOL    HW126063   3.973   1.610   8.192  1.9128  0.6734 -2.3791
 4809SOL    HW226064   4.035   1.591   8.324  1.1739 -1.6905 -0.5008
 4810SOL     OW26065   4.264   4.489  14.758 -0.3200 -0.6416  0.0535
 4810SOL    HW126066   4.222   4.403  14.758  2.1262 -1.8528  1.9144
 4810SOL    HW226067   4.345   4.463  14.802 -0.6717 -1.2734  0.3250
 4811SOL     OW26068   3.804   4.206   5.865 -0.3828  0.0407  0.0704
 4811SOL    HW126069   3.841   4.171   5.784 -3.3538 -1.4395 -0.6612
 4811SOL    HW226070   3.882   4.199   5.919  0.0194  2.3853 -0.2117
 4812SOL     OW26071   3.786   4.023   9.310 -0.2364 -0.2704  0.6877
 4812SOL    HW126072   3.836   4.050   9.387 -0.2926  0.2771  0.5351
 4812SOL    HW226073   3.798   3.928   9.319 -0.4750 -0.4410 -0.8623
 4813SOL     OW26074   1.166   0.295   8.486  0.8106 -0.7573  0.0293
 4813SOL    HW126075   1.110   0.299   8.409 -3.2454  0.7823  3.0530
 4813SOL    HW226076   1.127   0.221   8.532  0.5264 -1.0919 -0.7531
 4814SOL     OW26077   4.033   3.856   6.533  0.6728 -0.3536  0.0737
 4814SOL    HW126078   3.952   3.809   6.512  1.6074 -0.9907 -2.0374
 4814SOL    HW226079   4.085   3.843   6.454  0.2407 -0.2636 -0.2278
 4815SOL     OW26080   0.113   0.441  17.139 -0.5431  0.2575 -0.4899
 4815SOL    HW126081   0.122   0.507  17.208 -0.1068  0.3097 -0.5964
 4815SOL    HW226082   0.207   0.421  17.131 -0.3276  1.2827 -0.5410
 4816SOL     OW26083   2.666   4.584   3.818 -0.6536 -0.5941  0.2619
 4816SOL    HW126084   2.625   4.643   3.881 -0.1602  0.6330 -0.5680
 4816SOL    HW226085   2.699   4.520   3.881  1.6798  1.3634  1.0619
 4817SOL     OW26086   3.145   3.852   3.672 -0.3645 -0.1548 -0.1810
 4817SOL    HW126087   3.082   3.923   3.678  0.4707  0.4811  1.0599
 4817SOL    HW226088   3.210   3.879   3.737 -1.5069 -0.6349  1.1514
 4818SOL     OW26089   0.355   4.664   0.714  0.1492  0.1894 -0.5049
 4818SOL    HW126090   0.260   4.656   0.722  0.2624  0.1674  0.9386
 4818SOL    HW226091   0.374   4.627   0.628 -2.3291  1.4525 -1.5993
 4819SOL     OW26092   1.268   0.447   7.852  0.1260  0.2301 -0.5680
 4819SOL    HW126093   1.182   0.406   7.841  0.7334 -0.7971 -1.5488
 4819SOL    HW226094   1.283   0.445   7.946 -0.2318  1.0195 -0.4938
 4820SOL     OW26095   2.056   3.201   9.629 -0.2941 -0.2164  0.4279
 4820SOL    HW126096   2.074   3.265   9.559 -0.0907  0.3919  1.0431
 4820SOL    HW226097   2.112   3.129   9.602 -1.1468 -1.3550  1.7293
 4821SOL     OW26098   0.619   4.014   2.597 -0.0258 -1.2767 -0.4230
 4821SOL    HW126099   0.547   4.044   2.654 -0.4088  0.5392 -1.8741
 4821SOL    HW226100   0.584   4.053   2.517 -0.5601  1.0106  0.9036
 4822SOL     OW26101   0.544   3.372   5.230 -0.3538  0.4433  0.1479
 4822SOL    HW126102   0.548   3.382   5.134  1.2546  0.1964  0.1965
 4822SOL    HW226103   0.584   3.287   5.245 -0.9641  0.1342  0.0557
 4823SOL     OW26104   0.828   3.127   2.242  0.5713 -0.0990 -0.0640
 4823SOL    HW126105   0.743   3.085   2.254  0.1742  0.8950  0.6650
 4823SOL    HW226106   0.861   3.071   2.172 -0.0845 -1.1410  0.4745
 4824SOL     OW26107   2.363   1.127  10.617 -0.1444  0.5390 -0.5462
 4824SOL    HW126108   2.306   1.152  10.544  0.2787 -0.9363 -1.3796
 4824SOL    HW226109   2.449   1.167  10.603 -0.9880  2.1360 -1.1263
 4825SOL     OW26110   1.209   0.931   3.938  0.0792 -0.4784 -0.4779
 4825SOL    HW126111   1.147   0.859   3.929 -0.6252  0.4539 -3.0934
 4825SOL    HW226112   1.260   0.905   3.861  0.0164  0.5910 -0.8819
 4826SOL     OW26113   2.075   3.997   8.715  0.2151 -0.1334  0.1955
 4826SOL    HW126114   2.017   3.926   8.743 -1.6151 -0.4152 -4.2989
 4826SOL    HW226115   2.046   4.071   8.767  2.2092  0.3025  0.6739
 4827SOL     OW26116   4.254   1.471  10.427  0.2338 -0.2038 -0.0377
 4827SOL    HW126117   4.321   1.536  10.447  3.0760 -1.9965 -3.9121
 4827SOL    HW226118   4.302   1.394  10.397 -1.2179  0.1354 -3.2672
 4828SOL     OW26119   2.186   3.345   5.014 -0.4018 -0.0830  0.4551
 4828SOL    HW126120   2.265   3.290   5.014 -0.5730 -0.3313  0.2879
 4828SOL    HW226121   2.141   3.309   5.090 -2.1831 -0.8061 -0.9372
 4829SOL     OW26122   0.068   4.416   6.285  0.1712  0.5222  0.0361
 4829SOL    HW126123   0.130   4.344   6.288 -1.2770 -0.7306 -0.0597
 4829SOL    HW226124   0.110   4.480   6.227  0.9978  1.6008  1.8391
 4830SOL     OW26125   3.386   4.609   0.006  0.6029  0.4572  0.0931
 4830SOL    HW126126   3.466   4.635  17.704  1.5590 -0.8232  1.0207
 4830SOL    HW226127   3.406   4.518   0.029  1.1531  0.7217  0.6443
 4831SOL     OW26128   3.067   2.750  16.840 -0.3071  0.2821  0.8066
 4831SOL    HW126129   3.104   2.833  16.871 -1.1702  1.3420 -1.0015
 4831SOL    HW226130   3.006   2.785  16.775  0.5938 -0.7817 -0.5920
 4832SOL     OW26131   1.463   2.004   9.283  0.1831 -0.1070 -0.0016
 4832SOL    HW126132   1.486   2.087   9.326  0.1925  0.3429 -0.8636
 4832SOL    HW226133   1.550   1.980   9.254 -0.5353 -1.1057 -1.3158
 4833SOL     OW26134   1.459   2.520   5.625  0.3757  0.5864 -0.3920
 4833SOL    HW126135   1.548   2.490   5.606 -0.6652 -0.7936 -3.0540
 4833SOL    HW226136   1.408   2.440   5.617 -0.5673  1.2321 -0.7390
 4834SOL     OW26137   4.600   1.901   4.639 -0.1401 -0.6356 -0.0567
 4834SOL    HW126138   4.593   1.985   4.594 -0.6352 -0.0225  1.1491
 4834SOL    HW226139   4.681   1.873   4.597  0.1270  3.6850 -2.4039
 4835SOL     OW26140   1.176   4.078   3.136  0.1124  0.6683 -0.6055
 4835SOL    HW126141   1.091   4.037   3.118 -1.0930  2.3907  1.2215
 4835SOL    HW226142   1.228   4.044   3.063 -0.8331 -0.9206 -0.5349
 4836SOL     OW26143   4.456   4.035   5.189  0.0376  0.6280 -0.1689
 4836SOL    HW126144   4.414   4.080   5.262 -0.8866 -0.5441  0.0304
 4836SOL    HW226145   4.521   3.981   5.234  0.6183  0.0515 -1.6594
 4837SOL     OW26146   2.341   4.481   3.219 -0.5018 -0.6245 -0.6819
 4837SOL    HW126147   2.265   4.495   3.276  0.4840  1.8149  0.0095
 4837SOL    HW226148   2.307   4.527   3.143 -0.8985 -0.8042 -0.6195
 4838SOL     OW26149   2.121   0.086   2.554 -0.0933  0.8316  0.4667
 4838SOL    HW126150   2.149   0.115   2.467  0.1601  3.3178  1.3636
 4838SOL    HW226151   2.196   0.028   2.570 -0.2820  0.2666 -0.7371
 4839SOL     OW26152   3.136   3.882  10.285  0.0370  0.0848  0.0537
 4839SOL    HW126153   3.217   3.879  10.234  0.0474  1.1530 -0.0001
 4839SOL    HW226154   3.126   3.791  10.314  2.2770 -0.2507 -0.2055
 4840SOL     OW26155   0.043   3.318  15.875  0.5627 -0.2542 -0.3458
 4840SOL    HW126156   4.689   3.290  15.892  0.9051 -0.4591  1.0474
 4840SOL    HW226157   0.034   3.340  15.782 -3.6067 -2.1003 -0.3590
 4841SOL     OW26158   1.827   0.965   6.404 -0.1417 -0.0015 -0.3985
 4841SOL    HW126159   1.881   0.947   6.326  1.1932  2.3719 -0.0226
 4841SOL    HW226160   1.798   0.879   6.434  0.7645 -0.3657 -0.5566
 4842SOL     OW26161   1.149   2.700   4.180  0.1534 -0.1515 -0.5729
 4842SOL    HW126162   1.160   2.701   4.085 -1.0883  1.3561 -0.7026
 4842SOL    HW226163   1.063   2.742   4.181 -0.4721 -1.4119 -1.1706
 4843SOL     OW26164   3.476   2.666   3.841 -0.4734 -0.2056  0.2708
 4843SOL    HW126165   3.466   2.722   3.764  0.4712 -0.0725  0.2413
 4843SOL    HW226166   3.392   2.624   3.859 -0.6684  0.0606  0.0038
 4844SOL     OW26167   0.242   3.272   8.676  0.5532 -0.1036  0.4628
 4844SOL    HW126168   0.173   3.327   8.713  0.9875  2.1271 -2.0013
 4844SOL    HW226169   0.296   3.276   8.754 -0.1844  0.6640  0.9347
 4845SOL     OW26170   2.435   1.144   2.077 -0.1276  0.0931  0.1202
 4845SOL    HW126171   2.447   1.227   2.124 -1.3333  0.0078  0.5799
 4845SOL    HW226172   2.524   1.135   2.043 -1.0567  1.1362 -2.5570
 4846SOL     OW26173   1.023   4.601   7.239  0.1726 -0.2420 -0.6021
 4846SOL    HW126174   1.035   4.609   7.144 -1.9536 -0.2498 -0.8829
 4846SOL    HW226175   0.999   4.514   7.271 -3.0098  0.6964 -0.4142
 4847SOL     OW26176   1.407   2.622   8.107 -0.0140 -0.5664 -0.0228
 4847SOL    HW126177   1.451   2.542   8.077 -0.5599 -0.8536 -0.0702
 4847SOL    HW226178   1.342   2.638   8.037  0.9327 -1.3786 -1.0901
 4848SOL     OW26179   1.457   0.516   7.665  0.4315 -0.6070 -0.1875
 4848SOL    HW126180   1.401   0.475   7.730 -1.5962  0.1861 -1.4305
 4848SOL    HW226181   1.526   0.545   7.723  0.0730 -2.3960  1.1399
 4849SOL     OW26182   1.104   0.435   7.465  0.3009 -0.8710  0.2119
 4849SOL    HW126183   1.111   0.446   7.370  1.1290  2.3140  0.6148
 4849SOL    HW226184   1.194   0.414   7.490 -0.2121 -2.6086  0.5998
 4850SOL     OW26185   2.793   1.223  13.782 -0.3664  0.1907 -0.3988
 4850SOL    HW126186   2.795   1.198  13.690  0.7677 -1.4614  0.0555
 4850SOL    HW226187   2.857   1.294  13.788 -0.4295  0.3359 -1.6284
 4851SOL     OW26188   0.497   0.962  15.007 -0.1730 -0.0896 -0.2557
 4851SOL    HW126189   0.444   1.037  15.035  1.1236 -0.2118  2.5342
 4851SOL    HW226190   0.445   0.892  15.044 -2.1648 -0.6904 -4.2150
 4852SOL     OW26191   0.386   0.113  16.732 -0.4551 -0.4371  0.0246
 4852SOL    HW126192   0.353   0.092  16.819 -1.2285  0.6086 -0.0248
 4852SOL    HW226193   0.314   0.102  16.671  0.9043 -0.3213 -1.5990
 4853SOL     OW26194   1.123   3.564   0.575 -0.5701 -0.0280  0.3466
 4853SOL    HW126195   1.085   3.547   0.489 -2.6965  0.4027  1.2037
 4853SOL    HW226196   1.148   3.475   0.597  0.6107  0.3125  0.4078
 4854SOL     OW26197   2.875   4.182   8.350 -0.5788 -0.0118  0.1134
 4854SOL    HW126198   2.897   4.252   8.413  2.1004 -0.9937  0.2662
 4854SOL    HW226199   2.900   4.104   8.400 -1.2844 -1.2403 -1.4825
 4855SOL     OW26200   2.536   0.007   5.141  0.3079  0.1376 -0.3184
 4855SOL    HW126201   2.602   0.062   5.182 -0.4971 -0.8067  2.2497
 4855SOL    HW226202   2.519   4.674   5.205 -1.8632 -0.0423 -1.0704
 4856SOL     OW26203   1.464   3.313  15.128 -0.1653 -0.2601 -0.2617
 4856SOL    HW126204   1.395   3.247  15.119 -0.6986  0.1981  0.3664
 4856SOL    HW226205   1.411   3.391  15.149  0.4245  0.6668 -2.2761
 4857SOL     OW26206   1.375   4.009   0.243 -0.6391  0.2974  0.8824
 4857SOL    HW126207   1.440   3.972   0.184  0.6848  0.4251  2.2565
 4857SOL    HW226208   1.432   4.027   0.318 -0.4636 -0.8603  1.0216
 4858SOL     OW26209   3.788   0.167  14.918 -0.0113  0.0103  0.3831
 4858SOL    HW126210   3.877   0.143  14.893 -0.2898  0.2472 -0.8693
 4858SOL    HW226211   3.759   0.081  14.948 -1.2207  0.0679 -0.6126
 4859SOL     OW26212   2.342   2.434   6.698  0.1148  0.4038 -0.6499
 4859SOL    HW126213   2.391   2.382   6.762 -1.0719 -0.4409 -0.4387
 4859SOL    HW226214   2.362   2.523   6.726  1.4224  0.3817 -1.4952
 4860SOL     OW26215   1.210   3.965  14.209 -0.2061  0.5638 -0.7612
 4860SOL    HW126216   1.153   3.973  14.132 -1.6853  1.7989  0.4675
 4860SOL    HW226217   1.253   3.883  14.183 -1.5316 -0.1688 -0.6431
 4861SOL     OW26218   0.645   0.264   2.635  0.0527  0.0371  0.4614
 4861SOL    HW126219   0.622   0.323   2.563 -1.6753  2.3594  2.9856
 4861SOL    HW226220   0.698   0.321   2.690  1.6241 -0.4537 -0.5192
 4862SOL     OW26221   2.595   0.400  13.518 -0.1868  0.3590 -0.1984
 4862SOL    HW126222   2.592   0.429  13.609 -0.7049 -0.5365  0.0677
 4862SOL    HW226223   2.529   0.448  13.468 -1.5116  1.2719  2.4562
 4863SOL     OW26224   4.132   3.719   7.282  0.3882 -0.3645  0.0986
 4863SOL    HW126225   4.049   3.711   7.329  0.3479 -3.3811 -0.4586
 4863SOL    HW226226   4.183   3.660   7.338 -0.4941 -1.3340 -0.1080
 4864SOL     OW26227   2.419   2.488   8.508 -0.1416  0.4607  0.1776
 4864SOL    HW126228   2.415   2.583   8.508  2.1381  0.5484 -2.6118
 4864SOL    HW226229   2.356   2.472   8.579 -1.7318 -0.8481 -1.5269
 4865SOL     OW26230   3.026   0.917  12.953  0.0664 -0.1532  0.3366
 4865SOL    HW126231   3.021   0.927  13.048 -0.2640  1.6089  0.1337
 4865SOL    HW226232   3.121   0.908  12.943 -0.0303 -1.1188  0.3233
 4866SOL     OW26233   2.756   3.288   4.061  0.6707  0.3713 -0.4714
 4866SOL    HW126234   2.745   3.221   4.129  1.2266 -0.4288 -1.1655
 4866SOL    HW226235   2.695   3.255   3.995  1.7672 -1.5862 -0.5142
 4867SOL     OW26236   3.661   1.770   8.259 -0.1396  0.3854  0.9142
 4867SOL    HW126237   3.590   1.799   8.202  1.1220  1.6978  0.0078
 4867SOL    HW226238   3.623   1.763   8.346 -0.0818 -0.0224  0.9048
 4868SOL     OW26239   3.836   1.066   9.725 -1.1166  0.1526  0.3599
 4868SOL    HW126240   3.775   1.035   9.792 -0.3064 -0.3447  0.8718
 4868SOL    HW226241   3.900   0.995   9.725 -0.8873  0.3544 -0.5946
 4869SOL     OW26242   4.067   1.638   7.896 -0.5156  0.3165 -0.0323
 4869SOL    HW126243   4.023   1.722   7.905  0.3623  0.5580  2.0261
 4869SOL    HW226244   3.991   1.584   7.873 -0.7888  0.4826  0.4879
 4870SOL     OW26245   3.603   0.303   9.926  0.1953 -0.2792  0.3382
 4870SOL    HW126246   3.638   0.273   9.842 -0.7400 -3.1424  0.9765
 4870SOL    HW226247   3.621   0.229   9.983  0.3037  0.4913  1.2894
 4871SOL     OW26248   3.586   4.054   7.935 -0.5504  0.1285  0.6752
 4871SOL    HW126249   3.598   4.131   7.880 -1.3625 -0.3965 -0.2235
 4871SOL    HW226250   3.665   4.001   7.944 -0.6920  0.0398  1.4061
 4872SOL     OW26251   3.746   1.777   7.639 -0.1054  0.4011 -0.0344
 4872SOL    HW126252   3.784   1.713   7.700  0.7398  1.6976  0.8024
 4872SOL    HW226253   3.690   1.817   7.705 -0.4674 -1.5783  0.8704
 4873SOL     OW26254   1.667   3.714   1.551  0.1307  0.4877  0.1197
 4873SOL    HW126255   1.755   3.732   1.519 -0.6463 -0.4849 -2.6000
 4873SOL    HW226256   1.686   3.678   1.638 -0.8226 -1.6914 -0.5655
 4874SOL     OW26257   1.180   4.205   1.624 -0.5406  0.2730  0.2560
 4874SOL    HW126258   1.251   4.248   1.673 -0.4898 -0.0205  0.4401
 4874SOL    HW226259   1.187   4.239   1.535 -0.0969  0.6624  0.4365
 4875SOL     OW26260   4.547   3.265   3.335 -0.6174  0.0211 -0.3041
 4875SOL    HW126261   4.532   3.264   3.429 -0.5939  1.6564 -0.2866
 4875SOL    HW226262   4.462   3.226   3.315 -0.5613 -0.1720 -0.1523
 4876SOL     OW26263   1.802   4.604  12.625  0.0329 -0.3399  0.3750
 4876SOL    HW126264   1.836   4.632  12.541  0.1574 -1.5909 -0.0011
 4876SOL    HW226265   1.720   4.649  12.644 -0.4356 -0.9272 -0.2372
 4877SOL     OW26266   3.780   4.225   5.259 -0.6135 -0.0993 -0.1151
 4877SOL    HW126267   3.714   4.157   5.267 -0.6289 -0.2286 -1.4717
 4877SOL    HW226268   3.742   4.272   5.185  0.1778  1.0092  0.1752
 4878SOL     OW26269   1.777   2.795   3.215  0.2036 -0.2675 -0.4134
 4878SOL    HW126270   1.694   2.777   3.259  1.4697 -2.4998  1.0112
 4878SOL    HW226271   1.828   2.834   3.286  1.9624  0.1409 -1.8943
 4879SOL     OW26272   3.775   3.950   6.773 -0.2129 -1.0390  0.6316
 4879SOL    HW126273   3.841   3.885   6.747  1.2493  0.9101 -0.5090
 4879SOL    HW226274   3.767   3.992   6.687 -0.0620  1.7835  2.0188
 4880SOL     OW26275   3.694   2.168   5.565  0.0518 -0.6063  0.1335
 4880SOL    HW126276   3.781   2.141   5.534  0.4148 -0.5837  1.1243
 4880SOL    HW226277   3.702   2.140   5.656 -4.1219  2.2375  1.3660
 4881SOL     OW26278   4.251   1.661   4.186  0.1547 -0.3466  0.1444
 4881SOL    HW126279   4.254   1.724   4.114  1.5878 -0.4825  0.0697
 4881SOL    HW226280   4.181   1.598   4.169  0.4379 -0.9095  1.0619
 4882SOL     OW26281   1.485   2.535   7.698 -0.0048  0.1292 -0.1035
 4882SOL    HW126282   1.541   2.519   7.623 -0.1072  2.4231 -0.6608
 4882SOL    HW226283   1.405   2.495   7.664 -1.9164  2.7609  1.2834
 4883SOL     OW26284   3.659   1.106   0.987  0.1655 -0.2657 -0.4580
 4883SOL    HW126285   3.686   1.153   0.908 -2.4343  1.2836 -0.4356
 4883SOL    HW226286   3.741   1.075   1.027  1.3211  2.0633 -1.0525
 4884SOL     OW26287   4.141   0.097   3.904  0.2650 -0.3856  0.0194
 4884SOL    HW126288   4.060   0.084   3.855  0.6721 -1.6042 -0.3269
 4884SOL    HW226289   4.113   0.116   3.993 -1.8030 -0.4442 -0.6251
 4885SOL     OW26290   4.194   1.466   7.284 -0.4937 -0.4152 -0.1933
 4885SOL    HW126291   4.104   1.439   7.303 -1.1292  1.0545 -1.0889
 4885SOL    HW226292   4.177   1.510   7.200 -2.2393  0.9524  0.8719
 4886SOL     OW26293   1.523   3.757   1.129 -0.6875 -0.0627  0.0611
 4886SOL    HW126294   1.602   3.721   1.089 -0.8522  2.2961 -2.4016
 4886SOL    HW226295   1.481   3.683   1.172  0.7692 -0.8017  0.1824
 4887SOL     OW26296   0.117   4.570   7.411 -0.3333  0.6379 -0.1749
 4887SOL    HW126297   0.143   4.525   7.492 -0.2910  1.0741  0.0518
 4887SOL    HW226298   0.188   4.633   7.401  0.0635  0.2732  0.2910
 4888SOL     OW26299   0.441   2.735   1.398  0.2993 -0.2257  0.5030
 4888SOL    HW126300   0.499   2.723   1.473  2.5441  2.0239 -0.8663
 4888SOL    HW226301   0.439   2.643   1.374  0.8972  0.0257 -0.4990
 4889SOL     OW26302   3.646   1.141   7.881  0.7870 -0.2426  0.1293
 4889SOL    HW126303   3.599   1.127   7.964  0.0853  0.4984 -0.1405
 4889SOL    HW226304   3.699   1.061   7.877  0.0390 -0.7247 -0.2435
 4890SOL     OW26305   0.762   1.382   5.162  0.0247  0.3852  0.0260
 4890SOL    HW126306   0.744   1.292   5.132 -1.7519 -0.1168  2.6377
 4890SOL    HW226307   0.856   1.383   5.177  0.3034  2.1037 -1.9450
 4891SOL     OW26308   4.351   1.167   1.479 -0.6701 -0.3220  0.3540
 4891SOL    HW126309   4.349   1.227   1.553  2.7556  0.7806 -0.4395
 4891SOL    HW226310   4.318   1.220   1.407  0.2062  0.5273  0.5752
 4892SOL     OW26311   3.352   1.035   7.746 -0.3999 -0.6446 -0.2886
 4892SOL    HW126312   3.284   1.082   7.698 -0.4681 -0.3270  0.1222
 4892SOL    HW226313   3.430   1.075   7.707  1.0517 -1.6605  1.5765
 4893SOL     OW26314   2.314   0.865   5.580  0.1031 -0.2274 -0.0821
 4893SOL    HW126315   2.361   0.918   5.644 -0.2877  0.4224 -0.3325
 4893SOL    HW226316   2.336   0.899   5.493 -2.3643  1.6014 -0.0023
 4894SOL     OW26317   2.913   4.522  17.703  0.1855  0.0586 -0.1356
 4894SOL    HW126318   2.831   4.519  17.654 -0.1263 -0.6198  0.4190
 4894SOL    HW226319   2.914   4.614  17.729 -0.1344 -0.3098  1.1960
 4895SOL     OW26320   1.914   2.845  16.377 -0.4596  0.4989 -0.6703
 4895SOL    HW126321   2.000   2.847  16.335  0.7683 -0.4652  1.8249
 4895SOL    HW226322   1.924   2.913  16.443  1.3515  0.0276 -0.4582
 4896SOL     OW26323   0.466   3.470   2.961 -0.4533 -0.3556  0.3084
 4896SOL    HW126324   0.519   3.536   3.006 -1.4297  1.1319 -0.7425
 4896SOL    HW226325   0.524   3.401   2.930 -0.0754 -0.4547  1.2473
 4897SOL     OW26326   2.696   3.196   7.673  0.2909  0.1494 -0.3473
 4897SOL    HW126327   2.663   3.181   7.585 -3.3546  0.7476  0.9070
 4897SOL    HW226328   2.665   3.282   7.700  1.3322  0.8164 -1.3222
 4898SOL     OW26329   0.015   1.717   2.162 -0.4382 -0.0324 -0.2315
 4898SOL    HW126330   0.103   1.725   2.201  0.1088 -1.1425 -1.2102
 4898SOL    HW226331   0.004   1.789   2.101 -1.3832  0.3221  0.3703
 4899SOL     OW26332   4.103   3.868   8.529  0.1388 -0.0276  0.3006
 4899SOL    HW126333   4.117   3.961   8.515 -0.1030  0.0602  0.6314
 4899SOL    HW226334   4.026   3.861   8.474  0.6713  0.2363 -0.4723
 4900SOL     OW26335   4.728   4.715   1.438  0.0769 -0.0605 -0.3936
 4900SOL    HW126336   0.030   0.066   1.439 -0.5719  0.2339 -3.6600
 4900SOL    HW226337   4.642   0.007   1.406 -0.5285 -1.2074  0.2261
 4901SOL     OW26338   4.111   0.660   3.713 -0.3001 -0.3863  0.0096
 4901SOL    HW126339   4.101   0.740   3.663 -0.6591 -0.2101  0.3625
 4901SOL    HW226340   4.175   0.613   3.660 -0.3564 -0.8155  0.3170
 4902SOL     OW26341   1.749   0.082   4.014 -0.2217  0.7624 -0.2527
 4902SOL    HW126342   1.835   0.050   4.040  0.5796  4.1609  1.2735
 4902SOL    HW226343   1.732   0.009   3.953  0.4594  1.2339 -1.0047
 4903SOL     OW26344   1.408   2.190   7.700  0.3507 -0.1270 -0.0546
 4903SOL    HW126345   1.389   2.222   7.788 -1.6184  0.6875 -0.7814
 4903SOL    HW226346   1.409   2.267   7.644  1.6187  0.6813  1.0803
 4904SOL     OW26347   2.735   3.100   3.720  0.3392 -0.0984 -0.2697
 4904SOL    HW126348   2.705   3.066   3.804 -1.3437  2.0670  0.0228
 4904SOL    HW226349   2.788   3.024   3.695 -1.9626 -1.8992  0.3281
 4905SOL     OW26350   3.161   3.015   0.919 -0.0508 -0.2926  0.6512
 4905SOL    HW126351   3.155   3.025   1.014 -1.8586  2.8938  0.1963
 4905SOL    HW226352   3.086   3.070   0.898 -1.2446 -1.5866  1.5950
 4906SOL     OW26353   1.226   4.101   2.753 -0.1267  0.3037  0.0372
 4906SOL    HW126354   1.278   4.046   2.812  0.3082  2.4536  1.6518
 4906SOL    HW226355   1.282   4.179   2.744 -0.7148  0.4365 -2.3555
 4907SOL     OW26356   3.764   4.002   2.222 -0.2934  0.5546 -0.3836
 4907SOL    HW126357   3.723   3.987   2.137 -1.8925  2.3291  0.0766
 4907SOL    HW226358   3.704   4.064   2.263  0.1540  0.4179  0.4901
 4908SOL     OW26359   3.457   0.007   4.167  0.0069 -0.4482 -0.0932
 4908SOL    HW126360   3.551   0.016   4.177  0.0551 -0.0085 -0.9938
 4908SOL    HW226361   3.435   4.655   4.198  3.4254 -1.0239  0.7009
 4909SOL     OW26362   1.264   4.462   6.513  0.1214 -0.2087 -0.3018
 4909SOL    HW126363   1.197   4.442   6.578  0.0743 -0.2686 -0.3688
 4909SOL    HW226364   1.321   4.510   6.573 -2.3505  0.3722  1.5848
 4910SOL     OW26365   2.357   2.597   5.160  0.0467 -0.4826 -0.7444
 4910SOL    HW126366   2.325   2.526   5.215  1.0377 -0.4368 -0.1192
 4910SOL    HW226367   2.273   2.620   5.119  0.2674  0.5055 -0.6470
 4911SOL     OW26368   3.230   2.476  15.594  0.3672 -0.4839 -0.1932
 4911SOL    HW126369   3.195   2.549  15.543 -1.7622 -1.4988 -0.1809
 4911SOL    HW226370   3.321   2.505  15.607 -0.3758  1.5481  0.4545
 4912SOL     OW26371   3.626   0.243  17.450 -0.1320 -0.2467  0.0019
 4912SOL    HW126372   3.660   0.290  17.373 -0.3236  1.7509  1.1313
 4912SOL    HW226373   3.715   0.230  17.483 -0.8015 -0.1171  1.8790
 4913SOL     OW26374   0.449   3.761  10.097 -0.2300 -0.1935 -0.6438
 4913SOL    HW126375   0.375   3.795  10.146  0.8425  2.7596 -1.0513
 4913SOL    HW226376   0.411   3.709  10.026 -0.7850  0.9622 -1.1995
 4914SOL     OW26377   3.740   1.460   1.401 -0.2302 -0.1905  0.1145
 4914SOL    HW126378   3.687   1.540   1.406  1.9565  1.0707  3.1775
 4914SOL    HW226379   3.783   1.480   1.317  1.9405  0.6275  1.4140
 4915SOL     OW26380   0.389   0.754   7.326  0.1770  0.0860  0.5685
 4915SOL    HW126381   0.389   0.696   7.250 -1.3904  1.4260 -0.4524
 4915SOL    HW226382   0.338   0.830   7.298  0.3741 -0.9439 -2.5152
 4916SOL     OW26383   3.497   0.983   8.611  0.5563 -0.1712 -0.3728
 4916SOL    HW126384   3.503   1.023   8.697  0.5967 -1.2539  0.1334
 4916SOL    HW226385   3.409   1.020   8.600  0.2506 -1.1472 -1.2402
 4917SOL     OW26386   4.532   4.520   1.614  0.5140 -0.6621 -0.4605
 4917SOL    HW126387   4.543   4.584   1.684  0.3306 -0.6882 -0.4061
 4917SOL    HW226388   4.615   4.529   1.567  0.7915 -0.2328  0.1117
 4918SOL     OW26389   1.843   1.697   8.509 -0.6274 -0.1364  0.1430
 4918SOL    HW126390   1.831   1.628   8.443  1.5082 -0.2350 -0.1444
 4918SOL    HW226391   1.936   1.690   8.530 -0.2121  1.3920 -1.1826
 4919SOL     OW26392   2.415   2.356  17.210  0.0078 -0.1390  0.4091
 4919SOL    HW126393   2.488   2.362  17.148 -0.6565  1.3656 -0.2331
 4919SOL    HW226394   2.449   2.389  17.294  2.7106 -0.3020 -0.5979
 4920SOL     OW26395   2.297   2.505   4.820 -0.3149  0.5266 -0.3182
 4920SOL    HW126396   2.215   2.481   4.864  0.5031 -0.8007  0.4724
 4920SOL    HW226397   2.287   2.450   4.742  1.5921 -0.3474  0.0644
 4921SOL     OW26398   2.370   1.931   9.176  0.4409  0.1002  0.0007
 4921SOL    HW126399   2.435   1.982   9.224  1.2668 -0.9523  0.0021
 4921SOL    HW226400   2.290   1.984   9.173 -0.6461 -1.6495 -1.3641
 4922SOL     OW26401   3.589   0.124   5.222  0.0019  0.0228  0.5176
 4922SOL    HW126402   3.581   0.208   5.178 -1.0253 -0.4582 -0.2134
 4922SOL    HW226403   3.535   0.150   5.296 -1.3319 -3.3384  0.7329
 4923SOL     OW26404   0.700   0.290   6.031  0.0793 -0.4017  0.1393
 4923SOL    HW126405   0.649   0.213   6.006 -1.2907  0.3743  0.5221
 4923SOL    HW226406   0.696   0.264   6.122 -1.6782 -1.1133 -0.1406
 4924SOL     OW26407   4.044   3.933   2.406  0.2965  0.3642  0.0563
 4924SOL    HW126408   3.963   3.906   2.449 -1.8008  1.1725 -3.4330
 4924SOL    HW226409   4.115   3.882   2.445  0.8170 -0.4116 -1.9413
 4925SOL     OW26410   3.436   1.076  14.820 -0.1421 -0.1514  0.4826
 4925SOL    HW126411   3.447   1.137  14.747 -1.4163 -0.0806  0.3463
 4925SOL    HW226412   3.348   1.043  14.804  0.1012 -0.0040 -1.1157
 4926SOL     OW26413   2.484   0.175   8.075  0.6049  0.4754  0.3147
 4926SOL    HW126414   2.452   0.264   8.092  0.5117  0.5972 -0.5054
 4926SOL    HW226415   2.444   0.166   7.989  0.6735  1.6437  0.1595
 4927SOL     OW26416   2.444   3.383   9.034 -0.2030 -0.4440 -0.0034
 4927SOL    HW126417   2.532   3.373   8.998  0.5012 -1.7139  2.0596
 4927SOL    HW226418   2.455   3.419   9.122  1.8782  2.9088 -1.6534
 4928SOL     OW26419   2.182   3.645   6.827 -0.6916  0.1639  0.0553
 4928SOL    HW126420   2.255   3.702   6.854 -0.2913 -0.7342  0.8635
 4928SOL    HW226421   2.143   3.699   6.759 -2.4185 -2.1788 -0.8006
 4929SOL     OW26422   3.810   0.148   2.762 -0.2519 -0.1617  0.0709
 4929SOL    HW126423   3.838   0.057   2.752 -0.4053 -0.1614 -0.3767
 4929SOL    HW226424   3.837   0.181   2.676 -2.3649 -2.2677 -1.4104
 4930SOL     OW26425   4.087   3.953   3.134 -0.0029 -0.1566 -0.0252
 4930SOL    HW126426   4.043   3.900   3.067 -0.3789  1.0594 -0.7474
 4930SOL    HW226427   4.102   4.033   3.083 -1.8272 -0.3536 -0.8602
 4931SOL     OW26428   4.692   3.853   8.635  0.9932  0.0290  0.4676
 4931SOL    HW126429   4.711   3.931   8.583 -0.9979  1.2749  1.6026
 4931SOL    HW226430   4.644   3.887   8.711  1.0566  0.1036  0.4749
 4932SOL     OW26431   1.522   3.958   1.543 -0.2929 -0.6933 -0.0212
 4932SOL    HW126432   1.582   3.884   1.530  1.5290  0.9622 -0.8979
 4932SOL    HW226433   1.562   4.029   1.493 -0.3491  1.1688  2.5848
 4933SOL     OW26434   1.948   1.025   6.146  0.0966  0.0241  0.2370
 4933SOL    HW126435   1.910   1.080   6.078  1.6211  0.2504 -0.4391
 4933SOL    HW226436   2.011   1.087   6.184 -0.6885 -0.2083  1.9311
 4934SOL     OW26437   1.922   1.686  11.201 -0.5852  0.0471 -0.0610
 4934SOL    HW126438   1.853   1.628  11.234 -1.2901  0.6563 -0.4501
 4934SOL    HW226439   1.964   1.638  11.130 -2.1512 -0.0847 -0.8964
 4935SOL     OW26440   4.408   1.449  16.408 -0.3992 -0.1446  0.1415
 4935SOL    HW126441   4.321   1.478  16.379  1.3830  0.8983 -4.1423
 4935SOL    HW226442   4.471   1.508  16.367 -0.6602 -0.5665 -0.8743
 4936SOL     OW26443   1.471   4.102   3.679  0.2328  0.6011 -0.1481
 4936SOL    HW126444   1.397   4.109   3.740 -1.1593 -1.3625 -1.6069
 4936SOL    HW226445   1.423   4.052   3.613  1.4802 -0.6994 -0.0644
 4937SOL     OW26446   4.296   3.700   8.626 -0.4253  0.2015 -0.6086
 4937SOL    HW126447   4.232   3.683   8.695  1.1548  3.2794  1.6007
 4937SOL    HW226448   4.254   3.780   8.593  0.0962 -0.5416 -3.1088
 4938SOL     OW26449   4.166   2.550   7.550  0.2413 -0.4683  0.0440
 4938SOL    HW126450   4.196   2.577   7.463 -0.6142  0.6598  0.1153
 4938SOL    HW226451   4.100   2.618   7.553  2.0174  1.3309 -1.8553
 4939SOL     OW26452   3.635   1.457  16.973 -0.0523 -0.3645  0.0820
 4939SOL    HW126453   3.712   1.508  16.952 -1.5059  0.8150 -2.3462
 4939SOL    HW226454   3.635   1.384  16.911  1.9662 -0.9393  0.7636
 4940SOL     OW26455   1.781   3.206   9.554  0.1143 -0.4671  1.1087
 4940SOL    HW126456   1.808   3.213   9.463 -0.4008 -2.0399  0.8330
 4940SOL    HW226457   1.868   3.204   9.595  0.4699 -0.5681  0.3447
 4941SOL     OW26458   1.408   4.721  12.563  0.0023  0.1537 -0.8565
 4941SOL    HW126459   1.482   0.043  12.541  1.4020 -0.7311  1.4865
 4941SOL    HW226460   1.339   0.048  12.545 -1.0160 -0.7561 -0.1056
 4942SOL     OW26461   1.244   1.044  14.974 -0.3203 -0.2606  0.0324
 4942SOL    HW126462   1.163   1.030  15.023 -0.9282 -0.2750 -0.9768
 4942SOL    HW226463   1.257   1.138  14.966 -2.8289  0.0950  0.2885
 4943SOL     OW26464   0.674   4.208   5.463  0.4213  0.1858  0.1588
 4943SOL    HW126465   0.754   4.197   5.411  1.0169 -0.1292  1.1366
 4943SOL    HW226466   0.616   4.134   5.445 -0.4133  0.8640  0.0880
 4944SOL     OW26467   4.403   1.252   7.952 -0.3412 -0.1830  0.5487
 4944SOL    HW126468   4.348   1.216   7.883 -0.7570  2.4974 -0.5250
 4944SOL    HW226469   4.338   1.259   8.021 -0.9441 -1.5107  0.1155
 4945SOL     OW26470   1.418   0.519  10.772  0.8920  0.2426 -0.1666
 4945SOL    HW126471   1.453   0.444  10.820  1.0133  0.0399 -0.5709
 4945SOL    HW226472   1.348   0.548  10.831  0.3333 -1.2210 -0.1125
 4946SOL     OW26473   0.024   2.952  15.782  0.0755 -0.5790  0.1957
 4946SOL    HW126474   4.713   2.874  15.752  1.0660 -0.5360 -1.4708
 4946SOL    HW226475   0.080   2.979  15.710  0.7560  0.5077  1.1427
 4947SOL     OW26476   2.606   2.996   2.224 -0.1721 -0.3222 -0.2360
 4947SOL    HW126477   2.569   3.048   2.153 -0.1646 -0.6969 -0.5130
 4947SOL    HW226478   2.553   2.916   2.222 -2.4246  1.1717  0.0067
 4948SOL     OW26479   3.753   1.073   4.696  0.1109  0.2273  0.6655
 4948SOL    HW126480   3.830   1.017   4.687  0.4475  0.8099 -0.1268
 4948SOL    HW226481   3.702   1.059   4.617 -1.4314  3.4710  1.1055
 4949SOL     OW26482   2.284   2.585   6.348 -0.2823  0.0959  0.0216
 4949SOL    HW126483   2.231   2.562   6.425 -0.6524  1.1480  0.0775
 4949SOL    HW226484   2.234   2.540   6.280 -0.2137 -0.8013  0.5547
 4950SOL     OW26485   4.139   0.631   9.531  0.5524  0.2037 -0.2088
 4950SOL    HW126486   4.175   0.562   9.587  2.0692  1.1643 -0.0062
 4950SOL    HW226487   4.117   0.589   9.448 -2.7130 -0.3225  0.8999
 4951SOL     OW26488   3.307   2.338   5.479  0.0041 -0.5220 -0.1563
 4951SOL    HW126489   3.348   2.317   5.563  0.4211  1.1092  0.0488
 4951SOL    HW226490   3.372   2.316   5.412 -0.4728 -0.9075 -0.4885
 4952SOL     OW26491   3.607   1.549   2.071 -0.0768  0.2276  0.4684
 4952SOL    HW126492   3.641   1.460   2.061  2.8679  1.4820 -0.8157
 4952SOL    HW226493   3.578   1.570   1.982 -0.1759  0.7041  0.6170
 4953SOL     OW26494   2.439   1.111  17.205  0.4706  0.4708 -0.3497
 4953SOL    HW126495   2.441   1.198  17.246 -0.9620 -0.3556  1.4474
 4953SOL    HW226496   2.520   1.072  17.240 -1.4277 -0.8920  2.5284
 4954SOL     OW26497   4.304   2.000   6.299 -0.3474  0.0925 -0.2740
 4954SOL    HW126498   4.270   2.062   6.364 -0.6078 -0.4927  0.1469
 4954SOL    HW226499   4.385   1.963   6.335  0.3909  0.9703 -1.0488
 4955SOL     OW26500   2.123   3.974  12.652  0.6866  0.0015 -0.4375
 4955SOL    HW126501   2.199   3.950  12.704  0.2321  0.3844  0.3994
 4955SOL    HW226502   2.145   3.930  12.570  0.5102 -2.4792  0.8159
 4956SOL     OW26503   1.650   1.910  13.370  0.2262 -0.8032  0.5655
 4956SOL    HW126504   1.659   2.000  13.403 -0.2404  0.8585 -3.9026
 4956SOL    HW226505   1.688   1.929  13.285 -0.0793 -0.2713  0.5457
 4957SOL     OW26506   3.131   1.930   6.996 -0.1399  0.0386 -0.0982
 4957SOL    HW126507   3.086   1.960   7.075  0.9777  0.7214  0.2703
 4957SOL    HW226508   3.221   1.925   7.027 -0.0992 -0.1843 -0.2498
 4958SOL     OW26509   2.054   4.274   4.855 -0.2654  0.7434  0.0793
 4958SOL    HW126510   2.075   4.262   4.948 -0.0181 -0.0997 -0.0877
 4958SOL    HW226511   1.992   4.347   4.849 -0.2155  0.7937  0.1736
 4959SOL     OW26512   1.417   0.862  11.926  0.3874 -0.4079 -0.0244
 4959SOL    HW126513   1.511   0.846  11.934  0.7182  1.8191  0.5477
 4959SOL    HW226514   1.390   0.808  12.000 -0.2413 -0.9960 -0.6821
 4960SOL     OW26515   3.807   0.908   7.786  0.0676  0.3608 -0.0515
 4960SOL    HW126516   3.890   0.943   7.817  0.1602  0.4704 -0.4189
 4960SOL    HW226517   3.821   0.901   7.691  1.6095  2.0016  0.0556
 4961SOL     OW26518   3.363   1.357   4.239 -0.7004 -0.1350  0.0729
 4961SOL    HW126519   3.273   1.362   4.206 -0.1502 -0.4059 -1.4701
 4961SOL    HW226520   3.348   1.369   4.333 -0.7040 -2.3570  0.3596
 4962SOL     OW26521   2.081   0.482   3.482 -0.1255  0.0248 -0.3048
 4962SOL    HW126522   2.132   0.405   3.505  2.1177  1.3138 -0.9965
 4962SOL    HW226523   2.119   0.495   3.396 -0.6164 -1.8423 -0.7989
 4963SOL     OW26524   3.771   4.328   3.880  0.3114  0.5828  0.7461
 4963SOL    HW126525   3.784   4.401   3.819 -0.6805  0.4047  0.3273
 4963SOL    HW226526   3.683   4.340   3.915  0.7932  0.3928  2.0563
 4964SOL     OW26527   1.225   3.571   2.004 -0.1905  0.2706 -0.3394
 4964SOL    HW126528   1.187   3.630   2.070 -1.3132 -0.7804 -0.0566
 4964SOL    HW226529   1.260   3.635   1.941 -0.1294  0.7373  0.1736
 4965SOL     OW26530   1.708   1.311   5.820 -0.1279 -0.1329  0.3197
 4965SOL    HW126531   1.732   1.297   5.728 -0.3514  0.0474  0.2351
 4965SOL    HW226532   1.646   1.381   5.801  1.2935  0.9015 -0.5505
 4966SOL     OW26533   3.707   0.401  17.232 -0.0622  0.1036 -0.9757
 4966SOL    HW126534   3.800   0.423  17.237  0.2840 -2.2624  3.6283
 4966SOL    HW226535   3.679   0.420  17.143  1.0804 -1.0846 -1.5913
 4967SOL     OW26536   1.165   0.964   5.531  0.5588 -0.1294  0.6016
 4967SOL    HW126537   1.166   0.907   5.455  0.6631 -0.1611  0.6269
 4967SOL    HW226538   1.089   0.927   5.575 -0.5224  1.3788 -0.0011
 4968SOL     OW26539   0.421   0.848  12.609 -0.1199  0.0064 -0.0652
 4968SOL    HW126540   0.414   0.913  12.539  2.2780  0.3329  0.0153
 4968SOL    HW226541   0.449   0.769  12.563 -0.3410  0.0949 -0.3600
 4969SOL     OW26542   3.374   0.079   7.387  0.2839  0.2790 -0.0815
 4969SOL    HW126543   3.355   0.013   7.453 -0.0104  0.2634 -0.1834
 4969SOL    HW226544   3.454   0.048   7.343  0.8791  0.8743  0.5668
 4970SOL     OW26545   2.779   2.957   5.723 -0.1680  0.1177  0.0391
 4970SOL    HW126546   2.825   2.890   5.673  0.4932  0.8627 -0.3408
 4970SOL    HW226547   2.696   2.943   5.678 -0.9024  1.5646  0.9514
 4971SOL     OW26548   1.977   1.913  14.639 -0.0977 -0.5302  0.2121
 4971SOL    HW126549   1.900   1.943  14.590  0.1239 -1.3110 -0.5966
 4971SOL    HW226550   1.964   1.946  14.728 -1.0431  0.9112 -0.4504
 4972SOL     OW26551   1.630   1.493   1.786 -0.5380 -0.0503 -0.1244
 4972SOL    HW126552   1.545   1.522   1.819 -0.8708 -0.1846 -0.8663
 4972SOL    HW226553   1.685   1.496   1.865  0.2692  0.4560 -0.6988
 4973SOL     OW26554   1.150   1.144   6.536 -0.5213  0.3462  0.2204
 4973SOL    HW126555   1.210   1.196   6.483 -2.1187  2.3581  0.3837
 4973SOL    HW226556   1.068   1.151   6.487 -0.4270  0.7900  0.1267
 4974SOL     OW26557   0.531   0.226   6.243  0.0274  0.1808  0.1853
 4974SOL    HW126558   0.459   0.258   6.189  0.7095 -0.7710 -1.2689
 4974SOL    HW226559   0.517   0.282   6.320 -1.1312  0.0448  0.0705
 4975SOL     OW26560   0.662   3.109   8.629 -0.0503 -0.0856 -0.3566
 4975SOL    HW126561   0.653   3.083   8.721  1.7989  1.2523  0.1997
 4975SOL    HW226562   0.570   3.129   8.614  0.5936  3.7175  0.7786
 4976SOL     OW26563   0.225   1.185  13.733 -0.0657  0.2209  0.9030
 4976SOL    HW126564   0.249   1.169  13.642 -0.2084  0.5846  0.8023
 4976SOL    HW226565   0.173   1.107  13.754 -0.9439  0.6436  0.2895
 4977SOL     OW26566   4.290   2.879  13.338 -0.1665  0.1857 -0.0819
 4977SOL    HW126567   4.325   2.965  13.317  0.1287  0.3086  0.9252
 4977SOL    HW226568   4.261   2.881  13.429  1.6000  1.9321  0.4355
 4978SOL     OW26569   2.567   2.104   6.612 -0.0479  0.3489 -0.0973
 4978SOL    HW126570   2.537   2.160   6.684  0.1198  1.4500 -0.8795
 4978SOL    HW226571   2.653   2.082   6.647 -1.1553 -0.3594  2.1576
 4979SOL     OW26572   2.675   3.661   8.514 -0.2166  0.0800 -0.0189
 4979SOL    HW126573   2.729   3.672   8.593 -0.0584 -0.1466 -0.0960
 4979SOL    HW226574   2.629   3.581   8.538 -1.6393  1.6505  2.4460
 4980SOL     OW26575   2.173   1.683   6.457  0.3058 -0.0273  0.2588
 4980SOL    HW126576   2.117   1.703   6.382  0.0574 -1.3217  0.1016
 4980SOL    HW226577   2.258   1.704   6.420  0.0942 -0.4614 -0.4593
 4981SOL     OW26578   0.991   0.107  14.750  0.3951  0.6161 -0.5163
 4981SOL    HW126579   0.969   0.182  14.806 -0.7977  0.0429 -0.2108
 4981SOL    HW226580   1.029   0.144  14.670 -0.8692  0.7293 -1.0676
 4982SOL     OW26581   3.599   0.123  11.884  0.2435 -0.2712  0.1016
 4982SOL    HW126582   3.669   0.091  11.940 -0.7346 -1.6916  0.5262
 4982SOL    HW226583   3.515   0.104  11.926  0.6268  0.3258  1.1222
 4983SOL     OW26584   0.129   1.901   0.977  0.3140  0.6159  0.4053
 4983SOL    HW126585   0.159   1.894   1.067 -1.1498 -0.9390  0.7635
 4983SOL    HW226586   0.211   1.924   0.932 -0.2243  0.2571 -0.7583
 4984SOL     OW26587   1.067   4.020  13.985  0.0060 -0.0330 -0.3817
 4984SOL    HW126588   1.005   4.050  14.051  1.6344 -1.8592  1.9699
 4984SOL    HW226589   1.040   4.078  13.914  0.0804 -0.7249 -0.9782
 4985SOL     OW26590   3.353   3.178   4.231 -0.0165  0.3284 -0.1571
 4985SOL    HW126591   3.374   3.230   4.309  1.5340 -1.7633  0.8485
 4985SOL    HW226592   3.438   3.139   4.210 -0.7826 -0.1105 -2.4247
 4986SOL     OW26593   1.800   1.088   8.570 -0.3906 -0.6026  0.1913
 4986SOL    HW126594   1.799   1.177   8.537 -0.9361 -0.5363  0.3872
 4986SOL    HW226595   1.893   1.067   8.578 -0.6411 -1.4877  0.7928
 4987SOL     OW26596   1.521   4.002   8.311 -0.1138  0.1827 -0.5083
 4987SOL    HW126597   1.589   4.043   8.365  0.0239  0.6070 -0.9979
 4987SOL    HW226598   1.443   4.049   8.339 -1.0676 -0.5630 -1.9340
 4988SOL     OW26599   0.603   3.006   2.271  0.3516  0.5338 -0.6674
 4988SOL    HW126600   0.636   2.917   2.254 -1.5071 -1.1492  4.5610
 4988SOL    HW226601   0.543   2.989   2.344 -1.9287  0.5407 -2.5404
 4989SOL     OW26602   3.715   1.458   5.847 -0.6493  0.3956  0.0521
 4989SOL    HW126603   3.787   1.500   5.895 -0.7566  0.9698 -0.2915
 4989SOL    HW226604   3.755   1.426   5.766 -0.7128 -0.6087  0.4163
 4990SOL     OW26605   1.976   0.212   8.854  0.1097  0.0570  0.2815
 4990SOL    HW126606   2.007   0.299   8.830 -1.2289  0.6687  0.8188
 4990SOL    HW226607   2.052   0.156   8.837 -0.7283 -0.7806 -0.6969
 4991SOL     OW26608   0.542   3.042   4.050 -0.5983  0.0197 -0.2598
 4991SOL    HW126609   0.520   3.016   4.140  0.0122 -0.3242 -0.2075
 4991SOL    HW226610   0.607   2.981   4.016 -0.5892  0.3803 -0.8866
 4992SOL     OW26611   3.568   0.994   3.601 -0.4589 -0.2224 -0.4376
 4992SOL    HW126612   3.567   1.016   3.694  0.4652  0.6474 -0.6349
 4992SOL    HW226613   3.602   0.905   3.606  0.5176  0.2823  2.0655
 4993SOL     OW26614   3.682   0.948   9.964 -0.1403  0.2721 -0.3203
 4993SOL    HW126615   3.691   0.885  10.036 -1.2428  0.3496 -0.1151
 4993SOL    HW226616   3.664   1.032  10.005  2.2435  0.5599  0.1069
 4994SOL     OW26617   4.709   2.930   7.423 -0.1724  0.2733  0.3481
 4994SOL    HW126618   0.038   2.945   7.354 -0.5103  3.0049  0.6223
 4994SOL    HW226619   0.015   2.972   7.498  2.0632  2.1059 -1.8943
 4995SOL     OW26620   3.499   3.797   2.474 -0.2072 -0.1510 -0.4293
 4995SOL    HW126621   3.423   3.855   2.479  0.2494  0.2722  1.7916
 4995SOL    HW226622   3.518   3.795   2.568  1.4645  3.0173 -0.6993
 4996SOL     OW26623   2.836   0.698   7.023  0.0617  0.0550 -0.2768
 4996SOL    HW126624   2.746   0.670   7.011 -0.2930  1.6914 -1.3632
 4996SOL    HW226625   2.857   0.681   7.115 -1.9097 -1.2451 -0.0805
 4997SOL     OW26626   3.791   1.617   3.889 -0.0423  0.0698  0.3893
 4997SOL    HW126627   3.703   1.645   3.913 -0.1055  0.8917 -0.7888
 4997SOL    HW226628   3.773   1.580   3.802  0.8893  0.3983  0.0538
 4998SOL     OW26629   4.270   2.034   4.081  0.2597  0.1534 -0.7155
 4998SOL    HW126630   4.214   1.971   4.036 -0.5556  1.6232 -1.7833
 4998SOL    HW226631   4.287   2.094   4.008  0.9370  0.9948  0.1333
 4999SOL     OW26632   4.512   1.421   5.737  0.5531  0.7732  0.2389
 4999SOL    HW126633   4.473   1.507   5.753 -2.5326 -0.8726  1.6930
 4999SOL    HW226634   4.603   1.449   5.728  0.5513  0.5318 -0.4826
 5000SOL     OW26635   4.723   0.181   4.821  0.2181  0.0085  0.4202
 5000SOL    HW126636   4.651   0.244   4.817 -0.1330 -0.4786 -0.8025
 5000SOL    HW226637   4.726   0.158   4.728 -1.2021 -0.8995  0.5933
 5001SOL     OW26638   3.718   0.038   4.232 -0.3579  0.5600  0.1294
 5001SOL    HW126639   3.766   4.691   4.225  0.0322  1.0001 -2.2958
 5001SOL    HW226640   3.790   0.088   4.269  0.5762 -1.2989  0.8269
 5002SOL     OW26641   0.430   0.737   8.411 -0.5057 -0.0900 -0.1463
 5002SOL    HW126642   0.458   0.741   8.319 -0.0772 -1.5182 -0.0871
 5002SOL    HW226643   0.336   0.732   8.394 -0.0136  0.2371 -2.9316
 5003SOL     OW26644   0.082   1.190   5.761  0.5767 -0.3562 -0.7529
 5003SOL    HW126645   0.171   1.160   5.782  0.5002  1.1471  1.5879
 5003SOL    HW226646   0.089   1.284   5.773 -1.8996 -0.1861 -0.7078
 5004SOL     OW26647   3.691   0.866   8.450 -0.0961 -0.1386 -0.1213
 5004SOL    HW126648   3.648   0.938   8.496 -0.0347 -0.7779  0.9515
 5004SOL    HW226649   3.626   0.832   8.389 -2.2804  1.1102  1.5284
 5005SOL     OW26650   3.112   2.909   3.978 -0.2905 -0.0944 -0.4390
 5005SOL    HW126651   3.097   2.948   4.064 -0.9955 -0.5001 -0.3769
 5005SOL    HW226652   3.199   2.936   3.949  0.2600  0.0049  1.2655
 5006SOL     OW26653   1.054   2.342   5.689 -0.6445  0.0410  0.1570
 5006SOL    HW126654   0.973   2.360   5.641  0.4294  1.3771 -1.1453
 5006SOL    HW226655   1.026   2.275   5.752  0.5782 -0.2668  0.3895
 5007SOL     OW26656   3.842   3.091   3.872 -0.0658  0.0986  0.0429
 5007SOL    HW126657   3.924   3.065   3.828 -0.0407  1.0077 -0.4512
 5007SOL    HW226658   3.828   3.020   3.935 -0.9213 -1.0171 -1.4015
 5008SOL     OW26659   4.222   1.060   6.834  0.1622  0.0638 -0.4680
 5008SOL    HW126660   4.305   1.012   6.833  1.5242  2.4063  0.5452
 5008SOL    HW226661   4.248   1.151   6.850 -2.3532  0.8188 -0.6757
 5009SOL     OW26662   1.620   2.106   8.812 -0.3946  0.4430 -0.4414
 5009SOL    HW126663   1.618   2.015   8.841 -2.1297  0.1753 -1.3822
 5009SOL    HW226664   1.640   2.096   8.719  0.9294 -0.8286 -0.0114
 5010SOL     OW26665   3.963   2.259   4.128 -0.2637 -0.2170  0.1428
 5010SOL    HW126666   3.930   2.190   4.070 -1.1787 -1.0242  1.6298
 5010SOL    HW226667   3.953   2.228   4.218 -0.4726 -1.6807 -0.3826
 5011SOL     OW26668   2.071   2.757   3.116 -0.1988 -0.2078  0.0631
 5011SOL    HW126669   2.032   2.821   3.175  2.0392  0.1962  1.0874
 5011SOL    HW226670   2.008   2.685   3.126  0.3144 -0.9674 -2.0763
 5012SOL     OW26671   1.148   2.517   4.392  0.1008 -0.4955  0.2210
 5012SOL    HW126672   1.053   2.508   4.401 -0.1709  0.6443 -1.4323
 5012SOL    HW226673   1.161   2.546   4.302 -0.8390  3.2233  1.2807
 5013SOL     OW26674   3.957   0.765  14.482 -0.6952  0.3291  0.4677
 5013SOL    HW126675   3.878   0.749  14.533 -0.1321 -0.8027  0.9922
 5013SOL    HW226676   3.958   0.859  14.463 -2.9837  0.1414 -0.6149
 5014SOL     OW26677   4.684   4.273   7.042  0.5968 -0.1361 -0.2245
 5014SOL    HW126678   4.662   4.319   7.123  0.0723 -0.7971  0.0003
 5014SOL    HW226679   4.644   4.188   7.061  0.5200 -0.2610 -0.9429
 5015SOL     OW26680   4.476   1.092   8.352 -0.0349  0.6490 -0.1568
 5015SOL    HW126681   4.432   1.008   8.336 -0.2214  0.4517  1.4674
 5015SOL    HW226682   4.420   1.155   8.308 -1.6679 -0.8073 -0.1578
 5016SOL     OW26683   0.549   3.245  17.710  0.2316 -0.0083  0.0528
 5016SOL    HW126684   0.602   3.305  17.658 -1.1498 -0.0599 -1.4317
 5016SOL    HW226685   0.566   3.281   0.053  0.4234 -0.9837  0.4245
 5017SOL     OW26686   2.569   4.257   2.214  0.4109  0.1726 -0.0102
 5017SOL    HW126687   2.524   4.241   2.297  0.9880  0.2473  0.3136
 5017SOL    HW226688   2.565   4.350   2.194  1.5003 -0.0797 -1.3904
 5018SOL     OW26689   0.102   4.555   0.793 -0.1460  0.3569 -0.1501
 5018SOL    HW126690   0.063   4.474   0.826  0.5812 -0.7836 -2.0778
 5018SOL    HW226691   0.058   4.617   0.852 -0.5995 -0.7677  0.7083
 5019SOL     OW26692   4.012   0.808   9.022 -0.1570 -0.0607  0.0621
 5019SOL    HW126693   4.089   0.853   9.057  0.6519 -1.2382 -0.2027
 5019SOL    HW226694   3.944   0.855   9.070  0.7580  0.5898  0.6928
 5020SOL     OW26695   3.086   3.321  12.147 -0.2468  0.5715 -0.3579
 5020SOL    HW126696   3.002   3.304  12.104 -1.4117  0.9405  1.7670
 5020SOL    HW226697   3.145   3.296  12.076 -2.0135 -1.6902 -1.0401
 5021SOL     OW26698   1.963   1.536   8.824 -0.4079 -0.0708  0.3338
 5021SOL    HW126699   2.000   1.457   8.784 -1.5443  0.5708 -1.9939
 5021SOL    HW226700   1.968   1.608   8.761 -0.1932  1.3663  1.9886
 5022SOL     OW26701   0.660   2.804   7.642  0.0125 -0.2815 -0.2049
 5022SOL    HW126702   0.635   2.714   7.663 -0.2103  0.1663  1.4053
 5022SOL    HW226703   0.693   2.802   7.552  0.7763 -0.7636  0.0865
 5023SOL     OW26704   3.104   3.376   6.159  0.1671 -0.2212  0.0310
 5023SOL    HW126705   3.040   3.374   6.088 -1.2835  1.9085  1.2633
 5023SOL    HW226706   3.174   3.317   6.133  1.7387  1.2641  0.8792
 5024SOL     OW26707   4.253   3.059  16.143 -0.4892 -0.0103  0.5370
 5024SOL    HW126708   4.205   3.002  16.083  3.6755 -0.0732 -2.7702
 5024SOL    HW226709   4.331   3.006  16.156 -1.2115 -1.6676 -1.8003
 5025SOL     OW26710   4.031   3.842   8.123  0.0926  0.1274  0.0153
 5025SOL    HW126711   4.108   3.880   8.165 -0.2209  1.3531 -0.5229
 5025SOL    HW226712   3.989   3.811   8.203 -0.3633  0.4124 -0.1152
 5026SOL     OW26713   3.377   2.940   2.233  0.1876  0.3304  0.1825
 5026SOL    HW126714   3.448   2.977   2.286  0.2122  3.1963 -1.8476
 5026SOL    HW226715   3.332   3.023   2.217  0.3628  0.6053  1.1063
 5027SOL     OW26716   2.049   1.807   8.707 -0.3239 -0.0497 -0.0107
 5027SOL    HW126717   2.098   1.889   8.701 -0.0747  0.0557  3.7092
 5027SOL    HW226718   2.092   1.759   8.778 -1.3756  0.1484  0.7455
 5028SOL     OW26719   2.103   0.361   5.895 -0.0712  0.1478  0.0714
 5028SOL    HW126720   2.043   0.409   5.953 -0.8644 -0.7967  0.0421
 5028SOL    HW226721   2.044   0.292   5.863  1.2013 -0.3218 -1.2460
 5029SOL     OW26722   3.209   3.632   1.786 -0.3673  0.3943  0.6936
 5029SOL    HW126723   3.286   3.674   1.745 -0.3160 -0.2427  0.1480
 5029SOL    HW226724   3.252   3.627   1.871 -1.8775 -0.3244  1.4041
 5030SOL     OW26725   3.361   4.644   1.886  0.1074  0.2123  0.2233
 5030SOL    HW126726   3.372   4.590   1.808  1.2400 -0.0525  0.5675
 5030SOL    HW226727   3.407   4.590   1.951 -0.1418  1.0048  1.0669
 5031SOL     OW26728   3.894   0.864   4.382 -0.0647 -0.0172 -0.1164
 5031SOL    HW126729   3.815   0.905   4.348 -0.4855  0.1106  1.0115
 5031SOL    HW226730   3.950   0.938   4.404  2.6296 -1.7006 -1.4447
 5032SOL     OW26731   1.643   4.218   4.134 -0.2221 -0.5213 -0.3097
 5032SOL    HW126732   1.646   4.181   4.045  0.6603  0.0968 -0.5406
 5032SOL    HW226733   1.734   4.235   4.157 -0.1302 -1.5534  0.0855
 5033SOL     OW26734   2.242   1.712   2.187 -0.4657  0.5241 -0.0394
 5033SOL    HW126735   2.190   1.792   2.194 -0.8702  0.1062  1.8373
 5033SOL    HW226736   2.328   1.754   2.177  0.9874 -2.2484  0.7073
 5034SOL     OW26737   0.460   4.262   0.114  0.4137 -0.7059 -0.4135
 5034SOL    HW126738   0.528   4.290   0.053  0.2231 -0.3023 -0.4366
 5034SOL    HW226739   0.387   4.232   0.060 -1.9854 -2.3517  3.7351
 5035SOL     OW26740   3.019   1.708   3.927  0.1052 -0.0371 -0.2630
 5035SOL    HW126741   3.028   1.614   3.913 -0.8944  0.0793 -1.6243
 5035SOL    HW226742   3.052   1.711   4.017 -0.3917  0.2451 -0.0899
 5036SOL     OW26743   4.512   4.209   3.630 -0.0993 -0.2134 -0.6149
 5036SOL    HW126744   4.423   4.175   3.639 -0.6258  1.2551 -0.2808
 5036SOL    HW226745   4.503   4.301   3.656  2.4287  0.2102 -1.2299
 5037SOL     OW26746   4.031   2.728  10.118 -0.1406 -0.6113 -0.4360
 5037SOL    HW126747   4.120   2.760  10.136 -0.5551 -1.0751  2.5788
 5037SOL    HW226748   4.063   2.647  10.080  0.9724 -0.6599  0.5896
 5038SOL     OW26749   4.429   1.961   2.142 -0.6521  0.6255  0.0856
 5038SOL    HW126750   4.448   1.900   2.071  3.3600  0.7720  1.0149
 5038SOL    HW226751   4.507   2.016   2.132  0.1706 -0.6541 -0.6585
 5039SOL     OW26752   2.969   1.679   9.713 -0.0025  0.2272  0.3643
 5039SOL    HW126753   2.915   1.741   9.762  0.4973 -1.2695  2.7774
 5039SOL    HW226754   2.902   1.620   9.678  0.4864  0.1095 -0.3768
 5040SOL     OW26755   2.873   4.544   2.423 -0.0678 -0.3088  0.3779
 5040SOL    HW126756   2.846   4.468   2.372 -1.0824 -0.3119  0.9063
 5040SOL    HW226757   2.786   4.569   2.455  0.8120  3.2266 -0.0285
 5041SOL     OW26758   1.025   2.400   0.204 -0.1040  0.2282 -0.2050
 5041SOL    HW126759   1.092   2.450   0.157 -0.0036  0.5425  0.2716
 5041SOL    HW226760   0.995   2.467   0.264  1.5217 -0.7127  1.6790
 5042SOL     OW26761   2.616   1.834   2.468 -0.2717  0.4280 -0.0972
 5042SOL    HW126762   2.561   1.840   2.390  1.0474  1.0160 -0.9723
 5042SOL    HW226763   2.600   1.915   2.516 -2.8998 -1.1051  1.6381
 5043SOL     OW26764   3.526   3.321   6.086  0.1406 -0.4831  0.6946
 5043SOL    HW126765   3.469   3.254   6.123  1.1202 -1.2189  0.8971
 5043SOL    HW226766   3.557   3.364   6.166  2.1953 -1.0714  0.2347
 5044SOL     OW26767   3.639   3.435   6.312  0.0205 -0.5120  0.2170
 5044SOL    HW126768   3.612   3.523   6.338 -0.3828 -1.1543  1.9927
 5044SOL    HW226769   3.716   3.451   6.258  1.3813 -0.3136  2.1984
 5045SOL     OW26770   1.965   2.305  11.073  0.4193  0.1351  0.3451
 5045SOL    HW126771   1.892   2.350  11.030 -0.1731 -0.2185  0.9922
 5045SOL    HW226772   2.045   2.340  11.033  1.1662 -0.7670  1.0608
 5046SOL     OW26773   4.269   1.299   2.003  0.3237  0.0610 -0.1158
 5046SOL    HW126774   4.173   1.300   2.001  0.3192 -2.0267 -0.2948
 5046SOL    HW226775   4.291   1.345   2.084  0.0701 -1.1629  0.6441
 5047SOL     OW26776   1.288   1.301  14.885 -0.1552  0.1293  0.0658
 5047SOL    HW126777   1.228   1.350  14.941  0.3443  0.8371 -0.0286
 5047SOL    HW226778   1.301   1.364  14.814 -0.3736  0.5370  0.3862
 5048SOL     OW26779   1.308   2.040   5.493 -0.0775 -0.2084  0.1241
 5048SOL    HW126780   1.355   2.066   5.414 -0.0741  0.0889  0.2258
 5048SOL    HW226781   1.219   2.038   5.455 -1.2822  0.5047  2.9504
 5049SOL     OW26782   4.584   1.832   5.160  0.2427  0.3510  0.4335
 5049SOL    HW126783   4.619   1.918   5.183 -1.6115  1.3640 -0.5269
 5049SOL    HW226784   4.544   1.865   5.080  1.4491  1.5437  0.3343
 5050SOL     OW26785   1.573   0.138  15.534  0.1854  0.1042  0.6929
 5050SOL    HW126786   1.534   0.075  15.594  2.4126 -1.1513  0.8216
 5050SOL    HW226787   1.574   0.217  15.588  0.9874  0.8875 -0.4682
 5051SOL     OW26788   0.621   1.926   7.728 -0.2129 -0.1463  0.6105
 5051SOL    HW126789   0.703   1.881   7.747 -0.5306 -0.9969  0.0107
 5051SOL    HW226790   0.624   1.930   7.632  2.1621 -2.3796  0.5847
 5052SOL     OW26791   2.465   2.702  15.058 -0.1270  0.0476 -0.1142
 5052SOL    HW126792   2.409   2.648  15.002  0.9392  0.6315 -1.7348
 5052SOL    HW226793   2.485   2.648  15.135  2.4913  1.5568  0.2974
 5053SOL     OW26794   2.839   2.013   6.263 -0.6946  0.1435  0.7810
 5053SOL    HW126795   2.897   1.947   6.300  1.0321  1.0934 -0.2388
 5053SOL    HW226796   2.872   2.037   6.177 -1.4765 -0.1966  0.3939
 5054SOL     OW26797   0.631   3.533   3.806  0.4118  0.1569 -0.0825
 5054SOL    HW126798   0.599   3.445   3.786 -0.0046  0.6591 -1.5950
 5054SOL    HW226799   0.549   3.582   3.804  0.9749  1.2000  1.9401
 5055SOL     OW26800   1.837   0.619  15.555  0.2541 -0.0937 -0.2268
 5055SOL    HW126801   1.777   0.665  15.496  0.1744  0.4323  0.2591
 5055SOL    HW226802   1.908   0.589  15.498  0.5909  0.1030  0.0944
 5056SOL     OW26803   1.420   1.924  15.983 -0.0512 -0.0897  0.1071
 5056SOL    HW126804   1.416   2.015  16.011 -2.5563 -0.2071  0.1325
 5056SOL    HW226805   1.366   1.924  15.904 -0.8383 -0.2130  0.6307
 5057SOL     OW26806   2.705   1.861   1.314 -0.3379  0.1824 -0.2597
 5057SOL    HW126807   2.637   1.800   1.343 -0.5053  0.4273 -0.1487
 5057SOL    HW226808   2.728   1.829   1.226 -1.1652 -0.3940 -0.2609
 5058SOL     OW26809   2.510   1.496   2.493  0.1535 -0.4514  0.0794
 5058SOL    HW126810   2.575   1.543   2.546 -1.7024 -1.2352  3.0412
 5058SOL    HW226811   2.432   1.552   2.499  0.3384 -0.3240  1.3026
 5059SOL     OW26812   0.272   2.054   9.710 -0.0391 -0.4666  0.3988
 5059SOL    HW126813   0.257   1.988   9.642 -1.2939 -1.2266  1.4183
 5059SOL    HW226814   0.188   2.096   9.728  0.1498  0.1814 -0.2315
 5060SOL     OW26815   2.911   4.206   3.178 -0.5421  0.1646 -0.5989
 5060SOL    HW126816   2.829   4.220   3.130 -1.4984  2.2440  1.6430
 5060SOL    HW226817   2.888   4.189   3.269 -0.5748  0.3544 -0.5704
 5061SOL     OW26818   3.487   3.238   3.276  0.2454 -0.2424 -0.5889
 5061SOL    HW126819   3.494   3.229   3.371 -2.5415 -0.5467 -0.4134
 5061SOL    HW226820   3.462   3.329   3.262  2.4766  0.9057  3.1552
 5062SOL     OW26821   4.309   0.178   5.723  0.2894  0.1479  0.4516
 5062SOL    HW126822   4.370   0.245   5.691  0.0255  0.3779  0.4351
 5062SOL    HW226823   4.376   0.122   5.762  1.6649  1.3639 -0.1529
 5063SOL     OW26824   0.060   4.609   1.138 -0.0581  0.3976 -0.0547
 5063SOL    HW126825   0.140   4.556   1.147  0.1273  0.5984 -0.5593
 5063SOL    HW226826   4.724   4.548   1.153  0.5407 -0.8938 -2.4351
 5064SOL     OW26827   0.903   1.644  16.529 -0.1198  0.5604 -0.0408
 5064SOL    HW126828   0.985   1.686  16.556  1.4286 -4.4756  3.1216
 5064SOL    HW226829   0.929   1.578  16.465  0.5673  0.6600  0.1396
 5065SOL     OW26830   3.518   2.671   3.324 -0.1464 -0.0572  0.2558
 5065SOL    HW126831   3.575   2.744   3.348 -0.4595  0.3724 -0.3229
 5065SOL    HW226832   3.518   2.667   3.229 -1.1266  0.4396  0.2356
 5066SOL     OW26833   0.671   4.506   6.427 -0.3748 -0.1117 -0.4489
 5066SOL    HW126834   0.695   4.576   6.366  1.2105 -0.4861 -0.2493
 5066SOL    HW226835   0.579   4.496   6.401 -0.2502  0.3915 -1.0891
 5067SOL     OW26836   1.400   3.054  10.109 -0.8572 -0.5428  0.3846
 5067SOL    HW126837   1.306   3.070  10.117 -0.4258  1.8457  0.7281
 5067SOL    HW226838   1.426   3.069  10.200  0.5570 -1.9017  0.2113
 5068SOL     OW26839   0.261   2.719   0.584  0.1287  0.0294  0.1532
 5068SOL    HW126840   0.198   2.748   0.518 -0.9185  0.1150  1.2019
 5068SOL    HW226841   0.274   2.627   0.562  0.8309  0.3482 -0.7507
 5069SOL     OW26842   1.503   1.893   7.393  0.0360 -0.1409  0.6061
 5069SOL    HW126843   1.449   1.884   7.314  1.2681  0.6314 -0.3237
 5069SOL    HW226844   1.540   1.807   7.417  0.3139 -0.1486  0.1555
 5070SOL     OW26845   0.224   4.291  12.958 -0.8195  0.4293 -0.0131
 5070SOL    HW126846   0.169   4.345  13.016  0.0375 -0.1214  1.3068
 5070SOL    HW226847   0.303   4.282  13.011  0.5040 -0.2074 -2.1215
 5071SOL     OW26848   4.392   1.800   7.258 -0.3356  0.9458  0.6602
 5071SOL    HW126849   4.332   1.795   7.332 -1.1032  1.2107  0.0549
 5071SOL    HW226850   4.460   1.734   7.274 -0.4037  0.3362 -1.5396
 5072SOL     OW26851   1.969   1.629  12.959  0.3550  0.1916  0.0676
 5072SOL    HW126852   1.980   1.670  12.874 -2.0945  1.0081  0.1591
 5072SOL    HW226853   2.057   1.623  12.997  0.1421 -1.4874  0.3143
 5073SOL     OW26854   4.455   4.249  14.410  0.0857 -0.1265 -0.4084
 5073SOL    HW126855   4.547   4.231  14.391 -0.5362 -0.3526 -3.1261
 5073SOL    HW226856   4.403   4.187  14.360 -1.8583  1.7060 -0.6246
 5074SOL     OW26857   2.738   0.079  14.438 -0.0182 -0.4080 -0.2547
 5074SOL    HW126858   2.796   0.004  14.449  2.8308  1.9367  0.7955
 5074SOL    HW226859   2.703   0.060  14.351  0.5989  1.2111 -0.8587
 5075SOL     OW26860   2.596   3.175   9.290  0.0697 -0.2848  0.1956
 5075SOL    HW126861   2.524   3.117   9.317 -1.1366  0.9397 -0.3795
 5075SOL    HW226862   2.557   3.259   9.313 -0.2032 -0.5860  0.8384
 5076SOL     OW26863   1.411   2.095   5.229 -0.0397 -0.0323 -0.2540
 5076SOL    HW126864   1.450   2.177   5.259  0.8085 -0.0734 -1.2624
 5076SOL    HW226865   1.407   2.110   5.135 -0.2388  0.4592 -0.1657
 5077SOL     OW26866   2.351   0.276  13.747 -0.0516  0.5168 -0.4503
 5077SOL    HW126867   2.427   0.227  13.716 -0.0482  0.3024 -0.1044
 5077SOL    HW226868   2.288   0.236  13.687 -0.9511  1.3038 -0.0206
 5078SOL     OW26869   0.254   3.817  13.922 -1.0018  0.0138  0.4608
 5078SOL    HW126870   0.262   3.821  14.018  1.3866  1.0025  0.2279
 5078SOL    HW226871   0.184   3.754  13.904  0.6553 -1.9819  1.0116
 5079SOL     OW26872   3.654   1.678  11.770 -0.3559 -0.5359  0.3530
 5079SOL    HW126873   3.570   1.710  11.803  0.4859  2.6608 -0.5727
 5079SOL    HW226874   3.633   1.603  11.714 -0.1039 -0.3357 -0.0155
 5080SOL     OW26875   1.337   1.122  10.368  0.0929  0.1006 -0.0948
 5080SOL    HW126876   1.319   1.053  10.432  0.8458  0.3027  0.3270
 5080SOL    HW226877   1.322   1.079  10.284  1.2588 -2.0917  0.8144
 5081SOL     OW26878   1.308   1.146   1.579  0.0072  0.3306 -0.1614
 5081SOL    HW126879   1.349   1.109   1.501 -3.6213 -2.8489 -0.5626
 5081SOL    HW226880   1.232   1.199   1.555  0.1076  0.5583  0.0247
 5082SOL     OW26881   3.562   2.512   5.054 -0.1347  0.0619  0.0260
 5082SOL    HW126882   3.567   2.491   4.960 -1.6677  0.9008 -0.2389
 5082SOL    HW226883   3.635   2.458   5.085  0.4302  0.5156 -0.5118
 5083SOL     OW26884   0.921   2.125   2.436  0.5987  0.6961  0.1438
 5083SOL    HW126885   0.947   2.140   2.345 -3.3855  1.6445 -0.8227
 5083SOL    HW226886   0.996   2.163   2.482  0.9900  1.6018 -1.2393
 5084SOL     OW26887   3.292   4.397   7.712  0.2230 -0.2023  0.5828
 5084SOL    HW126888   3.320   4.315   7.671  0.2912 -0.6913  1.6040
 5084SOL    HW226889   3.373   4.417   7.759 -0.7865 -0.2846  2.3628
 5085SOL     OW26890   0.058   1.660   5.923 -0.4299  0.1476 -0.3360
 5085SOL    HW126891   0.115   1.731   5.893 -0.5376 -0.3050 -1.6098
 5085SOL    HW226892   4.714   1.709   5.940 -0.4959  0.7305 -2.3996
 5086SOL     OW26893   3.872   1.048   8.316 -0.4439 -0.2194 -0.5808
 5086SOL    HW126894   3.856   0.972   8.373  0.3522  1.1970  1.5477
 5086SOL    HW226895   3.942   1.011   8.263  1.7362  2.0869  0.7098
 5087SOL     OW26896   3.172   2.964   6.138 -0.0765 -0.1411 -0.0510
 5087SOL    HW126897   3.191   2.951   6.231  1.1418 -2.9823 -0.7037
 5087SOL    HW226898   3.079   2.988   6.137 -0.4407 -1.5201  0.9315
 5088SOL     OW26899   1.276   1.351   9.806  1.0518 -0.3148 -0.5622
 5088SOL    HW126900   1.367   1.353   9.778  1.3362  0.9161  0.4343
 5088SOL    HW226901   1.246   1.442   9.799  1.2417 -0.4140 -2.6216
 5089SOL     OW26902   1.972   3.377   1.401 -0.3705 -0.1789 -0.1823
 5089SOL    HW126903   1.979   3.282   1.402 -1.0812 -0.2371 -0.4802
 5089SOL    HW226904   2.037   3.404   1.465  0.8548 -0.3662 -1.3490
 5090SOL     OW26905   0.839   0.096   1.952  0.3793 -0.0514 -0.4693
 5090SOL    HW126906   0.765   0.111   2.012  0.1453 -1.5297 -0.3854
 5090SOL    HW226907   0.809   0.016   1.911  1.2988 -0.8560  0.4376
 5091SOL     OW26908   2.068   4.664   2.221 -0.2347  0.0166 -0.2638
 5091SOL    HW126909   2.085   4.711   2.140  0.4668  0.4887  0.1627
 5091SOL    HW226910   2.132   4.715   2.270 -2.5153  0.3742  2.3229
 5092SOL     OW26911   1.893   2.572   3.470  0.3904 -0.6849 -0.0414
 5092SOL    HW126912   1.953   2.524   3.527 -1.7967 -3.2788  0.0215
 5092SOL    HW226913   1.932   2.660   3.464  1.5231 -1.2851 -1.3000
 5093SOL     OW26914   2.363   2.261   4.184  0.1615  0.2192  0.1364
 5093SOL    HW126915   2.300   2.189   4.184 -0.3719  0.6939  2.7713
 5093SOL    HW226916   2.339   2.302   4.267  1.5850 -0.0992  0.7097
 5094SOL     OW26917   3.918   2.116   6.943 -0.1572  0.3820 -0.0654
 5094SOL    HW126918   3.923   2.182   6.875  0.5862 -0.3249 -0.6957
 5094SOL    HW226919   3.952   2.039   6.897  0.0831  2.3067 -3.0967
 5095SOL     OW26920   3.051   0.947  13.548  0.4472 -0.2611 -0.2219
 5095SOL    HW126921   3.115   1.004  13.506  1.5733 -1.5359 -0.2695
 5095SOL    HW226922   3.083   0.860  13.522 -1.5633 -1.1139  0.1110
 5096SOL     OW26923   0.795   1.390   3.417 -0.0678  0.1876  0.6818
 5096SOL    HW126924   0.817   1.314   3.364  1.0056  1.1410 -0.2624
 5096SOL    HW226925   0.744   1.445   3.357 -0.4716 -1.9998 -0.9524
 5097SOL     OW26926   4.690   3.980   0.846  1.2203 -0.0476  0.5794
 5097SOL    HW126927   0.009   3.918   0.798 -0.2068 -1.4192  0.7009
 5097SOL    HW226928   4.607   3.946   0.812  1.0900  1.1738 -0.3174
 5098SOL     OW26929   3.296   2.862   5.913 -0.0223 -0.5469 -0.0266
 5098SOL    HW126930   3.226   2.828   5.858  2.9845 -2.5754 -2.5566
 5098SOL    HW226931   3.255   2.903   5.990  2.0905 -0.1395  0.8972
 5099SOL     OW26932   3.716   3.041  16.829  0.5492 -0.0241 -0.5174
 5099SOL    HW126933   3.722   2.952  16.796  0.4733 -0.2038 -0.0414
 5099SOL    HW226934   3.685   3.025  16.918 -0.0860  1.4835 -0.4674
 5100SOL     OW26935   2.095   2.083   1.655  0.1123 -0.1237 -0.2227
 5100SOL    HW126936   2.162   2.150   1.672 -0.0997 -0.1554  0.7501
 5100SOL    HW226937   2.097   2.047   1.744 -1.4524  0.4341  0.0363
 5101SOL     OW26938   0.446   4.415  11.887 -0.5483 -0.0286 -0.0606
 5101SOL    HW126939   0.511   4.351  11.859  1.0132  1.7426 -0.5378
 5101SOL    HW226940   0.392   4.360  11.943 -1.3920  0.7040 -0.1555
 5102SOL     OW26941   4.492   2.905   2.569  0.8034 -0.6749  0.1009
 5102SOL    HW126942   4.565   2.916   2.631  0.3608 -1.3653  0.7504
 5102SOL    HW226943   4.531   2.920   2.483  0.8864  0.8875  0.4111
 5103SOL     OW26944   2.231   3.557   6.176 -0.2557 -0.1764  0.5040
 5103SOL    HW126945   2.317   3.597   6.163 -1.5970  2.5126 -0.2196
 5103SOL    HW226946   2.224   3.494   6.104  1.3945 -0.7905  0.8901
 5104SOL     OW26947   2.496   1.879   2.229  0.6350  0.5917  0.5018
 5104SOL    HW126948   2.584   1.875   2.192  2.0980 -0.0460  4.0217
 5104SOL    HW226949   2.458   1.948   2.175  1.7255  3.1645  3.0666
 5105SOL     OW26950   4.044   2.317   3.177 -0.0068 -0.3061 -0.1126
 5105SOL    HW126951   3.974   2.252   3.178 -0.5552  0.2444 -2.6242
 5105SOL    HW226952   4.122   2.262   3.180 -0.3460 -0.8153 -0.5712
 5106SOL     OW26953   1.754   4.303  15.651 -0.1239  0.2754  0.4416
 5106SOL    HW126954   1.796   4.389  15.654 -2.0551  1.2914 -1.8933
 5106SOL    HW226955   1.666   4.327  15.681 -1.4130 -0.2807 -2.9138
 5107SOL     OW26956   3.808   3.577  10.136  0.2749  0.6617  0.5787
 5107SOL    HW126957   3.859   3.655  10.158 -0.9989  1.7952 -0.5272
 5107SOL    HW226958   3.821   3.532  10.220  2.0576  1.0771  0.5313
 5108SOL     OW26959   3.422   3.949   4.865 -0.0361 -0.0782 -0.3308
 5108SOL    HW126960   3.403   3.892   4.939 -0.8527 -0.0188 -0.4903
 5108SOL    HW226961   3.375   4.032   4.879  0.7050  0.4994 -1.2816
 5109SOL     OW26962   1.370   3.145   1.608  0.0607  0.1330 -0.0097
 5109SOL    HW126963   1.276   3.162   1.620 -0.2643 -1.4277 -0.2426
 5109SOL    HW226964   1.375   3.165   1.514  0.8411  3.2009  0.7222
 5110SOL     OW26965   4.444   0.268   3.538  0.0846 -0.4400 -1.0170
 5110SOL    HW126966   4.452   0.231   3.451  0.0170  1.5595 -1.8679
 5110SOL    HW226967   4.421   0.191   3.591 -0.5844 -0.1060 -0.8158
 5111SOL     OW26968   2.157   1.122  13.222  0.1261  0.2371 -0.2606
 5111SOL    HW126969   2.195   1.045  13.179  2.0210  2.2790 -2.2879
 5111SOL    HW226970   2.086   1.140  13.161  0.8745 -0.8784 -1.4686
 5112SOL     OW26971   1.697   0.642   6.239 -0.3660  0.4065  0.5052
 5112SOL    HW126972   1.724   0.709   6.177  0.2368  1.0083  1.4142
 5112SOL    HW226973   1.784   0.624   6.275 -0.4509  0.1378  0.5743
 5113SOL     OW26974   3.429   2.501   7.401  0.2141  0.0445 -0.1678
 5113SOL    HW126975   3.518   2.535   7.386 -0.4751  1.7650 -0.3274
 5113SOL    HW226976   3.419   2.462   7.314 -2.6674 -0.4715  0.4228
 5114SOL     OW26977   1.806   0.959   9.580 -0.0729  0.0492  0.2163
 5114SOL    HW126978   1.779   0.893   9.516 -0.2200  1.1470 -0.8511
 5114SOL    HW226979   1.730   1.016   9.571  1.1848  2.0720  2.3066
 5115SOL     OW26980   1.949   0.685  17.363  0.0821  0.2289  0.0399
 5115SOL    HW126981   1.930   0.778  17.377 -1.1622 -0.0850  0.4122
 5115SOL    HW226982   2.017   0.687  17.295 -0.3427 -1.6126 -0.4405
 5116SOL     OW26983   2.682   0.905   7.637  0.2501  0.2448 -0.0066
 5116SOL    HW126984   2.771   0.875   7.622  0.0667 -1.1761  1.6995
 5116SOL    HW226985   2.667   0.872   7.726  0.3203 -0.7811 -0.3771
 5117SOL     OW26986   4.343   2.146   7.805 -0.8788 -0.2430 -0.0745
 5117SOL    HW126987   4.318   2.237   7.787  1.2700  0.3691 -0.0734
 5117SOL    HW226988   4.401   2.157   7.881 -2.4635  1.1949  0.9135
 5118SOL     OW26989   0.295   0.584  14.311  0.3334  0.3052 -0.4285
 5118SOL    HW126990   0.246   0.658  14.275  0.7304  0.1238 -1.3356
 5118SOL    HW226991   0.237   0.514  14.282 -3.1216  1.9335  2.5387
 5119SOL     OW26992   4.439   2.775  11.242  0.2001  0.4171 -0.6127
 5119SOL    HW126993   4.444   2.826  11.161 -0.0856  1.9733  0.3426
 5119SOL    HW226994   4.475   2.840  11.303 -3.7768  1.1450  0.9740
 5120SOL     OW26995   2.640   1.443   6.844  0.6209 -0.1868 -0.2423
 5120SOL    HW126996   2.675   1.425   6.757  1.5243  1.0307 -0.1341
 5120SOL    HW226997   2.703   1.507   6.878  2.3898 -1.5312 -0.9883
 5121SOL     OW26998   2.890   4.174   5.742  0.2629  0.0645 -0.4061
 5121SOL    HW126999   2.884   4.136   5.654 -1.7629  0.7316 -0.5636
 5121SOL    HW227000   2.800   4.154   5.771  0.7345 -2.1709 -0.4774
 5122SOL     OW27001   0.090   0.484   7.456  0.6016 -0.2205 -0.5067
 5122SOL    HW127002   0.035   0.491   7.534 -0.3640 -1.2417 -1.0978
 5122SOL    HW227003   0.154   0.546   7.490  1.5294 -1.1735 -0.5323
 5123SOL     OW27004   3.236   2.944   5.610 -0.0695 -0.1352 -0.1019
 5123SOL    HW127005   3.172   2.937   5.540 -0.7525 -1.1889  0.6383
 5123SOL    HW227006   3.186   2.979   5.684 -1.3518 -0.0402 -1.0246
 5124SOL     OW27007   4.068   1.283  12.745 -0.3721  0.1247  0.1402
 5124SOL    HW127008   4.089   1.208  12.801 -0.8202  0.2400  0.4638
 5124SOL    HW227009   4.151   1.302  12.702  0.3550 -1.4998  0.8287
 5125SOL     OW27010   3.590   3.459   7.322 -0.2109  0.3423 -0.1850
 5125SOL    HW127011   3.523   3.488   7.259 -0.6023 -2.5961 -1.1536
 5125SOL    HW227012   3.553   3.387   7.374 -0.5801 -0.1210 -1.0828
 5126SOL     OW27013   1.396   2.655   1.753 -0.2146  0.3246 -0.1658
 5126SOL    HW127014   1.347   2.738   1.750 -1.7372 -0.5578  0.2806
 5126SOL    HW227015   1.380   2.630   1.844  0.1853  0.1318 -0.1484
 5127SOL     OW27016   0.617   2.771   4.604 -0.0839  0.2585 -0.1055
 5127SOL    HW127017   0.668   2.722   4.670  1.7426  2.2958 -0.0078
 5127SOL    HW227018   0.533   2.745   4.642 -0.4218  2.0059  0.3223
 5128SOL     OW27019   4.726   2.655  17.690  0.2013 -0.3554 -0.3744
 5128SOL    HW127020   4.684   2.706  17.621 -1.0001  0.8748  1.2477
 5128SOL    HW227021   4.651   2.620  17.738  1.6964 -0.4699  1.8727
 5129SOL     OW27022   2.865   4.496  15.734  0.2819  0.7976 -0.4478
 5129SOL    HW127023   2.810   4.454  15.668 -1.6412 -0.6999  2.1305
 5129SOL    HW227024   2.915   4.423  15.770 -3.1356 -0.5526  1.4668
 5130SOL     OW27025   4.169   3.768   3.750 -0.4249 -0.1267  0.1937
 5130SOL    HW127026   4.156   3.844   3.807 -0.8494  0.9699 -1.3723
 5130SOL    HW227027   4.244   3.800   3.701  0.2790 -1.6686  0.2448
 5131SOL     OW27028   3.183   3.819   7.637  0.0730 -0.4596 -0.2356
 5131SOL    HW127029   3.130   3.885   7.681  1.5376  0.3417  0.3032
 5131SOL    HW227030   3.201   3.760   7.710 -0.1407  0.7661  0.8018
 5132SOL     OW27031   4.045   1.304   1.244 -0.5743  0.3237 -0.0433
 5132SOL    HW127032   4.026   1.267   1.158 -0.1572  0.4468 -0.1893
 5132SOL    HW227033   4.062   1.395   1.221  1.7126 -0.0452  0.2148
 5133SOL     OW27034   0.317   2.500   8.795  0.1605 -0.0563 -0.2532
 5133SOL    HW127035   0.259   2.424   8.789 -0.1060  0.0715  0.6566
 5133SOL    HW227036   0.378   2.476   8.725  0.3824 -0.7084  0.1653
 5134SOL     OW27037   1.760   3.346   5.850 -0.3571  0.3676 -0.1451
 5134SOL    HW127038   1.695   3.332   5.920  1.5517 -2.1892  1.0748
 5134SOL    HW227039   1.755   3.264   5.801 -0.2871  2.4209 -3.5839
 5135SOL     OW27040   4.040   2.312   2.565 -0.1999  0.0797  0.5476
 5135SOL    HW127041   4.078   2.225   2.558 -0.8824 -0.2305  0.6670
 5135SOL    HW227042   4.069   2.349   2.481 -1.2374  0.2340  0.2507
 5136SOL     OW27043   3.337   0.241   2.991  0.1460 -0.0301  0.1209
 5136SOL    HW127044   3.292   0.181   2.931 -2.1833  0.3864  1.4799
 5136SOL    HW227045   3.424   0.210   2.964  0.4503  2.8077 -2.1785
 5137SOL     OW27046   0.645   3.471   7.906 -0.1609 -0.2867 -0.1866
 5137SOL    HW127047   0.662   3.377   7.893  0.3048  0.0267 -1.8360
 5137SOL    HW227048   0.734   3.505   7.917  0.2870 -1.1982 -0.9583
 5138SOL     OW27049   3.435   4.269   6.106  0.1799 -0.1918 -0.1735
 5138SOL    HW127050   3.401   4.186   6.070 -3.9818  1.5585 -0.2795
 5138SOL    HW227051   3.407   4.337   6.046  2.9900  0.4074 -0.7755
 5139SOL     OW27052   2.033   1.594  16.695 -0.5949  0.5073  0.3028
 5139SOL    HW127053   2.100   1.652  16.731  1.4855 -1.5884 -0.2391
 5139SOL    HW227054   1.998   1.537  16.763  0.8898 -0.9448 -0.1616
 5140SOL     OW27055   2.756   0.834   4.297  0.0688 -0.1848  0.5637
 5140SOL    HW127056   2.760   0.790   4.381  0.2981  1.0666  1.2133
 5140SOL    HW227057   2.811   0.773   4.247  1.3505  1.4558 -0.0374
 5141SOL     OW27058   2.401   4.178   5.160 -0.8749 -0.1283  0.1658
 5141SOL    HW127059   2.344   4.130   5.220 -1.1538 -1.6874 -1.3611
 5141SOL    HW227060   2.360   4.185   5.074  1.8651 -0.6234 -1.1568
 5142SOL     OW27061   1.881   1.514   4.865 -0.0393 -0.1958  0.3488
 5142SOL    HW127062   1.941   1.441   4.876 -0.3731 -0.7255 -1.4890
 5142SOL    HW227063   1.920   1.570   4.798 -0.0829  0.9719  1.2811
 5143SOL     OW27064   4.092   2.148   5.688  0.5517  0.0373  0.2915
 5143SOL    HW127065   4.184   2.173   5.693  0.6075 -0.5350  1.8401
 5143SOL    HW227066   4.088   2.061   5.727  1.6759 -0.3463 -0.4317
 5144SOL     OW27067   3.951   3.730   8.742 -0.2613 -0.2450 -0.0934
 5144SOL    HW127068   3.871   3.707   8.695  0.1958 -1.4984 -0.2637
 5144SOL    HW227069   3.962   3.822   8.720  0.7252  0.6164  3.8947
 5145SOL     OW27070   3.359   1.552   3.346  0.4128 -0.4600  0.0367
 5145SOL    HW127071   3.395   1.624   3.294 -1.5948  0.5833  0.0970
 5145SOL    HW227072   3.316   1.507   3.273 -1.0414  1.7229 -0.4488
 5146SOL     OW27073   0.158   0.087   6.163  0.4399  0.3990  0.0902
 5146SOL    HW127074   0.207   0.090   6.245  0.3213 -0.2752  0.1913
 5146SOL    HW227075   0.222   0.127   6.104 -3.1703 -0.3583 -4.3517
 5147SOL     OW27076   0.343   1.869   3.403 -0.0637  0.1770  0.4490
 5147SOL    HW127077   0.356   1.794   3.346  0.9951  0.2123  0.6509
 5147SOL    HW227078   0.296   1.930   3.346  2.1519  1.3547 -0.0922
 5148SOL     OW27079   3.344   2.151  12.927  0.1572 -0.5535  0.1755
 5148SOL    HW127080   3.332   2.056  12.936  1.8050 -0.4961  2.7122
 5148SOL    HW227081   3.421   2.181  12.974 -0.1932 -0.9442  1.0041
 5149SOL     OW27082   4.321   2.471   3.775 -0.4431  0.1504 -0.5233
 5149SOL    HW127083   4.287   2.492   3.862 -0.8296  0.2350 -0.6992
 5149SOL    HW227084   4.389   2.405   3.790 -0.2532  0.2302 -1.0249
 5150SOL     OW27085   2.743   4.605   7.210  0.1531  0.4801 -0.3337
 5150SOL    HW127086   2.808   4.537   7.197 -0.0239  0.2168  0.1505
 5150SOL    HW227087   2.788   4.673   7.260 -0.0805  1.0791 -0.9311
 5151SOL     OW27088   4.026   3.944   2.086  0.0819  0.5037 -0.5972
 5151SOL    HW127089   3.949   3.957   2.141  0.9196  1.0207  0.4404
 5151SOL    HW227090   3.990   3.971   2.001  0.9229  0.1912 -1.0530
 5152SOL     OW27091   1.160   0.520   4.824  0.6926  0.2751 -0.0887
 5152SOL    HW127092   1.133   0.492   4.736  0.7080 -1.7195  0.5380
 5152SOL    HW227093   1.205   0.443   4.858 -0.6220 -0.3069  0.3571
 5153SOL     OW27094   4.719   4.522   2.583  0.4077  0.5803 -0.8968
 5153SOL    HW127095   4.628   4.520   2.554 -0.5163  1.0032  1.9256
 5153SOL    HW227096   4.713   4.501   2.676 -0.5628  1.5819 -0.7313
 5154SOL     OW27097   4.028   2.217   2.051  0.0243  0.1413 -0.0317
 5154SOL    HW127098   3.932   2.208   2.047  0.3037 -2.4580 -0.9211
 5154SOL    HW227099   4.061   2.132   2.022  2.2858  0.5984  1.1778
 5155SOL     OW27100   2.981   2.957   8.110  0.5685  0.4033  0.3881
 5155SOL    HW127101   2.966   3.049   8.087 -2.3166 -0.0188  0.5764
 5155SOL    HW227102   3.068   2.940   8.073  1.2049 -0.9574  2.5397
 5156SOL     OW27103   4.297   2.644   8.577  0.0444  0.2923 -0.0051
 5156SOL    HW127104   4.240   2.579   8.617 -1.0552 -0.8098 -3.3469
 5156SOL    HW227105   4.315   2.622   8.485 -1.0572  0.5436 -0.2878
 5157SOL     OW27106   3.772   3.388   1.056  0.2524 -0.5357  0.2667
 5157SOL    HW127107   3.719   3.323   1.010  0.4826 -2.3481  2.5611
 5157SOL    HW227108   3.815   3.431   0.982 -1.3017  0.6664  0.0729
 5158SOL     OW27109   4.411   1.278   8.568 -0.3163 -0.4851  0.2378
 5158SOL    HW127110   4.390   1.358   8.521 -0.6655 -0.5538  0.2809
 5158SOL    HW227111   4.486   1.242   8.520  1.1067  1.6738  0.8632
 5159SOL     OW27112   2.646   1.712   1.935 -0.4573 -0.4283 -0.6480
 5159SOL    HW127113   2.637   1.631   1.986 -1.1679 -0.2796 -0.5475
 5159SOL    HW227114   2.555   1.739   1.932 -0.6047 -0.7953  0.3626
 5160SOL     OW27115   0.423   0.246   5.309 -0.1903  0.0586  0.2348
 5160SOL    HW127116   0.352   0.277   5.252  0.8516  1.8121 -0.1324
 5160SOL    HW227117   0.496   0.293   5.269 -0.1637  0.8867  1.2439
 5161SOL     OW27118   0.876   4.078   4.474  0.2764  0.0204  0.1011
 5161SOL    HW127119   0.874   4.141   4.546 -0.1769  0.6647 -0.4716
 5161SOL    HW227120   0.788   4.084   4.437  0.8365  1.7074 -0.9859
 5162SOL     OW27121   2.154   0.409   8.545 -0.0605  0.1907 -0.0467
 5162SOL    HW127122   2.235   0.458   8.555  0.9972 -1.2675 -1.5063
 5162SOL    HW227123   2.193   0.322   8.546 -0.3950  0.0275 -1.4482
 5163SOL     OW27124   0.128   1.360   5.194  0.6347  0.3230  0.0675
 5163SOL    HW127125   0.187   1.427   5.231  1.6675 -0.4757 -0.1198
 5163SOL    HW227126   0.066   1.427   5.165  1.4529  0.3944 -1.5373
 5164SOL     OW27127   0.162   3.909  13.040 -0.0169 -0.0988  0.5411
 5164SOL    HW127128   0.235   3.970  13.028 -1.1191  0.6917 -2.0508
 5164SOL    HW227129   0.202   3.825  13.061 -2.2546 -0.8878  1.6762
 5165SOL     OW27130   0.928   2.728   2.391  0.5443  0.2763 -0.3598
 5165SOL    HW127131   0.978   2.799   2.350  0.5241  1.1955  1.2306
 5165SOL    HW227132   0.911   2.759   2.480 -1.6692  0.6913 -0.9226
 5166SOL     OW27133   1.797   0.300   8.105  0.1598  0.0480  0.2248
 5166SOL    HW127134   1.706   0.283   8.082 -0.5006  2.6798  0.8572
 5166SOL    HW227135   1.789   0.315   8.200  0.3452 -1.3930  0.4783
 5167SOL     OW27136   0.449   4.223  17.295 -0.2798  0.4883  0.0298
 5167SOL    HW127137   0.423   4.205  17.204 -0.9183  0.2237  0.2661
 5167SOL    HW227138   0.414   4.310  17.313 -1.4684  0.0177 -0.0097
 5168SOL     OW27139   0.128   1.715  15.803 -0.0150 -0.2892  0.0245
 5168SOL    HW127140   0.223   1.702  15.800 -0.0335 -0.5594  0.7940
 5168SOL    HW227141   0.096   1.645  15.859 -1.8460  0.1089 -0.5418
 5169SOL     OW27142   0.775   1.480   1.504  0.6569 -0.0793  0.0805
 5169SOL    HW127143   0.817   1.489   1.589 -1.3152  0.7414  0.9592
 5169SOL    HW227144   0.722   1.402   1.523  3.1049 -2.3002 -2.1941
 5170SOL     OW27145   1.574   2.413   6.424  0.4295 -0.1474  0.3924
 5170SOL    HW127146   1.489   2.440   6.388  0.0721 -0.9712  0.6128
 5170SOL    HW227147   1.602   2.368   6.344  2.0523 -1.1462  1.5322
 5171SOL     OW27148   2.530   0.195  10.361 -0.4009 -0.2877  0.0156
 5171SOL    HW127149   2.579   0.206  10.442 -1.4312 -0.9762  0.7233
 5171SOL    HW227150   2.464   0.128  10.381  1.1744 -1.7670  0.3120
 5172SOL     OW27151   3.673   4.587   5.239  0.1656 -0.0720 -0.7862
 5172SOL    HW127152   3.627   4.667   5.216 -0.0802  0.0267  0.0276
 5172SOL    HW227153   3.731   4.608   5.313 -0.9411 -0.9361  0.3278
 5173SOL     OW27154   2.174   0.885   3.979  0.7069 -0.0345 -0.0595
 5173SOL    HW127155   2.250   0.941   3.964  2.1555 -2.4369 -1.6177
 5173SOL    HW227156   2.162   0.832   3.900 -0.9689 -1.9684  1.5067
 5174SOL     OW27157   0.317   1.141   6.675  0.4891 -1.0620  0.3894
 5174SOL    HW127158   0.334   1.216   6.731 -0.3410 -0.8857  0.4067
 5174SOL    HW227159   0.301   1.191   6.595 -0.8419 -0.7561  0.8469
 5175SOL     OW27160   4.310   1.722  14.074  0.0014  0.0454  0.0097
 5175SOL    HW127161   4.366   1.703  13.999 -0.4643 -0.2587 -0.2593
 5175SOL    HW227162   4.302   1.636  14.116 -0.3107 -0.1253 -0.4009
 5176SOL     OW27163   0.849   2.432   4.388 -0.1921 -0.5240  0.0594
 5176SOL    HW127164   0.791   2.374   4.437 -2.4966  3.0071  1.4857
 5176SOL    HW227165   0.802   2.515   4.381  0.6445 -0.0032  0.6358
 5177SOL     OW27166   1.100   2.364  16.779 -0.0168  0.6142 -0.4720
 5177SOL    HW127167   1.152   2.421  16.723  2.9166  0.4455  2.1053
 5177SOL    HW227168   1.121   2.279  16.739  0.8030 -0.1223  1.5450
 5178SOL     OW27169   3.949   1.957   7.500 -0.2961 -0.2863  0.0661
 5178SOL    HW127170   3.914   1.870   7.517  0.8870 -0.6521  0.5854
 5178SOL    HW227171   3.944   1.969   7.405  2.4818 -0.2025 -0.0641
 5179SOL     OW27172   1.335   4.354  15.116 -0.2749  0.3477  0.0564
 5179SOL    HW127173   1.414   4.348  15.169  0.6110  1.7280 -1.0938
 5179SOL    HW227174   1.269   4.300  15.159 -0.1915  0.1844 -0.0196
 5180SOL     OW27175   0.475   2.254  11.250 -0.7133 -0.4823  0.1862
 5180SOL    HW127176   0.394   2.303  11.264 -1.3115 -1.2262 -0.6482
 5180SOL    HW227177   0.501   2.292  11.166 -1.9478 -1.1349 -0.4814
 5181SOL     OW27178   4.280   1.457   8.146 -0.2832  0.0469 -0.3964
 5181SOL    HW127179   4.244   1.369   8.157 -1.5115  0.3981 -1.5189
 5181SOL    HW227180   4.204   1.510   8.170  1.1944  2.3336 -0.6696
 5182SOL     OW27181   4.515   3.495   6.621  0.1948  0.3843 -0.3597
 5182SOL    HW127182   4.457   3.423   6.596 -0.7228  1.6103 -1.6978
 5182SOL    HW227183   4.479   3.566   6.569  2.5758  1.2199 -0.8723
 5183SOL     OW27184   2.602   4.087   4.124 -0.6906 -0.5167 -0.0781
 5183SOL    HW127185   2.672   4.059   4.183  0.7602  0.2265 -1.4395
 5183SOL    HW227186   2.559   4.003   4.105 -1.2900 -0.1879 -0.1901
 5184SOL     OW27187   2.045   3.711   4.466 -0.5402 -0.0666  0.4169
 5184SOL    HW127188   1.971   3.658   4.437  0.7035 -2.6456  1.9501
 5184SOL    HW227189   2.104   3.719   4.390 -1.6664  0.1064 -0.4370
 5185SOL     OW27190   2.318   0.444   7.944 -0.2418 -0.0870 -0.0031
 5185SOL    HW127191   2.299   0.532   7.912  0.0773  0.0350  0.1471
 5185SOL    HW227192   2.233   0.401   7.957 -0.4764  1.3819  3.4522
 5186SOL     OW27193   0.479   1.421  15.590 -0.2038 -0.0705 -0.1153
 5186SOL    HW127194   0.483   1.359  15.517  1.5640  0.3496 -0.3651
 5186SOL    HW227195   0.393   1.398  15.626  0.2358 -0.1939  0.8604
 5187SOL     OW27196   1.472   2.793   8.942 -0.2986 -0.3329  0.1249
 5187SOL    HW127197   1.515   2.798   9.027 -3.1848  1.7925  1.4819
 5187SOL    HW227198   1.519   2.866   8.902 -0.1054  0.0442  1.0374
 5188SOL     OW27199   3.185   2.166   5.057 -0.2993  0.1099  0.4566
 5188SOL    HW127200   3.278   2.175   5.032 -0.1720 -2.3812  0.0059
 5188SOL    HW227201   3.137   2.191   4.978 -0.4502 -0.4429  0.3698
 5189SOL     OW27202   3.565   1.306   3.737 -0.0509  0.7831 -0.6190
 5189SOL    HW127203   3.637   1.361   3.706 -0.5344  1.8715  0.1750
 5189SOL    HW227204   3.530   1.275   3.654 -1.4237  0.6537 -0.0014
 5190SOL     OW27205   2.397   3.212   7.883 -0.0560 -0.0601 -0.4947
 5190SOL    HW127206   2.402   3.246   7.793 -0.2147 -1.7963 -1.1535
 5190SOL    HW227207   2.466   3.254   7.935 -0.6782  0.4291 -0.0650
 5191SOL     OW27208   3.569   3.363   5.076  0.0407  0.1035  0.6364
 5191SOL    HW127209   3.490   3.311   5.061  0.0883  0.2350 -0.0939
 5191SOL    HW227210   3.555   3.392   5.166 -0.8500  3.5379 -0.6101
 5192SOL     OW27211   1.762   3.169   9.006 -0.2947 -0.1674  0.2077
 5192SOL    HW127212   1.707   3.238   9.043 -1.2820 -0.0232 -1.5510
 5192SOL    HW227213   1.749   3.185   8.913 -1.9693  0.8076  0.6157
 5193SOL     OW27214   0.575   0.281   0.478  0.2931 -0.1459  0.4804
 5193SOL    HW127215   0.559   0.374   0.465 -0.1642 -0.0263  1.9341
 5193SOL    HW227216   0.573   0.287   0.574  0.4914 -1.2987  0.5591
 5194SOL     OW27217   2.841   0.287   3.987  0.9506  0.3244 -0.5005
 5194SOL    HW127218   2.826   0.242   3.904 -3.5350  2.7748 -1.0367
 5194SOL    HW227219   2.766   0.344   4.005  1.4327  0.6938  0.3188
 5195SOL     OW27220   0.354   2.884   6.965 -0.0866  0.0959  0.4087
 5195SOL    HW127221   0.395   2.967   6.988  1.2353 -0.3209 -0.4313
 5195SOL    HW227222   0.264   2.900   6.937 -0.3718 -0.6979  0.8431
 5196SOL     OW27223   2.684   0.918   2.989  0.0957  0.9000 -0.3685
 5196SOL    HW127224   2.619   0.908   3.058 -0.6752  4.0031 -0.6313
 5196SOL    HW227225   2.762   0.936   3.041  0.6611 -1.2564 -0.4941
 5197SOL     OW27226   3.289   0.559   9.014  0.5303  0.3251  0.4325
 5197SOL    HW127227   3.275   0.653   9.003 -0.3387  0.0599 -0.7762
 5197SOL    HW227228   3.355   0.548   8.946  2.4979 -0.0905  2.4016
 5198SOL     OW27229   2.952   0.133   5.365  0.3972  0.3347 -0.7090
 5198SOL    HW127230   2.930   0.080   5.442 -1.1854  1.1867 -0.5623
 5198SOL    HW227231   2.866   0.174   5.360 -0.2685 -0.8789  0.7036
 5199SOL     OW27232   4.561   3.345   3.598 -0.4573  0.0930  0.2946
 5199SOL    HW127233   4.607   3.418   3.639  1.1288 -1.0843  0.6183
 5199SOL    HW227234   4.519   3.296   3.668  1.5624  0.4364  1.7474
 5200SOL     OW27235   0.778   3.543   0.711  0.1381 -0.0710  0.6605
 5200SOL    HW127236   0.830   3.603   0.657 -0.5998  0.5699  0.6614
 5200SOL    HW227237   0.698   3.594   0.710 -0.0377 -0.3443  1.1316
 5201SOL     OW27238   4.386   2.192   1.312 -0.7356  0.7028 -0.0157
 5201SOL    HW127239   4.436   2.262   1.354 -1.9218  1.4131  0.2139
 5201SOL    HW227240   4.345   2.231   1.234 -1.3806 -1.0093 -0.5417
 5202SOL     OW27241   2.368   3.659   2.166  0.1113 -0.3215 -0.2776
 5202SOL    HW127242   2.427   3.695   2.232 -0.7121 -0.2593  0.4350
 5202SOL    HW227243   2.383   3.722   2.096 -1.3189  0.2989 -0.0235
 5203SOL     OW27244   0.987   0.668  14.391  0.3256  0.0961  0.0418
 5203SOL    HW127245   0.892   0.678  14.381  0.2504 -0.9331 -0.3284
 5203SOL    HW227246   1.021   0.636  14.308 -0.0881  0.7361 -0.3697
 5204SOL     OW27247   1.302   1.543   7.503 -0.3799  0.6503  0.2503
 5204SOL    HW127248   1.394   1.536   7.480  0.6649  0.6626  4.5585
 5204SOL    HW227249   1.293   1.467   7.560 -0.1280  0.9782  0.7203
 5205SOL     OW27250   3.400   3.810   2.970  0.3457  0.3731 -0.4085
 5205SOL    HW127251   3.477   3.762   3.000  0.0726  0.5144  0.5028
 5205SOL    HW227252   3.402   3.784   2.877  3.5024  1.8091 -0.7383
 5206SOL     OW27253   0.598   1.244  12.214  0.2923 -0.0392 -0.7883
 5206SOL    HW127254   0.572   1.299  12.288  1.1574  2.6279 -2.4534
 5206SOL    HW227255   0.671   1.196  12.252 -1.9524 -1.0260  2.2625
 5207SOL     OW27256   1.079   1.213   5.804  0.3082 -0.3901  0.2008
 5207SOL    HW127257   1.134   1.290   5.808 -1.6979  0.9975  1.3104
 5207SOL    HW227258   1.141   1.140   5.804  0.0895 -0.5677 -0.8855
 5208SOL     OW27259   1.395   0.446  10.512 -0.4339 -0.1687  0.4245
 5208SOL    HW127260   1.402   0.483  10.600  0.1350 -1.0814  0.7681
 5208SOL    HW227261   1.308   0.409  10.524  0.5257 -1.8012  2.2653
 5209SOL     OW27262   0.277   1.439   4.651 -0.7738 -0.2550 -0.2638
 5209SOL    HW127263   0.297   1.348   4.674 -1.7311 -0.0155  1.5295
 5209SOL    HW227264   0.297   1.437   4.557  2.5012 -4.0930  0.5366
 5210SOL     OW27265   1.388   4.345   5.866 -0.1303  0.6776  0.1792
 5210SOL    HW127266   1.335   4.298   5.802 -1.7314  0.6957  1.4898
 5210SOL    HW227267   1.318   4.362   5.928 -0.7876  1.4683 -0.7737
 5211SOL     OW27268   2.331   3.166  17.342  0.2263 -0.3222 -0.1812
 5211SOL    HW127269   2.387   3.244  17.349 -2.4145  1.7259 -1.8297
 5211SOL    HW227270   2.333   3.155  17.247 -0.9905 -0.9541 -0.1269
 5212SOL     OW27271   0.351   0.384  17.572 -0.1945  0.6744  0.3675
 5212SOL    HW127272   0.366   0.306  17.626  0.5427  0.8791  0.4595
 5212SOL    HW227273   0.321   0.440  17.643 -1.6698 -1.2388  1.2634
 5213SOL     OW27274   1.373   1.479  11.195  0.4121 -0.4864  1.1107
 5213SOL    HW127275   1.362   1.522  11.110  2.4063 -0.8808  0.6427
 5213SOL    HW227276   1.362   1.386  11.176 -0.1282 -0.3934  0.9766
 5214SOL     OW27277   1.807   1.500   9.536 -0.9331  0.6144  0.6771
 5214SOL    HW127278   1.721   1.528   9.570 -0.1733  2.6335  0.9209
 5214SOL    HW227279   1.865   1.569   9.566  1.2944 -0.8960 -0.2181
 5215SOL     OW27280   1.161   4.624  13.795 -0.1928  0.1545 -0.2242
 5215SOL    HW127281   1.169   4.587  13.708  0.2707 -2.2394  0.8267
 5215SOL    HW227282   1.135   4.548  13.847 -0.0217  2.1891  2.9138
 5216SOL     OW27283   0.285   4.091   0.382  0.4923 -0.3497 -0.1227
 5216SOL    HW127284   0.291   4.043   0.464 -2.2916  2.1429  1.5202
 5216SOL    HW227285   0.198   4.129   0.379 -0.1546 -1.8629 -0.6656
 5217SOL     OW27286   3.308   0.002  11.686 -0.3147  0.2567  0.4563
 5217SOL    HW127287   3.354   4.722  11.603 -0.4548  3.5693 -0.2541
 5217SOL    HW227288   3.261   0.082  11.664  1.3446  0.9565 -0.5771
 5218SOL     OW27289   4.547   2.412   4.643  0.3149  0.1836  0.0442
 5218SOL    HW127290   4.544   2.344   4.710 -0.3932  0.1827  0.0161
 5218SOL    HW227291   4.478   2.371   4.591  0.2091 -1.3779  1.3926
 5219SOL     OW27292   0.644   3.349   5.844  0.4600 -0.1107 -0.7206
 5219SOL    HW127293   0.705   3.352   5.919  1.4675  0.4288 -1.5602
 5219SOL    HW227294   0.608   3.437   5.835  1.0353  0.2797  0.7618
 5220SOL     OW27295   2.173   3.335   5.452 -0.1427 -0.4104  0.2552
 5220SOL    HW127296   2.159   3.265   5.517  0.6797 -1.0403 -0.2457
 5220SOL    HW227297   2.182   3.411   5.510 -0.6625 -1.6257  1.9323
 5221SOL     OW27298   2.935   1.758   8.713  0.1662  0.2703  0.0253
 5221SOL    HW127299   2.857   1.795   8.755 -2.3210 -2.2183 -2.4168
 5221SOL    HW227300   2.958   1.679   8.762  0.2731  0.9863  1.1465
 5222SOL     OW27301   3.209   2.522   9.468 -0.3284 -0.8850  0.2878
 5222SOL    HW127302   3.305   2.529   9.466 -0.4209  0.8873  1.9811
 5222SOL    HW227303   3.182   2.515   9.559 -0.7630  0.9420  0.2922
 5223SOL     OW27304   0.052   2.185   6.809 -0.3238 -0.3979  0.1425
 5223SOL    HW127305   4.730   2.128   6.858 -0.4005 -1.9836 -1.7617
 5223SOL    HW227306   4.729   2.224   6.745 -0.7391 -2.4502 -0.7403
 5224SOL     OW27307   4.404   2.450   3.081  0.0577  0.6388  0.7751
 5224SOL    HW127308   4.387   2.381   3.017  0.9864  0.3112  0.8854
 5224SOL    HW227309   4.477   2.497   3.042 -0.1881  0.6587  0.3415
 5225SOL     OW27310   0.213   0.349   0.895  0.4313 -0.6185 -0.1335
 5225SOL    HW127311   0.261   0.429   0.873  2.2495 -1.5067  0.6574
 5225SOL    HW227312   0.221   0.345   0.990  2.8426 -0.1144 -0.3257
 5226SOL     OW27313   4.703   3.143   0.683  0.2686 -0.0841  0.6895
 5226SOL    HW127314   4.682   3.197   0.607  2.5873 -0.6409 -0.3644
 5226SOL    HW227315   4.622   3.096   0.703 -0.0328  0.3884  0.5643
 5227SOL     OW27316   4.579   1.239   7.711 -0.2634 -0.2643 -0.0363
 5227SOL    HW127317   4.529   1.169   7.670 -0.9891  0.4599 -0.3703
 5227SOL    HW227318   4.618   1.179   7.775  2.8084 -0.8213 -2.3890
 5228SOL     OW27319   2.660   4.436  16.152 -0.4068  0.0212  0.0453
 5228SOL    HW127320   2.585   4.402  16.201  0.1124 -0.9208  0.1789
 5228SOL    HW227321   2.709   4.357  16.129  1.8740  1.6739 -0.7349
 5229SOL     OW27322   0.344   1.212   7.781 -0.4544  0.0348  0.0588
 5229SOL    HW127323   0.370   1.139   7.837 -0.2269  0.4611  0.5059
 5229SOL    HW227324   0.424   1.244   7.739  0.1073 -0.7079  0.5653
 5230SOL     OW27325   0.307   1.133   5.902 -0.1377  0.9131 -0.4271
 5230SOL    HW127326   0.394   1.160   5.931  0.0182 -1.5804  1.4551
 5230SOL    HW227327   0.324   1.047   5.863  2.2212  0.5968  1.2734
 5231SOL     OW27328   0.955   2.464   2.465 -0.3177  0.0915  0.3414
 5231SOL    HW127329   0.952   2.550   2.422  0.3083  1.9000  3.9802
 5231SOL    HW227330   0.942   2.408   2.388  0.6485 -1.9920  1.7034
 5232SOL     OW27331   0.962   2.367   8.615  0.4001 -0.7877  0.0061
 5232SOL    HW127332   0.951   2.284   8.568 -1.1678 -0.5075 -0.1229
 5232SOL    HW227333   0.893   2.356   8.680  0.9215  2.0161  1.0638
 5233SOL     OW27334   1.076   3.992   5.706 -0.8068  1.0284 -0.0029
 5233SOL    HW127335   1.001   4.046   5.681 -3.2777 -0.6217  3.8704
 5233SOL    HW227336   1.051   3.900   5.716  0.9638  0.3519 -1.5277
 5234SOL     OW27337   0.408   4.485   4.517  0.3249  0.2500  0.7554
 5234SOL    HW127338   0.313   4.483   4.504  0.2064 -2.2402  1.8054
 5234SOL    HW227339   0.410   4.460   4.610 -0.0029 -2.8268 -0.0750
 5235SOL     OW27340   4.459   3.765   7.080 -0.1891  0.1783 -0.4471
 5235SOL    HW127341   4.496   3.750   7.167  0.0726  2.6772 -0.1417
 5235SOL    HW227342   4.446   3.673   7.056  0.3794 -0.7760  2.9687
 5236SOL     OW27343   3.500   0.050   1.418  0.0958  0.3778 -0.3310
 5236SOL    HW127344   3.552   0.068   1.496 -0.1176 -1.5492  0.2476
 5236SOL    HW227345   3.453   0.133   1.403 -1.9076 -0.3879  1.7660
 5237SOL     OW27346   2.736   3.040  11.856  0.2189  0.6947 -0.0556
 5237SOL    HW127347   2.640   3.042  11.849  0.2827  2.0766 -0.5556
 5237SOL    HW227348   2.759   2.948  11.844 -0.6617  0.5753 -0.7852
 5238SOL     OW27349   4.700   0.564   8.498  0.2837 -0.2896  0.3533
 5238SOL    HW127350   4.682   0.657   8.482 -0.3848 -0.0487  2.4617
 5238SOL    HW227351   4.626   0.534   8.550  1.5247 -0.0992  2.2170
 5239SOL     OW27352   0.753   2.306   8.813  0.4057 -0.2499 -0.4135
 5239SOL    HW127353   0.745   2.397   8.842 -3.1306 -0.7338  0.0500
 5239SOL    HW227354   0.719   2.260   8.890  3.9337  0.1379  1.3969
 5240SOL     OW27355   1.793   0.995   7.006 -0.2900  0.5426 -0.8429
 5240SOL    HW127356   1.869   1.044   7.037 -0.6619 -0.0789  1.0155
 5240SOL    HW227357   1.839   0.913   6.989  2.8974  1.9313  1.1149
 5241SOL     OW27358   4.101   2.895  16.791  0.0718  0.0509  0.2816
 5241SOL    HW127359   4.062   2.846  16.864  1.1076  0.7960  1.3336
 5241SOL    HW227360   4.033   2.954  16.759 -1.0435 -2.1184 -1.3607
 5242SOL     OW27361   2.154   4.704   8.621 -0.2843 -0.1703  0.4756
 5242SOL    HW127362   2.213   4.648   8.572  1.4228 -0.7052  3.1379
 5242SOL    HW227363   2.203   0.050   8.627  0.6548 -0.8784  2.3160
 5243SOL     OW27364   2.074   1.133  10.759 -0.3932  0.6915  0.0390
 5243SOL    HW127365   2.154   1.080  10.761 -0.2770  0.8684  0.0606
 5243SOL    HW227366   2.074   1.174  10.672 -2.1974 -2.3336 -1.4048
 5244SOL     OW27367   2.216   1.951   9.775  0.0892  0.1629  0.2162
 5244SOL    HW127368   2.201   1.909   9.860  1.5307 -0.4116  0.1726
 5244SOL    HW227369   2.182   2.038   9.794 -1.9739 -0.1489 -2.1225
 5245SOL     OW27370   3.885   3.185   6.800 -0.4386 -0.2369  0.2682
 5245SOL    HW127371   3.813   3.229   6.844  0.2501 -0.7905  1.9459
 5245SOL    HW227372   3.891   3.236   6.720  0.8120 -0.3172  0.3026
 5246SOL     OW27373   0.547   2.566   0.768  0.1928 -0.4793 -0.0655
 5246SOL    HW127374   0.551   2.661   0.782 -0.9902 -0.4962  0.4425
 5246SOL    HW227375   0.595   2.565   0.685  0.8515  0.1135  0.3018
 5247SOL     OW27376   2.233   0.282   3.607 -0.5002  0.0841  0.1976
 5247SOL    HW127377   2.293   0.220   3.565 -0.6121  1.0984 -1.4542
 5247SOL    HW227378   2.151   0.234   3.598  0.0250 -0.9051  0.6161
 5248SOL     OW27379   1.917   0.161   3.059  0.3748  0.3745  0.3258
 5248SOL    HW127380   1.932   0.174   2.965 -0.9789 -1.0674 -0.0924
 5248SOL    HW227381   1.828   0.196   3.061 -0.2641 -1.1762 -0.3842
 5249SOL     OW27382   1.000   0.567   8.554  0.5450 -0.1838  0.0123
 5249SOL    HW127383   0.912   0.606   8.554  0.8681  0.5483 -0.1076
 5249SOL    HW227384   0.995   0.510   8.631  0.1374 -0.6665 -0.3687
 5250SOL     OW27385   0.078   3.424   1.148 -1.0881  0.1873  0.1921
 5250SOL    HW127386   0.021   3.500   1.136 -1.8184 -0.3394  0.3180
 5250SOL    HW227387   0.055   3.397   1.237 -3.3694 -1.6477 -0.9565
 5251SOL     OW27388   0.191   0.337   2.838 -0.1342  0.0795  0.4884
 5251SOL    HW127389   0.113   0.370   2.793  0.0149 -0.3898 -0.1231
 5251SOL    HW227390   0.259   0.374   2.782 -0.6007  0.0456 -0.1042
 5252SOL     OW27391   3.943   3.383   7.319  0.1689 -0.4212 -0.5278
 5252SOL    HW127392   3.854   3.353   7.337 -0.2687  0.9256 -0.4447
 5252SOL    HW227393   3.929   3.471   7.284 -0.9560 -0.6356 -0.6348
 5253SOL     OW27394   1.476   1.695   5.161  0.0540 -0.2176 -0.0816
 5253SOL    HW127395   1.567   1.714   5.186  0.5874 -1.5653 -1.0173
 5253SOL    HW227396   1.493   1.622   5.102 -0.6480  0.8862 -1.6296
 5254SOL     OW27397   3.136   4.655  12.818  0.6677  0.1635 -0.5279
 5254SOL    HW127398   3.127   4.594  12.745 -1.7844  0.2820 -0.3363
 5254SOL    HW227399   3.076   4.617  12.881  2.0360 -0.4934  0.3801
 5255SOL     OW27400   1.759   1.366   2.494  0.3400  0.2087 -0.4135
 5255SOL    HW127401   1.757   1.351   2.588 -4.2632  0.3778 -0.4789
 5255SOL    HW227402   1.739   1.459   2.495  1.5170  0.4753 -1.7122
 5256SOL     OW27403   2.026   2.890   5.789  0.0335  0.0185  0.4089
 5256SOL    HW127404   1.938   2.867   5.759  0.6852 -0.7507 -0.8673
 5256SOL    HW227405   2.009   2.884   5.883 -0.2025  0.3043  0.3863
 5257SOL     OW27406   2.254   4.222   8.904 -0.1756 -0.8006  0.4594
 5257SOL    HW127407   2.244   4.182   8.818 -0.2246  0.0508  0.0716
 5257SOL    HW227408   2.163   4.245   8.926  0.2176 -0.1131  1.3741
 5258SOL     OW27409   1.280   2.592   6.946  0.1749 -0.3825 -0.2587
 5258SOL    HW127410   1.276   2.686   6.960  2.3746 -0.2874 -0.1446
 5258SOL    HW227411   1.335   2.547   7.011 -0.1144  1.2548  1.1124
 5259SOL     OW27412   3.245   3.921  11.865  0.5417 -0.2475  0.3216
 5259SOL    HW127413   3.260   3.858  11.935  0.3647  1.6677  2.0989
 5259SOL    HW227414   3.302   3.993  11.892 -0.3051 -0.1599  1.8949
 5260SOL     OW27415   0.936   0.462   9.946 -0.1702  0.1001  0.3396
 5260SOL    HW127416   0.962   0.543   9.903 -0.3675 -0.4932 -0.8867
 5260SOL    HW227417   0.970   0.404   9.879 -0.2999  0.6386 -0.1913
 5261SOL     OW27418   3.304   1.048   6.952 -0.1292 -0.0031  0.4060
 5261SOL    HW127419   3.387   1.009   6.925  0.2302 -0.3501  1.9996
 5261SOL    HW227420   3.290   1.013   7.040  0.2311  2.3761  1.3980
 5262SOL     OW27421   1.001   0.250   4.821  0.3140  0.1721  0.5088
 5262SOL    HW127422   1.080   0.214   4.861  1.8322  2.5468 -0.3417
 5262SOL    HW227423   0.969   0.165   4.789  2.1329 -1.0068  1.8440
 5263SOL     OW27424   3.191   2.865   3.031 -0.5841 -0.0887 -0.2792
 5263SOL    HW127425   3.267   2.896   2.981 -1.1881 -0.5893 -1.5109
 5263SOL    HW227426   3.117   2.888   2.974 -0.8952 -0.1859  0.0810
 5264SOL     OW27427   1.879   4.291   1.194 -0.4357 -0.7656  0.0398
 5264SOL    HW127428   1.821   4.312   1.268 -1.3180 -0.3677 -0.7607
 5264SOL    HW227429   1.814   4.284   1.123 -1.1408  0.1113  0.5961
 5265SOL     OW27430   3.805   3.899   3.226 -1.1302  0.3514  0.2147
 5265SOL    HW127431   3.895   3.931   3.237 -1.1331  0.5981 -0.5085
 5265SOL    HW227432   3.800   3.832   3.295 -0.2772  2.1667  2.0591
 5266SOL     OW27433   3.079   2.358   1.511  0.4469 -0.6233  0.6484
 5266SOL    HW127434   3.138   2.421   1.471 -0.3993 -0.5972 -0.5815
 5266SOL    HW227435   3.053   2.408   1.588  1.0800 -0.0085  0.4601
 5267SOL     OW27436   1.410   0.970   6.257 -0.1483 -0.5855 -0.1966
 5267SOL    HW127437   1.331   0.945   6.304 -0.3576  0.0727 -0.2037
 5267SOL    HW227438   1.425   1.064   6.262  2.1237 -1.0959  2.9044
 5268SOL     OW27439   1.366   4.101  17.340  0.0410 -0.4561 -0.4083
 5268SOL    HW127440   1.425   4.176  17.330 -0.0311 -0.3929 -0.3610
 5268SOL    HW227441   1.363   4.068  17.251  0.5799  0.5429 -0.8094
 5269SOL     OW27442   1.022   3.282   2.703  0.0647 -0.7338 -0.3752
 5269SOL    HW127443   1.027   3.227   2.625 -3.0503 -0.4396 -0.7949
 5269SOL    HW227444   0.941   3.331   2.689 -0.9217 -2.2842 -0.1465
 5270SOL     OW27445   0.706   4.428   0.515 -0.1902 -0.0887 -0.6109
 5270SOL    HW127446   0.770   4.356   0.509  0.8054  0.7389  0.1516
 5270SOL    HW227447   0.758   4.505   0.538 -0.6806  0.2326 -0.5878
 5271SOL     OW27448   1.976   0.437   7.737 -0.3118 -0.3026  0.1623
 5271SOL    HW127449   2.069   0.433   7.713 -0.0286 -0.5455  1.2976
 5271SOL    HW227450   1.929   0.477   7.664 -0.0820  2.7022  1.6569
 5272SOL     OW27451   0.351   3.129   2.559  0.0783 -0.0963  0.4534
 5272SOL    HW127452   0.427   3.074   2.579  1.1688  0.4247 -2.1620
 5272SOL    HW227453   0.280   3.069   2.534  0.4113 -0.0234 -0.6592
 5273SOL     OW27454   2.195   2.033   5.621  0.3316  0.1237  0.1909
 5273SOL    HW127455   2.125   2.096   5.639 -0.6661 -0.3816 -1.9820
 5273SOL    HW227456   2.144   1.976   5.564  0.6977  0.6196 -0.6244
 5274SOL     OW27457   2.118   2.474  16.865 -0.5411 -0.6175 -0.3930
 5274SOL    HW127458   2.027   2.492  16.890 -0.4206 -0.9084  0.2448
 5274SOL    HW227459   2.135   2.541  16.798  1.8840 -1.0758 -0.2455
 5275SOL     OW27460   0.557   2.930  12.815  0.1106 -0.1953 -0.0136
 5275SOL    HW127461   0.464   2.914  12.800 -0.0168  0.8544 -0.3366
 5275SOL    HW227462   0.578   2.870  12.887  1.2487 -1.6204 -1.5108
 5276SOL     OW27463   3.350   0.436   2.311  0.0340 -0.0101  0.1131
 5276SOL    HW127464   3.266   0.395   2.291  0.6821 -1.4469  0.2871
 5276SOL    HW227465   3.389   0.415   2.226  1.2207 -1.1996  0.9464
 5277SOL     OW27466   0.519   4.093   5.125  0.1047 -0.3612 -0.4351
 5277SOL    HW127467   0.490   4.084   5.215  0.1296  1.0636 -0.2908
 5277SOL    HW227468   0.442   4.120   5.075  0.8545 -0.2228 -1.5218
 5278SOL     OW27469   4.315   1.543   7.888 -0.2753 -0.2075 -0.9093
 5278SOL    HW127470   4.320   1.506   7.976  2.2909 -2.2334 -1.8950
 5278SOL    HW227471   4.230   1.586   7.901 -0.1049  0.1675 -1.0439
 5279SOL     OW27472   2.112   4.247   3.718  0.5947 -0.2987  0.0207
 5279SOL    HW127473   2.049   4.267   3.787  1.9757  2.2771  0.5320
 5279SOL    HW227474   2.068   4.295   3.648  0.1062 -1.9976 -0.8457
 5280SOL     OW27475   1.928   4.521   7.286  0.3037 -0.1610 -0.0764
 5280SOL    HW127476   1.965   4.464   7.353  0.2658  0.7989  0.7682
 5280SOL    HW227477   1.853   4.466   7.264 -0.8375  0.7081  1.7105
 5281SOL     OW27478   2.724   3.226   6.788  0.6575  0.0699  0.3123
 5281SOL    HW127479   2.814   3.204   6.812 -0.5214 -2.3440  2.4331
 5281SOL    HW227480   2.714   3.293   6.856  1.4545  0.5717 -0.0556
 5282SOL     OW27481   3.514   4.131   2.616  0.7797  0.5639  0.8104
 5282SOL    HW127482   3.491   4.087   2.698 -1.9748  0.7434  0.1100
 5282SOL    HW227483   3.454   4.205   2.615 -0.3981 -0.4107 -0.6554
 5283SOL     OW27484   2.484   1.156   0.304 -0.1748 -0.0003 -0.4582
 5283SOL    HW127485   2.464   1.249   0.315 -0.9738 -0.4152  1.5525
 5283SOL    HW227486   2.471   1.119   0.391 -0.9979  0.4368 -0.3993
 5284SOL     OW27487   2.794   0.620   4.525 -0.3697  0.7263  0.2211
 5284SOL    HW127488   2.748   0.540   4.499 -1.6098  1.7543 -0.7832
 5284SOL    HW227489   2.883   0.598   4.501 -1.0281 -2.4476  0.6567
 5285SOL     OW27490   4.390   3.347   6.129 -0.5915  0.3054 -0.6010
 5285SOL    HW127491   4.421   3.409   6.063 -1.3099  0.4239 -0.8263
 5285SOL    HW227492   4.402   3.266   6.080 -1.7374  0.7895 -1.6751
 5286SOL     OW27493   1.072   4.129   6.229 -0.4752 -0.0253  0.1929
 5286SOL    HW127494   1.007   4.199   6.228  0.5828  0.9594  0.6293
 5286SOL    HW227495   1.019   4.058   6.193  1.0784 -2.9294  3.6114
 5287SOL     OW27496   2.508   1.510   6.163 -0.0570 -0.2729  0.1225
 5287SOL    HW127497   2.421   1.541   6.139 -0.0699 -1.4760 -1.3929
 5287SOL    HW227498   2.527   1.562   6.241 -0.6695  1.0972 -0.6480
 5288SOL     OW27499   0.324   1.195   3.294  0.3294  0.2259  0.0832
 5288SOL    HW127500   0.265   1.245   3.350 -1.0037 -0.3462 -0.7907
 5288SOL    HW227501   0.257   1.145   3.246 -0.2272  0.6027  0.4679
 5289SOL     OW27502   3.966   4.463   5.847  0.6810 -0.8669 -0.1048
 5289SOL    HW127503   3.972   4.556   5.868 -1.0153 -1.4291  2.8860
 5289SOL    HW227504   4.047   4.464   5.797  1.8769  0.7203  1.8465
 5290SOL     OW27505   0.334   0.033  12.265 -0.0449  0.5506  0.0567
 5290SOL    HW127506   0.327   0.129  12.265  1.5902  0.6762 -1.2421
 5290SOL    HW227507   0.311   0.017  12.356 -0.0648 -0.8937 -0.2133
 5291SOL     OW27508   4.479   0.116   0.373 -0.1175 -0.6279 -0.5137
 5291SOL    HW127509   4.570   0.135   0.350  0.4587  1.4429  3.4783
 5291SOL    HW227510   4.484   0.105   0.468  0.6151  2.0505 -0.2496
 5292SOL     OW27511   1.873   1.820   2.876 -0.3005  0.2181  0.3569
 5292SOL    HW127512   1.806   1.874   2.834  1.1329  1.0323 -0.8803
 5292SOL    HW227513   1.837   1.732   2.865  0.3960 -0.1837  1.2832
 5293SOL     OW27514   0.503   1.835  13.076 -0.2709 -0.3911 -0.6282
 5293SOL    HW127515   0.572   1.899  13.055  0.5620 -1.0609  0.0700
 5293SOL    HW227516   0.423   1.887  13.075  0.0468  0.1075  0.2073
 5294SOL     OW27517   0.014   2.093   2.349 -0.1273  0.0758 -0.4357
 5294SOL    HW127518   4.694   2.154   2.397  1.3137 -0.6124  2.1331
 5294SOL    HW227519   0.008   2.015   2.403 -0.4263  0.3368 -0.0872
 5295SOL     OW27520   0.583   1.593   2.336  0.2773  0.2294  0.0370
 5295SOL    HW127521   0.627   1.514   2.305  0.7639  1.2677 -1.9304
 5295SOL    HW227522   0.635   1.611   2.414  1.9643  0.9743 -1.2540
 5296SOL     OW27523   1.332   2.115   8.568  0.0676 -0.0085 -0.0561
 5296SOL    HW127524   1.406   2.060   8.545 -0.7896 -1.2859  0.2687
 5296SOL    HW227525   1.369   2.183   8.624 -2.0582  1.4790 -0.4337
 5297SOL     OW27526   4.706   4.314   4.498 -0.5300  0.4704 -0.5568
 5297SOL    HW127527   4.705   4.407   4.479 -1.0548  0.6920  0.5335
 5297SOL    HW227528   4.656   4.282   4.423  0.6456  1.9974 -1.9736
 5298SOL     OW27529   3.524   3.767   3.922 -0.4600  0.1504 -0.0471
 5298SOL    HW127530   3.456   3.753   3.989  1.2157  0.5351  1.7359
 5298SOL    HW227531   3.478   3.785   3.840  1.0618 -0.6362 -1.0444
 5299SOL     OW27532   3.049   0.866   4.048 -0.7572  0.6468 -0.1153
 5299SOL    HW127533   3.010   0.900   3.969  0.3171  2.6367  0.2151
 5299SOL    HW227534   3.136   0.906   4.059 -1.1585  1.5202 -0.1462
 5300SOL     OW27535   3.999   1.254   4.911  0.1586 -0.3620  0.1058
 5300SOL    HW127536   4.046   1.325   4.954 -0.4802  0.6787 -0.9143
 5300SOL    HW227537   4.013   1.270   4.818  1.1882 -0.7624  0.1923
 5301SOL     OW27538   2.578   1.742   3.322  0.4183 -0.2379 -0.1314
 5301SOL    HW127539   2.595   1.693   3.402 -1.1293 -2.4890 -1.1851
 5301SOL    HW227540   2.665   1.780   3.315  0.3332 -0.2167 -1.1567
 5302SOL     OW27541   3.800   1.063   3.461  0.3064  0.5156  0.4929
 5302SOL    HW127542   3.769   1.115   3.387 -0.2848  0.3073  0.5879
 5302SOL    HW227543   3.717   1.028   3.494  0.2085 -0.2737 -0.5924
 5303SOL     OW27544   0.457   3.454   0.638 -0.1309 -0.0017 -0.6012
 5303SOL    HW127545   0.367   3.426   0.621  0.1813 -1.2861 -0.1491
 5303SOL    HW227546   0.506   3.387   0.592  0.3239  0.3936 -0.6970
 5304SOL     OW27547   3.684   0.466  10.624  0.1536  0.3325 -0.5207
 5304SOL    HW127548   3.757   0.427  10.672 -1.3694 -0.3949  1.2059
 5304SOL    HW227549   3.664   0.545  10.674 -2.3022 -0.5196 -0.1458
 5305SOL     OW27550   3.898   4.131   3.570  0.6391  0.0120  0.0588
 5305SOL    HW127551   3.932   4.041   3.564  0.8083  0.0747  0.0639
 5305SOL    HW227552   3.835   4.115   3.640 -0.0547 -0.2438 -0.6226
 5306SOL     OW27553   0.870   3.739   7.610 -0.2567 -0.0871 -0.3777
 5306SOL    HW127554   0.907   3.797   7.544 -2.3624  2.2192  0.4770
 5306SOL    HW227555   0.947   3.716   7.663 -0.6253 -1.2046 -0.3075
 5307SOL     OW27556   0.496   1.723  16.336  0.1398  0.1690  0.4825
 5307SOL    HW127557   0.437   1.664  16.383  0.0638  0.5646  0.8828
 5307SOL    HW227558   0.439   1.798  16.313  0.6096 -0.1442 -1.7382
 5308SOL     OW27559   2.660   3.490   4.828  0.0281  0.0327 -0.0790
 5308SOL    HW127560   2.686   3.398   4.817  0.4927 -0.0590  1.7322
 5308SOL    HW227561   2.613   3.480   4.911  0.5791 -1.0998  0.0992
 5309SOL     OW27562   1.045   1.297   4.241  0.2719 -0.2866 -0.2812
 5309SOL    HW127563   1.045   1.208   4.206  0.2047 -0.5197  0.3159
 5309SOL    HW227564   0.963   1.292   4.291  0.7201  0.2571  0.5191
 5310SOL     OW27565   2.641   4.429  16.550  0.1978  0.9630 -0.5123
 5310SOL    HW127566   2.555   4.471  16.557 -0.1538  0.1427  0.1188
 5310SOL    HW227567   2.697   4.499  16.583  0.3239  0.0243  1.2834
 5311SOL     OW27568   1.833   0.035   4.699  0.3809 -0.2379 -0.5422
 5311SOL    HW127569   1.798   0.061   4.613  0.0890  0.4123 -0.2280
 5311SOL    HW227570   1.908   4.716   4.679 -1.7918 -3.2887 -0.1504
 5312SOL     OW27571   0.727   4.423  17.203  0.2009  0.3779  0.3302
 5312SOL    HW127572   0.786   4.465  17.140  1.6126 -1.6020  0.3519
 5312SOL    HW227573   0.644   4.459  17.173 -1.2774 -1.7334  1.9077
 5313SOL     OW27574   1.973   1.955  11.036 -0.7710 -0.2490  0.6260
 5313SOL    HW127575   1.905   1.892  11.058 -2.0229 -0.2051 -3.1298
 5313SOL    HW227576   2.018   1.987  11.114  1.1058 -0.6135 -0.2783
 5314SOL     OW27577   2.338   4.137   4.903 -0.1776  0.1835 -0.3035
 5314SOL    HW127578   2.424   4.095   4.898 -0.8304 -1.0139 -1.6257
 5314SOL    HW227579   2.281   4.063   4.925 -0.8132  1.0309  0.9013
 5315SOL     OW27580   1.324   3.796   6.959  0.3373  0.2255 -0.0010
 5315SOL    HW127581   1.360   3.885   6.962  1.5168 -0.1352 -3.7375
 5315SOL    HW227582   1.295   3.789   6.868 -1.0818  0.2087  0.4529
 5316SOL     OW27583   2.807   1.643  13.303  0.1488  0.2263  0.6194
 5316SOL    HW127584   2.891   1.662  13.344  0.1413  0.4326  0.5375
 5316SOL    HW227585   2.761   1.603  13.377 -0.5862 -0.6249 -0.3014
 5317SOL     OW27586   3.514   3.656  12.657 -0.5441  0.6880  0.1742
 5317SOL    HW127587   3.421   3.653  12.678 -0.4056  0.8135  0.8074
 5317SOL    HW227588   3.552   3.663  12.745  1.9406  0.7075 -0.8875
 5318SOL     OW27589   1.122   3.737   3.397  0.7289  0.0246  0.2453
 5318SOL    HW127590   1.214   3.762   3.403  0.4041  1.1251  0.6808
 5318SOL    HW227591   1.106   3.738   3.303 -0.3676 -0.8139  0.4144
 5319SOL     OW27592   2.999   0.555  11.230  0.0699  0.2119 -0.0879
 5319SOL    HW127593   3.068   0.598  11.279 -0.1503 -0.6628  0.9864
 5319SOL    HW227594   3.015   0.466  11.259  0.1251  0.0280 -0.6811
 5320SOL     OW27595   1.008   0.565  10.774  0.1290 -0.4901 -0.4959
 5320SOL    HW127596   1.031   0.478  10.807 -0.9994 -1.1279 -1.3805
 5320SOL    HW227597   1.079   0.625  10.795  0.2716 -1.6645  2.4060
 5321SOL     OW27598   4.697   3.969   3.628 -0.4275 -0.4281 -0.0217
 5321SOL    HW127599   4.653   4.052   3.648  0.7369  0.1934 -0.0487
 5321SOL    HW227600   4.621   3.913   3.616 -0.2532 -1.1350  2.2190
 5322SOL     OW27601   2.068   2.248   7.196  0.3313 -0.3358  0.4997
 5322SOL    HW127602   2.035   2.274   7.282 -0.3049 -0.9519  0.4450
 5322SOL    HW227603   2.040   2.158   7.178 -0.0221  0.2481 -1.9272
 5323SOL     OW27604   0.653   2.827   0.793  0.6208 -0.1270 -0.2772
 5323SOL    HW127605   0.581   2.869   0.745 -0.3478  0.5090  1.7029
 5323SOL    HW227606   0.704   2.909   0.798  1.6096 -0.8400  1.5532
 5324SOL     OW27607   3.027   3.135   6.768  0.2423  0.0609 -0.4647
 5324SOL    HW127608   3.089   3.189   6.720  0.9612  1.3047  1.8735
 5324SOL    HW227609   3.024   3.049   6.725  0.5534  1.1189 -2.5639
 5325SOL     OW27610   1.475   2.134  12.702 -0.0899  0.7536  0.0454
 5325SOL    HW127611   1.425   2.135  12.620 -1.0559  0.2641  0.6179
 5325SOL    HW227612   1.558   2.161  12.663  0.6679 -1.7738 -0.0878
 5326SOL     OW27613   4.642   4.009   3.081 -0.4641 -0.0167  0.2999
 5326SOL    HW127614   4.689   4.084   3.044  1.0866 -2.5125 -2.7480
 5326SOL    HW227615   4.690   3.986   3.161  1.2312  2.1933 -0.0747
 5327SOL     OW27616   2.861   2.201  14.274  0.3534  0.0001 -0.1319
 5327SOL    HW127617   2.913   2.141  14.221 -0.7682  0.4542 -1.7408
 5327SOL    HW227618   2.785   2.149  14.301  1.0326 -0.9637 -0.0507
 5328SOL     OW27619   0.244   0.117   6.436 -0.9550  0.1650  0.2165
 5328SOL    HW127620   0.266   0.061   6.511 -0.8809  2.0885  1.6225
 5328SOL    HW227621   0.328   0.163   6.433 -0.0762 -1.6558 -3.4221
 5329SOL     OW27622   1.096   2.025   7.058  0.1837  0.4869 -0.0746
 5329SOL    HW127623   1.008   2.062   7.063 -0.0986 -0.2146  0.2422
 5329SOL    HW227624   1.131   2.083   6.991 -0.4069  1.4108  0.4171
 5330SOL     OW27625   3.304   2.389   1.763 -0.2751 -0.3846 -0.1488
 5330SOL    HW127626   3.214   2.422   1.764 -0.4429 -0.7933 -1.2544
 5330SOL    HW227627   3.349   2.471   1.782 -1.6473  0.3491 -0.0750
 5331SOL     OW27628   3.185   4.428   5.274  0.1361 -0.3178  0.2334
 5331SOL    HW127629   3.236   4.386   5.344 -0.0012 -0.2064  0.3998
 5331SOL    HW227630   3.102   4.440   5.320  0.2090  1.3756 -0.0885
 5332SOL     OW27631   2.664   3.097   1.933  0.1664  0.0552 -0.2449
 5332SOL    HW127632   2.713   3.140   2.003 -0.9038  1.6824 -0.4711
 5332SOL    HW227633   2.697   3.008   1.931 -1.5798 -0.6142  1.2487
 5333SOL     OW27634   4.533   3.467   0.730  0.0532 -0.3104 -0.4221
 5333SOL    HW127635   4.478   3.506   0.662 -0.0140  0.1941 -0.0783
 5333SOL    HW227636   4.620   3.455   0.691  1.0223 -0.6020  1.8677
 5334SOL     OW27637   3.464   4.536   2.736  0.8072 -0.5871  0.0884
 5334SOL    HW127638   3.470   4.621   2.693  0.8753 -1.4181 -1.5191
 5334SOL    HW227639   3.412   4.551   2.815  2.4135  0.9058  0.8780
 5335SOL     OW27640   1.130   0.578   7.224  0.6069  0.3487 -0.4660
 5335SOL    HW127641   1.186   0.578   7.146  1.2901  0.3807  0.0259
 5335SOL    HW227642   1.155   0.662   7.262 -0.6683  0.4134  0.2216
 5336SOL     OW27643   0.335   1.518   5.307 -0.1989  0.2441  0.3494
 5336SOL    HW127644   0.419   1.522   5.261  0.1366 -1.9633  0.7661
 5336SOL    HW227645   0.365   1.468   5.383  0.3858 -0.5463 -0.4100
 5337SOL     OW27646   4.197   2.095   3.229  0.2288  0.6212 -0.1165
 5337SOL    HW127647   4.192   2.000   3.215 -0.5643  0.4002  1.6798
 5337SOL    HW227648   4.292   2.104   3.222  0.3256  0.3873  0.8703
 5338SOL     OW27649   1.192   2.780   3.713  0.2770 -0.2199 -0.6268
 5338SOL    HW127650   1.200   2.717   3.785 -0.9099 -0.0619 -0.3642
 5338SOL    HW227651   1.169   2.716   3.646 -0.6079 -1.0055  0.4272
 5339SOL     OW27652   3.678   4.088   3.084  0.1796 -0.3929  0.3483
 5339SOL    HW127653   3.722   4.058   3.004 -0.9295 -0.7616 -0.1173
 5339SOL    HW227654   3.702   4.020   3.147  0.9575 -0.5929 -0.1565
 5340SOL     OW27655   2.968   4.197  17.370 -0.1845  0.2285  0.2791
 5340SOL    HW127656   2.900   4.213  17.437  0.7585  0.2248  1.2316
 5340SOL    HW227657   2.922   4.243  17.300  1.7061 -2.3279 -2.6277
 5341SOL     OW27658   4.256   4.612   7.333 -0.1845 -0.9409  0.4245
 5341SOL    HW127659   4.177   4.570   7.368 -0.6720 -0.9945 -0.7662
 5341SOL    HW227660   4.318   4.544   7.360 -1.2434 -2.4723 -1.0315
 5342SOL     OW27661   2.425   1.457   2.200 -0.3753 -0.3351 -0.3871
 5342SOL    HW127662   2.371   1.536   2.195 -1.0686 -0.8142 -0.5241
 5342SOL    HW227663   2.439   1.452   2.294 -0.1861  2.8722 -0.2308
 5343SOL     OW27664   2.549   1.279   3.289  0.2440 -0.0413 -0.2928
 5343SOL    HW127665   2.598   1.347   3.241  1.7372  1.2462  3.0182
 5343SOL    HW227666   2.612   1.213   3.316  0.3269 -0.1409 -0.7275
 5344SOL     OW27667   1.416   2.189   9.758 -0.4226  0.7374  0.1318
 5344SOL    HW127668   1.509   2.192   9.737 -0.7900 -0.6203 -1.7315
 5344SOL    HW227669   1.383   2.249   9.692  0.9997 -0.8970 -2.0613
 5345SOL     OW27670   4.190   1.761   2.426  0.4059 -0.0784 -0.4141
 5345SOL    HW127671   4.271   1.737   2.383 -0.2650 -0.3028 -1.5448
 5345SOL    HW227672   4.218   1.847   2.457 -0.4231  0.5925 -1.5400
 5346SOL     OW27673   3.333   1.930   4.043  0.2424 -0.0528 -0.7859
 5346SOL    HW127674   3.367   1.862   4.101  3.8448  0.4289 -2.3639
 5346SOL    HW227675   3.416   1.975   4.028 -0.0500  0.7142 -0.1574
 5347SOL     OW27676   2.331   1.992   1.030 -0.5666  0.4572  0.1735
 5347SOL    HW127677   2.330   2.074   1.078  0.6688  0.9477 -0.6567
 5347SOL    HW227678   2.354   2.027   0.944 -3.5202  0.2361 -0.7385
 5348SOL     OW27679   4.240   2.266   8.175 -0.1340 -0.1526 -0.0951
 5348SOL    HW127680   4.191   2.206   8.120 -1.8785  3.3600 -2.3912
 5348SOL    HW227681   4.322   2.289   8.130 -1.0901 -0.7626 -2.1259
 5349SOL     OW27682   3.726   2.783   6.328  0.1355 -0.7501 -0.1475
 5349SOL    HW127683   3.635   2.755   6.328 -0.1778  0.2690 -1.5483
 5349SOL    HW227684   3.727   2.877   6.314 -1.7467 -0.2714  3.1176
 5350SOL     OW27685   4.349   1.663  15.577  0.4480  0.1905  0.0106
 5350SOL    HW127686   4.340   1.585  15.523 -2.0523  1.0197 -0.7777
 5350SOL    HW227687   4.422   1.638  15.635 -1.4794 -1.2942  1.8154
 5351SOL     OW27688   3.028   3.951  11.183 -0.4879  0.1349 -0.3073
 5351SOL    HW127689   2.966   3.989  11.246  0.2005  1.2723 -0.3137
 5351SOL    HW227690   3.066   4.033  11.152  0.3765 -0.3408 -0.4920
 5352SOL     OW27691   3.297   3.330   7.196 -0.2624 -0.2067 -0.0228
 5352SOL    HW127692   3.265   3.377   7.119 -1.0040  1.1846  1.1332
 5352SOL    HW227693   3.329   3.245   7.166  0.7320  0.8490 -1.9439
 5353SOL     OW27694   1.427   4.601   7.408  0.1684 -0.4395 -0.3896
 5353SOL    HW127695   1.424   4.510   7.438 -0.5704 -0.9736 -2.0666
 5353SOL    HW227696   1.337   4.627   7.427 -0.1512  0.7288 -3.4772
 5354SOL     OW27697   0.549   1.858  11.951  0.3378 -1.0206 -0.4195
 5354SOL    HW127698   0.572   1.927  11.890 -1.9957  0.9674  0.9555
 5354SOL    HW227699   0.490   1.810  11.893 -1.5911  3.5886 -2.2364
 5355SOL     OW27700   3.370   2.746   1.675 -0.0911 -0.3433 -0.1238
 5355SOL    HW127701   3.462   2.770   1.665  0.3125 -1.0263  2.0345
 5355SOL    HW227702   3.322   2.825   1.650 -2.1539 -1.6433 -0.2408
 5356SOL     OW27703   2.536   3.284  16.525  0.3031  0.1139 -0.0439
 5356SOL    HW127704   2.608   3.326  16.478 -1.4531  0.0483 -2.8118
 5356SOL    HW227705   2.463   3.317  16.473  0.7059  1.6849  0.3917
 5357SOL     OW27706   3.062   4.386   4.544 -1.1271  0.2486  0.3664
 5357SOL    HW127707   3.051   4.479   4.564 -1.1722  0.3888 -0.3220
 5357SOL    HW227708   3.005   4.351   4.614 -0.4250 -2.2218 -0.3064
 5358SOL     OW27709   0.453   4.050   6.597  0.7302  0.5616 -0.5029
 5358SOL    HW127710   0.443   4.145   6.591  1.5643  0.7269  0.7969
 5358SOL    HW227711   0.457   4.040   6.692 -1.3981 -1.6592 -0.6511
 5359SOL     OW27712   3.382   2.337   2.597 -0.0312 -0.5003  0.0986
 5359SOL    HW127713   3.471   2.370   2.595 -0.6669  1.3242  1.6339
 5359SOL    HW227714   3.361   2.330   2.504  0.7907  1.9043 -0.2690
 5360SOL     OW27715   3.663   1.975   3.367  0.2665 -0.7851 -0.3907
 5360SOL    HW127716   3.607   2.046   3.400  0.7139 -0.2048 -0.8959
 5360SOL    HW227717   3.720   2.025   3.309 -1.2545  0.7782 -0.5398
 5361SOL     OW27718   3.969   1.383   3.162 -0.0993 -0.0795 -0.0486
 5361SOL    HW127719   3.880   1.350   3.173 -0.3120  0.7649  0.8479
 5361SOL    HW227720   4.007   1.301   3.134  0.0055 -0.4703  1.2156
 5362SOL     OW27721   1.506   4.431  15.704 -0.6401 -0.1205 -0.2432
 5362SOL    HW127722   1.441   4.368  15.673 -1.5602  1.1731 -0.9588
 5362SOL    HW227723   1.491   4.509  15.651  1.8152  0.5430  0.0631
 5363SOL     OW27724   4.245   3.923   7.159 -0.1653 -0.1815  0.4765
 5363SOL    HW127725   4.310   3.864   7.121 -1.6529 -1.2286 -0.4578
 5363SOL    HW227726   4.184   3.853   7.183 -0.3339  0.0122  0.6132
 5364SOL     OW27727   0.128   0.735   1.402 -0.2259  0.0179  0.0501
 5364SOL    HW127728   0.221   0.712   1.405  0.1907  1.6413 -0.4371
 5364SOL    HW227729   0.105   0.756   1.493 -0.2327 -2.3806  0.6099
 5365SOL     OW27730   2.377   3.071   1.872 -0.1096  0.4017 -0.2395
 5365SOL    HW127731   2.329   3.078   1.954  2.0645 -2.9162  1.2822
 5365SOL    HW227732   2.469   3.075   1.897 -0.3848  1.5113  0.6072
 5366SOL     OW27733   3.005   2.637   3.954  0.1116 -0.1199  0.0975
 5366SOL    HW127734   3.040   2.723   3.976  0.2675  0.1382 -1.1183
 5366SOL    HW227735   3.009   2.638   3.858  2.1324  0.7484  0.1876
 5367SOL     OW27736   2.654   3.172  10.985 -0.1744  0.0072 -0.3330
 5367SOL    HW127737   2.682   3.264  10.978  1.4976 -0.4628  0.2605
 5367SOL    HW227738   2.644   3.147  11.077  2.4108 -0.5441 -0.1926
 5368SOL     OW27739   1.621   2.770   6.039 -0.1238 -0.0705  0.0694
 5368SOL    HW127740   1.589   2.753   5.950 -0.0158  1.0448 -0.1865
 5368SOL    HW227741   1.572   2.849   6.061  0.3829  0.3134 -0.1744
 5369SOL     OW27742   1.247   1.098  11.313  0.3283 -0.1653  0.0200
 5369SOL    HW127743   1.329   1.103  11.361  1.2469 -1.1645 -1.4276
 5369SOL    HW227744   1.275   1.148  11.237 -1.8200  0.2565 -0.4959
 5370SOL     OW27745   4.707   1.394  15.937 -0.4002  0.1024  0.4614
 5370SOL    HW127746   4.686   1.359  15.850  1.3744 -0.9225  0.4423
 5370SOL    HW227747   4.621   1.390  15.979  0.2023 -0.2363  1.6310
 5371SOL     OW27748   1.157   1.388   3.177 -0.1586 -0.3203 -0.4452
 5371SOL    HW127749   1.153   1.304   3.224  1.1583 -0.4841 -0.6214
 5371SOL    HW227750   1.253   1.394   3.173 -0.2134  1.8015  1.5343
 5372SOL     OW27751   2.379   0.857   5.133 -0.4685 -0.4862  0.2677
 5372SOL    HW127752   2.311   0.801   5.169 -0.8402  0.0366  0.3765
 5372SOL    HW227753   2.363   0.841   5.040  1.5338 -0.8115 -0.0198
 5373SOL     OW27754   0.664   3.018   7.123 -0.4293  0.0608 -0.0594
 5373SOL    HW127755   0.669   3.099   7.175 -0.1479  1.3534 -2.1312
 5373SOL    HW227756   0.655   2.950   7.191 -0.9423 -0.5150 -0.7094
 5374SOL     OW27757   1.285   3.865   1.647 -0.6632 -0.2290 -0.2233
 5374SOL    HW127758   1.346   3.915   1.592 -0.7668  1.1554  0.9372
 5374SOL    HW227759   1.202   3.898   1.615  0.0289  1.3705 -0.3713
 5375SOL     OW27760   3.614   1.157  10.121  0.3615 -0.3382 -0.9428
 5375SOL    HW127761   3.598   1.085  10.182  1.8165  1.1548  1.2004
 5375SOL    HW227762   3.692   1.200  10.157 -0.5630 -0.5192  1.2388
 5376SOL     OW27763   4.011   3.195  13.321  0.6795 -0.3124 -0.3832
 5376SOL    HW127764   4.063   3.137  13.376  0.2952 -1.8016 -1.6001
 5376SOL    HW227765   4.056   3.276  13.346 -2.3072  0.9740  0.8415
 5377SOL     OW27766   1.381   1.554   5.422 -0.1189 -0.6992 -0.4963
 5377SOL    HW127767   1.327   1.533   5.345 -2.0212 -0.7922  0.8551
 5377SOL    HW227768   1.465   1.563   5.377 -0.4422 -0.3462 -1.0454
 5378SOL     OW27769   0.205   2.956  11.164  0.7545  0.0644  0.3545
 5378SOL    HW127770   0.207   2.920  11.075  2.2620 -0.0027  0.4095
 5378SOL    HW227771   0.124   3.007  11.166 -0.1869 -1.4028 -0.4830
 5379SOL     OW27772   0.608   3.065   0.256  0.3641  0.2501  0.0702
 5379SOL    HW127773   0.651   3.001   0.199 -0.1442  0.3082 -0.3776
 5379SOL    HW227774   0.570   2.999   0.314 -1.5973  0.4881 -0.9596
 5380SOL     OW27775   3.737   1.741   5.448 -0.0883  0.1308  0.1357
 5380SOL    HW127776   3.744   1.646   5.462 -3.0520 -0.1198 -0.1761
 5380SOL    HW227777   3.652   1.752   5.406 -0.6759 -1.3984  0.9140
 5381SOL     OW27778   1.464   3.667   3.002 -0.0817  0.0567  0.5740
 5381SOL    HW127779   1.497   3.675   3.092  0.7799 -2.0798  0.4372
 5381SOL    HW227780   1.437   3.576   2.990 -0.5505  0.1654  0.8243
 5382SOL     OW27781   4.262   1.860   1.060  0.4925 -0.1393  0.0127
 5382SOL    HW127782   4.219   1.927   1.111  0.2289  0.7730 -1.4006
 5382SOL    HW227783   4.304   1.908   0.988  0.2760 -2.8718 -1.9510
 5383SOL     OW27784   3.011   1.289   2.215  0.6662  0.3124 -0.3910
 5383SOL    HW127785   2.967   1.224   2.269  1.5966 -0.8045 -0.9810
 5383SOL    HW227786   3.078   1.243   2.164  0.6215 -0.3006  0.1061
 5384SOL     OW27787   4.140   1.818   4.813 -0.1341  0.2276  0.3160
 5384SOL    HW127788   4.097   1.743   4.854 -0.6111 -0.8925 -2.1904
 5384SOL    HW227789   4.213   1.777   4.767 -0.7652  1.7443 -2.0762
 5385SOL     OW27790   1.604   3.525   5.228  0.2593  0.0486 -0.5437
 5385SOL    HW127791   1.559   3.505   5.310  1.0631 -1.6078 -0.5028
 5385SOL    HW227792   1.652   3.443   5.220  0.9964  0.6820 -2.5250
 5386SOL     OW27793   0.198   3.028   0.801  0.1817  0.1214 -0.1642
 5386SOL    HW127794   0.131   3.070   0.746 -0.4245  2.1428  2.0943
 5386SOL    HW227795   0.209   3.101   0.862 -2.1246 -1.9415  2.6836
 5387SOL     OW27796   0.116   3.036  16.815  0.2645  0.2285  0.2028
 5387SOL    HW127797   0.172   3.082  16.753  1.7660 -2.5466 -0.4760
 5387SOL    HW227798   0.113   3.095  16.890  2.7547  0.5519  0.0355
 5388SOL     OW27799   2.760   1.168  11.975 -0.0813  0.2538  0.0344
 5388SOL    HW127800   2.818   1.096  11.998  1.9357  1.6537 -0.6893
 5388SOL    HW227801   2.677   1.120  11.982  0.6571 -1.0693 -0.2574
 5389SOL     OW27802   1.998   3.063  12.293 -0.8629 -0.2547 -0.3561
 5389SOL    HW127803   1.953   3.103  12.368  0.6322  0.0069  0.3912
 5389SOL    HW227804   2.003   2.976  12.334 -1.7382 -1.2150 -2.2830
 5390SOL     OW27805   3.514   3.953   1.940  0.1431  0.6252 -0.3497
 5390SOL    HW127806   3.483   3.940   2.029  0.3713  0.6794 -0.2633
 5390SOL    HW227807   3.542   3.861   1.932  1.2606  1.2920 -4.0039
 5391SOL     OW27808   3.503   3.337   8.975  0.3432 -0.1434  0.2017
 5391SOL    HW127809   3.441   3.284   8.925  0.2471  2.1011 -2.0245
 5391SOL    HW227810   3.485   3.309   9.065 -0.4970  0.0995  0.1001
 5392SOL     OW27811   0.440   2.754   4.188 -0.5353 -0.0230 -0.4285
 5392SOL    HW127812   0.383   2.779   4.115 -0.1873  2.7520  0.2556
 5392SOL    HW227813   0.388   2.765   4.268 -0.4590 -0.9154 -0.2490
 5393SOL     OW27814   3.904   4.595   7.872  0.5490  0.2658  0.2175
 5393SOL    HW127815   3.968   4.659   7.905  0.2345  1.4332 -1.4426
 5393SOL    HW227816   3.954   4.513   7.871 -1.1351 -0.7474 -0.6349
 5394SOL     OW27817   0.045   3.959   3.340  0.5268 -0.4243  0.3801
 5394SOL    HW127818   0.047   3.881   3.285  0.9796  0.4502 -0.8535
 5394SOL    HW227819   0.099   3.938   3.417 -0.5393 -2.1810  0.6492
 5395SOL     OW27820   3.117   0.462   8.443  0.4189 -0.0038 -0.1237
 5395SOL    HW127821   3.212   0.476   8.444 -0.0301  2.9228  1.9858
 5395SOL    HW227822   3.098   0.443   8.534  1.6521 -0.5609  0.0053
 5396SOL     OW27823   0.649   1.643   5.810  0.0976 -0.0071  0.1838
 5396SOL    HW127824   0.652   1.557   5.768  1.6265 -0.3040  0.9351
 5396SOL    HW227825   0.721   1.639   5.872  0.2954 -0.2981 -0.0656
 5397SOL     OW27826   4.092   3.778  11.707  0.2950 -0.0728 -0.0814
 5397SOL    HW127827   4.067   3.783  11.615 -2.6702 -0.1028  0.7374
 5397SOL    HW227828   4.123   3.688  11.715  1.5811  0.3824  0.0879
 5398SOL     OW27829   1.224   2.542   0.955 -0.1462  0.0075  0.2272
 5398SOL    HW127830   1.135   2.562   0.926 -0.3083  0.3850  0.9912
 5398SOL    HW227831   1.255   2.632   0.965 -1.4211  0.1420  2.8117
 5399SOL     OW27832   0.763   1.381   0.866  0.1797 -0.0193 -0.1057
 5399SOL    HW127833   0.774   1.294   0.904 -0.9563 -0.5052 -0.8531
 5399SOL    HW227834   0.824   1.430   0.920  1.3259 -1.7225  0.1456
 5400SOL     OW27835   0.021   2.045   1.713 -0.0338 -0.6770 -0.1301
 5400SOL    HW127836   0.102   2.085   1.681 -0.0124 -0.9324 -0.4020
 5400SOL    HW227837   4.701   2.044   1.635 -2.2888 -0.0539  1.4873
 5401SOL     OW27838   0.174   0.794   8.668  0.1871 -0.4740  0.2402
 5401SOL    HW127839   0.096   0.784   8.614 -1.1901 -0.1274  2.1471
 5401SOL    HW227840   0.173   0.720   8.729  1.7020 -0.3494  0.4175
 5402SOL     OW27841   2.702   4.407   8.820 -0.2412 -0.5474  0.0153
 5402SOL    HW127842   2.629   4.346   8.807 -0.2825 -0.4823 -0.0510
 5402SOL    HW227843   2.658   4.490   8.803 -0.7645 -0.5680  1.2632
 5403SOL     OW27844   4.523   2.008   5.372 -0.8753 -0.5526 -0.0301
 5403SOL    HW127845   4.501   1.983   5.462  1.3479  0.0452  0.6637
 5403SOL    HW227846   4.587   2.077   5.388  0.2416 -1.0524 -2.3275
 5404SOL     OW27847   0.923   1.313   8.533 -0.2144  0.2303 -0.5143
 5404SOL    HW127848   0.977   1.375   8.485 -2.4471  3.3008  0.9222
 5404SOL    HW227849   0.946   1.347   8.619 -3.4247  0.8832  0.0941
 5405SOL     OW27850   3.423   3.776   4.647  0.0178 -0.5647  0.3621
 5405SOL    HW127851   3.464   3.785   4.733 -1.2304  3.1430  0.5697
 5405SOL    HW227852   3.362   3.849   4.654 -0.6244 -0.8878 -2.1284
 5406SOL     OW27853   2.184   1.823   7.199 -0.4176  0.0803 -0.2222
 5406SOL    HW127854   2.196   1.815   7.294  0.2789 -1.1358 -0.4140
 5406SOL    HW227855   2.270   1.854   7.167 -0.5512  0.1313 -0.5314
 5407SOL     OW27856   1.745   1.518   8.274 -0.1224  0.2847  0.1963
 5407SOL    HW127857   1.785   1.459   8.211 -0.9426 -0.7330  0.6238
 5407SOL    HW227858   1.662   1.540   8.230 -0.2504  1.3841  0.9695
 5408SOL     OW27859   4.071   4.333   3.188  0.1097  0.0125 -0.2792
 5408SOL    HW127860   4.124   4.409   3.164  0.7741 -0.6518 -0.9219
 5408SOL    HW227861   3.995   4.367   3.236 -0.1157  1.5454 -1.7527
 5409SOL     OW27862   3.008   4.083   3.720  0.1574  0.8714 -0.6191
 5409SOL    HW127863   2.981   4.093   3.811 -1.1124  2.3615 -1.1576
 5409SOL    HW227864   3.002   4.175   3.692  2.3301  0.9146 -0.9453
 5410SOL     OW27865   0.977   0.617   8.160  0.0421 -0.0238  0.4091
 5410SOL    HW127866   1.033   0.633   8.237  0.9435 -0.7791 -0.0963
 5410SOL    HW227867   1.041   0.618   8.089 -0.7289  0.9648 -0.2652
 5411SOL     OW27868   3.922   3.860   0.728 -0.2314  0.6088  0.4222
 5411SOL    HW127869   3.978   3.802   0.779 -0.4877  0.3661  0.4265
 5411SOL    HW227870   3.974   3.941   0.731 -3.2635  2.6595 -1.7894
 5412SOL     OW27871   0.583   1.921  13.724 -0.9433  0.0716  0.2325
 5412SOL    HW127872   0.660   1.925  13.668 -1.4597  1.5415 -0.3714
 5412SOL    HW227873   0.603   1.843  13.774 -2.5277 -0.4025  0.1197
 5413SOL     OW27874   2.593   2.015   1.883 -0.6276 -0.4551 -0.0290
 5413SOL    HW127875   2.569   2.063   1.804  1.4982  0.3435 -0.1631
 5413SOL    HW227876   2.602   1.925   1.850  0.5057 -0.2602 -0.2414
 5414SOL     OW27877   3.185   1.992   7.554  0.0994  0.2841  0.0845
 5414SOL    HW127878   3.184   1.954   7.466 -0.4714  3.8604 -1.4212
 5414SOL    HW227879   3.221   2.077   7.531 -0.5648  0.4630 -0.2990
 5415SOL     OW27880   1.501   3.113   8.166  0.1428  0.3809  0.1625
 5415SOL    HW127881   1.438   3.145   8.101  0.2908 -1.6311 -0.9917
 5415SOL    HW227882   1.452   3.048   8.217  0.4155 -0.3796 -0.5531
 5416SOL     OW27883   3.601   1.531  14.734  0.3235  0.4697  0.1707
 5416SOL    HW127884   3.507   1.523  14.720 -0.0876  2.1464  2.1068
 5416SOL    HW227885   3.598   1.489  14.820  0.4407  0.9803  0.4196
 5417SOL     OW27886   2.682   1.580   5.229 -0.1761  0.1831 -0.0852
 5417SOL    HW127887   2.771   1.600   5.257  0.1655 -0.5658 -0.6361
 5417SOL    HW227888   2.693   1.490   5.199  3.6919  1.2609 -1.9558
 5418SOL     OW27889   3.338   4.516   0.356  0.3044  0.4626 -0.1186
 5418SOL    HW127890   3.247   4.490   0.340  0.1178  1.0243  0.0045
 5418SOL    HW227891   3.377   4.464   0.286 -0.6745 -1.5849  0.8649
 5419SOL     OW27892   0.349   3.348   5.421  0.0868  0.0584 -0.1402
 5419SOL    HW127893   0.410   3.361   5.348  0.5762  4.5131  1.1195
 5419SOL    HW227894   0.369   3.254   5.425 -1.4390 -0.1919  1.4885
 5420SOL     OW27895   1.766   4.027  12.564  0.5325  0.1082  0.1217
 5420SOL    HW127896   1.811   4.002  12.645 -0.6394  2.3608  1.4989
 5420SOL    HW227897   1.750   4.121  12.577  0.7458  0.1419  0.1390
 5421SOL     OW27898   2.178   0.787   6.303 -0.0040  0.4877 -0.1565
 5421SOL    HW127899   2.190   0.801   6.397  0.2873  0.9803 -0.2698
 5421SOL    HW227900   2.207   0.875   6.277 -0.5088  0.6157 -0.2942
 5422SOL     OW27901   1.583   1.179   1.886  0.3447  0.2015 -0.2444
 5422SOL    HW127902   1.559   1.093   1.921  0.2886 -0.0222 -0.8390
 5422SOL    HW227903   1.584   1.236   1.963  0.4355 -1.0292  0.6819
 5423SOL     OW27904   3.449   1.427   6.966 -0.1981  0.0578 -0.4527
 5423SOL    HW127905   3.362   1.461   6.989  0.0436  0.1067  0.3801
 5423SOL    HW227906   3.501   1.504   6.988  0.9809 -0.8109 -0.2206
 5424SOL     OW27907   1.831   1.236  17.059  0.1193  0.3658  0.1443
 5424SOL    HW127908   1.855   1.321  17.021 -1.1889 -0.2385 -2.0610
 5424SOL    HW227909   1.868   1.181  16.990 -0.6433 -1.1594  0.9592
 5425SOL     OW27910   4.457   0.962   6.893 -0.0469 -0.7324 -0.1990
 5425SOL    HW127911   4.514   1.031   6.858 -1.2993  0.7594  0.6831
 5425SOL    HW227912   4.413   0.997   6.970  0.9433  0.9702 -0.4173
 5426SOL     OW27913   3.059   3.359   2.715  0.0961  0.3836  0.6362
 5426SOL    HW127914   3.104   3.315   2.643 -0.0907 -1.3754  1.5912
 5426SOL    HW227915   2.987   3.405   2.671  0.4457 -0.0844 -0.4446
 5427SOL     OW27916   3.881   4.673   6.500 -0.5072 -0.4324  0.3140
 5427SOL    HW127917   3.902   0.026   6.528  1.5646 -0.0195 -2.6185
 5427SOL    HW227918   3.791   4.696   6.477  0.3071  0.3102 -2.1086
 5428SOL     OW27919   2.837   0.991   7.077 -0.4668  0.4500  0.7522
 5428SOL    HW127920   2.850   0.900   7.053  1.4863  0.1955  2.7518
 5428SOL    HW227921   2.919   1.033   7.052 -0.2341 -0.7176 -0.4302
 5429SOL     OW27922   1.572   0.350   5.606  0.3612 -0.3663 -0.1266
 5429SOL    HW127923   1.512   0.303   5.549 -1.1030 -1.6682  2.4710
 5429SOL    HW227924   1.590   0.279   5.668 -0.0662 -0.1845  0.2078
 5430SOL     OW27925   2.225   3.116   0.347 -0.0877  0.2267  0.3537
 5430SOL    HW127926   2.290   3.067   0.398  1.5750  1.1761 -0.8554
 5430SOL    HW227927   2.148   3.114   0.403  0.5369 -0.0088  1.1971
 5431SOL     OW27928   0.004   1.022  11.625  0.3572  0.7217 -0.0378
 5431SOL    HW127929   4.690   0.963  11.568 -2.7188  2.8077  0.4612
 5431SOL    HW227930   0.046   0.966  11.690  0.1824  0.9186  0.2460
 5432SOL     OW27931   1.260   4.454   8.056 -0.1212  0.4372  0.3538
 5432SOL    HW127932   1.306   4.508   7.993 -1.5478 -0.2199 -1.2540
 5432SOL    HW227933   1.325   4.446   8.126  0.9527  0.7406 -0.6220
 5433SOL     OW27934   4.673   1.073   7.903 -0.6958 -0.0932 -0.3554
 5433SOL    HW127935   0.008   1.126   7.939 -2.3616  1.5417  0.5182
 5433SOL    HW227936   4.607   1.078   7.973 -0.2449  2.1514 -0.0897
 5434SOL     OW27937   2.601   2.437   3.189 -0.5915  0.3747  0.0377
 5434SOL    HW127938   2.512   2.461   3.163 -0.5766  0.5139  0.1186
 5434SOL    HW227939   2.653   2.502   3.143  1.9553  0.9328  3.7092
 5435SOL     OW27940   2.116   3.457   1.645 -0.8669 -0.6739 -0.5427
 5435SOL    HW127941   2.068   3.491   1.721  0.8844 -3.5638  1.8649
 5435SOL    HW227942   2.101   3.366   1.671 -0.4189  0.6946  4.6299
 5436SOL     OW27943   2.204   0.783   7.592  0.2131  0.3687  0.2284
 5436SOL    HW127944   2.293   0.777   7.558 -0.5391 -0.4642 -1.6277
 5436SOL    HW227945   2.166   0.719   7.531 -0.2616  0.6934  0.1824
 5437SOL     OW27946   2.859   4.069   3.937  0.2808 -0.3598 -0.4859
 5437SOL    HW127947   2.823   4.070   4.026 -0.7146  0.8985 -0.8989
 5437SOL    HW227948   2.809   4.130   3.884  0.3890  0.6198  0.5296
 5438SOL     OW27949   0.420   1.508   6.211 -0.2125  0.1144  0.0077
 5438SOL    HW127950   0.343   1.479   6.163 -1.1774  0.9108  1.0543
 5438SOL    HW227951   0.449   1.574   6.149 -2.1269  1.5330  0.6193
 5439SOL     OW27952   1.943   0.926   2.097  0.2315  0.6084  0.0932
 5439SOL    HW127953   1.955   1.012   2.136 -1.3367 -0.2246  2.3937
 5439SOL    HW227954   1.963   0.872   2.174  1.9103  2.4041  0.9167
 5440SOL     OW27955   3.528   3.012   1.885  0.1772 -0.5442  0.3618
 5440SOL    HW127956   3.465   3.075   1.922  2.5049  1.0042  1.7029
 5440SOL    HW227957   3.483   2.956   1.821 -0.0628  0.0201  0.0313
 5441SOL     OW27958   1.792   4.552   8.635 -0.4126 -0.0660  0.2294
 5441SOL    HW127959   1.729   4.515   8.574  0.6397 -0.7413 -0.4502
 5441SOL    HW227960   1.742   4.603   8.699  0.9769  1.7850 -0.1700
 5442SOL     OW27961   3.455   3.900   6.913  0.4941  0.1215  0.1069
 5442SOL    HW127962   3.542   3.891   6.951  0.5623 -1.0378 -0.3098
 5442SOL    HW227963   3.474   3.980   6.863  0.6653  0.5177  0.8089
 5443SOL     OW27964   1.283   4.165   5.679  0.9203  0.3517 -0.2767
 5443SOL    HW127965   1.337   4.120   5.614  1.5910 -1.3959  1.5019
 5443SOL    HW227966   1.204   4.112   5.666  1.4059 -0.2061 -1.0242
 5444SOL     OW27967   2.867   4.399   4.722  0.3734 -0.1684  0.4317
 5444SOL    HW127968   2.783   4.355   4.736 -0.1217  0.9905  1.1182
 5444SOL    HW227969   2.872   4.458   4.797 -0.0627 -2.0311  1.9391
 5445SOL     OW27970   2.658   2.163   5.029  0.2339 -0.3430  0.0807
 5445SOL    HW127971   2.621   2.246   5.000  0.8767 -1.0345 -2.6297
 5445SOL    HW227972   2.732   2.152   4.970  1.1119  2.4358  0.6584
 5446SOL     OW27973   3.346   0.100   6.053  0.0732  0.2500 -0.2817
 5446SOL    HW127974   3.339   0.078   6.146 -1.0141 -0.7587 -0.5938
 5446SOL    HW227975   3.303   0.186   6.056 -2.4801 -1.0015 -0.3749
 5447SOL     OW27976   0.070   2.269   1.923 -0.6202 -0.5670 -0.1254
 5447SOL    HW127977   0.109   2.208   1.861 -0.3229  0.8683 -1.3544
 5447SOL    HW227978   4.720   2.281   1.884  0.6479  4.2154 -1.4523
 5448SOL     OW27979   1.343   2.143   4.950  0.2676 -0.3692  0.0315
 5448SOL    HW127980   1.409   2.167   4.884  0.3289  0.9313  0.5649
 5448SOL    HW227981   1.316   2.054   4.929  1.2808 -0.6396 -0.1408
 5449SOL     OW27982   0.483   1.219   4.673 -0.0378  0.0431  0.1823
 5449SOL    HW127983   0.533   1.140   4.691 -0.1772 -0.1038 -0.0842
 5449SOL    HW227984   0.538   1.290   4.706 -0.2723  0.7191 -0.8740
 5450SOL     OW27985   1.786   3.753   9.489 -0.3962  0.3639  0.5431
 5450SOL    HW127986   1.789   3.701   9.569 -0.0835 -2.1922 -1.1410
 5450SOL    HW227987   1.877   3.784   9.493 -1.0027  2.6197 -2.3383
 5451SOL     OW27988   3.210   2.579   2.389  0.1190 -0.3278 -0.1268
 5451SOL    HW127989   3.234   2.566   2.297 -1.3050 -2.3402 -0.2168
 5451SOL    HW227990   3.180   2.670   2.392  1.4467  0.1779 -1.9393
 5452SOL     OW27991   1.465   0.941  15.337  0.9803  0.4966 -0.0676
 5452SOL    HW127992   1.544   0.888  15.349  1.1400  0.2432 -2.3443
 5452SOL    HW227993   1.425   0.896  15.263 -0.7885  0.7367  0.7555
 5453SOL     OW27994   2.082   3.167  11.599 -0.1237 -0.1661  0.2562
 5453SOL    HW127995   2.089   3.259  11.573 -2.1453 -0.3992 -1.1137
 5453SOL    HW227996   1.999   3.132  11.567  0.0256  0.6880 -1.0721
 5454SOL     OW27997   0.088   3.699   3.212  0.1910 -0.2803  0.4192
 5454SOL    HW127998   0.026   3.626   3.206  0.3267 -0.1454 -2.6196
 5454SOL    HW227999   0.153   3.687   3.142 -1.6709 -0.0082 -1.3637
 5455SOL     OW28000   2.962   1.873  14.867 -0.0821 -0.0669  0.0386
 5455SOL    HW128001   3.000   1.945  14.917  0.8646 -1.0414  0.7359
 5455SOL    HW228002   2.905   1.837  14.935 -0.0788 -1.3950 -0.6707
 5456SOL     OW28003   2.786   4.029   4.571  0.3247  0.0601 -0.0249
 5456SOL    HW128004   2.696   4.063   4.565 -0.0245 -0.5470  1.8184
 5456SOL    HW228005   2.820   4.082   4.499  2.1701  1.1157  1.6507
 5457SOL     OW28006   0.751   1.891  13.281  0.4348 -0.5598 -0.0267
 5457SOL    HW128007   0.713   1.969  13.320 -2.7404 -1.4897 -1.2310
 5457SOL    HW228008   0.844   1.906  13.301  0.3344 -1.3852  1.0671
 5458SOL     OW28009   3.505   3.096   0.667 -0.3522 -0.0557  0.5933
 5458SOL    HW128010   3.446   3.171   0.666 -2.8803 -2.0361  0.4938
 5458SOL    HW228011   3.571   3.120   0.602 -0.5873 -1.0241 -0.0050
 5459SOL     OW28012   4.193   1.694  14.899 -0.0207  0.2342  0.1836
 5459SOL    HW128013   4.255   1.763  14.873 -1.3545  2.2016  2.2149
 5459SOL    HW228014   4.109   1.736  14.879 -0.6038 -1.3879 -0.7213
 5460SOL     OW28015   0.266   4.479   3.846 -0.0837  0.4215  0.5177
 5460SOL    HW128016   0.312   4.517   3.771 -2.6324  0.5602 -0.9774
 5460SOL    HW228017   0.334   4.441   3.901 -0.3290  0.7491  1.0438
 5461SOL     OW28018   1.737   2.204  15.597  0.0669  0.0570  0.1828
 5461SOL    HW128019   1.701   2.267  15.535 -1.4831 -0.1235  0.9010
 5461SOL    HW228020   1.693   2.230  15.678 -2.0142  0.6799 -1.1478
 5462SOL     OW28021   0.480   1.433  16.521 -0.7263 -0.1716  0.4131
 5462SOL    HW128022   0.477   1.346  16.559  2.4970  0.3617  1.8539
 5462SOL    HW228023   0.388   1.456  16.534 -1.1822 -0.7258 -1.7095
 5463SOL     OW28024   3.078   0.387   8.742 -0.1537  0.0188 -0.2648
 5463SOL    HW128025   3.126   0.352   8.816  0.5504 -0.3763 -0.9074
 5463SOL    HW228026   3.027   0.307   8.727 -0.1509 -0.3277  1.5788
 5464SOL     OW28027   2.552   1.633   1.391  0.0983 -0.4529  0.3229
 5464SOL    HW128028   2.473   1.677   1.360  1.1021  0.7497 -0.5264
 5464SOL    HW228029   2.598   1.607   1.312 -0.9167  2.3526 -1.1760
 5465SOL     OW28030   0.114   3.774   6.190 -0.5087  0.0880  0.0461
 5465SOL    HW128031   0.020   3.758   6.184 -0.1683 -1.0311 -2.1381
 5465SOL    HW228032   0.115   3.845   6.255  0.1156 -1.1086  1.3544
 5466SOL     OW28033   1.875   1.810   3.478 -0.2724 -0.1045  0.4877
 5466SOL    HW128034   1.891   1.896   3.439  0.4390  0.7771  2.6984
 5466SOL    HW228035   1.800   1.770   3.435 -0.9283  0.5580  1.0050
 5467SOL     OW28036   1.308   2.599   6.684  0.3059 -0.6341  0.6919
 5467SOL    HW128037   1.309   2.592   6.780 -1.1446  1.0043  0.8192
 5467SOL    HW228038   1.401   2.579   6.673  1.0712  2.1097  2.1193
 5468SOL     OW28039   1.917   2.565   8.361 -0.3746  0.6879 -0.2125
 5468SOL    HW128040   1.851   2.611   8.413 -1.2140  0.8287 -1.3830
 5468SOL    HW228041   1.862   2.500   8.317 -0.4042  1.0303 -0.6932
 5469SOL     OW28042   2.317   2.247   1.157 -0.2628 -0.0183 -0.1689
 5469SOL    HW128043   2.398   2.276   1.199 -0.8144  0.1496  0.7731
 5469SOL    HW228044   2.258   2.317   1.184 -0.8906 -0.2746 -0.8806
 5470SOL     OW28045   2.565   1.351   5.517 -0.5647 -0.0165 -0.2406
 5470SOL    HW128046   2.513   1.414   5.467 -0.8312  0.2848  0.4288
 5470SOL    HW228047   2.499   1.323   5.579 -0.4269  0.0821 -0.0502
 5471SOL     OW28048   2.332   0.050   9.177  0.3908  0.7724 -0.3234
 5471SOL    HW128049   2.293   0.028   9.261  2.7088  0.2918  0.6160
 5471SOL    HW228050   2.280   4.736   9.114  0.9748  0.8080 -0.8407
 5472SOL     OW28051   3.144   0.218   7.230 -0.7978 -0.5846  0.0618
 5472SOL    HW128052   3.071   0.259   7.276 -2.6528 -2.4392 -1.2361
 5472SOL    HW228053   3.182   0.164   7.299  0.8218  0.1900 -0.2172
 5473SOL     OW28054   1.306   0.717   9.908  0.4661 -0.4865 -0.2950
 5473SOL    HW128055   1.334   0.633   9.943 -0.1529 -0.6868 -0.2695
 5473SOL    HW228056   1.375   0.744   9.848  2.0417 -3.2996  0.2767
 5474SOL     OW28057   4.341   1.542   9.415  0.3582 -0.0123 -0.0609
 5474SOL    HW128058   4.421   1.492   9.430 -0.1388 -0.3697  1.3716
 5474SOL    HW228059   4.280   1.480   9.455  1.2204  0.3226  1.7565
 5475SOL     OW28060   1.272   1.696   3.122 -0.0097 -0.3642 -0.0090
 5475SOL    HW128061   1.347   1.643   3.147 -0.7457 -0.9977  0.8431
 5475SOL    HW228062   1.309   1.784   3.122 -0.8302 -0.0167  1.4684
 5476SOL     OW28063   2.534   2.919   5.638  0.5087 -0.8475 -0.1045
 5476SOL    HW128064   2.440   2.901   5.642  0.1297  1.5714  1.7470
 5476SOL    HW228065   2.518   2.995   5.582 -1.8498 -1.5569 -0.3948
 5477SOL     OW28066   3.994   2.470   2.962 -0.1358 -0.1177 -0.2904
 5477SOL    HW128067   4.011   2.423   3.043  3.2872  0.3655 -0.7216
 5477SOL    HW228068   4.051   2.423   2.901  0.9792 -0.0647  0.7111
 5478SOL     OW28069   0.054   3.907   9.312  0.5317 -0.4198 -0.1004
 5478SOL    HW128070   4.720   3.924   9.375  1.1457  3.4889 -0.4484
 5478SOL    HW228071   0.062   3.994   9.273  1.9665 -0.4160  0.1949
 5479SOL     OW28072   1.614   0.002   8.793 -0.2899 -0.6478  0.3608
 5479SOL    HW128073   1.571   4.667   8.840 -0.5470 -0.9774 -0.3700
 5479SOL    HW228074   1.533   0.046   8.765  0.8718  0.1972 -1.6895
 5480SOL     OW28075   3.416   0.661  15.431  0.7220  1.1166 -0.4233
 5480SOL    HW128076   3.487   0.683  15.491  0.7688 -0.9078  0.2850
 5480SOL    HW228077   3.346   0.635  15.491  0.2865  0.5571 -1.1756
 5481SOL     OW28078   3.644   3.196   0.895 -0.3714 -0.3726  0.8187
 5481SOL    HW128079   3.612   3.105   0.894 -0.2028 -0.4126 -0.7406
 5481SOL    HW228080   3.694   3.186   0.815 -2.0244 -1.0888 -0.1380
 5482SOL     OW28081   3.131   2.497  16.857  0.0832  0.8310  0.2322
 5482SOL    HW128082   3.124   2.590  16.833 -0.3983  1.1309  1.5475
 5482SOL    HW228083   3.161   2.455  16.776 -0.5128 -0.1646  0.5365
 5483SOL     OW28084   0.537   1.167   4.416 -0.2005  0.0760  0.1008
 5483SOL    HW128085   0.514   1.206   4.500 -1.7859  2.5829 -1.4855
 5483SOL    HW228086   0.522   1.075   4.438 -2.8430  0.5876  0.4077
 5484SOL     OW28087   4.581   4.640   3.874  0.4681 -0.4707 -0.0563
 5484SOL    HW128088   4.657   4.694   3.894  0.6078 -1.2031  1.3515
 5484SOL    HW228089   4.630   4.562   3.847  3.7736  0.8950  2.0281
 5485SOL     OW28090   4.150   1.375   4.137  0.0070  0.3171 -0.0948
 5485SOL    HW128091   4.229   1.351   4.187 -0.8778 -1.1828  0.5768
 5485SOL    HW228092   4.131   1.288   4.103  2.9276 -1.0409  1.6461
 5486SOL     OW28093   2.833   1.479   1.767  0.2859  0.4799 -0.2236
 5486SOL    HW128094   2.790   1.468   1.682  0.8267 -0.1676 -0.4118
 5486SOL    HW228095   2.758   1.503   1.821  1.1715  0.2046  1.1022
 5487SOL     OW28096   3.834   3.165  16.287  0.3099 -0.5369 -0.5651
 5487SOL    HW128097   3.868   3.157  16.198  1.5735  0.6520 -0.1943
 5487SOL    HW228098   3.909   3.132  16.338  1.3805  1.9727 -0.5012
 5488SOL     OW28099   0.884   1.931   1.865 -0.1320 -0.4162 -0.3471
 5488SOL    HW128100   0.793   1.960   1.855 -0.0734  0.4469  1.7485
 5488SOL    HW228101   0.899   1.981   1.945 -0.2439  1.4943 -1.5213
 5489SOL     OW28102   2.297   1.726   4.408 -0.8506 -0.4937  0.6525
 5489SOL    HW128103   2.263   1.746   4.494  0.5732  0.2792  1.0391
 5489SOL    HW228104   2.222   1.676   4.376 -0.7031 -0.8934  0.9222
 5490SOL     OW28105   3.443   1.865   8.657 -0.3230 -0.0809 -0.4542
 5490SOL    HW128106   3.363   1.834   8.614  0.8004  1.1539 -3.4671
 5490SOL    HW228107   3.501   1.878   8.582 -0.5135 -1.3254 -0.8257
 5491SOL     OW28108   0.780   0.700   2.956  0.1336 -0.0582 -0.0082
 5491SOL    HW128109   0.789   0.621   3.008  2.0780 -1.1297 -1.9856
 5491SOL    HW228110   0.815   0.767   3.014 -1.1115  1.1089 -0.6082
 5492SOL     OW28111   2.846   1.677   7.133 -0.1298 -0.1236  0.3803
 5492SOL    HW128112   2.896   1.620   7.074 -1.1978  0.2414 -0.8868
 5492SOL    HW228113   2.775   1.616   7.151 -0.6390  0.2802 -0.2993
 5493SOL     OW28114   3.545   1.568   2.834 -0.2968  0.5144 -0.4696
 5493SOL    HW128115   3.538   1.591   2.927 -0.3563  0.2983 -0.4194
 5493SOL    HW228116   3.477   1.627   2.802 -2.5551 -1.7819  0.0463
 5494SOL     OW28117   3.589   2.162  15.767 -0.2136 -0.0054  1.3386
 5494SOL    HW128118   3.551   2.078  15.740  0.9322  0.2129 -0.9007
 5494SOL    HW228119   3.572   2.226  15.698 -0.8568  1.5189  2.9020
 5495SOL     OW28120   0.793   1.780  12.879 -0.2290 -0.4289  0.4596
 5495SOL    HW128121   0.778   1.864  12.921  1.4944 -0.1393  0.4918
 5495SOL    HW228122   0.880   1.793  12.840 -0.1324 -0.0335  0.8097
 5496SOL     OW28123   2.488   3.431   4.161 -0.2526 -0.3434 -0.3222
 5496SOL    HW128124   2.569   3.444   4.112  0.7781  1.2750  1.7931
 5496SOL    HW228125   2.429   3.466   4.094 -0.1434  0.7924  0.1775
 5497SOL     OW28126   2.177   1.257   2.192  0.0556 -0.1189  0.4505
 5497SOL    HW128127   2.096   1.236   2.145 -0.3953 -1.2862  1.7690
 5497SOL    HW228128   2.243   1.228   2.129 -2.9757 -0.7487 -2.4832
 5498SOL     OW28129   3.331   2.923   8.793 -0.0611 -0.2095  0.3418
 5498SOL    HW128130   3.419   2.902   8.763 -0.6765 -1.4225 -0.6610
 5498SOL    HW228131   3.280   2.869   8.732  2.2097 -2.1788  0.1797
 5499SOL     OW28132   4.481   1.028   2.366  0.0189  0.0390  0.2334
 5499SOL    HW128133   4.459   0.956   2.307  1.4398 -0.1477 -0.0640
 5499SOL    HW228134   4.555   1.057   2.313  1.5431 -0.1137  2.2741
 5500SOL     OW28135   2.287   4.305   7.762 -0.4932 -0.3749 -0.1910
 5500SOL    HW128136   2.381   4.319   7.751 -0.8244  0.9886 -1.2478
 5500SOL    HW228137   2.267   4.347   7.846 -0.9137  0.0070 -0.4865
 5501SOL     OW28138   3.942   0.501  17.312 -0.3479 -0.2029  0.1444
 5501SOL    HW128139   3.979   0.554  17.241  4.0406 -0.2023  2.4500
 5501SOL    HW228140   3.927   0.573  17.372  1.6101 -0.6351  1.1687
 5502SOL     OW28141   2.205   1.818   4.927  0.5600  0.2734  0.1666
 5502SOL    HW128142   2.288   1.863   4.940  0.5009  1.3748 -3.3561
 5502SOL    HW228143   2.236   1.730   4.904 -2.6604 -1.2156  1.5041
 5503SOL     OW28144   2.476   1.387   8.929 -0.2276  0.2156  0.1123
 5503SOL    HW128145   2.526   1.450   8.877  1.7476 -1.2815  0.1858
 5503SOL    HW228146   2.463   1.424   9.017  0.3527  0.6869  0.0016
 5504SOL     OW28147   3.140   1.439   9.782 -0.0240  0.2002 -0.0291
 5504SOL    HW128148   3.175   1.507   9.839 -0.8155  1.1286 -0.6398
 5504SOL    HW228149   3.085   1.496   9.728  1.7267 -0.7615 -2.8001
 5505SOL     OW28150   3.136   4.048   8.848 -0.1758 -0.6098  0.0544
 5505SOL    HW128151   3.196   4.058   8.921 -1.7058 -0.6733  1.3299
 5505SOL    HW228152   3.080   4.126   8.850 -1.2271 -1.3325 -1.4824
 5506SOL     OW28153   1.566   2.009   4.597 -0.5797  0.1434 -0.0834
 5506SOL    HW128154   1.513   2.089   4.606 -0.8419 -0.3458  2.7276
 5506SOL    HW228155   1.526   1.949   4.659 -1.0431  0.4526 -0.0843
 5507SOL     OW28156   1.099   3.483   1.400 -0.0274  0.0817 -0.1010
 5507SOL    HW128157   1.108   3.508   1.492 -0.4401 -2.8296  0.7297
 5507SOL    HW228158   1.169   3.418   1.389  0.4598  0.4984  0.5344
 5508SOL     OW28159   4.032   2.481   3.962  0.2617  0.2606 -0.1540
 5508SOL    HW128160   4.002   2.398   3.998  0.1010  0.4199  0.0823
 5508SOL    HW228161   3.949   2.518   3.931  0.1662 -0.7090 -1.0518
 5509SOL     OW28162   0.244   3.817   5.745 -0.2416 -0.4837 -0.4359
 5509SOL    HW128163   0.167   3.842   5.797 -0.1314  2.0992 -1.5091
 5509SOL    HW228164   0.201   3.808   5.660  1.1069 -0.9284 -1.0710
 5510SOL     OW28165   3.217   1.688   6.187 -0.2543  0.3084  0.1194
 5510SOL    HW128166   3.142   1.629   6.177 -0.1639  0.1822  0.1724
 5510SOL    HW228167   3.290   1.629   6.168 -0.4638 -0.1751  0.7939
 5511SOL     OW28168   2.741   3.131   6.497  0.1001 -0.3197 -0.0557
 5511SOL    HW128169   2.757   3.044   6.535 -1.3594 -1.3038 -1.6495
 5511SOL    HW228170   2.672   3.170   6.552 -0.1704  0.0219 -0.6423
 5512SOL     OW28171   2.403   0.683   3.729  0.5706 -0.2644 -0.1961
 5512SOL    HW128172   2.403   0.779   3.727  0.1702 -0.2503  0.6455
 5512SOL    HW228173   2.309   0.673   3.712  0.1701  1.8275  0.8303
 5513SOL     OW28174   2.745   1.862  13.633 -0.3582 -0.4202  0.2913
 5513SOL    HW128175   2.788   1.781  13.605  0.0678  0.1502 -0.7264
 5513SOL    HW228176   2.738   1.847  13.727 -0.2547  1.5347  0.6141
 5514SOL     OW28177   1.357   2.939   3.562  0.0147 -0.0602 -0.2857
 5514SOL    HW128178   1.376   2.980   3.647  0.4328  0.0891 -0.4507
 5514SOL    HW228179   1.291   2.877   3.593 -0.3103  0.4663  0.0640
 5515SOL     OW28180   1.099   4.346   0.137 -0.1609  0.1705  0.0860
 5515SOL    HW128181   1.111   4.433   0.176 -1.3504  1.0526 -1.4690
 5515SOL    HW228182   1.003   4.342   0.139 -0.1772  0.5602  0.2557
 5516SOL     OW28183   4.158   1.499  13.926 -0.1125  0.2283  0.0802
 5516SOL    HW128184   4.126   1.504  14.016 -2.1698  0.6566 -0.6726
 5516SOL    HW228185   4.099   1.566  13.891  0.0797  0.2617 -0.1780
 5517SOL     OW28186   1.539   1.205   8.719  0.2494  0.3704 -0.3198
 5517SOL    HW128187   1.454   1.234   8.686 -1.3461 -1.3615  2.3099
 5517SOL    HW228188   1.598   1.176   8.649 -1.3466 -0.8200 -1.1756
 5518SOL     OW28189   1.270   2.834   0.131  0.1048  0.3932 -0.3762
 5518SOL    HW128190   1.197   2.807   0.075 -0.4078 -0.0458  0.5054
 5518SOL    HW228191   1.282   2.757   0.186 -0.9884 -1.4630 -2.7208
 5519SOL     OW28192   2.929   2.084   1.965  0.2491 -0.0131  0.8367
 5519SOL    HW128193   2.916   2.079   1.870 -0.5154  2.1260  0.8182
 5519SOL    HW228194   2.977   2.167   1.972 -2.8114  2.0146 -1.9441
 5520SOL     OW28195   0.576   3.693   3.083 -0.0089  0.0756 -0.3052
 5520SOL    HW128196   0.541   3.737   3.006  2.3008 -1.6457 -2.3676
 5520SOL    HW228197   0.572   3.773   3.135  0.6900 -1.0168  1.4047
 5521SOL     OW28198   2.046   3.911   3.491  0.1679  0.0812  0.6607
 5521SOL    HW128199   1.960   3.897   3.452  0.5304  0.4907 -0.2877
 5521SOL    HW228200   2.095   3.960   3.424 -0.1595 -2.5465 -1.4842
 5522SOL     OW28201   4.665   2.352  12.715 -0.2707  0.2552 -0.0157
 5522SOL    HW128202   4.641   2.391  12.631 -0.1399  0.5202  0.0692
 5522SOL    HW228203   4.701   2.430  12.757 -1.5778 -0.1938  1.9327
 5523SOL     OW28204   4.456   3.035   7.329  0.0756  0.4734 -0.3916
 5523SOL    HW128205   4.413   2.962   7.373 -0.4733  0.4279 -1.0086
 5523SOL    HW228206   4.547   3.024   7.355  0.6289 -1.3372 -3.1474
 5524SOL     OW28207   4.382   0.752   0.036  0.0617 -0.4979 -0.1007
 5524SOL    HW128208   4.384   0.660   0.063  1.0022  0.0684  1.7832
 5524SOL    HW228209   4.475   0.771   0.022 -0.0058 -0.4280 -0.4559
 5525SOL     OW28210   0.566   3.125   3.347  0.2650  0.3387 -0.1276
 5525SOL    HW128211   0.486   3.106   3.396 -1.7207  3.0275 -2.3318
 5525SOL    HW228212   0.544   3.200   3.292  0.6455  0.5463  0.0058
 5526SOL     OW28213   1.313   3.029   9.193  0.0840 -0.1033 -0.0553
 5526SOL    HW128214   1.398   2.986   9.188  0.5765  0.7350  1.0777
 5526SOL    HW228215   1.331   3.118   9.161  4.0583 -1.4110 -1.3974
 5527SOL     OW28216   1.755   2.874  13.399  0.2611  0.0227 -0.0817
 5527SOL    HW128217   1.737   2.968  13.401 -0.9502 -0.2012 -0.5725
 5527SOL    HW228218   1.844   2.873  13.365  0.2728  0.9791 -0.0887
 5528SOL     OW28219   1.599   1.786   3.382 -0.1411 -0.4539 -0.4724
 5528SOL    HW128220   1.586   1.735   3.462 -0.3628 -0.5247 -0.5527
 5528SOL    HW228221   1.512   1.827   3.386  1.6705  3.2796 -0.0033
 5529SOL     OW28222   4.600   3.432   6.319 -0.0385 -0.1604  0.3487
 5529SOL    HW128223   4.605   3.364   6.252 -0.0698  1.0564 -0.8721
 5529SOL    HW228224   4.511   3.404   6.342 -0.2576 -0.2982 -0.6804
 5530SOL     OW28225   0.727   4.599  17.444  0.3056 -0.3176  0.0946
 5530SOL    HW128226   0.733   4.523  17.385 -0.9626 -1.5983  1.6220
 5530SOL    HW228227   0.783   4.665  17.404  0.1720 -0.5287 -0.4455
 5531SOL     OW28228   2.283   0.153   7.884  1.2512  0.4450  0.0134
 5531SOL    HW128229   2.268   0.084   7.820 -2.6591 -0.2083  1.6562
 5531SOL    HW228230   2.206   0.209   7.884  0.9848  0.0726 -1.2774
 5532SOL     OW28231   2.350   2.287  16.856 -0.2094  0.0362  0.1103
 5532SOL    HW128232   2.263   2.304  16.892 -0.9812 -2.1431 -0.7228
 5532SOL    HW228233   2.336   2.197  16.827 -1.1290  0.1907  0.0696
 5533SOL     OW28234   1.112   2.788   1.398 -0.4812 -0.2853 -0.5356
 5533SOL    HW128235   1.048   2.845   1.356 -0.5257  1.9253  2.5223
 5533SOL    HW228236   1.086   2.804   1.489 -0.3077  1.3055 -0.7736
 5534SOL     OW28237   4.656   2.352   8.641  0.6983  0.1104  0.1228
 5534SOL    HW128238   4.619   2.414   8.704  2.0015 -0.0497  1.0416
 5534SOL    HW228239   0.008   2.338   8.677 -0.3142 -0.3773  2.4269
 5535SOL     OW28240   1.544   0.855   5.317  0.4672  0.5740 -0.5532
 5535SOL    HW128241   1.486   0.808   5.377  1.5544  2.0954  1.7040
 5535SOL    HW228242   1.631   0.836   5.352 -0.5416 -1.0087  1.1089
 5536SOL     OW28243   0.200   3.987   1.018  0.3454 -0.0631  0.1340
 5536SOL    HW128244   0.197   3.927   0.944  0.4326  2.9050 -2.2660
 5536SOL    HW228245   0.177   4.071   0.978  1.0832  0.2391  0.3506
 5537SOL     OW28246   0.629   2.018   8.779 -0.8755  0.4252  0.0384
 5537SOL    HW128247   0.642   2.084   8.711 -0.3969 -1.0612 -1.3232
 5537SOL    HW228248   0.612   2.071   8.857  5.5876  1.0385  1.0439
 5538SOL     OW28249   2.387   2.033   2.678  0.0108  0.0601  0.5687
 5538SOL    HW128250   2.374   1.942   2.703 -0.0091  0.1215  0.7841
 5538SOL    HW228251   2.458   2.065   2.735  0.4781 -0.1522  0.0998
 5539SOL     OW28252   4.055   3.307  10.540 -0.5390 -0.7836  0.4826
 5539SOL    HW128253   4.050   3.212  10.538 -0.2961 -0.7807 -0.4849
 5539SOL    HW228254   4.138   3.317  10.494 -2.0622  2.7400 -1.5205
 5540SOL     OW28255   3.769   0.667   1.581 -0.2729  0.5431 -0.3785
 5540SOL    HW128256   3.698   0.603   1.577  0.0108  0.2438 -0.6699
 5540SOL    HW228257   3.749   0.731   1.513 -0.1361 -0.9827 -1.8400
 5541SOL     OW28258   1.003   1.125  14.699  0.6280  0.0464 -0.1647
 5541SOL    HW128259   1.015   1.105  14.606 -1.8037 -2.1563 -0.0055
 5541SOL    HW228260   1.031   1.043  14.739  1.5061 -1.0616 -3.0370
 5542SOL     OW28261   2.044   1.627   7.888 -0.3189  0.5134 -0.5734
 5542SOL    HW128262   1.957   1.617   7.927 -0.9385  3.1672 -1.2588
 5542SOL    HW228263   2.048   1.720   7.867  1.3113  0.3135 -1.0893
 5543SOL     OW28264   0.914   0.220   3.280 -0.0397 -0.2254  0.4747
 5543SOL    HW128265   0.853   0.207   3.353  0.0741 -6.6148 -0.5532
 5543SOL    HW228266   0.987   0.267   3.318  0.3846 -0.4281 -0.0778
 5544SOL     OW28267   2.234   4.227  10.486  0.0173 -0.6923 -0.4219
 5544SOL    HW128268   2.266   4.167  10.418  2.1687  0.3285 -0.3095
 5544SOL    HW228269   2.166   4.255  10.425 -0.4607  1.8667  1.2999
 5545SOL     OW28270   2.894   3.645   7.193 -0.6009 -0.2203  0.0203
 5545SOL    HW128271   2.961   3.667   7.128 -0.4013 -0.3018  0.1991
 5545SOL    HW228272   2.922   3.695   7.269  2.5835  0.0295 -1.3191
 5546SOL     OW28273   2.026   3.045   4.972  0.8184 -0.2198 -0.8168
 5546SOL    HW128274   1.946   3.096   4.958  0.2074 -0.7267  0.8365
 5546SOL    HW228275   2.080   3.090   4.908 -0.7336  1.6818 -0.7843
 5547SOL     OW28276   2.127   2.850   4.817  0.7404  0.1023  0.0899
 5547SOL    HW128277   2.143   2.795   4.894  0.9798  0.1030  0.0413
 5547SOL    HW228278   2.070   2.914   4.860 -0.4804  0.5220 -2.1640
 5548SOL     OW28279   1.196   4.065   9.525 -0.5195  0.4224  0.2019
 5548SOL    HW128280   1.112   4.067   9.572 -0.4071 -3.5445  0.5484
 5548SOL    HW228281   1.169   4.004   9.457  1.0060 -1.6722  1.4901
 5549SOL     OW28282   0.217   2.457   2.706  0.7207  0.4096  0.2401
 5549SOL    HW128283   0.190   2.545   2.735 -2.4536 -0.1047 -1.1371
 5549SOL    HW228284   0.298   2.482   2.663  2.0862 -1.5987  1.6297
 5550SOL     OW28285   3.972   0.178   7.331  0.1342  0.2916  0.4748
 5550SOL    HW128286   3.975   0.111   7.263 -0.3906 -0.0548  0.7941
 5550SOL    HW228287   4.051   0.156   7.381 -0.3383  1.5322  1.7885
 5551SOL     OW28288   1.584   1.564   1.537 -0.0036  0.1761  0.6507
 5551SOL    HW128289   1.615   1.650   1.564  5.2934 -1.6666  0.4614
 5551SOL    HW228290   1.579   1.527   1.626  1.4965 -1.0707  0.2141
 5552SOL     OW28291   0.481   2.377   8.095 -0.0689 -0.0960  0.3734
 5552SOL    HW128292   0.428   2.298   8.105  0.6657 -0.3193  2.3790
 5552SOL    HW228293   0.559   2.359   8.147  0.7546  0.5853 -0.6204
 5553SOL     OW28294   1.304   1.460   3.429 -0.7674 -0.6409 -0.2877
 5553SOL    HW128295   1.297   1.536   3.487 -0.7397  0.1172 -1.2873
 5553SOL    HW228296   1.221   1.414   3.428 -0.7282 -0.7174 -0.1398
 5554SOL     OW28297   3.986   1.618   2.121 -0.4349  0.0391  0.4326
 5554SOL    HW128298   3.948   1.648   2.038 -0.6868 -1.5387 -0.0169
 5554SOL    HW228299   4.078   1.609   2.097  0.0448 -0.2380  2.4029
 5555SOL     OW28300   0.037   3.767   4.834  0.2957 -0.2154 -0.2051
 5555SOL    HW128301   0.061   3.702   4.900 -0.6952 -1.6899 -1.2860
 5555SOL    HW228302   0.102   3.745   4.766 -0.0530 -0.3215 -0.5061
 5556SOL     OW28303   2.937   1.891   7.267  0.5688 -0.0294 -0.2959
 5556SOL    HW128304   2.903   1.813   7.223  0.7797  0.0178 -0.5423
 5556SOL    HW228305   3.025   1.860   7.286  0.5510 -0.5244 -1.0463
 5557SOL     OW28306   1.357   2.795   2.010  0.1095 -0.3390  0.4036
 5557SOL    HW128307   1.268   2.762   2.023 -0.0934  0.2753  0.5464
 5557SOL    HW228308   1.340   2.846   1.931 -0.1289 -1.4513 -0.2639
 5558SOL     OW28309   3.493   1.407   0.796 -0.8804 -0.3142  0.0007
 5558SOL    HW128310   3.451   1.396   0.711  1.3963 -0.5785 -1.0868
 5558SOL    HW228311   3.580   1.431   0.765 -0.5200  0.6382  1.7256
 5559SOL     OW28312   3.549   4.457   7.823  0.7712 -0.4191 -0.7098
 5559SOL    HW128313   3.596   4.376   7.803 -1.0418 -1.9541  1.2335
 5559SOL    HW228314   3.590   4.481   7.906 -0.3923  3.0653 -1.1138
 5560SOL     OW28315   0.577   1.871   5.499 -0.2585  0.1146  0.3109
 5560SOL    HW128316   0.608   1.915   5.419 -0.0255  1.6977  1.2701
 5560SOL    HW228317   0.615   1.784   5.490  1.1479  0.8965 -1.5038
 5561SOL     OW28318   2.233   2.564   9.087 -1.0331 -0.3090  0.1664
 5561SOL    HW128319   2.259   2.626   9.018 -2.1595 -0.0017  0.0188
 5561SOL    HW228320   2.190   2.619   9.152  0.9443  0.5101  0.7855
 5562SOL     OW28321   3.336   1.451   1.273 -0.0506  0.3137  0.0656
 5562SOL    HW128322   3.267   1.502   1.315 -2.2312 -0.4673 -2.6034
 5562SOL    HW228323   3.289   1.409   1.201  0.8050  0.6192 -0.6768
 5563SOL     OW28324   4.015   3.847   9.621 -0.6184 -0.2086  0.5374
 5563SOL    HW128325   4.007   3.753   9.603  2.8362 -0.4141 -0.0136
 5563SOL    HW228326   4.097   3.846   9.572  0.0563  1.3387  1.6341
 5564SOL     OW28327   0.949   1.989   3.693  0.9272  0.3520 -0.0722
 5564SOL    HW128328   0.899   1.918   3.733 -1.8084  1.9385 -0.6429
 5564SOL    HW228329   1.034   1.954   3.719 -0.4411 -2.7991  0.1930
 5565SOL     OW28330   4.497   0.050   2.603 -0.4162 -0.3328 -0.1602
 5565SOL    HW128331   4.557   0.042   2.677  0.2349 -2.5831 -0.9375
 5565SOL    HW228332   4.490   4.702   2.557  1.2544 -0.4638 -0.1589
 5566SOL     OW28333   3.637   1.824  10.216  0.2519 -0.5307 -0.5261
 5566SOL    HW128334   3.720   1.789  10.249  1.0335  0.6088 -1.2696
 5566SOL    HW228335   3.607   1.748  10.166  1.7090 -0.0430 -2.1258
 5567SOL     OW28336   0.075   2.194  15.163 -0.1007 -0.4150 -0.0240
 5567SOL    HW128337   4.724   2.158  15.178 -0.2067  0.0841  0.5583
 5567SOL    HW228338   0.053   2.278  15.204  0.4940 -0.2959  0.0567
 5568SOL     OW28339   4.375   0.678  11.099 -0.3536  0.2224 -0.6509
 5568SOL    HW128340   4.437   0.640  11.162  0.6649  1.7668 -0.7071
 5568SOL    HW228341   4.426   0.663  11.019  2.4002 -0.5171  1.2317
 5569SOL     OW28342   3.460   2.130   4.976  0.3204 -0.0782  0.9846
 5569SOL    HW128343   3.524   2.148   4.908 -2.1365  0.5087 -1.1462
 5569SOL    HW228344   3.516   2.111   5.052  0.0683  0.3678  1.2827
 5570SOL     OW28345   1.035   4.641   3.435  0.2672  0.4380  0.3796
 5570SOL    HW128346   1.026   4.606   3.524  2.4090 -1.5122 -0.1806
 5570SOL    HW228347   0.959   4.699   3.435 -1.2876 -1.5803  0.6141
 5571SOL     OW28348   1.917   2.542  13.090 -0.1376 -0.2196  0.6701
 5571SOL    HW128349   1.917   2.628  13.049 -1.4412  0.3184  1.8000
 5571SOL    HW228350   1.994   2.548  13.148  0.7919  2.0099 -0.8016
 5572SOL     OW28351   3.619   2.474  15.107  0.1230 -0.7055  0.6865
 5572SOL    HW128352   3.715   2.473  15.112  0.1672  0.5037  0.0117
 5572SOL    HW228353   3.607   2.472  15.012 -1.5934  1.5054  0.8635
 5573SOL     OW28354   3.715   4.652   6.110 -0.0568  0.3208  0.6826
 5573SOL    HW128355   3.656   4.610   6.048  2.8641 -1.7591 -0.6777
 5573SOL    HW228356   3.778   4.695   6.053  0.6051 -1.4992  0.0583
 5574SOL     OW28357   2.048   2.667  10.068 -0.1538 -0.1953  0.5548
 5574SOL    HW128358   2.113   2.657  10.137  0.1357  0.4757  0.3863
 5574SOL    HW228359   1.990   2.731  10.109  0.6585  0.7182  0.2950
 5575SOL     OW28360   4.194   3.044   1.766 -0.2459  0.7517 -0.2661
 5575SOL    HW128361   4.237   3.082   1.689  1.2349 -0.5238 -0.0589
 5575SOL    HW228362   4.125   2.995   1.722 -1.2477  0.6308  1.4339
 5576SOL     OW28363   3.763   3.401   8.964 -0.1015  0.2216 -0.2687
 5576SOL    HW128364   3.669   3.382   8.967 -0.2041  0.5005 -1.7536
 5576SOL    HW228365   3.785   3.394   8.871 -0.7523  0.3666 -0.4339
 5577SOL     OW28366   0.046   0.632   3.923 -0.3383 -0.5909  0.6569
 5577SOL    HW128367   0.101   0.592   3.991  1.1285  2.1294  1.0830
 5577SOL    HW228368   4.694   0.597   3.935 -0.7912  0.3367  0.0546
 5578SOL     OW28369   2.425   3.114   4.704 -0.0494  0.2092 -0.0140
 5578SOL    HW128370   2.458   3.040   4.654  1.0851  0.2762  0.6206
 5578SOL    HW228371   2.491   3.112   4.774 -0.9759 -0.9818  0.8457
 5579SOL     OW28372   0.305   3.174   8.279  0.0110 -0.8095 -0.0203
 5579SOL    HW128373   0.357   3.103   8.241 -0.9569 -0.3480 -2.2320
 5579SOL    HW228374   0.367   3.244   8.296 -0.9617 -0.3806  1.6740
 5580SOL     OW28375   1.185   3.939   8.921  0.5644  0.4864 -0.4401
 5580SOL    HW128376   1.276   3.912   8.933  0.0262 -0.4071  1.4703
 5580SOL    HW228377   1.201   4.033   8.916 -1.3656  0.9050  1.1798
 5581SOL     OW28378   1.307   2.422   9.090  0.5695  1.0817  0.4976
 5581SOL    HW128379   1.347   2.347   9.045 -0.7135 -0.0047  1.1407
 5581SOL    HW228380   1.252   2.463   9.024  0.6226 -0.2113 -0.3578
 5582SOL     OW28381   3.555   3.932  14.080  0.1355  0.1770 -0.2380
 5582SOL    HW128382   3.509   3.938  13.997  0.4259  2.2374 -0.2700
 5582SOL    HW228383   3.476   3.933  14.134 -0.6016 -0.7745 -1.3048
 5583SOL     OW28384   4.716   2.708   6.009  0.3046  0.1399  0.0929
 5583SOL    HW128385   0.065   2.750   5.996  1.2313 -2.4836 -2.1749
 5583SOL    HW228386   4.698   2.762   6.087 -1.2954  1.4871 -1.2010
 5584SOL     OW28387   3.538   3.012   7.018 -0.0340 -0.5569  0.2018
 5584SOL    HW128388   3.573   2.967   6.941 -0.3015 -1.8627  0.8443
 5584SOL    HW228389   3.469   3.064   6.977  0.4304  0.4572  0.7201
 5585SOL     OW28390   2.620   3.947   3.643  0.3878  0.7648  0.8986
 5585SOL    HW128391   2.530   3.918   3.657  0.9960 -0.9890  1.2533
 5585SOL    HW228392   2.610   4.028   3.693  1.0891  2.9286 -2.4683
 5586SOL     OW28393   0.748   3.406   2.210 -0.5095  0.4754  0.0733
 5586SOL    HW128394   0.815   3.386   2.275 -0.1847 -0.7107 -0.6382
 5586SOL    HW228395   0.806   3.433   2.140 -0.1153 -1.0475 -0.1791
 5587SOL     OW28396   4.135   1.182   8.444  0.4857  0.5768  0.1330
 5587SOL    HW128397   4.124   1.093   8.479 -0.3003  1.0598  1.1321
 5587SOL    HW228398   4.107   1.242   8.513 -0.7881 -1.9510  1.8243
 5588SOL     OW28399   4.699   1.897   2.565  0.2536 -0.2315  0.4160
 5588SOL    HW128400   4.734   1.812   2.538 -3.1636 -1.2748 -0.6387
 5588SOL    HW228401   4.618   1.858   2.596  1.0718 -1.8329  0.5621
 5589SOL     OW28402   2.041   2.677   7.317 -0.0330 -0.2527  0.0498
 5589SOL    HW128403   1.952   2.679   7.351 -0.7189 -0.4901 -1.7206
 5589SOL    HW228404   2.076   2.729   7.389  0.2572 -2.4523  1.4848
 5590SOL     OW28405   3.198   4.580   5.662  0.6106  0.5523  0.7732
 5590SOL    HW128406   3.238   4.574   5.575 -0.4043 -3.3618  0.5957
 5590SOL    HW228407   3.192   4.674   5.679  1.4207  0.7790 -0.1567
 5591SOL     OW28408   0.817   4.574  10.936  0.2083  0.3358  0.2913
 5591SOL    HW128409   0.727   4.548  10.920  0.3118 -0.2819  0.7372
 5591SOL    HW228410   0.857   4.492  10.909  0.9138  0.7679  0.0063
 5592SOL     OW28411   2.225   0.685  13.882 -0.1841 -0.1335  0.1009
 5592SOL    HW128412   2.212   0.766  13.832 -2.4513 -0.7694 -0.3260
 5592SOL    HW228413   2.225   0.704  13.976 -0.1951  0.3302  0.0090
 5593SOL     OW28414   3.271   2.305   0.412  0.3432 -0.4745 -0.1240
 5593SOL    HW128415   3.290   2.363   0.338 -2.6887  0.3220 -0.2957
 5593SOL    HW228416   3.230   2.236   0.360  2.3469 -1.0012 -1.0004
 5594SOL     OW28417   1.153   3.326   8.113  0.6146  0.0143  0.6643
 5594SOL    HW128418   1.117   3.238   8.120  1.5486 -0.3707  0.6379
 5594SOL    HW228419   1.175   3.337   8.020 -0.7273  0.7263  0.4268
 5595SOL     OW28420   1.998   3.204  13.286  0.1487  0.0224  0.2820
 5595SOL    HW128421   2.015   3.298  13.290  0.1382 -0.0016  0.8482
 5595SOL    HW228422   2.081   3.157  13.278 -0.2634 -0.7497  0.5576
 5596SOL     OW28423   1.759   2.226  12.701 -0.2295  0.6799 -0.7744
 5596SOL    HW128424   1.766   2.168  12.776  2.2583  0.1577 -1.4068
 5596SOL    HW228425   1.783   2.310  12.740 -1.1157 -0.7958  2.9518
 5597SOL     OW28426   1.638   0.442   8.896  0.5568 -0.1654  0.9744
 5597SOL    HW128427   1.686   0.524   8.910  1.7026 -0.7402  0.4552
 5597SOL    HW228428   1.693   0.410   8.825  0.0213  1.6236 -0.2381
 5598SOL     OW28429   1.329   4.443  17.076  0.3611  0.3251  0.3058
 5598SOL    HW128430   1.244   4.402  17.061  0.5480  0.0262  0.0623
 5598SOL    HW228431   1.378   4.411  17.000  0.2405  1.7396 -0.3585
 5599SOL     OW28432   1.091   1.460  12.023 -0.8081  0.1156 -0.1516
 5599SOL    HW128433   1.058   1.387  12.075  2.3293 -0.8121  0.5622
 5599SOL    HW228434   1.011   1.510  12.006 -1.3230 -1.2169 -1.6604
 5600SOL     OW28435   2.465   1.691  14.792 -0.0303 -0.0792 -0.0952
 5600SOL    HW128436   2.379   1.650  14.786  0.7626 -2.3987  4.2085
 5600SOL    HW228437   2.486   1.715  14.702  2.6268  0.3667  0.6524
 5601SOL     OW28438   2.738   4.146   0.663  0.1361 -0.3418 -0.0441
 5601SOL    HW128439   2.798   4.120   0.733  0.9168 -3.7088 -1.9838
 5601SOL    HW228440   2.719   4.235   0.692 -2.2358 -1.4275  1.7127
 5602SOL     OW28441   4.365   1.040  11.137 -0.1900 -0.0702  0.7612
 5602SOL    HW128442   4.380   1.096  11.060  2.7055 -1.4772  0.3101
 5602SOL    HW228443   4.332   0.957  11.106 -0.7907 -0.2187  1.7804
 5603SOL     OW28444   2.828   2.090   5.215  0.1677 -0.0149 -0.3554
 5603SOL    HW128445   2.892   2.027   5.182 -0.0082 -1.3197  1.7776
 5603SOL    HW228446   2.757   2.090   5.151 -1.3480  2.4929  1.3470
 5604SOL     OW28447   0.601   2.562   7.260  0.5754  0.7630 -0.9317
 5604SOL    HW128448   0.517   2.604   7.278 -0.8608 -2.3579 -0.3334
 5604SOL    HW228449   0.666   2.630   7.276  2.5047 -1.2536 -0.1050
 5605SOL     OW28450   2.304   2.583  17.062 -0.0440  0.0445 -0.3101
 5605SOL    HW128451   2.329   2.498  17.096  0.4951 -0.2234 -1.3849
 5605SOL    HW228452   2.250   2.556  16.988 -2.2728  0.5895  1.1173
 5606SOL     OW28453   3.821   3.203   0.690  0.3280  0.5879  0.1980
 5606SOL    HW128454   3.860   3.125   0.652  0.0706  1.1576 -1.2101
 5606SOL    HW228455   3.775   3.237   0.613 -1.1419  1.2727  1.3751
 5607SOL     OW28456   1.564   3.756   4.444  0.0405  0.0881  0.4220
 5607SOL    HW128457   1.642   3.807   4.466 -1.2105  1.6587  1.2768
 5607SOL    HW228458   1.534   3.796   4.362 -0.4785  0.3435  0.7386
 5608SOL     OW28459   3.791   1.457   4.218 -0.1600  0.3284  0.3776
 5608SOL    HW128460   3.824   1.441   4.306  0.5916 -1.1507 -0.1743
 5608SOL    HW228461   3.811   1.378   4.167 -2.4870  0.1001 -0.2205
 5609SOL     OW28462   0.758   0.104  16.855 -0.0188 -0.0465  0.2588
 5609SOL    HW128463   0.744   0.012  16.837 -0.1183  0.0302 -0.0417
 5609SOL    HW228464   0.812   0.100  16.935 -1.3596  0.0071  1.1699
 5610SOL     OW28465   0.732   1.825   8.393 -0.1127  0.5529 -0.2591
 5610SOL    HW128466   0.778   1.882   8.331  1.0582 -0.6014 -0.4509
 5610SOL    HW228467   0.789   1.835   8.470 -0.1499 -0.5429 -0.0920
 5611SOL     OW28468   1.619   2.454   8.542  0.3477  0.0680  0.1634
 5611SOL    HW128469   1.546   2.408   8.583  0.8975 -1.0721 -0.1474
 5611SOL    HW228470   1.574   2.495   8.468 -0.6416 -0.5928  0.4071
 5612SOL     OW28471   3.621   3.542   7.879 -0.2668 -0.9157 -0.3786
 5612SOL    HW128472   3.567   3.599   7.934 -0.8446 -1.9520  0.1392
 5612SOL    HW228473   3.595   3.456   7.912 -4.2209  0.5188  0.2182
 5613SOL     OW28474   0.832   2.918   2.598  0.5453 -0.8358 -0.0537
 5613SOL    HW128475   0.891   2.924   2.674 -1.0998  1.3274  1.0360
 5613SOL    HW228476   0.887   2.970   2.539 -0.4931 -0.1934 -0.4403
 5614SOL     OW28477   1.392   4.726  11.780 -0.0224 -0.0351  0.0470
 5614SOL    HW128478   1.359   4.678  11.705 -1.1664  0.0583  0.4946
 5614SOL    HW228479   1.457   0.046  11.737 -1.0807  1.9484  1.0759
 5615SOL     OW28480   0.811   3.408   8.856 -0.3992  0.3524  0.3517
 5615SOL    HW128481   0.757   3.340   8.896  1.1339 -2.1940 -1.8429
 5615SOL    HW228482   0.858   3.349   8.796 -1.5943  0.1482 -0.3942
 5616SOL     OW28483   2.295   1.923   8.167  0.0899  0.0495  0.1695
 5616SOL    HW128484   2.228   1.969   8.116  1.0820  0.6619 -0.6053
 5616SOL    HW228485   2.367   1.987   8.165 -0.0663  0.2581  1.1330
 5617SOL     OW28486   3.884   2.752   0.675  0.0009 -0.1397 -0.0513
 5617SOL    HW128487   3.946   2.685   0.647 -1.3273 -0.8653 -1.2589
 5617SOL    HW228488   3.897   2.751   0.770  0.5507 -0.3579 -0.1324
 5618SOL     OW28489   0.965   3.504   3.546  0.1701  0.0612 -0.3181
 5618SOL    HW128490   1.008   3.586   3.522 -0.2341  0.0931 -0.9524
 5618SOL    HW228491   0.875   3.531   3.528 -0.4698 -1.8986 -0.1047
 5619SOL     OW28492   4.002   1.519   8.477 -0.3387  0.1388 -0.0089
 5619SOL    HW128493   4.054   1.466   8.537 -1.1261  0.6255  1.0967
 5619SOL    HW228494   3.965   1.573   8.547  0.1823  0.4241  0.0515
 5620SOL     OW28495   3.439   4.103   2.942  0.2443 -0.0868 -0.4472
 5620SOL    HW128496   3.388   4.023   2.954 -0.3289  0.1944 -0.9824
 5620SOL    HW228497   3.496   4.111   3.018  0.1532 -1.2149 -0.2601
 5621SOL     OW28498   2.509   1.347   4.397 -0.0566 -0.5683 -0.2966
 5621SOL    HW128499   2.545   1.307   4.318  1.1016 -0.3599  0.1336
 5621SOL    HW228500   2.581   1.397   4.436 -0.6306  0.6616 -0.8089
 5622SOL     OW28501   1.730   1.753   1.894  0.5794  0.3460 -1.1225
 5622SOL    HW128502   1.697   1.692   1.828 -0.2147  1.0802 -1.3944
 5622SOL    HW228503   1.822   1.768   1.871  0.2311 -0.4349 -3.0775
 5623SOL     OW28504   0.470   2.619  12.957  0.1164  0.8594  0.3952
 5623SOL    HW128505   0.432   2.604  13.043 -1.7485 -2.6306 -1.0341
 5623SOL    HW228506   0.531   2.692  12.972  2.0621 -0.5419 -0.6501
 5624SOL     OW28507   0.428   0.901  12.303  0.0105 -0.3937  0.5009
 5624SOL    HW128508   0.458   0.923  12.215 -2.0500  3.0071  0.6628
 5624SOL    HW228509   0.369   0.974  12.321  0.0663  0.1195 -1.4292
 5625SOL     OW28510   1.977   2.930  16.815 -0.4157 -0.5352  0.6879
 5625SOL    HW128511   1.927   2.877  16.877 -1.8648  0.2202  0.1657
 5625SOL    HW228512   1.939   3.017  16.832  1.6914  0.4353  0.4496
 5626SOL     OW28513   2.040   2.582  14.510 -0.3150  0.4992  0.7121
 5626SOL    HW128514   2.123   2.597  14.464 -1.3945  1.8900 -0.8146
 5626SOL    HW228515   2.037   2.672  14.540 -1.9405  0.8954 -0.6233
 5627SOL     OW28516   1.602   1.541   4.060 -0.6438 -0.3570  0.0600
 5627SOL    HW128517   1.533   1.494   4.014 -0.9924  1.1573 -0.9565
 5627SOL    HW228518   1.568   1.550   4.149  0.9856  1.4352  0.5032
 5628SOL     OW28519   2.875   4.037   5.501 -0.2420 -0.1010  0.6194
 5628SOL    HW128520   2.958   4.004   5.469 -0.4156 -0.3313  0.4123
 5628SOL    HW228521   2.835   3.954   5.529  2.1505 -0.6447  2.4518
 5629SOL     OW28522   2.000   2.237   8.594 -0.6733  0.0592 -0.1366
 5629SOL    HW128523   1.942   2.165   8.621  1.9266 -1.3680  1.6453
 5629SOL    HW228524   1.978   2.307   8.655  0.5297  1.2346 -1.0578
 5630SOL     OW28525   1.609   1.914   2.875  0.4249 -0.0696 -0.2699
 5630SOL    HW128526   1.573   1.831   2.908  1.4030 -0.3307  0.1350
 5630SOL    HW228527   1.535   1.936   2.818  0.1380 -0.1494  0.0697
 5631SOL     OW28528   3.973   1.870   6.085 -0.4176  0.3015 -0.2773
 5631SOL    HW128529   3.885   1.856   6.050 -1.9044  1.9309  2.8155
 5631SOL    HW228530   3.986   1.961   6.061  0.1900 -0.9308 -4.7019
 5632SOL     OW28531   0.310   1.680   2.960 -0.1041 -0.4058 -0.0409
 5632SOL    HW128532   0.250   1.718   2.896 -1.3272 -1.0223  0.7233
 5632SOL    HW228533   0.250   1.613   2.993 -3.0129  2.2797  0.1461
 5633SOL     OW28534   2.532   4.371  15.734  0.2892  0.7169  0.1054
 5633SOL    HW128535   2.481   4.427  15.675  0.5998  0.8327 -0.0542
 5633SOL    HW228536   2.612   4.357  15.683 -0.3660  1.1690 -1.0324
 5634SOL     OW28537   1.656   3.878   6.823  0.3500  0.2103 -0.3740
 5634SOL    HW128538   1.660   3.961   6.775  0.8271 -0.1500 -0.9568
 5634SOL    HW228539   1.704   3.914   6.898 -0.6437 -1.7461  1.2072
 5635SOL     OW28540   4.107   4.285   3.480  0.2510  0.2832 -0.2701
 5635SOL    HW128541   4.030   4.246   3.520 -0.3236  2.0676  0.3529
 5635SOL    HW228542   4.097   4.273   3.385  0.2262 -0.0447 -0.2285
 5636SOL     OW28543   1.788   2.391   6.838 -0.0901  0.2787  0.0156
 5636SOL    HW128544   1.873   2.437   6.835  0.9736 -1.6205  1.4548
 5636SOL    HW228545   1.811   2.331   6.909 -0.6072  0.6495  0.4989
 5637SOL     OW28546   0.225   3.218   4.881  0.1690 -0.2282 -0.3800
 5637SOL    HW128547   0.165   3.143   4.882 -0.7487  0.5181  1.7372
 5637SOL    HW228548   0.296   3.188   4.938 -1.5130 -1.9371  0.8280
 5638SOL     OW28549   4.470   2.904  16.137 -0.0845 -0.2499  0.0864
 5638SOL    HW128550   4.544   2.861  16.093 -0.4745  1.6604 -2.4524
 5638SOL    HW228551   4.508   2.896  16.224  0.6538 -1.5180 -0.3379
 5639SOL     OW28552   1.311   2.919   1.760 -0.1487  0.4978 -0.2023
 5639SOL    HW128553   1.351   2.958   1.682 -0.4287 -0.1220 -0.6500
 5639SOL    HW228554   1.281   2.997   1.808  0.4405  0.0069  0.9631
 5640SOL     OW28555   0.882   3.167  10.064 -0.3485 -0.4476  0.6559
 5640SOL    HW128556   0.860   3.097  10.126 -1.5568  1.0133  1.8655
 5640SOL    HW228557   0.976   3.163  10.045 -0.3618 -2.3755  0.9133
 5641SOL     OW28558   1.131   0.796  17.095 -0.2399 -0.8103 -0.0458
 5641SOL    HW128559   1.084   0.771  17.015  0.7811  0.3873 -1.0235
 5641SOL    HW228560   1.067   0.862  17.122  0.6637  0.6877 -1.6008
 5642SOL     OW28561   0.264   3.332   7.255  0.2885  0.7556 -0.3245
 5642SOL    HW128562   0.335   3.396   7.264  0.9394  0.0528 -0.5415
 5642SOL    HW228563   0.232   3.328   7.346  1.4826  2.8351  0.1948
 5643SOL     OW28564   1.284   4.181   6.527  0.5843 -1.2598  0.0012
 5643SOL    HW128565   1.190   4.176   6.545  0.6106  2.1288  1.2604
 5643SOL    HW228566   1.282   4.268   6.486  2.4547 -0.5292  1.4525
 5644SOL     OW28567   2.382   2.304   2.571  0.0054 -0.4511 -0.3107
 5644SOL    HW128568   2.296   2.334   2.603 -0.4565  0.0359 -2.0111
 5644SOL    HW228569   2.393   2.221   2.617  2.1057  0.1829  0.3088
 5645SOL     OW28570   4.532   2.239   6.674 -0.1309 -0.0417  0.1973
 5645SOL    HW128571   4.516   2.156   6.718 -0.4591  0.2708  0.6742
 5645SOL    HW228572   4.536   2.217   6.581  0.2891 -0.2179  0.2613
 5646SOL     OW28573   1.600   2.946   1.572 -0.2600  0.0143  0.5065
 5646SOL    HW128574   1.538   2.912   1.507 -1.7875 -0.6138  2.2702
 5646SOL    HW228575   1.581   3.039   1.580 -0.0304  0.3419 -3.1441
 5647SOL     OW28576   2.162   1.751  11.321 -0.4972 -0.0525  0.3941
 5647SOL    HW128577   2.066   1.752  11.315 -0.6274  0.4058  2.5207
 5647SOL    HW228578   2.176   1.819  11.387  0.6044  1.3249 -1.2800
 5648SOL     OW28579   1.684   1.826   0.346  0.0508 -0.1258 -0.1961
 5648SOL    HW128580   1.616   1.845   0.411  1.5028 -0.0804  1.3155
 5648SOL    HW228581   1.653   1.737   0.332  0.3384 -0.0571 -1.2351
 5649SOL     OW28582   0.317   4.545   9.094  0.2445  0.1534 -0.0142
 5649SOL    HW128583   0.334   4.574   9.004  4.0080  1.6551  1.1866
 5649SOL    HW228584   0.317   4.450   9.079 -2.1173  0.0355  0.7839
 5650SOL     OW28585   4.686   4.164   5.741 -0.1900 -0.1686 -0.4022
 5650SOL    HW128586   4.724   4.085   5.780  0.5013 -0.4297 -1.5973
 5650SOL    HW228587   4.684   4.135   5.649  1.5348 -1.7889  0.0716
 5651SOL     OW28588   4.303   1.246   4.978  0.2920  0.5228 -0.4675
 5651SOL    HW128589   4.270   1.332   5.005 -0.3423 -0.5021  2.0116
 5651SOL    HW228590   4.303   1.235   4.883  0.8246  1.2092 -0.5499
 5652SOL     OW28591   0.648   2.948   6.860 -0.1007  0.4847 -0.0573
 5652SOL    HW128592   0.682   2.998   6.934  1.2692  0.8257 -0.8990
 5652SOL    HW228593   0.554   2.950   6.875 -0.3540 -1.1543 -1.4050
 5653SOL     OW28594   2.144   1.976   3.526  0.0723  1.0037  0.5350
 5653SOL    HW128595   2.191   2.051   3.563  0.3472  1.5557 -0.9467
 5653SOL    HW228596   2.055   2.008   3.507 -0.0539  0.0432 -0.4535
 5654SOL     OW28597   0.726   3.575   8.665  0.7201 -0.8212 -0.7450
 5654SOL    HW128598   0.643   3.585   8.712  2.1384  1.9192  1.1781
 5654SOL    HW228599   0.778   3.521   8.725  2.3611 -0.7475 -2.1174
 5655SOL     OW28600   3.492   3.659  16.395  0.0473 -0.0496 -0.1675
 5655SOL    HW128601   3.448   3.723  16.338 -3.0209 -1.3547  0.7062
 5655SOL    HW228602   3.442   3.584  16.361  1.4310 -1.4052  0.7712
 5656SOL     OW28603   4.085   1.070   4.277 -0.1719  0.1360  0.5295
 5656SOL    HW128604   3.995   1.048   4.252 -0.1624 -0.7028  1.2266
 5656SOL    HW228605   4.135   1.014   4.218 -2.2838  0.1449 -1.2637
 5657SOL     OW28606   1.261   3.182   8.383  0.2947 -0.1580  0.2748
 5657SOL    HW128607   1.305   3.097   8.373  0.7644  0.2331 -1.0297
 5657SOL    HW228608   1.175   3.151   8.354  0.9033 -1.9447  0.3428
 5658SOL     OW28609   3.362   1.096  15.113 -0.0989  0.0335 -0.3017
 5658SOL    HW128610   3.432   1.049  15.159 -0.7666  0.2967  0.9857
 5658SOL    HW228611   3.402   1.130  15.034 -2.3951  0.7932 -1.1381
 5659SOL     OW28612   1.320   0.118   2.788  0.8654 -0.3527  0.2941
 5659SOL    HW128613   1.361   0.168   2.858 -1.4240 -1.2530  2.2724
 5659SOL    HW228614   1.247   0.073   2.830  0.6079 -2.3038 -2.2174
 5660SOL     OW28615   3.342   3.684   6.404 -0.3139  0.2360  0.0999
 5660SOL    HW128616   3.320   3.606   6.455 -1.6538  0.4256 -0.1972
 5660SOL    HW228617   3.308   3.650   6.322  2.7865  0.6625 -1.3675
 5661SOL     OW28618   0.121   4.467   8.797  0.2989  0.1666  0.3518
 5661SOL    HW128619   0.174   4.473   8.717 -1.2685  1.0783 -0.6091
 5661SOL    HW228620   0.110   4.558   8.826 -1.1545  0.4338 -1.0261
 5662SOL     OW28621   1.666   3.699   0.755  1.1305 -0.8246  0.1806
 5662SOL    HW128622   1.685   3.702   0.848  2.3805 -1.3759 -0.0616
 5662SOL    HW228623   1.655   3.605   0.746  0.6985 -0.7678  0.1267
 5663SOL     OW28624   3.732   4.443   7.528  0.2339  0.2493  0.1992
 5663SOL    HW128625   3.740   4.417   7.620  0.4019 -0.6960 -0.0840
 5663SOL    HW228626   3.749   4.363   7.478  1.3371  1.2579 -1.0457
 5664SOL     OW28627   2.640   1.832   7.827 -0.8063 -0.1912 -0.3387
 5664SOL    HW128628   2.602   1.919   7.824 -0.6062 -0.1557 -1.8759
 5664SOL    HW228629   2.726   1.850   7.865 -1.0484 -1.2013  0.7039
 5665SOL     OW28630   1.585   0.813  16.226 -0.0210  0.3697 -0.1302
 5665SOL    HW128631   1.603   0.906  16.217 -1.8162  0.8396  1.1557
 5665SOL    HW228632   1.495   0.812  16.194  0.0097  1.6257 -0.2251
 5666SOL     OW28633   0.199   1.776  13.018  0.1613 -0.2526 -0.3459
 5666SOL    HW128634   0.199   1.866  12.983 -1.1828  0.6241  1.8830
 5666SOL    HW228635   0.198   1.716  12.944 -1.5158  0.8134 -1.1923
 5667SOL     OW28636   1.049   2.320  14.447  0.9633  0.5002 -0.3912
 5667SOL    HW128637   1.116   2.283  14.389 -0.3903 -0.7844 -1.1552
 5667SOL    HW228638   1.004   2.238  14.469  2.9534 -0.1958  1.0912
 5668SOL     OW28639   2.981   1.754   4.615  0.1700 -0.7410  0.5195
 5668SOL    HW128640   2.980   1.674   4.563  0.0599  0.5001 -1.3520
 5668SOL    HW228641   3.032   1.714   4.686 -0.4772 -2.1955  0.1676
 5669SOL     OW28642   0.929   4.219   4.991 -0.7444  0.0212  0.2078
 5669SOL    HW128643   0.850   4.171   4.967 -0.3266 -1.1136  1.1553
 5669SOL    HW228644   0.996   4.194   4.927 -0.9569  0.6209 -0.2593
 5670SOL     OW28645   4.524   0.906   6.150 -0.0188  0.0491 -0.2506
 5670SOL    HW128646   4.534   0.864   6.235 -2.6211  0.3011  0.1721
 5670SOL    HW228647   4.616   0.928   6.137  0.0183  1.0782  1.7688
 5671SOL     OW28648   4.686   0.780   7.500  0.2591  0.8794 -0.5928
 5671SOL    HW128649   4.644   0.755   7.582  0.1956 -0.5567 -1.0640
 5671SOL    HW228650   4.726   0.865   7.521 -0.7685  1.3833 -0.6672
 5672SOL     OW28651   0.258   0.568   4.551 -0.1736  0.1310 -0.2248
 5672SOL    HW128652   0.238   0.500   4.615  2.7527 -2.2940 -1.8855
 5672SOL    HW228653   0.346   0.587   4.582 -0.1433 -1.7719  0.8439
 5673SOL     OW28654   2.219   0.192   1.480 -0.3825 -0.1581 -0.8496
 5673SOL    HW128655   2.174   0.152   1.554  1.2925 -2.3189 -0.9757
 5673SOL    HW228656   2.151   0.247   1.442 -2.8960 -3.0189 -0.4984
 5674SOL     OW28657   0.519   3.005   1.001  0.4042 -0.3170  0.3898
 5674SOL    HW128658   0.460   3.006   1.077  1.6018  1.9616  1.3045
 5674SOL    HW228659   0.528   2.913   0.978 -0.3559  0.0236 -1.2732
 5675SOL     OW28660   0.260   1.759   7.310 -0.1061  0.5695 -0.4882
 5675SOL    HW128661   0.296   1.787   7.226  0.5731  2.8860  0.5671
 5675SOL    HW228662   0.209   1.835   7.338 -1.3878 -0.5181  0.1156
 5676SOL     OW28663   0.229   2.799   3.095  0.4888  0.3532 -0.2165
 5676SOL    HW128664   0.152   2.745   3.113  0.5917  0.7970  1.5973
 5676SOL    HW228665   0.198   2.884   3.126 -1.2259 -0.0160 -0.8910
 5677SOL     OW28666   0.531   1.386   2.891 -0.0009 -0.0014  0.0247
 5677SOL    HW128667   0.466   1.316   2.898  1.2918 -1.0808  1.3111
 5677SOL    HW228668   0.571   1.379   2.977 -0.3943  0.9429  0.2860
 5678SOL     OW28669   2.144   2.073   9.210  0.1998  0.5753 -0.2220
 5678SOL    HW128670   2.131   2.119   9.127 -0.6594 -0.1639 -0.5016
 5678SOL    HW228671   2.138   2.147   9.271 -1.4747  1.2360 -1.1747
 5679SOL     OW28672   2.633   4.452   5.740 -0.2406  0.8100  0.9349
 5679SOL    HW128673   2.558   4.394   5.756 -0.9651  1.3636 -0.4572
 5679SOL    HW228674   2.706   4.392   5.755  0.2052  1.3209  0.8009
 5680SOL     OW28675   1.217   4.594   6.286  0.1961  0.1801 -0.4409
 5680SOL    HW128676   1.171   4.621   6.365  1.6227  1.0572  0.0771
 5680SOL    HW228677   1.268   4.525   6.328  2.0442  1.9455  0.1749
 5681SOL     OW28678   1.535   3.820   2.598 -0.3201 -0.0388 -0.2705
 5681SOL    HW128679   1.588   3.789   2.672 -0.2177 -2.0117 -1.1853
 5681SOL    HW228680   1.543   3.914   2.618  0.8906  0.1213 -1.4990
 5682SOL     OW28681   4.080   4.223  12.939 -0.0377 -0.0340  0.3571
 5682SOL    HW128682   4.155   4.272  12.972  0.8041 -1.5460  0.6786
 5682SOL    HW228683   4.080   4.229  12.844 -1.0216 -0.2826  0.3368
 5683SOL     OW28684   2.991   1.839   5.149  0.3938 -0.2671  0.1052
 5683SOL    HW128685   3.012   1.808   5.237  1.1244 -1.0693 -0.3584
 5683SOL    HW228686   3.062   1.794   5.105  0.9467  1.0697 -0.3526
 5684SOL     OW28687   2.826   3.782   2.541  0.2798  0.3047  0.1105
 5684SOL    HW128688   2.874   3.737   2.471 -0.1544 -1.8708  1.2163
 5684SOL    HW228689   2.790   3.861   2.500 -0.7776 -1.1530 -1.7585
 5685SOL     OW28690   1.447   4.163   6.748  0.0802  0.4133 -0.4167
 5685SOL    HW128691   1.519   4.138   6.692 -0.9123 -2.8056 -0.2581
 5685SOL    HW228692   1.383   4.176   6.678  1.7847  0.2972 -1.9873
 5686SOL     OW28693   4.202   4.585   2.284 -0.0399 -0.1543  0.5614
 5686SOL    HW128694   4.116   4.621   2.260  0.2416  2.4354  3.4949
 5686SOL    HW228695   4.183   4.499   2.322 -2.0047 -0.4502 -1.1082
 5687SOL     OW28696   3.896   3.128  13.081 -0.2152  0.3542  0.0864
 5687SOL    HW128697   3.921   3.139  13.172  0.1064  2.2486 -0.2451
 5687SOL    HW228698   3.989   3.131  13.059 -0.3352  0.1002 -0.4763
 5688SOL     OW28699   1.248   3.566   5.670 -0.3444  0.1509 -0.5333
 5688SOL    HW128700   1.176   3.553   5.732  0.4292 -0.0320  0.3313
 5688SOL    HW228701   1.281   3.654   5.690 -1.8137  0.7282 -0.6353
 5689SOL     OW28702   4.279   3.586   7.488 -0.2395 -0.2743 -0.2160
 5689SOL    HW128703   4.266   3.505   7.440 -1.2024  0.7349 -1.6627
 5689SOL    HW228704   4.209   3.572   7.553  0.4404 -0.9770  0.3574
 5690SOL     OW28705   3.188   3.176   7.467 -0.0635 -0.3891 -0.0433
 5690SOL    HW128706   3.186   3.254   7.411  2.0698 -0.6428 -0.4776
 5690SOL    HW228707   3.096   3.180   7.493 -0.4613 -0.5311 -1.4344
 5691SOL     OW28708   3.506   4.398   0.113 -0.3179 -0.1562 -0.2942
 5691SOL    HW128709   3.511   4.302   0.109 -2.0986 -0.2893  0.6485
 5691SOL    HW228710   3.577   4.435   0.061 -1.6809 -0.0295 -2.0723
 5692SOL     OW28711   3.893   3.501   7.923  0.0901  0.4455  0.1963
 5692SOL    HW128712   3.803   3.532   7.921  0.3569  1.0320 -3.2776
 5692SOL    HW228713   3.874   3.418   7.878  0.0706 -0.0612  1.1289
 5693SOL     OW28714   2.565   2.465   7.679  0.2232 -0.8343  0.0806
 5693SOL    HW128715   2.612   2.509   7.608  0.2883 -0.7048  0.2043
 5693SOL    HW228716   2.637   2.444   7.738  2.2723  0.4736 -1.9004
 5694SOL     OW28717   1.662   4.162   3.849 -0.3184 -0.1469  0.5349
 5694SOL    HW128718   1.587   4.121   3.805  0.3777  1.0434 -1.6990
 5694SOL    HW228719   1.641   4.253   3.828 -1.6335 -0.2162  1.5094
 5695SOL     OW28720   3.904   3.195   5.281  0.0732 -0.1825 -0.0391
 5695SOL    HW128721   3.858   3.182   5.198 -1.0469  1.6265  0.2948
 5695SOL    HW228722   3.921   3.105   5.309  0.9760 -0.2739 -0.8885
 5696SOL     OW28723   4.248   4.608   6.041  0.6892  1.1240 -0.5392
 5696SOL    HW128724   4.322   4.657   6.005  1.3946 -0.3412 -1.0842
 5696SOL    HW228725   4.258   4.638   6.131 -0.8606  0.4984 -0.1575
 5697SOL     OW28726   1.429   4.301   2.734  0.2226  0.5320  0.1300
 5697SOL    HW128727   1.495   4.235   2.714 -1.4929 -0.9254 -0.8088
 5697SOL    HW228728   1.474   4.341   2.808 -0.1691 -1.4578  1.4367
 5698SOL     OW28729   2.417   1.197  11.621 -0.1143  0.2438  0.2928
 5698SOL    HW128730   2.335   1.226  11.581 -0.5085  1.4086  1.9632
 5698SOL    HW228731   2.477   1.264  11.589  1.9252 -2.0659 -0.7021
 5699SOL     OW28732   3.589   2.536   5.410  0.3457  0.2910  0.4751
 5699SOL    HW128733   3.614   2.615   5.363 -1.9884 -0.1908 -1.5704
 5699SOL    HW228734   3.509   2.576   5.445 -0.4174 -1.1449  0.3859
 5700SOL     OW28735   0.215   0.286   2.121  0.0719 -1.1878 -0.5449
 5700SOL    HW128736   0.145   0.342   2.088  1.0641 -0.0974 -0.7670
 5700SOL    HW228737   0.167   0.208   2.151  1.7487 -1.4145  1.5650
 5701SOL     OW28738   3.237   0.265  14.399 -0.5963 -0.1327  0.2840
 5701SOL    HW128739   3.152   0.304  14.377 -0.1347  0.0747 -1.1498
 5701SOL    HW228740   3.293   0.343  14.404 -0.0002 -0.6054  0.8379
 5702SOL     OW28741   1.305   2.313   7.229 -0.5807 -0.4824 -0.5481
 5702SOL    HW128742   1.331   2.405   7.234 -0.3025 -0.5759 -0.2191
 5702SOL    HW228743   1.391   2.277   7.253 -0.7474 -1.9059 -2.1411
 5703SOL     OW28744   4.361   2.925   1.973  0.1363 -0.0059  0.6362
 5703SOL    HW128745   4.295   2.973   1.922  3.0235  0.3770 -2.7690
 5703SOL    HW228746   4.408   2.900   1.893 -0.1095  0.5383  0.3177
 5704SOL     OW28747   2.990   4.151  10.325  0.1353 -0.4115 -0.2137
 5704SOL    HW128748   3.026   4.063  10.314  1.1879  0.3272 -2.5270
 5704SOL    HW228749   2.961   4.130  10.414  0.4689 -1.2655 -0.3066
 5705SOL     OW28750   1.852   3.132   1.508  0.0370  0.0316 -0.1195
 5705SOL    HW128751   1.891   3.084   1.582  0.7346  1.3444  0.3751
 5705SOL    HW228752   1.766   3.090   1.511  1.2580 -2.4744  0.6939
 5706SOL     OW28753   4.166   0.271   6.039  0.7587 -0.0116 -1.0779
 5706SOL    HW128754   4.117   0.273   5.957  0.7190  2.0867 -0.9815
 5706SOL    HW228755   4.154   0.360   6.071  0.0825  0.2137 -1.9632
 5707SOL     OW28756   0.944   4.112   2.276 -0.1999  0.2870 -0.6994
 5707SOL    HW128757   0.980   4.187   2.323 -1.9277  0.1349  0.8562
 5707SOL    HW228758   1.014   4.099   2.212 -0.2640  3.4865 -1.4506
 5708SOL     OW28759   3.780   3.090  13.431  0.3513 -0.2245  0.2347
 5708SOL    HW128760   3.843   3.152  13.394 -0.7741  1.3188  0.9143
 5708SOL    HW228761   3.742   3.131  13.509 -0.1210 -2.1914  1.0185
 5709SOL     OW28762   0.051   1.907   1.294  0.1768  0.2891 -0.0386
 5709SOL    HW128763   0.101   1.952   1.362  0.3349  0.7081 -0.4297
 5709SOL    HW228764   0.077   1.815   1.297 -1.2845 -0.0756  1.6464
 5710SOL     OW28765   2.136   3.695   1.493  0.5435 -0.2907 -0.5281
 5710SOL    HW128766   2.058   3.744   1.517  1.6684  1.5073 -0.5641
 5710SOL    HW228767   2.121   3.614   1.543 -0.2272  0.0616 -0.2027
 5711SOL     OW28768   4.101   1.744  16.172  0.5496  0.2547 -0.1500
 5711SOL    HW128769   4.158   1.769  16.099 -0.4274  4.1934  0.4454
 5711SOL    HW228770   4.014   1.749  16.132 -0.5085 -0.8577  2.0277
 5712SOL     OW28771   1.586   3.825  12.655  0.4248  0.1943  0.2830
 5712SOL    HW128772   1.492   3.843  12.660  0.4388 -0.0505  1.3962
 5712SOL    HW228773   1.625   3.886  12.592  0.1319  0.9888  0.8814
 5713SOL     OW28774   2.084   3.263   3.965  0.1736  0.1108 -0.1016
 5713SOL    HW128775   2.165   3.279   3.917  0.4247 -1.2460 -0.1192
 5713SOL    HW228776   2.014   3.286   3.903  0.9387  0.5630 -0.7993
 5714SOL     OW28777   1.437   1.337  10.638  0.1774  0.5112 -0.2433
 5714SOL    HW128778   1.367   1.293  10.686  0.0997 -0.4155 -1.2098
 5714SOL    HW228779   1.399   1.425  10.628  3.0086  1.6294 -1.1363
 5715SOL     OW28780   2.734   3.262   2.133  0.0157  0.0020  0.1306
 5715SOL    HW128781   2.790   3.291   2.205  1.8574  1.0470 -1.7493
 5715SOL    HW228782   2.660   3.322   2.148  1.8483  2.5590 -1.0972
 5716SOL     OW28783   1.921   1.810   0.509 -0.1028  0.3718  0.0178
 5716SOL    HW128784   1.845   1.840   0.460 -1.0650 -2.0399  0.0230
 5716SOL    HW228785   1.928   1.877   0.577 -1.0185 -0.2569  0.7322
 5717SOL     OW28786   0.888   3.880   2.104  0.0830  0.5959 -0.1298
 5717SOL    HW128787   0.974   3.919   2.088 -0.0851  1.4571  1.1181
 5717SOL    HW228788   0.863   3.932   2.180 -1.7353 -2.2100  1.2209
 5718SOL     OW28789   3.144   2.713   5.054  0.0644 -0.0207 -0.2562
 5718SOL    HW128790   3.195   2.721   4.974  0.8185 -0.2014  0.2009
 5718SOL    HW228791   3.202   2.660   5.109 -0.3521  1.1588  1.3119
 5719SOL     OW28792   4.052   1.057   1.361 -0.2432  0.3971 -0.3560
 5719SOL    HW128793   4.025   1.148   1.353 -0.7856  0.0872 -1.9658
 5719SOL    HW228794   4.037   1.035   1.453  0.9455  1.4352  0.0764
 5720SOL     OW28795   0.153   3.439   5.792 -0.5001  0.2256 -0.2082
 5720SOL    HW128796   0.170   3.496   5.867  0.5009 -0.1444 -0.1554
 5720SOL    HW228797   0.238   3.394   5.795 -0.8275 -0.3206  0.9299
 5721SOL     OW28798   2.171   4.655   9.029  0.3786  0.9598 -0.4232
 5721SOL    HW128799   2.114   4.641   9.105 -0.8938 -0.2019 -1.5942
 5721SOL    HW228800   2.129   4.609   8.957  1.2371 -1.3373  0.5522
 5722SOL     OW28801   2.881   4.063   7.713  0.2745  0.2882 -0.1164
 5722SOL    HW128802   2.838   4.114   7.782 -1.7314 -3.5123  1.4151
 5722SOL    HW228803   2.938   4.011   7.769 -0.3646  0.5316  0.7614
 5723SOL     OW28804   3.056   2.286   6.834  0.2532 -0.1668 -0.1425
 5723SOL    HW128805   3.136   2.233   6.832  0.4977  0.2814 -2.4295
 5723SOL    HW228806   3.086   2.345   6.903  2.9191  0.3078 -1.7028
 5724SOL     OW28807   4.475   3.139   9.157  0.0034  0.4386 -0.4665
 5724SOL    HW128808   4.390   3.175   9.133  0.6166  1.7579 -0.6423
 5724SOL    HW228809   4.494   3.107   9.069  0.9761  0.0955 -0.1279
 5725SOL     OW28810   3.534   1.812   5.264  0.0965  0.0639  0.6483
 5725SOL    HW128811   3.595   1.883   5.242 -0.2968 -0.2579 -1.3971
 5725SOL    HW228812   3.458   1.862   5.235  0.2625  0.5693  1.0643
 5726SOL     OW28813   3.819   2.871   4.020 -0.6212  0.5001  0.0105
 5726SOL    HW128814   3.773   2.840   4.099 -0.6299 -0.5507 -0.4007
 5726SOL    HW228815   3.799   2.800   3.959 -1.1506  0.0318  0.7145
 5727SOL     OW28816   2.442   2.464   7.986 -0.0263 -0.2394 -0.0013
 5727SOL    HW128817   2.467   2.458   8.078 -0.3078  0.0314  0.0908
 5727SOL    HW228818   2.415   2.555   7.975 -1.2522 -0.5007  0.9458
 5728SOL     OW28819   2.772   3.145  13.910 -0.9144 -0.0938 -0.4882
 5728SOL    HW128820   2.738   3.208  13.973 -1.9993 -1.6903  0.5158
 5728SOL    HW228821   2.730   3.175  13.829 -0.8196 -1.0873 -0.8986
 5729SOL     OW28822   1.852   2.173   4.193 -0.2164  0.1601 -1.0036
 5729SOL    HW128823   1.886   2.256   4.227  0.1650  0.1827 -1.4375
 5729SOL    HW228824   1.774   2.207   4.150  0.4100  0.7883 -1.6467
 5730SOL     OW28825   1.827   3.559   9.712  0.2594 -0.2992 -0.4206
 5730SOL    HW128826   1.884   3.486   9.736  0.5234  0.5467  1.5068
 5730SOL    HW228827   1.867   3.622   9.772 -1.5324 -0.5673  1.0334
 5731SOL     OW28828   0.806   4.329   7.043 -0.3450 -0.4028  0.9258
 5731SOL    HW128829   0.898   4.338   7.070 -0.6860  0.4680  1.8422
 5731SOL    HW228830   0.756   4.322   7.125  0.3326  0.9058  1.4640
 5732SOL     OW28831   0.570   0.589   3.547  0.3922  0.0973 -0.1378
 5732SOL    HW128832   0.501   0.524   3.553  1.3265 -0.9963 -1.1861
 5732SOL    HW228833   0.519   0.669   3.558 -1.0211 -0.7756 -0.4165
 5733SOL     OW28834   3.986   3.286   3.691  0.0104  0.8640  0.0135
 5733SOL    HW128835   3.893   3.287   3.669 -0.1139 -0.7491  0.4387
 5733SOL    HW228836   4.011   3.194   3.686  0.0026  0.7499  1.9763
 5734SOL     OW28837   2.511   4.096   4.554  0.1568 -0.0951  0.7518
 5734SOL    HW128838   2.469   4.067   4.474 -0.9547  0.8724  0.9967
 5734SOL    HW228839   2.470   4.032   4.612 -3.3685  1.3291 -0.2290
 5735SOL     OW28840   3.223   1.369   3.551  0.4417 -0.1038  0.8663
 5735SOL    HW128841   3.290   1.436   3.562 -1.3948  1.9537 -0.2914
 5735SOL    HW228842   3.159   1.404   3.613 -0.3106  1.3426 -0.7221
 5736SOL     OW28843   0.675   2.405   8.392  0.0924 -0.3946 -0.0269
 5736SOL    HW128844   0.706   2.480   8.444 -0.5074 -0.4711  0.4489
 5736SOL    HW228845   0.767   2.391   8.368  0.7263  1.2741  1.4222
 5737SOL     OW28846   4.075   0.510   1.547  0.1380 -0.3938  0.3461
 5737SOL    HW128847   4.004   0.562   1.585  0.6686 -0.5629  1.5703
 5737SOL    HW228848   4.076   0.546   1.458 -0.6542 -0.7660  0.1868
 5738SOL     OW28849   4.348   1.772   8.499  0.2096 -0.1315 -0.2849
 5738SOL    HW128850   4.403   1.823   8.559 -0.7106  0.8254 -0.2417
 5738SOL    HW228851   4.272   1.764   8.557 -0.5405  1.9369 -0.9657
 5739SOL     OW28852   4.475   1.558   6.400 -0.1057 -0.1080 -0.0589
 5739SOL    HW128853   4.460   1.536   6.308 -2.5851 -2.8470  1.0190
 5739SOL    HW228854   4.407   1.516   6.452  1.6420 -2.2557  0.5236
 5740SOL     OW28855   2.457   0.187   2.036 -0.5394  0.2237 -0.3411
 5740SOL    HW128856   2.490   0.100   2.013  0.6600  0.6548 -0.2525
 5740SOL    HW228857   2.363   0.172   2.033 -0.6868  1.2730 -1.1468
 5741SOL     OW28858   4.334   1.829  15.964  0.2703 -0.0701  0.0150
 5741SOL    HW128859   4.419   1.828  15.920  1.3585  1.3594  2.1007
 5741SOL    HW228860   4.280   1.902  15.933  0.1080 -0.1940  0.0044
 5742SOL     OW28861   0.507   1.863   1.382 -0.8832  0.5190 -0.2051
 5742SOL    HW128862   0.558   1.828   1.454 -0.5427  1.7491  0.1416
 5742SOL    HW228863   0.556   1.937   1.347  0.4616 -0.7023 -0.9187
 5743SOL     OW28864   1.113   3.189   5.750 -0.4076 -0.2154 -0.0057
 5743SOL    HW128865   1.154   3.234   5.824  1.0561  1.1851 -1.6596
 5743SOL    HW228866   1.032   3.235   5.767 -0.3964 -0.2924  0.2641
 5744SOL     OW28867   0.007   4.153   5.474 -0.0891  0.0777 -0.2220
 5744SOL    HW128868   0.098   4.148   5.444 -0.2460 -2.8429 -0.1979
 5744SOL    HW228869   4.712   4.235   5.437  1.4027 -0.2693 -2.2475
 5745SOL     OW28870   3.594   3.230   7.658 -0.4521  0.8334  0.8621
 5745SOL    HW128871   3.573   3.216   7.566 -0.9205  2.6410  0.6979
 5745SOL    HW228872   3.557   3.156   7.706  0.7879 -0.8377 -0.7823
 5746SOL     OW28873   4.721   1.470   6.254 -0.4833 -0.2625 -0.0685
 5746SOL    HW128874   0.055   1.472   6.319  1.8001 -2.2144 -2.4619
 5746SOL    HW228875   4.646   1.447   6.309  1.0681 -0.3704  1.9962
 5747SOL     OW28876   1.800   4.476   3.804 -0.2214  0.1578  0.6769
 5747SOL    HW128877   1.798   4.427   3.886 -2.7723 -0.6089  0.1442
 5747SOL    HW228878   1.891   4.506   3.794 -0.5836 -0.3459 -4.1623
 5748SOL     OW28879   2.443   2.057   0.793  0.5729  0.0641 -0.9226
 5748SOL    HW128880   2.523   2.053   0.740  2.2453 -0.8404  1.6442
 5748SOL    HW228881   2.438   2.151   0.805 -1.7068 -0.1340 -0.3557
 5749SOL     OW28882   4.566   0.002  11.584 -0.0224  0.6243 -0.4098
 5749SOL    HW128883   4.661   0.001  11.596 -0.0413 -0.0680 -0.3544
 5749SOL    HW228884   4.546   0.045  11.667  1.0674 -1.9545  1.1759
 5750SOL     OW28885   2.911   1.797   3.063  0.3150  0.1142 -0.4707
 5750SOL    HW128886   2.832   1.799   3.010  0.3006  0.8760 -0.4237
 5750SOL    HW228887   2.967   1.792   2.986 -0.2348  0.0910 -0.8634
 5751SOL     OW28888   3.818   1.694  16.628 -0.0110 -0.2334  0.1872
 5751SOL    HW128889   3.787   1.670  16.541 -0.6485 -1.9775  0.8807
 5751SOL    HW228890   3.847   1.782  16.605  2.1112 -1.4710 -1.9523
 5752SOL     OW28891   2.100   3.762   5.468  0.0551 -0.3109 -0.1825
 5752SOL    HW128892   2.145   3.798   5.392 -1.8646  2.7262  0.1383
 5752SOL    HW228893   2.059   3.832   5.519 -1.5268 -1.1229 -0.3467
 5753SOL     OW28894   3.758   2.116   9.098  0.3211  0.2599 -0.0628
 5753SOL    HW128895   3.796   2.052   9.037  3.1997  1.5579  0.3682
 5753SOL    HW228896   3.752   2.063   9.178  1.0432  0.6979  0.2870
 5754SOL     OW28897   2.448   3.232   6.489 -0.0119 -0.0147 -0.1966
 5754SOL    HW128898   2.473   3.250   6.398  0.1549 -0.2906 -0.2062
 5754SOL    HW228899   2.451   3.319   6.528  0.0704 -0.1816  0.1649
 5755SOL     OW28900   3.591   3.374   9.329  0.3813  0.3915  0.1057
 5755SOL    HW128901   3.569   3.297   9.381 -1.4636  2.5740  2.5140
 5755SOL    HW228902   3.518   3.376   9.267  1.6934 -0.1766 -1.4653
 5756SOL     OW28903   3.601   3.753  10.148  0.4243 -0.6762  0.3584
 5756SOL    HW128904   3.687   3.711  10.143  0.3739 -0.7732  0.3202
 5756SOL    HW228905   3.606   3.795  10.063 -1.3505 -1.5046 -0.1429
 5757SOL     OW28906   1.307   1.591  17.324  0.4173  0.6455 -0.0571
 5757SOL    HW128907   1.319   1.660  17.258 -2.1143  1.6363  0.5137
 5757SOL    HW228908   1.293   1.521  17.260 -0.0692  1.7705 -1.1884
 5758SOL     OW28909   1.506   3.922   8.949 -0.3149 -0.4525  0.0757
 5758SOL    HW128910   1.575   3.856   8.946 -0.1437 -0.1900 -1.7575
 5758SOL    HW228911   1.467   3.903   9.035 -3.0743  0.4881 -0.9847
 5759SOL     OW28912   2.746   0.490   1.785 -0.4247  0.6238  0.0944
 5759SOL    HW128913   2.663   0.451   1.812  0.2964  0.7591  2.5053
 5759SOL    HW228914   2.707   0.537   1.711  1.2754 -0.0097 -1.2079
 5760SOL     OW28915   2.475   2.663   4.384 -0.0690 -0.0241 -0.7211
 5760SOL    HW128916   2.414   2.723   4.342 -1.0857 -0.7646 -0.3149
 5760SOL    HW228917   2.503   2.714   4.460  2.4931 -0.9341 -1.0495
 5761SOL     OW28918   3.352   3.938   0.937 -0.1983  0.3043 -0.0608
 5761SOL    HW128919   3.348   3.861   0.880 -1.6209  0.2779  0.0555
 5761SOL    HW228920   3.386   3.886   1.010 -0.5356 -3.1264 -2.3469
 5762SOL     OW28921   3.923   0.185   8.453  0.3108  0.1883  0.4229
 5762SOL    HW128922   3.989   0.116   8.445 -0.0313 -0.2293  1.1888
 5762SOL    HW228923   3.855   0.129   8.491 -0.9172 -0.1667 -2.2920
 5763SOL     OW28924   1.048   3.826   3.747 -0.1669 -0.2388  0.0805
 5763SOL    HW128925   1.086   3.744   3.715 -1.1077 -0.6087 -0.0921
 5763SOL    HW228926   1.089   3.831   3.833  0.4469 -0.6626 -0.1878
 5764SOL     OW28927   2.374   1.734   3.800 -0.1736 -0.1911  0.7878
 5764SOL    HW128928   2.457   1.756   3.843  0.7245  0.5543 -1.3120
 5764SOL    HW228929   2.389   1.734   3.705 -0.3363 -0.1146  0.7611
 5765SOL     OW28930   0.254   2.171   2.398  0.2041  0.7231  0.0089
 5765SOL    HW128931   0.172   2.139   2.359 -0.0965  1.3746  0.1083
 5765SOL    HW228932   0.233   2.167   2.491  2.1795 -2.1024  0.3520
 5766SOL     OW28933   3.269   0.521   1.895  0.2914  0.0547 -0.1480
 5766SOL    HW128934   3.193   0.565   1.935 -0.6905 -0.0545 -1.8915
 5766SOL    HW228935   3.219   0.466   1.835  1.3667 -0.1087 -0.8973
 5767SOL     OW28936   1.299   3.793   2.465  0.1423 -0.3455  0.0794
 5767SOL    HW128937   1.287   3.703   2.495 -2.2751  0.0024  0.1397
 5767SOL    HW228938   1.381   3.817   2.509 -0.6614 -0.2535  1.5353
 5768SOL     OW28939   4.187   3.647  15.848  0.6399 -0.1118 -0.4231
 5768SOL    HW128940   4.282   3.635  15.852  1.1157  4.1009  0.2526
 5768SOL    HW228941   4.161   3.590  15.921 -0.3047 -1.6181 -1.9332
 5769SOL     OW28942   4.567   0.032   8.172  0.0374  0.5778 -0.3245
 5769SOL    HW128943   4.608   4.684   8.153 -1.9222 -0.5974  0.7356
 5769SOL    HW228944   4.646   0.086   8.164 -0.2436  1.2448  1.2644
 5770SOL     OW28945   1.394   2.151  12.438  0.1474 -0.9361 -1.1815
 5770SOL    HW128946   1.302   2.173  12.426  0.4560  0.3166 -1.2686
 5770SOL    HW228947   1.429   2.219  12.379  0.3425  0.8529  1.0163
 5771SOL     OW28948   2.275   2.769   3.982  0.0240  0.0573  0.1608
 5771SOL    HW128949   2.245   2.848   4.026  3.0386  2.2972 -1.8157
 5771SOL    HW228950   2.365   2.785   3.953 -0.0824  1.2406  0.4878
 5772SOL     OW28951   4.399   3.258   0.809 -0.0754  0.2592  0.3616
 5772SOL    HW128952   4.458   3.327   0.778 -0.3671 -0.1086 -0.9883
 5772SOL    HW228953   4.336   3.248   0.739 -0.3678 -1.6423  0.8740
 5773SOL     OW28954   1.773   0.720   3.546  0.3121  0.1514 -0.1464
 5773SOL    HW128955   1.826   0.737   3.623 -0.4028 -0.6889  0.5332
 5773SOL    HW228956   1.834   0.736   3.474  2.5370 -1.4921  1.4025
 5774SOL     OW28957   2.054   3.296   8.737 -1.0343  0.9345 -0.0178
 5774SOL    HW128958   2.057   3.305   8.832 -1.3976 -2.3040  0.2730
 5774SOL    HW228959   2.091   3.208   8.732 -0.8164  1.0381 -0.2493
 5775SOL     OW28960   2.695   0.421   7.738  0.1791 -0.3637  0.2153
 5775SOL    HW128961   2.600   0.434   7.739  0.1575 -0.5588  0.7426
 5775SOL    HW228962   2.704   0.347   7.678 -1.2258  2.1542 -3.1100
 5776SOL     OW28963   1.195   3.397  17.722 -0.6234 -0.3818  0.3655
 5776SOL    HW128964   1.138   3.456   0.028 -1.5673  0.7594 -2.0777
 5776SOL    HW228965   1.139   3.322  17.701  0.7664 -1.2430 -0.3248
 5777SOL     OW28966   3.242   1.108   7.355  0.3288  0.1553  0.0737
 5777SOL    HW128967   3.240   1.021   7.315  1.9907 -0.9097  2.3037
 5777SOL    HW228968   3.332   1.100   7.387  0.3984  0.4140 -0.0527
 5778SOL     OW28969   0.625   2.798   5.549 -0.7050 -0.1668 -0.2264
 5778SOL    HW128970   0.677   2.877   5.561 -1.3190  0.2779 -0.5622
 5778SOL    HW228971   0.649   2.745   5.626  2.1143  1.2532 -0.1151
 5779SOL     OW28972   1.755   3.699   1.030 -0.5754 -0.5440 -0.0326
 5779SOL    HW128973   1.782   3.650   1.108 -2.9010 -0.8857  0.5603
 5779SOL    HW228974   1.843   3.727   1.003 -0.5855 -0.2970  0.1903
 5780SOL     OW28975   3.511   2.643  12.680 -0.2800 -0.5334 -0.4738
 5780SOL    HW128976   3.459   2.711  12.724  1.1920  0.3342 -0.0877
 5780SOL    HW228977   3.451   2.572  12.659  1.3647 -1.6419 -1.4242
 5781SOL     OW28978   2.244   4.185   9.932  0.3931  0.0286 -0.4115
 5781SOL    HW128979   2.221   4.249   9.864 -0.3037 -0.5518 -0.7220
 5781SOL    HW228980   2.251   4.250  10.003 -0.2344 -0.8097  0.4154
 5782SOL     OW28981   0.655   0.064   2.129  0.2077  0.2891 -0.5489
 5782SOL    HW128982   0.671   0.097   2.217 -3.3273  0.5809 -0.0475
 5782SOL    HW228983   0.635   4.709   2.152  0.0408  0.6825  0.8436
 5783SOL     OW28984   0.938   1.059  11.620 -0.1937  0.1107 -0.0237
 5783SOL    HW128985   0.882   0.982  11.616 -0.3931  0.2271  0.4603
 5783SOL    HW228986   0.989   1.034  11.697 -0.5342  0.4921  0.3292
 5784SOL     OW28987   0.443   4.615   7.505  0.3943  0.6264 -0.1008
 5784SOL    HW128988   0.454   4.581   7.416 -0.0306 -1.4287  0.6197
 5784SOL    HW228989   0.459   4.708   7.492  0.3658  0.3380 -2.1186
 5785SOL     OW28990   1.097   3.897   6.747  0.0581  0.2512  0.3474
 5785SOL    HW128991   1.087   3.979   6.795  2.4492  0.0529  1.1504
 5785SOL    HW228992   1.110   3.922   6.655 -1.1702  0.2487  0.1746
 5786SOL     OW28993   2.163   2.612  13.160  0.0530 -0.3788 -0.1860
 5786SOL    HW128994   2.223   2.676  13.122  2.3205 -1.3120  1.8368
 5786SOL    HW228995   2.209   2.529  13.146 -0.2983 -0.7753  0.9711
 5787SOL     OW28996   4.086   4.696   1.278  0.3046 -0.1727  0.0031
 5787SOL    HW128997   4.048   4.610   1.293 -0.6224  0.7114  2.7027
 5787SOL    HW228998   4.029   0.018   1.328  0.4481 -0.2397  0.2399
 5788SOL     OW28999   4.404   3.423   7.993 -0.3199  1.2525 -0.8036
 5788SOL    HW129000   4.450   3.359   8.047 -1.1589 -0.0395 -1.6154
 5788SOL    HW229001   4.460   3.439   7.917  0.8163  0.8605 -0.0552
 5789SOL     OW29002   0.948   0.979   6.836  0.3259 -0.8260 -0.4835
 5789SOL    HW129003   0.999   0.964   6.916 -0.6001  0.8536  0.4153
 5789SOL    HW229004   0.994   0.931   6.767  0.1936 -2.1507  0.3266
 5790SOL     OW29005   3.668   0.021   6.360  0.4799 -0.2932  0.3815
 5790SOL    HW129006   3.682   4.736   6.268  1.8497  0.3816  0.4409
 5790SOL    HW229007   3.596   0.084   6.362 -1.1859 -2.1851  0.1142
 5791SOL     OW29008   0.983   0.350   6.786  0.3494 -0.4792 -0.0888
 5791SOL    HW129009   0.921   0.323   6.855  0.0773 -1.2458 -0.6372
 5791SOL    HW229010   0.987   0.443   6.809 -1.9797 -0.2987 -0.4091
 5792SOL     OW29011   0.301   2.812   1.161 -0.4718 -0.4437  0.6150
 5792SOL    HW129012   0.359   2.792   1.235  1.3900  1.9425 -0.1905
 5792SOL    HW229013   0.259   2.731   1.134 -0.2932 -0.7699  1.3359
 5793SOL     OW29014   2.581   1.863   3.922 -0.3650 -0.2438  0.3674
 5793SOL    HW129015   2.525   1.939   3.906  0.8437  0.5583 -0.0242
 5793SOL    HW229016   2.664   1.909   3.928 -0.2573 -0.1956 -1.4624
 5794SOL     OW29017   0.015   2.166   1.125 -0.1334  0.1355  0.3196
 5794SOL    HW129018   4.734   2.100   1.192  3.0191  0.9630  1.9126
 5794SOL    HW229019   0.086   2.129   1.073 -0.8403  0.1446 -0.6551
 5795SOL     OW29020   4.019   3.638   0.846  0.1073  0.6077  0.2494
 5795SOL    HW129021   4.020   3.550   0.808  2.3394  0.4692  0.6676
 5795SOL    HW229022   4.035   3.611   0.936 -1.9537 -1.2311  0.0642
 5796SOL     OW29023   2.650   0.464   4.067  0.1474  0.3041 -0.0883
 5796SOL    HW129024   2.556   0.463   4.049  0.2936  3.4187 -1.0403
 5796SOL    HW229025   2.678   0.532   4.006 -2.5903  0.3689 -1.2488
 5797SOL     OW29026   2.682   3.971   6.534 -0.4232  0.4459  0.9435
 5797SOL    HW129027   2.758   3.915   6.551  0.4219  1.3805  0.2554
 5797SOL    HW229028   2.694   4.031   6.607  0.0317 -0.5164  1.6709
 5798SOL     OW29029   1.794   2.278   4.791 -0.1375  0.1114 -0.0734
 5798SOL    HW129030   1.867   2.279   4.729 -2.0101  1.8290 -2.2716
 5798SOL    HW229031   1.745   2.197   4.778 -0.0370  0.6540 -3.6719
 5799SOL     OW29032   0.450   4.247   1.577  0.0531  0.4557  0.5811
 5799SOL    HW129033   0.383   4.299   1.621 -3.2873  0.0705 -4.0179
 5799SOL    HW229034   0.487   4.196   1.648 -0.3588 -1.4422 -0.5614
 5800SOL     OW29035   3.383   1.893   7.080  0.0724 -0.4550 -0.3655
 5800SOL    HW129036   3.393   1.876   6.986 -2.5709 -1.4374 -0.4509
 5800SOL    HW229037   3.464   1.849   7.107 -0.8225 -2.0887 -0.3246
 5801SOL     OW29038   0.122   3.701  16.864 -0.5278  0.1435 -0.0348
 5801SOL    HW129039   0.172   3.626  16.833 -1.1833 -0.5524  0.5800
 5801SOL    HW229040   0.087   3.737  16.783  0.4127 -0.6159 -0.7806
 5802SOL     OW29041   2.860   3.121   6.266  0.1042 -0.7673  0.7527
 5802SOL    HW129042   2.838   3.211   6.243  1.1980 -0.6920  0.0064
 5802SOL    HW229043   2.804   3.112   6.343  0.6531  0.9098  1.3541
 5803SOL     OW29044   2.126   1.217   5.467 -0.4248 -0.0824  0.1548
 5803SOL    HW129045   2.073   1.138   5.482 -1.6750  0.6221 -0.5700
 5803SOL    HW229046   2.146   1.229   5.560  0.6616  0.9510 -0.2198
 5804SOL     OW29047   1.964   4.596  16.525 -0.9422 -0.0775  0.3054
 5804SOL    HW129048   2.052   4.625  16.502 -0.3440 -0.8339  1.7016
 5804SOL    HW229049   1.951   4.624  16.616  0.5547 -1.3223  0.8807
 5805SOL     OW29050   3.640   0.793   7.994 -0.1087  0.4188  0.1929
 5805SOL    HW129051   3.645   0.869   8.052 -4.3556 -0.7257  2.0537
 5805SOL    HW229052   3.706   0.811   7.927 -0.2972 -2.3606 -0.7318
 5806SOL     OW29053   3.286   0.135  17.739 -0.1479 -0.1620  0.2123
 5806SOL    HW129054   3.280   0.155   0.089  0.2105  0.6886  0.0542
 5806SOL    HW229055   3.327   0.050   0.010 -1.0906 -0.4924  0.9646
 5807SOL     OW29056   2.225   4.158   7.552 -0.2520  0.2133  0.5777
 5807SOL    HW129057   2.254   4.211   7.627  1.9575 -0.4394  0.1947
 5807SOL    HW229058   2.307   4.109   7.543  0.1609  1.2110 -1.1239
 5808SOL     OW29059   2.037   0.323   6.416  0.0823 -0.3379 -0.1813
 5808SOL    HW129060   2.011   0.263   6.486  2.5076 -1.2610 -0.0772
 5808SOL    HW229061   2.091   0.273   6.356 -0.0861 -2.6186  1.5471
 5809SOL     OW29062   2.634   4.660   5.590 -0.5913  0.2251  0.0385
 5809SOL    HW129063   2.707   4.713   5.623  0.7392 -0.8514 -1.1478
 5809SOL    HW229064   2.637   4.579   5.641  0.2644  0.4313  0.3140
 5810SOL     OW29065   4.600   1.971  14.001  0.4489  0.1385 -0.2035
 5810SOL    HW129066   4.514   1.947  13.964  0.9731 -1.6160 -0.3106
 5810SOL    HW229067   4.614   1.898  14.061 -0.7144  0.3634  0.3492
 5811SOL     OW29068   4.733   3.708   7.751 -0.3531  0.9367 -0.2040
 5811SOL    HW129069   4.647   3.688   7.713 -0.4241  0.7178  0.0708
 5811SOL    HW229070   0.045   3.659   7.685 -0.5837  1.4148 -0.7318
 5812SOL     OW29071   2.183   3.289  13.543  0.1786  0.4156 -0.4427
 5812SOL    HW129072   2.102   3.259  13.584  0.1405 -0.2633 -1.0124
 5812SOL    HW229073   2.182   3.235  13.463  1.3886  0.7069 -0.6673
 5813SOL     OW29074   2.046   2.318   4.573  0.1053 -0.3936 -1.1127
 5813SOL    HW129075   2.127   2.290   4.617  0.2438  0.4181 -0.8475
 5813SOL    HW229076   2.048   2.411   4.593  0.1947 -0.2291 -1.8798
 5814SOL     OW29077   1.266   3.765  17.695  0.1630 -0.2383 -0.3519
 5814SOL    HW129078   1.234   3.786   0.040  2.1287  0.1505  0.2732
 5814SOL    HW229079   1.302   3.851  17.672 -1.6277  0.0230 -2.1441
 5815SOL     OW29080   2.447   2.131   1.681 -0.0475 -0.0993  0.1114
 5815SOL    HW129081   2.402   2.073   1.619 -0.6006 -0.6507  1.0460
 5815SOL    HW229082   2.383   2.188   1.724 -0.6023 -0.9185  0.3716
 5816SOL     OW29083   4.399   1.504  10.714 -0.1012  0.0042  0.2185
 5816SOL    HW129084   4.422   1.580  10.660 -1.3522 -1.4035 -2.2900
 5816SOL    HW229085   4.467   1.441  10.691 -1.7778 -0.8181 -2.5724
 5817SOL     OW29086   0.086   3.372   2.740  0.6903  0.2829  0.1542
 5817SOL    HW129087   0.154   3.329   2.791 -0.6250 -2.3606 -0.3287
 5817SOL    HW229088   0.146   3.406   2.673 -0.4646  1.4618 -0.2862
 5818SOL     OW29089   0.095   1.462  15.562  0.3865 -0.5100  0.7806
 5818SOL    HW129090   0.095   1.413  15.480 -0.1888  4.7534 -2.3905
 5818SOL    HW229091   0.132   1.390  15.613  3.4354 -0.4752 -1.3507
 5819SOL     OW29092   4.277   0.534   4.820  0.4419  0.1533  0.2432
 5819SOL    HW129093   4.347   0.600   4.825  0.3943  0.3721 -1.9441
 5819SOL    HW229094   4.286   0.478   4.897 -1.0102  1.8157  1.6377
 5820SOL     OW29095   0.993   0.413  17.167 -0.2433  0.2291  0.1706
 5820SOL    HW129096   1.053   0.360  17.220 -1.1754  0.6607  1.6537
 5820SOL    HW229097   1.029   0.501  17.174  0.4680  0.1328 -2.4350
 5821SOL     OW29098   4.513   4.163   1.523 -0.2309  0.2222  0.0101
 5821SOL    HW129099   4.585   4.225   1.536  1.4797 -1.9722  0.9076
 5821SOL    HW229100   4.517   4.105   1.599  2.7952  0.6112  0.1677
 5822SOL     OW29101   1.029   1.084  15.427  0.4355 -0.2696 -0.5413
 5822SOL    HW129102   1.037   1.177  15.408  1.6794  0.2234  2.3736
 5822SOL    HW229103   1.091   1.072  15.499  0.6864 -0.4239 -0.7808
 5823SOL     OW29104   1.282   0.398   2.364  0.1566 -0.5609  0.3036
 5823SOL    HW129105   1.241   0.448   2.294  0.5421 -0.6961 -0.0187
 5823SOL    HW229106   1.266   0.309   2.332  2.1308  0.2016 -2.7894
 5824SOL     OW29107   3.319   1.568   3.855  0.1747 -0.3899 -0.6132
 5824SOL    HW129108   3.326   1.582   3.760  0.2791  0.2433 -0.5121
 5824SOL    HW229109   3.382   1.632   3.888 -0.0513  0.3552 -1.6047
 5825SOL     OW29110   1.813   4.622   0.635  0.1938 -0.3237 -0.1781
 5825SOL    HW129111   1.774   4.705   0.662 -3.7436 -2.2349  0.0192
 5825SOL    HW229112   1.817   4.638   0.541  1.0062  0.6610  0.0178
 5826SOL     OW29113   3.713   4.379   4.393  0.1918  0.0583  0.5236
 5826SOL    HW129114   3.711   4.296   4.440 -2.4236 -0.0078  0.2639
 5826SOL    HW229115   3.747   4.429   4.467  0.2596  0.5915  0.1377
 5827SOL     OW29116   1.315   3.085   2.600  0.2833  0.0427 -0.0096
 5827SOL    HW129117   1.330   3.139   2.678  0.3325 -0.9900  0.6871
 5827SOL    HW229118   1.406   3.069   2.574 -0.0779 -1.7957 -0.1298
 5828SOL     OW29119   4.267   1.192   8.204 -0.0452 -0.4483 -0.0383
 5828SOL    HW129120   4.266   1.102   8.172 -2.8557 -0.7006  0.7767
 5828SOL    HW229121   4.221   1.191   8.288  0.8715 -0.6210  0.4658
 5829SOL     OW29122   0.554   3.874   9.309 -0.3247 -0.3745  0.2490
 5829SOL    HW129123   0.537   3.786   9.275 -3.4445 -0.2951  1.5985
 5829SOL    HW229124   0.590   3.858   9.396 -2.8499 -0.4848  1.2796
 5830SOL     OW29125   4.103   1.855   3.415  0.7567  0.4663  0.3749
 5830SOL    HW129126   4.062   1.867   3.329 -0.8921  1.5772  1.3125
 5830SOL    HW229127   4.176   1.918   3.413  0.4033  0.8853  0.6999
 5831SOL     OW29128   0.481   4.630  14.677 -0.2012 -0.3939  0.1367
 5831SOL    HW129129   0.526   4.615  14.760 -0.3239  1.1033  0.4826
 5831SOL    HW229130   0.530   4.582  14.611  2.0188  1.3972  0.5067
 5832SOL     OW29131   2.484   1.159   9.476  0.1979  0.3731  0.4899
 5832SOL    HW129132   2.464   1.115   9.394 -1.1854  2.5196 -0.3239
 5832SOL    HW229133   2.405   1.137   9.526 -0.4332  1.3021 -0.1052
 5833SOL     OW29134   1.576   3.843  10.925  0.2339 -0.1769  0.1593
 5833SOL    HW129135   1.608   3.874  11.009  1.0564 -0.1381 -0.1709
 5833SOL    HW229136   1.584   3.923  10.873  0.2624 -0.2807  0.0014
 5834SOL     OW29137   0.937   3.621   2.116  0.1251  0.7847  0.5701
 5834SOL    HW129138   0.913   3.611   2.024  0.6460 -5.0919  1.1180
 5834SOL    HW229139   0.891   3.703   2.136  1.0099  2.0825 -2.7726
 5835SOL     OW29140   2.295   1.318  12.568  0.1104 -0.3001  0.0598
 5835SOL    HW129141   2.295   1.308  12.663  0.3686 -0.0116  0.0900
 5835SOL    HW229142   2.220   1.268  12.537 -1.0348  1.3849  0.1321
 5836SOL     OW29143   1.534   4.371   1.199 -0.4332 -0.3118 -0.2438
 5836SOL    HW129144   1.597   4.407   1.262  1.5339  0.5626 -2.6971
 5836SOL    HW229145   1.590   4.360   1.122  0.3372 -1.2471  0.4518
 5837SOL     OW29146   4.126   0.584   1.854 -0.4264  0.1250 -0.8052
 5837SOL    HW129147   4.128   0.491   1.829 -0.6098  0.7649 -3.1573
 5837SOL    HW229148   4.043   0.591   1.902  0.5176  0.4194  0.7970
 5838SOL     OW29149   0.396   3.318   6.458  0.1934  0.5774  0.0791
 5838SOL    HW129150   0.309   3.278   6.450  0.4133  0.2635 -0.6460
 5838SOL    HW229151   0.386   3.403   6.415  0.3517  1.6865  2.1830
 5839SOL     OW29152   3.343   3.693   7.381  0.1526  0.2652  0.2755
 5839SOL    HW129153   3.368   3.674   7.291 -1.2311  0.5224 -0.1677
 5839SOL    HW229154   3.379   3.626   7.439 -0.2587 -0.1114  0.0935
 5840SOL     OW29155   3.286   3.732   3.445 -0.1268 -0.0909  0.1159
 5840SOL    HW129156   3.213   3.747   3.505 -0.0781  0.2404  0.0956
 5840SOL    HW229157   3.298   3.637   3.448  0.1471 -0.1303 -2.3475
 5841SOL     OW29158   1.807   4.108   6.287  0.3927 -0.2761  0.2708
 5841SOL    HW129159   1.851   4.042   6.233 -3.2136  0.7994 -3.9416
 5841SOL    HW229160   1.731   4.118   6.231  0.7207  1.3136  0.1282
 5842SOL     OW29161   0.656   3.324   1.425 -0.1534 -0.8151  0.3612
 5842SOL    HW129162   0.742   3.294   1.397 -0.3420 -2.1824  1.2724
 5842SOL    HW229163   0.656   3.266   1.501 -1.1071 -0.7214  0.4404
 5843SOL     OW29164   0.358   4.675   2.970 -0.8415 -0.1371  0.4086
 5843SOL    HW129165   0.371   4.596   2.919  1.6085  1.1403 -0.9982
 5843SOL    HW229166   0.417   4.734   2.921 -0.9034  0.6665  1.3060
 5844SOL     OW29167   0.966   1.142   6.341  0.0306  0.2723 -0.0193
 5844SOL    HW129168   0.924   1.208   6.287  0.4842  1.8520  1.5590
 5844SOL    HW229169   0.891   1.113   6.393 -0.9627  1.1823 -0.9565
 5845SOL     OW29170   3.978   1.478   2.432 -0.6980 -0.1921  0.4190
 5845SOL    HW129171   4.004   1.497   2.342  1.4613  0.8908  1.2851
 5845SOL    HW229172   3.888   1.509   2.436 -0.9027 -0.5634 -1.5562
 5846SOL     OW29173   0.790   3.808   2.485 -0.3063  0.0278  0.1584
 5846SOL    HW129174   0.735   3.879   2.518 -0.1709 -0.0717  0.6029
 5846SOL    HW229175   0.718   3.751   2.459 -0.4750 -0.3677  1.4791
 5847SOL     OW29176   2.670   0.084   4.887 -0.0805  0.3532  0.4041
 5847SOL    HW129177   2.631   0.078   4.974  0.0987 -0.9211  0.3912
 5847SOL    HW229178   2.687   0.178   4.880  1.3541  0.1047  0.5370
 5848SOL     OW29179   4.648   1.521   4.871  0.0457 -0.3257  0.3844
 5848SOL    HW129180   4.659   1.563   4.957  0.7143 -0.2293  0.2535
 5848SOL    HW229181   4.666   1.433   4.906 -2.1633 -0.8549  0.1804
 5849SOL     OW29182   1.626   3.654   6.707 -0.0419 -0.5135 -0.2904
 5849SOL    HW129183   1.650   3.733   6.754 -0.5586 -0.4820 -0.0831
 5849SOL    HW229184   1.531   3.668   6.699 -0.0076 -0.8818 -1.3255
 5850SOL     OW29185   1.835   1.674   7.256  0.6841 -0.2325 -0.4832
 5850SOL    HW129186   1.761   1.634   7.210  0.9990 -0.1721 -1.0416
 5850SOL    HW229187   1.869   1.722   7.181  0.2476 -3.0115 -2.4733
 5851SOL     OW29188   1.997   3.041  16.570  0.0298  0.5274  0.4096
 5851SOL    HW129189   1.974   3.009  16.658 -0.7603 -0.0716 -0.0071
 5851SOL    HW229190   2.090   3.019  16.577  0.5139  2.1298 -1.0231
 5852SOL     OW29191   4.275   4.643  16.818 -0.2334 -0.3784 -0.0348
 5852SOL    HW129192   4.213   4.697  16.769 -0.8940 -1.0883  0.0223
 5852SOL    HW229193   4.278   4.696  16.898  0.9772 -1.1346  0.4263
 5853SOL     OW29194   0.805   0.332   3.561 -1.0720 -0.0693  0.4287
 5853SOL    HW129195   0.887   0.317   3.609 -0.1055  0.2907 -1.1164
 5853SOL    HW229196   0.746   0.271   3.605 -1.8016 -0.4765 -1.1391
 5854SOL     OW29197   2.572   0.625   2.257  0.4101 -0.2615 -0.3171
 5854SOL    HW129198   2.632   0.580   2.197  0.9823  0.4880 -0.3109
 5854SOL    HW229199   2.492   0.627   2.205 -1.0628  3.7719  2.1423
 5855SOL     OW29200   3.380   1.164   8.001  0.5824  0.2802  0.4354
 5855SOL    HW129201   3.361   1.109   8.077  1.5540 -1.5003 -0.6051
 5855SOL    HW229202   3.381   1.101   7.928  1.6206  1.0173 -0.1995
 5856SOL     OW29203   1.877   4.005   2.626 -0.1238  0.0120 -0.1801
 5856SOL    HW129204   1.929   3.932   2.658  0.1523  0.2746 -0.0283
 5856SOL    HW229205   1.905   4.006   2.534 -0.1283 -0.7901 -0.1897
 5857SOL     OW29206   1.281   1.681  13.625  0.1457 -0.3654 -0.7131
 5857SOL    HW129207   1.342   1.740  13.582  1.0310 -0.8310 -0.0849
 5857SOL    HW229208   1.202   1.734  13.637 -2.4105 -3.9065 -1.6356
 5858SOL     OW29209   4.230   4.268   6.171  0.7166  0.4153  0.8565
 5858SOL    HW129210   4.206   4.219   6.249 -2.2046 -0.2426 -0.4734
 5858SOL    HW229211   4.165   4.338   6.169  0.7051  0.3441 -1.7853
 5859SOL     OW29212   2.266   4.530   6.363 -0.8312 -0.1991  0.3327
 5859SOL    HW129213   2.220   4.604   6.403 -0.7199  1.1113 -1.9718
 5859SOL    HW229214   2.270   4.552   6.270  0.6649 -2.1610 -0.0742
 5860SOL     OW29215   0.506   2.074   7.106 -0.6242  0.2072  0.2840
 5860SOL    HW129216   0.496   2.167   7.083  0.7353  0.1476 -0.5197
 5860SOL    HW229217   0.460   2.080   7.190 -0.2140 -2.1003  0.6509
 5861SOL     OW29218   1.136   0.868   6.266  0.3265 -0.2598  0.0544
 5861SOL    HW129219   1.168   0.785   6.302 -0.8864 -0.5450  0.4902
 5861SOL    HW229220   1.045   0.839   6.273  0.2665  0.0574  0.6555
 5862SOL     OW29221   3.914   1.512   7.435 -0.1665 -0.1122  0.1483
 5862SOL    HW129222   3.933   1.419   7.442 -0.6685 -0.1109  1.6169
 5862SOL    HW229223   3.990   1.542   7.485  1.5851 -3.2788 -0.6601
 5863SOL     OW29224   4.504   2.809  16.946 -0.6782 -0.1573 -0.2694
 5863SOL    HW129225   4.543   2.807  16.858 -0.0419 -1.3544  0.0356
 5863SOL    HW229226   4.510   2.715  16.966  0.1778  0.1553  0.9468
 5864SOL     OW29227   4.520   2.376   1.515  0.5157  0.0526  0.0509
 5864SOL    HW129228   4.492   2.453   1.465  0.7094  0.9249  1.2973
 5864SOL    HW229229   4.599   2.407   1.559  0.7429  0.1682 -0.4378
 5865SOL     OW29230   2.860   0.646   8.888  0.0891  0.2553 -0.8621
 5865SOL    HW129231   2.910   0.614   8.963 -0.1729  0.5546 -0.5614
 5865SOL    HW229232   2.916   0.600   8.825 -0.5248  0.3288 -1.4623
 5866SOL     OW29233   0.071   0.473   1.585  0.2469 -0.3870  0.4113
 5866SOL    HW129234   0.036   0.428   1.661  0.5010 -3.2191 -1.1369
 5866SOL    HW229235   0.014   0.550   1.585  2.0595  0.9659 -0.1504
 5867SOL     OW29236   0.090   4.586   8.505 -0.2166  0.0796 -0.1531
 5867SOL    HW129237   0.167   4.624   8.548 -0.8662 -1.1030  2.0748
 5867SOL    HW229238   0.134   4.535   8.437  1.1814 -0.4917  1.1743
 5868SOL     OW29239   0.396   2.964   7.301  0.0976 -0.0480  0.0094
 5868SOL    HW129240   0.451   2.973   7.378 -2.3537 -0.6793  1.8322
 5868SOL    HW229241   0.347   2.883   7.312  2.0083 -1.3413 -1.0282
 5869SOL     OW29242   1.872   0.419  11.827 -0.4056  0.2710 -0.1302
 5869SOL    HW129243   1.780   0.399  11.811 -0.6022 -1.2178  2.8094
 5869SOL    HW229244   1.898   0.444  11.738 -0.2835 -0.7478 -0.3735
 5870SOL     OW29245   4.088   1.016   5.935  0.3260  0.0228  0.0286
 5870SOL    HW129246   4.072   1.082   6.003 -0.1482 -2.1128  1.9495
 5870SOL    HW229247   4.184   1.020   5.935  0.3001  0.5271  1.9841
 5871SOL     OW29248   1.966   0.323  15.844 -0.1055 -0.1336  0.2541
 5871SOL    HW129249   2.012   0.295  15.765  1.8986 -0.9485  1.7142
 5871SOL    HW229250   1.897   0.382  15.812  2.3556  2.0227 -1.0314
 5872SOL     OW29251   3.473   2.549   9.248 -0.4009  0.9561 -0.5216
 5872SOL    HW129252   3.456   2.466   9.204  3.1589 -0.4089  0.6496
 5872SOL    HW229253   3.565   2.544   9.273 -0.6908 -2.7172 -0.1763
 5873SOL     OW29254   4.313   0.470   9.027  0.2643  0.4932 -0.2069
 5873SOL    HW129255   4.292   0.376   9.026  0.0957  0.5234  0.3989
 5873SOL    HW229256   4.250   0.492   8.959 -2.2556 -3.3413  0.8656
 5874SOL     OW29257   0.557   1.669  12.826  0.2816 -0.0798  0.7292
 5874SOL    HW129258   0.531   1.684  12.917  0.8825 -2.4435  1.2946
 5874SOL    HW229259   0.647   1.700  12.822  0.2371  0.1330  1.4592
 5875SOL     OW29260   1.661   2.739   3.683  0.1718 -0.1087 -0.0110
 5875SOL    HW129261   1.703   2.712   3.602  0.9836 -0.6277  0.5770
 5875SOL    HW229262   1.733   2.781   3.730  0.9427 -1.8030  0.3301
 5876SOL     OW29263   0.997   1.590   3.243 -0.7212  0.3277 -0.2946
 5876SOL    HW129264   1.027   1.503   3.267  0.9712  1.6670  2.3546
 5876SOL    HW229265   1.073   1.617   3.191 -1.5641  2.0775 -0.6263
 5877SOL     OW29266   2.343   4.593   7.102 -0.5799  0.0836  0.3202
 5877SOL    HW129267   2.277   4.641   7.152  0.1016  0.7915  0.5402
 5877SOL    HW229268   2.299   4.508   7.109 -0.0599 -0.0958  1.4767
 5878SOL     OW29269   2.464   0.412   5.720 -0.4002 -0.0284  0.1513
 5878SOL    HW129270   2.393   0.471   5.745 -0.8391 -1.4374  2.2455
 5878SOL    HW229271   2.526   0.421   5.791  1.4135 -1.4925 -1.2457
 5879SOL     OW29272   3.883   0.703   1.899  0.4979 -0.3158 -0.0458
 5879SOL    HW129273   3.859   0.796   1.906  0.9242 -0.4054  2.6185
 5879SOL    HW229274   3.832   0.678   1.822 -0.0805  2.7904 -0.6581
 5880SOL     OW29275   2.931   2.456   9.602  0.2008  0.4773 -0.1653
 5880SOL    HW129276   2.959   2.374   9.561  0.6838 -0.0837  1.2942
 5880SOL    HW229277   2.945   2.510   9.524  0.9416 -1.5838 -1.4450
 5881SOL     OW29278   0.542   2.929   2.592  0.2406  0.1954 -0.4051
 5881SOL    HW129279   0.526   2.874   2.669 -0.7300  0.3007 -0.5372
 5881SOL    HW229280   0.637   2.923   2.586  0.3355  0.7317  0.5266
 5882SOL     OW29281   2.937   3.189  15.877  0.6178  0.1197  0.2031
 5882SOL    HW129282   3.005   3.191  15.944  0.0832 -1.1240  0.7698
 5882SOL    HW229283   2.980   3.245  15.811  2.8657 -0.2192  1.3908
 5883SOL     OW29284   3.059   0.552   2.378  0.4347 -0.4117  0.2098
 5883SOL    HW129285   3.071   0.476   2.322 -0.7952 -0.2630 -0.2673
 5883SOL    HW229286   3.106   0.521   2.455 -0.0604  1.1271  1.1440
 5884SOL     OW29287   1.340   4.015   7.757 -0.3701  0.3508 -0.2516
 5884SOL    HW129288   1.384   3.931   7.750 -0.9259 -0.0144  0.6667
 5884SOL    HW229289   1.400   4.062   7.816 -1.6989  1.1832  0.4258
 5885SOL     OW29290   1.500   3.033  10.671 -0.1299 -0.2688 -0.5011
 5885SOL    HW129291   1.500   2.937  10.666  1.4021 -0.4345  3.2456
 5885SOL    HW229292   1.407   3.055  10.675 -0.9045 -2.9719 -3.3248
 5886SOL     OW29293   4.508   2.534  17.024  0.3175  0.1406  0.1091
 5886SOL    HW129294   4.567   2.519  17.097  0.4280 -1.5553 -0.3375
 5886SOL    HW229295   4.550   2.466  16.972  0.0594 -0.0452  0.1459
 5887SOL     OW29296   1.479   3.500   1.221 -0.4462 -0.2389  0.3391
 5887SOL    HW129297   1.565   3.464   1.244 -0.5716 -0.9017 -0.2209
 5887SOL    HW229298   1.470   3.475   1.129  1.2597  1.0069 -0.1547
 5888SOL     OW29299   4.002   1.954   7.831  0.1832 -0.7643  0.4572
 5888SOL    HW129300   4.014   1.984   7.741  1.4024  2.5901  1.7476
 5888SOL    HW229301   3.922   2.001   7.852 -0.1239 -0.3994 -1.5091
 5889SOL     OW29302   4.393   3.108   2.817 -0.0146  0.1816 -0.2092
 5889SOL    HW129303   4.418   3.200   2.820  0.1211  0.0810  1.5397
 5889SOL    HW229304   4.449   3.081   2.889 -0.3773 -2.6877 -1.0031
 5890SOL     OW29305   3.428   0.067  17.449 -0.1159  0.6303  0.4267
 5890SOL    HW129306   3.505   0.120  17.429  0.6194  0.0851  1.8417
 5890SOL    HW229307   3.390   0.122  17.518 -2.0552  0.8450 -0.7890
 5891SOL     OW29308   1.428   3.518  12.750  0.2618 -0.6605 -0.8605
 5891SOL    HW129309   1.509   3.513  12.698  0.1051  0.4284 -1.2052
 5891SOL    HW229310   1.379   3.579  12.696 -1.1423 -0.8637  0.2028
 5892SOL     OW29311   2.697   2.505   2.376  0.0766 -0.0704  0.6181
 5892SOL    HW129312   2.689   2.414   2.405 -0.8552 -0.2715 -0.2874
 5892SOL    HW229313   2.632   2.542   2.436 -0.2818  1.3503 -0.6460
 5893SOL     OW29314   1.971   1.814   1.769 -0.0115  0.0468 -0.4966
 5893SOL    HW129315   2.034   1.819   1.697  1.8997  1.1324  1.2587
 5893SOL    HW229316   2.014   1.871   1.832  1.6301  0.5765 -2.0854
 5894SOL     OW29317   3.786   2.424  16.604 -0.1012 -0.9289 -0.2263
 5894SOL    HW129318   3.836   2.445  16.683 -0.8012 -0.9810  0.2306
 5894SOL    HW229319   3.699   2.401  16.635  0.9013 -3.5661  0.6629
 5895SOL     OW29320   3.874   2.727  12.172 -0.0946 -0.5692  0.2727
 5895SOL    HW129321   3.939   2.734  12.102 -1.4386 -0.7740 -0.9973
 5895SOL    HW229322   3.787   2.753  12.140  0.3236 -1.3291 -1.4955
 5896SOL     OW29323   0.695   3.258   1.836 -0.0755 -0.7782  0.2017
 5896SOL    HW129324   0.634   3.204   1.888 -1.4861 -0.2713 -0.9247
 5896SOL    HW229325   0.672   3.241   1.745  2.4005  1.2853 -0.7982
 5897SOL     OW29326   0.308   0.160   0.311 -0.4731 -0.0444 -0.1579
 5897SOL    HW129327   0.367   0.162   0.387 -0.8178 -0.9484  0.1406
 5897SOL    HW229328   0.313   0.248   0.274 -0.5174 -0.0350 -0.1413
 5898SOL     OW29329   1.703   2.294   3.247  0.5920 -0.0193  0.3149
 5898SOL    HW129330   1.699   2.253   3.161  2.8856  1.8652 -0.6528
 5898SOL    HW229331   1.661   2.230   3.306 -0.9026 -0.6307 -1.4263
 5899SOL     OW29332   2.837   4.682   4.338  0.5481  0.4486  0.4422
 5899SOL    HW129333   2.855   4.723   4.254 -1.4456  2.3035  0.9279
 5899SOL    HW229334   2.798   4.600   4.309  0.7281  0.3520  0.4689
 5900SOL     OW29335   3.979   2.541  11.310  0.1946  0.4172 -0.5960
 5900SOL    HW129336   4.071   2.520  11.329 -0.4884 -1.0336  1.0844
 5900SOL    HW229337   3.971   2.488  11.231  0.5480  1.1363 -1.1138
 5901SOL     OW29338   1.457   4.012   1.855  0.1974 -0.2499  0.3550
 5901SOL    HW129339   1.420   4.017   1.766 -1.7789  0.7938  1.2207
 5901SOL    HW229340   1.473   3.918   1.863  0.6780 -0.0300  1.8235
 5902SOL     OW29341   0.147   3.071   3.134  0.4020 -0.1737 -0.1331
 5902SOL    HW129342   0.181   3.068   3.044 -0.6241 -1.5643 -0.4659
 5902SOL    HW229343   0.175   3.161   3.151  2.5428 -0.7801 -0.4148
 5903SOL     OW29344   1.256   3.219  12.314  0.5187  1.3022  0.3391
 5903SOL    HW129345   1.286   3.195  12.226 -1.1234 -1.6670  0.5999
 5903SOL    HW229346   1.290   3.308  12.328  1.2514  1.1431 -0.4498
 5904SOL     OW29347   0.220   2.706   3.976 -0.1611 -0.0727 -0.1179
 5904SOL    HW129348   0.137   2.669   4.007  1.4864 -0.4758  3.7104
 5904SOL    HW229349   0.250   2.642   3.912  0.3779  0.4628 -0.3982
 5905SOL     OW29350   0.418   2.456   1.315 -0.3696  0.4517  0.2260
 5905SOL    HW129351   0.360   2.379   1.315  0.5822 -0.2494  1.9648
 5905SOL    HW229352   0.504   2.415   1.325 -0.0995  1.0849  0.4973
 5906SOL     OW29353   1.536   3.119   4.108  0.0011  0.7266 -0.2999
 5906SOL    HW129354   1.476   3.069   4.052 -2.0407  4.1446 -1.1483
 5906SOL    HW229355   1.559   3.061   4.181 -0.6568  0.8761  0.0213
 5907SOL     OW29356   0.837   1.246  16.537 -0.1109 -0.0466  0.0714
 5907SOL    HW129357   0.764   1.255  16.598 -1.4283  0.6867 -1.6290
 5907SOL    HW229358   0.853   1.152  16.547  0.3332  0.3147  2.6948
 5908SOL     OW29359   3.745   2.449   5.854  0.3626 -0.4035  0.1913
 5908SOL    HW129360   3.788   2.479   5.773  0.4419 -2.2805 -0.4632
 5908SOL    HW229361   3.659   2.489   5.841  0.0932 -0.3604  2.0905
 5909SOL     OW29362   3.341   0.887   9.216  0.0378  0.3696  0.4447
 5909SOL    HW129363   3.321   0.979   9.196  0.8514  0.7202  1.2401
 5909SOL    HW229364   3.253   0.859   9.239  0.0044 -0.6314 -0.9248
 5910SOL     OW29365   1.294   2.609  10.660 -0.2118 -0.5244  0.0557
 5910SOL    HW129366   1.205   2.600  10.693 -0.8107  1.0883 -1.1457
 5910SOL    HW229367   1.324   2.519  10.674 -0.1969 -0.2538  1.7619
 5911SOL     OW29368   3.858   1.575   2.863  0.3541 -0.7535  0.1593
 5911SOL    HW129369   3.807   1.507   2.820 -0.7825  0.6670 -0.7409
 5911SOL    HW229370   3.811   1.652   2.829  1.1909  0.3712  1.5485
 5912SOL     OW29371   4.699   3.611   0.901  0.2566  0.2716  0.3118
 5912SOL    HW129372   4.618   3.579   0.860  1.2435  1.4571 -2.5240
 5912SOL    HW229373   0.017   3.538   0.872  0.6031  0.1586  1.2343
 5913SOL     OW29374   0.603   2.014   9.487  0.6504  0.3150 -0.4230
 5913SOL    HW129375   0.553   1.938   9.517  2.7507 -0.6057  0.7272
 5913SOL    HW229376   0.642   2.054   9.565 -0.2172 -1.8505  1.1029
 5914SOL     OW29377   2.643   3.475  15.992 -0.1825  0.4396 -0.4386
 5914SOL    HW129378   2.630   3.508  15.904  0.7891 -0.4010 -0.8879
 5914SOL    HW229379   2.632   3.551  16.050 -0.2936  1.1462 -1.4009
 5915SOL     OW29380   2.179   4.448   4.493  0.1239 -0.2001  0.1567
 5915SOL    HW129381   2.181   4.411   4.405  1.5246 -0.4939  0.2958
 5915SOL    HW229382   2.234   4.395   4.552 -1.2233 -1.9783 -0.1974
 5916SOL     OW29383   1.530   3.226   1.865  0.0076  0.0404 -0.2793
 5916SOL    HW129384   1.442   3.196   1.884 -0.0442  0.1520 -0.3424
 5916SOL    HW229385   1.564   3.256   1.950  2.2465 -1.2983 -0.6811
 5917SOL     OW29386   3.717   1.641   9.924 -0.0986 -0.7040 -0.3375
 5917SOL    HW129387   3.765   1.719   9.954 -1.1450 -0.1064 -0.2032
 5917SOL    HW229388   3.644   1.632   9.986  0.1822  2.3774  0.4763
 5918SOL     OW29389   3.144   1.369   2.679  0.1940 -0.2273 -0.2280
 5918SOL    HW129390   3.063   1.406   2.646  0.5841  1.3925  0.6364
 5918SOL    HW229391   3.190   1.448   2.709  0.0163 -0.2135  0.0103
 5919SOL     OW29392   0.590   1.858  11.657  0.3794 -0.2825  0.1705
 5919SOL    HW129393   0.553   1.908  11.585  1.3009  0.4697  0.2181
 5919SOL    HW229394   0.508   1.813  11.678  0.2687  1.2366  3.0787
 5920SOL     OW29395   0.940   0.284  16.742 -0.8354 -0.0155 -0.2071
 5920SOL    HW129396   0.947   0.277  16.647  0.3031 -1.0254 -0.0487
 5920SOL    HW229397   0.888   0.206  16.764 -1.4447  0.6680  0.7726
 5921SOL     OW29398   3.414   0.167   6.450 -1.0770  0.0323 -0.2421
 5921SOL    HW129399   3.369   0.248   6.428 -0.8342 -0.0373 -1.0001
 5921SOL    HW229400   3.343   0.111   6.417 -1.1800 -1.6681  2.8847
 5922SOL     OW29401   0.390   1.567   7.788 -0.2579  0.1678  0.0121
 5922SOL    HW129402   0.375   1.659   7.767 -0.5371  0.3472  1.0140
 5922SOL    HW229403   0.328   1.514   7.738 -0.7739 -1.6239  2.5397
 5923SOL     OW29404   3.187   0.828   8.370 -0.2721  0.2548 -0.3048
 5923SOL    HW129405   3.190   0.873   8.454  0.2266  0.4320 -0.4172
 5923SOL    HW229406   3.159   0.738   8.390 -0.9000  0.1092 -1.8062
 5924SOL     OW29407   4.628   2.963   5.902 -0.2116 -0.1452 -0.0929
 5924SOL    HW129408   4.659   2.987   5.814  1.8802 -1.9280  0.1551
 5924SOL    HW229409   4.662   2.874   5.909 -0.7270 -0.3524 -0.3065
 5925SOL     OW29410   0.229   2.499   4.893 -0.2956 -0.4026 -0.4466
 5925SOL    HW129411   0.198   2.420   4.848  0.0351  0.7903 -2.7797
 5925SOL    HW229412   0.324   2.490   4.885 -0.1092 -0.0334  1.4232
 5926SOL     OW29413   3.005   0.957   5.967 -0.0603  0.0505 -0.3580
 5926SOL    HW129414   2.941   0.973   5.898  0.3611 -0.6818 -0.9104
 5926SOL    HW229415   2.997   0.864   5.986  1.1230 -0.1256 -0.7680
 5927SOL     OW29416   3.205   2.620   6.396 -0.1870 -0.5155  0.5361
 5927SOL    HW129417   3.185   2.548   6.336  0.0177 -0.0369 -0.1151
 5927SOL    HW229418   3.281   2.661   6.353 -1.0490  0.3480 -0.1673
 5928SOL     OW29419   4.594   4.268   0.315  0.1215  0.6197  0.2260
 5928SOL    HW129420   4.684   4.295   0.298  0.1107  0.0399 -0.7792
 5928SOL    HW229421   4.550   4.352   0.327 -0.2452  0.1340  2.1563
 5929SOL     OW29422   2.760   1.516   9.691  0.0996 -0.0818  0.0886
 5929SOL    HW129423   2.731   1.480   9.607  0.9927  2.0438 -1.1431
 5929SOL    HW229424   2.805   1.440   9.727  0.3635 -0.4861 -1.1013
 5930SOL     OW29425   1.187   1.631   5.581 -0.7885  0.5750 -0.0806
 5930SOL    HW129426   1.164   1.671   5.498 -1.4474 -1.4716 -0.8708
 5930SOL    HW229427   1.264   1.583   5.550 -1.0170 -0.9791  1.6998
 5931SOL     OW29428   2.662   4.539  16.862 -0.5733 -0.2871 -0.3954
 5931SOL    HW129429   2.741   4.485  16.867 -0.8834 -0.8582 -1.4792
 5931SOL    HW229430   2.703   4.621  16.837 -1.2906 -0.6973 -2.9347
 5932SOL     OW29431   0.347   2.945   3.861  0.2864 -0.1921  0.1108
 5932SOL    HW129432   0.373   3.004   3.932 -0.2776  1.3055 -0.9312
 5932SOL    HW229433   0.254   2.931   3.880  0.1839  0.7040  0.2491
 5933SOL     OW29434   0.363   4.319   0.776 -0.1776 -0.1331 -0.1333
 5933SOL    HW129435   0.414   4.237   0.771 -0.2392 -0.3031  1.9961
 5933SOL    HW229436   0.405   4.361   0.852 -0.9821 -2.7758  1.7925
 5934SOL     OW29437   1.572   4.729   7.037 -0.1724  0.5618 -0.8309
 5934SOL    HW129438   1.643   0.025   6.980  0.7502  1.5893  0.9260
 5934SOL    HW229439   1.513   0.062   7.008  0.1297  1.9321  1.8754
 5935SOL     OW29440   3.115   3.179   6.369  0.1900 -0.4000 -0.0415
 5935SOL    HW129441   3.028   3.139   6.376  0.6192 -1.4189 -0.5776
 5935SOL    HW229442   3.101   3.252   6.309  1.0622  2.3836  3.1598
 5936SOL     OW29443   2.898   1.824   3.697  0.2349 -0.8304  0.3362
 5936SOL    HW129444   2.911   1.797   3.788 -1.0739  0.1107  0.8045
 5936SOL    HW229445   2.922   1.917   3.699  2.3558 -1.3595  0.1067
 5937SOL     OW29446   2.369   2.861   7.665 -0.3271  0.0655 -0.0666
 5937SOL    HW129447   2.294   2.905   7.706 -0.7679  0.9150 -1.7355
 5937SOL    HW229448   2.437   2.902   7.717  0.2646 -0.7453 -0.2060
 5938SOL     OW29449   1.903   4.415   4.117  0.4275  0.6707  0.3554
 5938SOL    HW129450   1.938   4.341   4.167  3.8247  1.8320 -0.3302
 5938SOL    HW229451   1.918   4.488   4.176  1.6114  1.3872 -0.8464
 5939SOL     OW29452   4.255   0.256   4.490  0.5023 -0.0724 -0.4522
 5939SOL    HW129453   4.180   0.315   4.481  0.4804 -0.2213 -1.2030
 5939SOL    HW229454   4.235   0.221   4.577 -0.3269 -1.8102 -1.3638
 5940SOL     OW29455   4.238   4.528   3.480  0.6835 -0.0020 -0.3483
 5940SOL    HW129456   4.195   4.442   3.482  1.7610 -0.5241 -0.0261
 5940SOL    HW229457   4.164   4.587   3.492  0.4659 -0.5419  0.9041
 5941SOL     OW29458   4.679   2.446   3.657  0.6169 -0.3902 -0.2119
 5941SOL    HW129459   4.717   2.530   3.632  0.2977 -0.0311  0.5081
 5941SOL    HW229460   4.732   2.409   3.727 -0.0714 -2.1108 -0.5913
 5942SOL     OW29461   1.703   2.413  10.983  0.1852  0.2609 -0.5090
 5942SOL    HW129462   1.615   2.377  10.981  0.0914  0.4388  0.3302
 5942SOL    HW229463   1.690   2.483  10.918 -0.2671  1.4360  0.8371
 5943SOL     OW29464   2.092   1.322   2.441 -0.2737  0.0786 -0.3114
 5943SOL    HW129465   2.116   1.298   2.351 -2.2049  0.4014 -0.9187
 5943SOL    HW229466   2.166   1.306   2.500  0.7825  0.2357 -1.5921
 5944SOL     OW29467   0.928   3.367  16.231  0.7224 -0.2423  0.3092
 5944SOL    HW129468   0.943   3.397  16.321 -3.4299 -1.6666  1.4887
 5944SOL    HW229469   0.893   3.279  16.249  1.5510 -0.5507  0.4037
 5945SOL     OW29470   3.730   0.042   2.340 -0.3523  0.6417  0.1316
 5945SOL    HW129471   3.644   0.081   2.330  0.1957  1.4713 -1.3993
 5945SOL    HW229472   3.776   0.102   2.399 -0.0674 -0.1538  0.7251
 5946SOL     OW29473   2.660   1.643   8.408  0.1702  0.0979 -0.3437
 5946SOL    HW129474   2.691   1.702   8.340  0.6206  1.8305  1.3587
 5946SOL    HW229475   2.673   1.564   8.356 -0.6807 -0.2338 -0.0572
 5947SOL     OW29476   4.612   2.952   7.777  0.4110  0.3204  0.3959
 5947SOL    HW129477   4.681   2.965   7.712  0.3172  1.1153  0.4538
 5947SOL    HW229478   4.570   3.037   7.765 -0.9757 -0.4682 -0.3688
 5948SOL     OW29479   0.962   4.431   1.545 -0.0956 -0.1110  0.1390
 5948SOL    HW129480   0.927   4.362   1.602 -0.5828  1.0856  1.2928
 5948SOL    HW229481   0.886   4.433   1.487  0.6204  1.5140 -0.7093
 5949SOL     OW29482   0.679   2.411   3.322 -0.1888  0.0539  0.6333
 5949SOL    HW129483   0.650   2.473   3.389 -2.2130  0.0635 -0.2570
 5949SOL    HW229484   0.708   2.472   3.254  0.9258  0.0164  1.0712
 5950SOL     OW29485   0.832   3.279   3.161  0.3043 -0.2375  0.6124
 5950SOL    HW129486   0.875   3.336   3.097 -1.0474  2.9545  2.5678
 5950SOL    HW229487   0.764   3.253   3.099 -0.4483 -1.6445  2.0311
 5951SOL     OW29488   1.220   2.005   5.960  0.5631 -0.6086 -0.3581
 5951SOL    HW129489   1.138   2.047   5.984  0.2365 -1.6482  0.3029
 5951SOL    HW229490   1.187   1.925   5.919  1.2322 -1.1918  0.2428
 5952SOL     OW29491   0.034   1.420   7.494 -0.2112  0.3577 -0.0837
 5952SOL    HW129492   4.707   1.460   7.553 -2.0664 -0.1822 -1.7026
 5952SOL    HW229493   0.105   1.483   7.506  0.1171 -0.4686  2.2716
 5953SOL     OW29494   3.702   1.225   8.417  0.7000  0.1251  0.3732
 5953SOL    HW129495   3.710   1.192   8.506  0.4521  0.0645  0.3718
 5953SOL    HW229496   3.780   1.196   8.370  0.9477  3.2550 -1.1655
 5954SOL     OW29497   0.422   1.226   5.053 -0.0904  0.2071 -0.3894
 5954SOL    HW129498   0.349   1.206   5.112  1.6048 -1.9393  0.9737
 5954SOL    HW229499   0.369   1.256   4.979 -1.6686 -1.8472 -0.1123
 5955SOL     OW29500   2.858   1.826  11.172  0.2751 -0.3889  0.0317
 5955SOL    HW129501   2.819   1.769  11.238 -3.7954  1.4334 -0.7735
 5955SOL    HW229502   2.781   1.878  11.148 -0.0666 -0.8092  0.2282
 5956SOL     OW29503   2.353   2.561  16.321  0.1131  0.4717  0.0006
 5956SOL    HW129504   2.445   2.572  16.297  0.2794  0.4850  0.6607
 5956SOL    HW229505   2.320   2.495  16.260  0.2944 -0.7724  1.2425
 5957SOL     OW29506   4.492   2.751   1.081 -0.0883 -0.3001 -0.2905
 5957SOL    HW129507   4.524   2.840   1.065 -0.1182 -0.3785 -0.7824
 5957SOL    HW229508   4.400   2.757   1.056 -0.2622 -0.8460  0.2395
 5958SOL     OW29509   1.002   3.152   1.555 -0.2137  0.0785 -0.2349
 5958SOL    HW129510   0.983   3.182   1.644 -1.1393  2.1048 -1.1394
 5958SOL    HW229511   0.995   3.059   1.578  2.0988  0.0066  0.2269
 5959SOL     OW29512   0.645   0.366   7.126  0.2465 -0.3118 -0.2046
 5959SOL    HW129513   0.707   0.315   7.074  0.5787 -0.4051  0.2928
 5959SOL    HW229514   0.572   0.305   7.113 -0.1700  0.7878 -3.0163
 5960SOL     OW29515   4.618   0.990   5.821 -0.0359 -0.4361  0.6368
 5960SOL    HW129516   4.564   1.031   5.889  1.4626  0.0138  1.5676
 5960SOL    HW229517   4.674   1.067   5.810  1.4647 -1.9824 -2.7426
 5961SOL     OW29518   0.870   4.104   7.335  0.3258  0.0657 -0.3867
 5961SOL    HW129519   0.945   4.162   7.332 -1.1679  1.9761 -1.0633
 5961SOL    HW229520   0.897   4.064   7.417 -0.3719  1.7316  0.6511
 5962SOL     OW29521   0.029   0.864   4.964 -0.4270  0.8510  0.3871
 5962SOL    HW129522   0.056   0.936   5.021  0.9247  0.1268  0.6598
 5962SOL    HW229523   4.679   0.901   4.947 -1.0108 -1.0884 -0.8797
 5963SOL     OW29524   1.930   4.148   3.919  0.3398 -0.4120  0.5339
 5963SOL    HW129525   1.940   4.144   4.014  1.3016 -1.1591  0.3950
 5963SOL    HW229526   1.838   4.174   3.908  0.0788 -1.7939 -0.5154
 5964SOL     OW29527   4.609   1.780   1.006  0.5136  0.1371 -0.0928
 5964SOL    HW129528   4.696   1.814   0.986 -0.0784  1.7786  0.0597
 5964SOL    HW229529   4.563   1.864   1.009 -0.2252 -0.2966  1.0523
 5965SOL     OW29530   1.294   0.331   4.959 -0.1865 -0.1970  0.3563
 5965SOL    HW129531   1.332   0.341   5.046 -0.1533 -2.4087  0.6021
 5965SOL    HW229532   1.365   0.281   4.918 -0.1527  0.3617 -0.2789
 5966SOL     OW29533   1.800   1.493   3.865 -0.1031  0.0296  0.0135
 5966SOL    HW129534   1.831   1.578   3.832 -1.6030  0.1902 -0.9931
 5966SOL    HW229535   1.738   1.517   3.934 -0.7917 -0.1438 -0.5463
 5967SOL     OW29536   4.099   1.428   3.648  0.2266  0.0694 -0.1348
 5967SOL    HW129537   4.054   1.456   3.568  1.5125 -1.6504 -1.4750
 5967SOL    HW229538   4.130   1.514   3.675 -1.6170  0.3792  0.9880
 5968SOL     OW29539   0.003   4.558  12.930 -0.4888 -0.4472 -0.3037
 5968SOL    HW129540   4.661   4.591  12.884  1.2503  2.9531 -0.7952
 5968SOL    HW229541   0.055   4.543  12.851  1.0709 -0.2532  0.6851
 5969SOL     OW29542   4.617   0.261  15.460  0.0302  0.6286 -0.0781
 5969SOL    HW129543   4.585   0.335  15.409 -0.2540 -0.1546 -1.0475
 5969SOL    HW229544   4.699   0.254  15.413  0.7304  1.8071  0.9691
 5970SOL     OW29545   0.739   2.557   0.552 -0.0451  0.1255 -0.3723
 5970SOL    HW129546   0.830   2.571   0.579 -0.1606 -1.6566  0.9678
 5970SOL    HW229547   0.747   2.486   0.488 -1.0482  0.9365 -1.3786
 5971SOL     OW29548   2.050   0.202   4.275  0.4845 -0.2751  0.4604
 5971SOL    HW129549   2.065   0.280   4.221  1.3275 -1.0826 -0.4682
 5971SOL    HW229550   2.060   0.139   4.204 -0.7875 -0.2150  0.2253
 5972SOL     OW29551   2.926   0.962   3.142 -0.0273 -0.3133 -0.1498
 5972SOL    HW129552   2.949   0.940   3.232  0.4842 -2.1822 -0.7415
 5972SOL    HW229553   3.007   1.003   3.110 -0.6604  1.5364  0.5913
 5973SOL     OW29554   4.239   2.399   4.191  0.3938  0.1642  0.5324
 5973SOL    HW129555   4.183   2.324   4.168 -1.4378  1.4167  0.9282
 5973SOL    HW229556   4.168   2.463   4.193  1.3609  1.2241  0.6728
 5974SOL     OW29557   3.987   3.781  10.187 -0.0949  0.3259  0.0051
 5974SOL    HW129558   4.080   3.760  10.190  0.3466  2.1679 -0.5864
 5974SOL    HW229559   3.985   3.873  10.161 -0.6718  0.3162  0.0164
 5975SOL     OW29560   1.985   2.841   1.345 -0.4349 -0.3962  0.7515
 5975SOL    HW129561   1.906   2.825   1.398  0.1631 -1.0440  1.4462
 5975SOL    HW229562   2.034   2.768   1.384 -1.6927 -0.4996  2.1538
 5976SOL     OW29563   1.268   3.298  12.018  0.0298  0.4358  0.2625
 5976SOL    HW129564   1.274   3.387  11.983  2.9425  0.1552 -0.0382
 5976SOL    HW229565   1.248   3.248  11.938  1.9154 -0.3658  0.2892
 5977SOL     OW29566   1.282   0.442   5.382  0.0871  0.2806  0.0964
 5977SOL    HW129567   1.211   0.434   5.317  0.4313 -1.0375 -0.1146
 5977SOL    HW229568   1.235   0.433   5.464 -0.1643  0.2290 -0.0522
 5978SOL     OW29569   1.408   0.059  16.575  0.2240  0.1498 -0.3240
 5978SOL    HW129570   1.474   0.084  16.510  0.6388 -0.6662 -0.2188
 5978SOL    HW229571   1.455   4.719  16.608 -0.6289 -0.2947 -0.1498
 5979SOL     OW29572   1.903   3.973   5.073  0.2608  0.2394  0.2838
 5979SOL    HW129573   1.835   4.002   5.012 -0.9439 -0.6238  1.1885
 5979SOL    HW229574   1.873   3.884   5.093 -0.2175  0.2401 -0.4251
 5980SOL     OW29575   1.235   4.176  12.746  0.8033 -0.1095 -0.6584
 5980SOL    HW129576   1.168   4.178  12.815  0.0201  0.2907 -1.4366
 5980SOL    HW229577   1.200   4.237  12.681  2.1395  2.5909  1.1974
 5981SOL     OW29578   0.355   2.759   4.689 -1.0193 -0.8152 -0.3516
 5981SOL    HW129579   0.271   2.729   4.724 -1.5917 -0.2590 -1.2452
 5981SOL    HW229580   0.390   2.795   4.770  3.0149 -1.0417 -2.0240
 5982SOL     OW29581   1.905   3.553   1.206 -0.7145  0.2995  0.2301
 5982SOL    HW129582   1.889   3.496   1.281 -0.6775  1.0679  0.8303
 5982SOL    HW229583   1.995   3.528   1.184 -0.5519  1.9287 -0.9485
 5983SOL     OW29584   3.338   3.230   4.561 -0.4058 -0.6582 -0.2509
 5983SOL    HW129585   3.354   3.325   4.555  0.8121 -0.7293  1.5624
 5983SOL    HW229586   3.405   3.214   4.628  0.8211 -1.4498 -1.6691
 5984SOL     OW29587   2.483   1.264   6.259 -0.4920  0.0324  0.5862
 5984SOL    HW129588   2.539   1.271   6.336  2.7082 -1.1542 -1.6519
 5984SOL    HW229589   2.479   1.353   6.224  0.3350  0.2809  1.1075
 5985SOL     OW29590   0.123   0.879   1.649 -0.6207  0.2305 -0.0398
 5985SOL    HW129591   0.061   0.946   1.622  0.2493  0.7190 -0.8637
 5985SOL    HW229592   0.168   0.916   1.725  2.1048  0.1269 -1.6012
 5986SOL     OW29593   1.230   1.396  10.950 -0.2463  0.2273  0.1466
 5986SOL    HW129594   1.152   1.371  10.900 -0.5749 -0.3407  0.9379
 5986SOL    HW229595   1.268   1.467  10.899  2.1466 -1.3268 -0.2328
 5987SOL     OW29596   0.225   1.800   5.086  0.5146 -0.6813  0.4513
 5987SOL    HW129597   0.184   1.831   5.005  0.7512 -2.3862 -0.3065
 5987SOL    HW229598   0.319   1.796   5.071  0.0885 -3.0172 -1.4338
 5988SOL     OW29599   2.307   2.811   7.135 -0.3704 -0.4688  0.4608
 5988SOL    HW129600   2.252   2.868   7.188 -2.0347 -1.4785 -0.1928
 5988SOL    HW229601   2.282   2.822   7.043 -2.1053  2.1635  1.2208
 5989SOL     OW29602   4.360   4.419   5.863 -0.3619  0.3156  0.7444
 5989SOL    HW129603   4.433   4.423   5.925 -0.9049  0.4980  1.3775
 5989SOL    HW229604   4.306   4.478   5.916 -2.9099 -1.2470 -0.1266
 5990SOL     OW29605   3.536   2.550  13.368  0.6639  0.1326 -0.1102
 5990SOL    HW129606   3.598   2.623  13.363 -1.0713  1.5937 -0.4956
 5990SOL    HW229607   3.536   2.528  13.275  1.2406 -1.6091  0.2975
 5991SOL     OW29608   0.449   1.849   1.071  0.3513  0.2587  1.1056
 5991SOL    HW129609   0.392   1.777   1.097 -0.3661  0.2354 -0.5528
 5991SOL    HW229610   0.539   1.829   1.097  0.7400  0.1655 -0.3542
 5992SOL     OW29611   3.725   0.296   3.999  0.3054 -0.3696 -0.2312
 5992SOL    HW129612   3.786   0.229   4.030  0.5098  0.0988  0.3779
 5992SOL    HW229613   3.770   0.370   4.039  0.1362  0.2596 -1.1919
 5993SOL     OW29614   2.185   1.396   6.440  0.1300 -0.0585  0.0911
 5993SOL    HW129615   2.247   1.467   6.459 -0.0144 -0.0293  0.4696
 5993SOL    HW229616   2.139   1.386   6.524  1.2253 -1.7714  0.4935
 5994SOL     OW29617   0.580   0.743   1.964 -0.2158  0.2059  0.1659
 5994SOL    HW129618   0.562   0.740   1.870 -0.3464 -4.5316  0.3022
 5994SOL    HW229619   0.613   0.655   1.981 -0.1501  0.4267  1.1735
 5995SOL     OW29620   3.901   3.711  16.018 -0.0891 -0.6442 -0.0274
 5995SOL    HW129621   3.820   3.684  16.060  0.5661  0.6201  2.0550
 5995SOL    HW229622   3.896   3.648  15.946  1.2192  2.8386 -3.1518
 5996SOL     OW29623   0.246   1.388  16.852  0.3850 -0.0627 -0.2418
 5996SOL    HW129624   0.182   1.457  16.868  0.7672  0.0520  0.7772
 5996SOL    HW229625   0.255   1.381  16.757  2.7074 -0.2805 -0.0061
 5997SOL     OW29626   3.451   2.884   3.662  0.1947 -0.1554  0.9345
 5997SOL    HW129627   3.364   2.894   3.623  0.2757  1.7153  1.2300
 5997SOL    HW229628   3.506   2.884   3.584  0.2024 -0.7540  0.9388
 5998SOL     OW29629   1.694   0.339   7.095 -0.1179  0.0992  0.7672
 5998SOL    HW129630   1.617   0.392   7.115  0.6356  0.7265  2.0347
 5998SOL    HW229631   1.735   0.324   7.180  0.6467 -0.1381  0.3601
 5999SOL     OW29632   2.055   3.365   6.548 -0.0840  0.5290  0.1469
 5999SOL    HW129633   2.109   3.304   6.596  0.2812  0.5565 -0.2285
 5999SOL    HW229634   1.975   3.376   6.600 -1.4166 -0.6726 -1.6350
 6000SOL     OW29635   1.920   1.910   6.684  0.0441 -0.2153 -0.3958
 6000SOL    HW129636   1.990   1.952   6.633  0.8972  2.2047  2.7506
 6000SOL    HW229637   1.869   1.985   6.714  0.8635  0.3920 -0.4981
 6001SOL     OW29638   4.055   3.899   6.053 -0.4151 -0.2237  0.3515
 6001SOL    HW129639   3.964   3.910   6.080 -0.9071 -0.9423 -0.9827
 6001SOL    HW229640   4.062   3.989   6.020  0.9249 -0.7630 -0.8512
 6002SOL     OW29641   0.322   4.684   1.363 -0.1879  0.7498  0.5508
 6002SOL    HW129642   0.254   4.618   1.345 -2.5306  3.1078  0.8385
 6002SOL    HW229643   0.299   0.019   1.304  0.7011 -0.0054 -0.6982
 6003SOL     OW29644   1.196   3.356   4.505  0.6226  0.2804  0.4244
 6003SOL    HW129645   1.175   3.394   4.590  0.5860 -2.5160  1.6632
 6003SOL    HW229646   1.264   3.421   4.491  2.4747 -1.6804  0.3952
 6004SOL     OW29647   4.612   0.281  14.725  0.2389  0.0314  0.3755
 6004SOL    HW129648   4.581   0.191  14.737  1.9083 -0.6371 -0.2908
 6004SOL    HW229649   4.665   0.274  14.645  1.5618 -0.4915  1.2898
 6005SOL     OW29650   1.081   3.583   6.641  0.5163 -0.1081  0.5669
 6005SOL    HW129651   1.041   3.656   6.688 -2.0160 -0.2602 -1.3519
 6005SOL    HW229652   1.025   3.509   6.662 -1.8881  1.6679  0.4445
 6006SOL     OW29653   0.068   3.999   1.267 -0.0183  0.2601  0.3801
 6006SOL    HW129654   0.105   4.004   1.178 -1.0554 -0.2171 -0.0715
 6006SOL    HW229655   0.115   4.073   1.307  0.7489 -0.4692  0.8315
 6007SOL     OW29656   3.786   1.533   8.163  1.3904  0.2928 -0.2997
 6007SOL    HW129657   3.721   1.501   8.100 -0.2079 -2.8159  2.8910
 6007SOL    HW229658   3.744   1.614   8.192 -0.4378 -1.3350  1.6298
 6008SOL     OW29659   2.445   3.393   7.345  0.1063 -0.3471 -0.4807
 6008SOL    HW129660   2.441   3.428   7.434  1.0158  2.3796 -1.5092
 6008SOL    HW229661   2.505   3.318   7.350 -2.0956 -2.0324  0.6535
 6009SOL     OW29662   1.888   2.504   2.636  0.3126 -0.1438 -0.6329
 6009SOL    HW129663   1.897   2.590   2.678  3.8139 -0.4907 -0.6487
 6009SOL    HW229664   1.857   2.538   2.552 -1.8779  0.7885  0.5413
 6010SOL     OW29665   1.017   0.722   3.547  0.6088 -0.6167 -0.5229
 6010SOL    HW129666   1.018   0.708   3.452 -0.4998 -2.9661 -0.1905
 6010SOL    HW229667   0.925   0.712   3.571  0.9329 -0.4786  0.7471
 6011SOL     OW29668   2.385   0.399   8.830  0.0277 -0.0507  0.2995
 6011SOL    HW129669   2.446   0.470   8.851  2.4916 -1.4868 -1.9417
 6011SOL    HW229670   2.324   0.405   8.903 -1.4784  2.3823 -1.1452
 6012SOL     OW29671   1.374   2.313   7.955  0.0948 -1.1690 -0.5477
 6012SOL    HW129672   1.289   2.270   7.965 -0.5219 -0.5147 -2.8310
 6012SOL    HW229673   1.414   2.283   8.036  0.6243  1.0169 -0.0125
 6013SOL     OW29674   4.633   3.978   7.385 -0.1079  0.1500 -0.0657
 6013SOL    HW129675   4.658   4.002   7.474  1.7685  0.7600 -0.7415
 6013SOL    HW229676   4.562   3.919   7.408 -0.7975  0.5446 -1.2082
 6014SOL     OW29677   3.292   4.207   8.684 -0.4254  0.2473  0.2214
 6014SOL    HW129678   3.307   4.120   8.648  0.6406  0.8014 -0.6723
 6014SOL    HW229679   3.230   4.193   8.756  0.2920 -0.8601  0.6217
 6015SOL     OW29680   1.449   2.774   3.038 -0.1016  0.1035  0.7356
 6015SOL    HW129681   1.453   2.795   3.132 -2.0260  1.5925  0.4703
 6015SOL    HW229682   1.485   2.685   3.037 -1.2775 -0.3400 -1.5986
 6016SOL     OW29683   3.822   0.733   6.981  0.7268 -0.0248 -0.1056
 6016SOL    HW129684   3.803   0.651   6.937  0.6283 -0.2775  0.4106
 6016SOL    HW229685   3.799   0.782   6.903 -0.2634  2.4836  1.7524
 6017SOL     OW29686   3.337   1.895   8.227  0.1895  0.0016 -0.0361
 6017SOL    HW129687   3.326   1.941   8.310  2.0214  0.7183 -0.1821
 6017SOL    HW229688   3.387   1.819   8.256 -2.5433 -2.4376 -1.7640
 6018SOL     OW29689   3.276   3.091   9.230 -0.1765 -1.1227  0.1047
 6018SOL    HW129690   3.283   3.012   9.283  1.9336  0.4757  2.2391
 6018SOL    HW229691   3.360   3.091   9.184 -1.1260  1.0977 -1.6632
 6019SOL     OW29692   4.087   0.151  13.788  0.3037  0.5190  0.5641
 6019SOL    HW129693   4.084   0.243  13.812 -0.9019  0.2364  1.5157
 6019SOL    HW229694   4.175   0.123  13.812  0.8285  2.5830  1.0583
 6020SOL     OW29695   4.455   3.829   3.565 -0.0575  0.1123  0.3042
 6020SOL    HW129696   4.428   3.737   3.562  0.2759 -0.0154  1.1274
 6020SOL    HW229697   4.450   3.853   3.473 -0.0274  0.5657  0.4222
 6021SOL     OW29698   4.398   4.471   4.525 -0.3700 -0.1662 -0.3794
 6021SOL    HW129699   4.400   4.381   4.557 -1.2915  0.4745  1.4834
 6021SOL    HW229700   4.314   4.497   4.563  0.2172 -2.1573  2.2772
 6022SOL     OW29701   3.405   3.286   5.423  0.3157 -0.2279 -0.3127
 6022SOL    HW129702   3.338   3.330   5.476  0.1044  0.0998 -0.8531
 6022SOL    HW229703   3.477   3.350   5.432 -0.6089  0.8403 -0.4805
 6023SOL     OW29704   3.504   0.867   6.558 -0.1151 -0.4529 -0.1366
 6023SOL    HW129705   3.451   0.793   6.529 -0.6694  1.2284 -3.5234
 6023SOL    HW229706   3.484   0.932   6.490  0.4738 -2.0035 -1.8213
 6024SOL     OW29707   1.064   4.505   9.822  0.1451 -0.3494 -0.2345
 6024SOL    HW129708   1.060   4.415   9.857 -2.1117  0.1860  0.9349
 6024SOL    HW229709   1.089   4.548   9.904 -2.3123  2.2660 -0.8834
 6025SOL     OW29710   3.911   0.828  12.798  0.6077  0.5395  0.3682
 6025SOL    HW129711   3.945   0.768  12.864 -0.5104 -2.2020 -1.5193
 6025SOL    HW229712   3.975   0.812  12.729  1.1072 -0.3702  1.0406
 6026SOL     OW29713   0.568   1.203   3.183 -0.4218  0.4230  0.5527
 6026SOL    HW129714   0.487   1.199   3.234 -1.0491 -1.2092 -0.5640
 6026SOL    HW229715   0.632   1.159   3.240  0.2941  0.2969 -0.3440
 6027SOL     OW29716   3.938   2.030   7.224 -0.7150  0.5998 -0.5051
 6027SOL    HW129717   4.016   1.992   7.185 -1.1958  1.3570 -2.1891
 6027SOL    HW229718   3.912   2.081   7.148  1.1189 -1.8223 -2.7443
 6028SOL     OW29719   0.889   0.699  13.631  0.0553  0.0348  0.0678
 6028SOL    HW129720   0.854   0.746  13.706  1.0979 -2.0305  1.8411
 6028SOL    HW229721   0.814   0.693  13.571  0.8742  0.3711 -1.0017
 6029SOL     OW29722   3.895   1.349  16.200 -0.5108 -0.6606  0.4870
 6029SOL    HW129723   3.847   1.353  16.118 -1.4115  1.5098  1.1175
 6029SOL    HW229724   3.927   1.260  16.187  1.4050  0.2332 -0.9395
 6030SOL     OW29725   3.465   1.877  15.797 -0.0420 -0.1153  0.4153
 6030SOL    HW129726   3.492   1.913  15.882 -1.3762  2.2201 -0.1442
 6030SOL    HW229727   3.549   1.837  15.774 -0.2774  0.1182 -0.8459
 6031SOL     OW29728   1.405   3.504   8.513  0.2611  0.2191  0.0394
 6031SOL    HW129729   1.373   3.477   8.427  0.6939 -1.5897  0.4480
 6031SOL    HW229730   1.372   3.594   8.513  1.3229  0.6100  1.0516
 6032SOL     OW29731   2.156   2.532   5.935  0.3463  0.6202 -0.2261
 6032SOL    HW129732   2.235   2.480   5.924  0.7872  0.9851  1.2566
 6032SOL    HW229733   2.095   2.479   5.884  1.5503 -0.1690 -0.8292
 6033SOL     OW29734   1.466   1.682  12.655 -0.3731 -0.3981 -0.0765
 6033SOL    HW129735   1.466   1.745  12.727  0.0485  0.6444 -0.9923
 6033SOL    HW229736   1.446   1.743  12.584 -0.6035 -0.4334 -0.0420
 6034SOL     OW29737   3.402   2.092   2.135 -0.0309  0.0972 -0.1086
 6034SOL    HW129738   3.366   2.004   2.144  2.1473 -0.8384 -0.5457
 6034SOL    HW229739   3.458   2.080   2.057  1.7083  0.1232  1.1315
 6035SOL     OW29740   2.653   2.263   6.279  0.5612 -0.5266 -0.1998
 6035SOL    HW129741   2.578   2.276   6.337  1.4110  0.2586  0.7344
 6035SOL    HW229742   2.600   2.287   6.203 -1.4147 -0.3844  1.2122
 6036SOL     OW29743   3.180   4.384  14.241 -0.3290  0.7324  0.1683
 6036SOL    HW129744   3.125   4.325  14.293  1.7342  0.2509  1.8114
 6036SOL    HW229745   3.206   4.324  14.172  1.5944 -0.8152  2.2264
 6037SOL     OW29746   0.857   1.077   2.173 -0.2343  0.3077  0.3170
 6037SOL    HW129747   0.820   1.071   2.261 -0.3912 -0.6951  0.1820
 6037SOL    HW229748   0.949   1.051   2.181  0.9147  4.2958  0.0288
 6038SOL     OW29749   2.697   0.872   2.055  0.4444  0.3003  0.0831
 6038SOL    HW129750   2.757   0.834   2.120 -0.8118  1.5787  1.9914
 6038SOL    HW229751   2.760   0.881   1.984  0.0242 -2.4213 -0.6382
 6039SOL     OW29752   2.703   3.234   4.506 -0.0396  0.4891 -0.5379
 6039SOL    HW129753   2.760   3.308   4.483 -2.7649  3.2333  1.4836
 6039SOL    HW229754   2.635   3.285   4.552 -2.1165 -1.6704 -1.2050
 6040SOL     OW29755   0.618   4.027  11.188  0.2682 -0.6672  0.1277
 6040SOL    HW129756   0.669   3.960  11.142  0.0006 -0.3729 -0.6057
 6040SOL    HW229757   0.532   3.987  11.205 -1.3164  2.1344 -1.3481
 6041SOL     OW29758   4.093   2.258  13.222  0.1639 -0.0164  0.4846
 6041SOL    HW129759   4.155   2.237  13.152  1.1099  0.0553  1.3129
 6041SOL    HW229760   4.005   2.260  13.184  0.6548 -0.6285 -0.7075
 6042SOL     OW29761   0.924   4.018  17.724 -0.6827 -0.5286 -0.7808
 6042SOL    HW129762   0.932   4.077  17.649 -1.0301  1.1193  0.4952
 6042SOL    HW229763   0.865   4.070   0.035  1.2708 -0.1701  0.9792
 6043SOL     OW29764   3.483   0.594   2.927 -0.2369 -0.5550  0.3310
 6043SOL    HW129765   3.575   0.619   2.939 -0.8021  2.0341 -0.7223
 6043SOL    HW229766   3.473   0.679   2.886  0.3003  0.2972  1.9339
 6044SOL     OW29767   3.934   3.873   9.884  0.4545  0.1049  0.0419
 6044SOL    HW129768   3.956   3.855   9.793 -0.2950  2.8574 -0.6827
 6044SOL    HW229769   3.949   3.781   9.907  1.9059  0.9478  2.4317
 6045SOL     OW29770   3.414   1.599   5.393  0.1282 -0.3303 -0.2209
 6045SOL    HW129771   3.379   1.529   5.338  1.0966  0.4344 -1.8449
 6045SOL    HW229772   3.462   1.650   5.327 -1.7750  0.9787 -0.5794
 6046SOL     OW29773   1.870   1.963   4.665  0.0755  0.3580  0.7608
 6046SOL    HW129774   1.903   1.988   4.579 -0.0145  0.7423  0.8390
 6046SOL    HW229775   1.776   1.952   4.650  0.1910  2.1714 -1.4260
 6047SOL     OW29776   1.210   0.783   2.769 -0.4813 -0.3146 -0.4568
 6047SOL    HW129777   1.284   0.747   2.719 -0.5438 -1.6145  0.3802
 6047SOL    HW229778   1.176   0.697   2.795  1.4275 -0.6914  0.8277
 6048SOL     OW29779   2.271   4.175   8.604 -0.2802  0.3275  1.1143
 6048SOL    HW129780   2.207   4.112   8.637  0.0419 -0.0980  0.9244
 6048SOL    HW229781   2.265   4.170   8.509  0.2521 -0.2119  1.1129
 6049SOL     OW29782   4.455   2.834   8.677  0.0685  0.2100 -0.3112
 6049SOL    HW129783   4.532   2.797   8.720 -0.4541 -1.5778 -0.9182
 6049SOL    HW229784   4.416   2.765   8.624  0.7703 -0.7951  0.4876
 6050SOL     OW29785   4.056   1.003  11.673  0.2165  0.2041  0.1833
 6050SOL    HW129786   3.971   1.046  11.679 -0.7363 -1.7776  0.9181
 6050SOL    HW229787   4.034   0.909  11.674 -0.0762  0.2673 -0.5296
 6051SOL     OW29788   4.303   2.310   2.302 -0.0415 -0.0689 -0.0582
 6051SOL    HW129789   4.276   2.220   2.320 -0.3331  0.3859  1.7515
 6051SOL    HW229790   4.251   2.333   2.225  1.2631  1.3210 -0.5095
 6052SOL     OW29791   3.963   0.701   1.317  0.1198 -0.3189  0.4027
 6052SOL    HW129792   3.896   0.747   1.368 -0.3706  1.5482 -1.9192
 6052SOL    HW229793   4.019   0.771   1.283 -1.4568  0.4288 -0.6256
 6053SOL     OW29794   3.125   2.728   6.931  0.0462 -0.5308  0.0203
 6053SOL    HW129795   3.086   2.694   6.850 -1.9569  1.9496 -0.0342
 6053SOL    HW229796   3.045   2.770   6.963 -0.2892  0.2615 -1.8549
 6054SOL     OW29797   4.106   4.122  10.430 -0.3891 -0.1830 -0.1339
 6054SOL    HW129798   4.060   4.053  10.478 -0.0568 -0.0589  0.3599
 6054SOL    HW229799   4.181   4.073  10.395  0.0104  1.4588 -1.5857
 6055SOL     OW29800   1.389   3.554  16.838  0.2130  0.3407  0.6386
 6055SOL    HW129801   1.477   3.560  16.875  1.0752  1.3791 -1.5775
 6055SOL    HW229802   1.335   3.533  16.914  0.2608 -1.3947  0.2024
 6056SOL     OW29803   3.530   1.534   5.619  0.4746 -0.6545  0.1720
 6056SOL    HW129804   3.510   1.452   5.663 -2.2222  0.1430  0.3997
 6056SOL    HW229805   3.484   1.536   5.535  0.9154 -2.0141 -0.1045
 6057SOL     OW29806   0.763   4.246   1.619 -0.6969  0.3117  0.0112
 6057SOL    HW129807   0.722   4.329   1.596  0.0219  0.1554 -1.8583
 6057SOL    HW229808   0.692   4.195   1.579  0.9077 -2.0545  0.1750
 6058SOL     OW29809   1.065   4.311   7.910  0.2598 -0.6288  0.1142
 6058SOL    HW129810   1.117   4.356   7.978  1.6527 -0.3852 -1.1208
 6058SOL    HW229811   1.090   4.357   7.830  0.2333 -0.6455  0.0966
 6059SOL     OW29812   3.335   3.750   7.847  0.3848 -0.1515 -0.9308
 6059SOL    HW129813   3.389   3.737   7.925 -0.1454  0.8022 -0.4022
 6059SOL    HW229814   3.345   3.670   7.797  2.1371 -2.6798  3.4616
 6060SOL     OW29815   1.441   2.505   5.338  0.0400  0.6831 -0.2481
 6060SOL    HW129816   1.439   2.472   5.428  0.3726  0.8548 -0.1779
 6060SOL    HW229817   1.480   2.427   5.298  0.1087 -0.6175  2.3341
 6061SOL     OW29818   4.467   4.263   0.705  0.0271  0.1612 -0.3960
 6061SOL    HW129819   4.423   4.187   0.744 -3.2491  1.5850 -1.3328
 6061SOL    HW229820   4.387   4.315   0.699 -0.6261 -0.8140 -0.2395
 6062SOL     OW29821   4.608   1.632   5.398 -0.0845  0.3528  0.0346
 6062SOL    HW129822   4.669   1.636   5.472 -0.1879 -1.1991  0.2019
 6062SOL    HW229823   4.582   1.721   5.374  0.0303 -0.1535 -1.9326
 6063SOL     OW29824   3.330   4.559   3.893  0.0911  0.4009 -0.2136
 6063SOL    HW129825   3.268   4.630   3.905  0.4208  1.0802 -2.5705
 6063SOL    HW229826   3.335   4.550   3.797 -1.6355 -1.1216 -0.1733
 6064SOL     OW29827   4.574   1.262   3.516  0.3151 -0.4390 -0.1844
 6064SOL    HW129828   4.486   1.227   3.509  1.1366 -2.9496  1.7734
 6064SOL    HW229829   4.574   1.351   3.481  0.1212 -1.3908 -2.5578
 6065SOL     OW29830   0.651   2.462   1.036 -0.1658 -0.3513  0.6892
 6065SOL    HW129831   0.561   2.492   1.022  0.5013  1.8120  0.9797
 6065SOL    HW229832   0.680   2.451   0.945  1.3700  1.2117  0.9700
 6066SOL     OW29833   4.256   3.171   4.020  0.3136  0.2109 -0.4084
 6066SOL    HW129834   4.261   3.099   4.083  0.1401  0.9870  0.4873
 6066SOL    HW229835   4.278   3.110   3.950 -0.5735 -0.3776 -0.1671
 6067SOL     OW29836   3.166   3.245  16.025  0.1370 -0.0490 -0.4211
 6067SOL    HW129837   3.242   3.242  15.967  2.2455 -0.4843  2.3802
 6067SOL    HW229838   3.211   3.202  16.098  3.4941  2.8799 -0.7399
 6068SOL     OW29839   3.830   1.613  16.890 -0.2217  0.0232  0.0452
 6068SOL    HW129840   3.826   1.637  16.797 -1.0172  2.2311  0.6373
 6068SOL    HW229841   3.913   1.648  16.924  0.3620 -0.0044 -1.3291
 6069SOL     OW29842   4.154   4.010   3.883  0.0945  0.3046  0.4276
 6069SOL    HW129843   4.203   4.039   3.806 -0.3996  4.7040  1.7928
 6069SOL    HW229844   4.089   4.079   3.893 -0.6145 -0.0801 -1.6940
 6070SOL     OW29845   2.907   2.312   8.953 -0.3985  0.3578 -0.0386
 6070SOL    HW129846   2.888   2.295   8.861 -1.9524 -0.2425  0.3981
 6070SOL    HW229847   2.994   2.274   8.964 -0.6358 -0.5322 -1.1941
 6071SOL     OW29848   0.787   4.323   8.335 -0.3222  0.2424  0.0191
 6071SOL    HW129849   0.742   4.402   8.304  0.2464 -0.1642 -1.8517
 6071SOL    HW229850   0.875   4.357   8.323 -0.1533 -0.7125 -1.5059
 6072SOL     OW29851   0.258   0.826   4.113  0.6027  0.3678  0.0767
 6072SOL    HW129852   0.319   0.779   4.170  2.2752  3.1532  0.5408
 6072SOL    HW229853   0.304   0.857   4.035 -0.9384  0.4812 -0.7955
 6073SOL     OW29854   3.869   4.172   6.975 -1.1035 -0.0232 -0.1172
 6073SOL    HW129855   3.832   4.220   6.901  0.7903  0.7296 -0.5652
 6073SOL    HW229856   3.963   4.192   6.978 -1.6015  2.7624 -2.9865
 6074SOL     OW29857   2.144   3.203   5.857 -0.1236 -0.0038 -0.4732
 6074SOL    HW129858   2.104   3.289   5.845  0.4991  0.5962  1.5411
 6074SOL    HW229859   2.141   3.206   5.953  2.8911  0.7223 -0.3858
 6075SOL     OW29860   0.343   0.163  10.895 -0.3428  1.0743  0.1439
 6075SOL    HW129861   0.409   0.111  10.849  0.9551  2.8040  0.0478
 6075SOL    HW229862   0.326   0.213  10.815 -1.3276 -1.5431 -1.2806
 6076SOL     OW29863   2.464   0.630  12.153 -0.2003 -0.0228  0.2977
 6076SOL    HW129864   2.552   0.607  12.122 -0.2100 -1.1830  1.1420
 6076SOL    HW229865   2.405   0.583  12.094  0.8462 -0.8212 -0.1113
 6077SOL     OW29866   1.029   4.564  14.756 -0.3216 -0.3272 -0.3491
 6077SOL    HW129867   1.116   4.528  14.740 -1.0972 -2.2063 -0.2886
 6077SOL    HW229868   1.045   4.659  14.752  0.0470 -0.3723 -0.0019
 6078SOL     OW29869   2.530   3.017   6.752  0.1455 -0.0266  0.0620
 6078SOL    HW129870   2.520   3.003   6.658  0.6390 -1.5827  0.2427
 6078SOL    HW229871   2.598   3.083   6.768 -1.2937  1.4059  0.2983
 6079SOL     OW29872   1.931   1.227  15.869 -0.1736  0.2213 -0.6768
 6079SOL    HW129873   1.868   1.275  15.817  0.2589  0.0302 -1.3767
 6079SOL    HW229874   1.919   1.137  15.839  0.7324  0.1771 -0.9023
 6080SOL     OW29875   4.344   0.732   7.527 -0.4353 -0.0344  0.3756
 6080SOL    HW129876   4.352   0.693   7.440  1.2439 -0.1493  0.5797
 6080SOL    HW229877   4.414   0.688   7.575  1.1137  1.3542 -0.6005
 6081SOL     OW29878   0.400   1.766   7.062  1.0048  0.5324  0.0375
 6081SOL    HW129879   0.475   1.761   7.122 -0.5634 -2.2117  1.7946
 6081SOL    HW229880   0.433   1.726   6.981  1.4400  3.3662 -1.1718
 6082SOL     OW29881   0.711   3.701  13.134 -0.1728  0.0804  0.1733
 6082SOL    HW129882   0.695   3.743  13.050 -0.2513  0.8927  0.5945
 6082SOL    HW229883   0.685   3.613  13.107 -0.6563 -0.1909  1.5109
 6083SOL     OW29884   2.169   0.691   5.215 -0.0042  0.2611  0.1339
 6083SOL    HW129885   2.156   0.612   5.161  0.6530 -0.9040  1.6888
 6083SOL    HW229886   2.190   0.647   5.297  0.0945 -3.9549 -2.1497
 6084SOL     OW29887   0.376   0.277   7.840 -0.1440 -0.6111 -0.0187
 6084SOL    HW129888   0.347   0.369   7.843 -0.8609 -0.8374 -0.2261
 6084SOL    HW229889   0.311   0.235   7.784  1.5040 -0.6906 -1.8601
 6085SOL     OW29890   2.255   3.601   2.682  0.3763  0.4026 -0.2970
 6085SOL    HW129891   2.343   3.615   2.716  0.3614  2.8425 -1.2964
 6085SOL    HW229892   2.229   3.535   2.746  2.3966 -0.4686 -0.3746
 6086SOL     OW29893   3.037   1.257   5.967 -0.4000  0.1575 -0.4503
 6086SOL    HW129894   3.066   1.167   5.982  1.7911  0.4998 -2.7253
 6086SOL    HW229895   3.111   1.302   5.926 -1.3304  0.6763 -1.5533
 6087SOL     OW29896   4.733   2.859  12.152  0.1340 -0.4627  0.0146
 6087SOL    HW129897   0.089   2.845  12.130 -0.0811 -0.1650 -1.0404
 6087SOL    HW229898   4.736   2.952  12.171 -1.7212 -0.0702 -1.6225
 6088SOL     OW29899   0.762   0.643   2.297  0.1026 -0.3012 -0.3160
 6088SOL    HW129900   0.855   0.649   2.273 -0.1102  1.0642 -0.8497
 6088SOL    HW229901   0.753   0.731   2.333  1.9191 -0.1250 -0.2734
 6089SOL     OW29902   4.678   2.359  16.891  0.4497  0.1734  0.2085
 6089SOL    HW129903   0.032   2.388  16.905  0.8160  0.9193 -3.6657
 6089SOL    HW229904   4.679   2.263  16.889 -2.6110  0.1263  1.1399
 6090SOL     OW29905   4.621   2.142   7.010 -0.0066  0.3700 -0.4412
 6090SOL    HW129906   4.570   2.062   7.024  1.6460 -0.5558  0.3262
 6090SOL    HW229907   4.659   2.156   7.096  1.1106 -1.1518 -0.6834
 6091SOL     OW29908   2.623   2.114   9.086 -1.1628  0.0710 -0.5982
 6091SOL    HW129909   2.684   2.041   9.074  0.2382  0.9755  1.0647
 6091SOL    HW229910   2.587   2.085   9.170 -0.9458 -0.7779 -0.7979
 6092SOL     OW29911   3.818   1.137  11.715  0.0153  0.3486  0.0820
 6092SOL    HW129912   3.756   1.102  11.779 -2.2972  3.5443 -0.4155
 6092SOL    HW229913   3.834   1.227  11.744 -1.1906  0.9090 -1.0171
 6093SOL     OW29914   0.456   0.166   7.067  0.3349 -0.3618  0.4144
 6093SOL    HW129915   0.470   0.144   6.975  0.7286 -3.6537  1.2729
 6093SOL    HW229916   0.367   0.200   7.066  0.9494  1.3136  0.8985
 6094SOL     OW29917   3.415   4.102   5.726  0.4258  0.4785 -0.7109
 6094SOL    HW129918   3.451   4.074   5.811 -1.9405  0.1432  0.1744
 6094SOL    HW229919   3.391   4.192   5.748 -3.2102 -0.5179 -0.5735
 6095SOL     OW29920   0.169   0.093  14.771 -0.4838 -0.1833  0.4906
 6095SOL    HW129921   0.140   0.167  14.717 -1.7455 -0.7716  0.3794
 6095SOL    HW229922   0.260   0.115  14.791  0.1408 -2.9328  0.6527
 6096SOL     OW29923   3.364   0.869   5.703  0.5819 -0.1365 -0.4132
 6096SOL    HW129924   3.279   0.905   5.682  0.4524  0.0982  0.5377
 6096SOL    HW229925   3.384   0.912   5.786 -5.0053 -0.9283  1.3354
 6097SOL     OW29926   0.873   2.988   4.013  0.3714 -0.1427 -0.5532
 6097SOL    HW129927   0.950   2.959   3.965  1.2248 -2.3318  2.1351
 6097SOL    HW229928   0.870   3.080   3.990 -0.3206 -0.0902 -0.2544
 6098SOL     OW29929   3.850   3.104   5.012 -0.9175 -0.2347  0.6199
 6098SOL    HW129930   3.847   3.165   4.939 -0.7597 -1.2567 -0.2378
 6098SOL    HW229931   3.898   3.037   4.964  2.0588  2.0812  0.4176
 6099SOL     OW29932   0.828   1.522   8.294 -0.4543  0.2285  0.3079
 6099SOL    HW129933   0.829   1.618   8.299 -0.9020  0.3054 -1.1328
 6099SOL    HW229934   0.918   1.509   8.322  0.0818 -0.0221 -1.5281
 6100SOL     OW29935   1.306   0.628   4.146  0.1736  0.0270  0.5298
 6100SOL    HW129936   1.398   0.624   4.122  0.0594  0.6270 -0.0077
 6100SOL    HW229937   1.292   0.716   4.181 -0.8162  0.5304 -1.0819
 6101SOL     OW29938   2.566   0.169   6.879  0.1022  0.2336 -0.4544
 6101SOL    HW129939   2.610   0.109   6.818  1.2924 -0.1555  0.7837
 6101SOL    HW229940   2.562   0.113   6.957 -1.1900  2.4531  1.0893
 6102SOL     OW29941   2.287   4.234   1.958 -0.0847  0.5419 -0.3828
 6102SOL    HW129942   2.289   4.246   1.863 -0.2287  1.0510 -0.3204
 6102SOL    HW229943   2.244   4.311   1.997  0.5127  0.4732  0.4162
 6103SOL     OW29944   0.871   1.810   5.686  0.2615  0.2330 -0.0095
 6103SOL    HW129945   0.802   1.755   5.724  0.0364  0.5895  0.0994
 6103SOL    HW229946   0.871   1.782   5.594  0.1497  0.4776 -0.0850
 6104SOL     OW29947   0.511   2.039   4.150  0.0976 -0.2265  0.1298
 6104SOL    HW129948   0.606   2.049   4.139 -0.2573  2.2030 -0.8049
 6104SOL    HW229949   0.498   2.083   4.234  0.7220 -0.6324  0.4451
 6105SOL     OW29950   4.044   0.344   5.528  0.4635  0.1991  0.4454
 6105SOL    HW129951   4.054   0.411   5.595  0.6740 -0.1836  0.8013
 6105SOL    HW229952   3.954   0.313   5.539  0.5834 -0.5492 -0.6211
 6106SOL     OW29953   3.361   3.509   2.938  0.0300  0.0798  0.3228
 6106SOL    HW129954   3.417   3.441   2.902  1.8428  0.6408  2.1481
 6106SOL    HW229955   3.312   3.462   3.005 -0.4509 -1.2711 -0.9741
 6107SOL     OW29956   1.756   0.345   1.842 -0.5276 -0.4156  0.0094
 6107SOL    HW129957   1.743   0.273   1.903 -1.1971 -1.9492 -1.9504
 6107SOL    HW229958   1.714   0.419   1.885  1.0911 -0.1372  1.1072
 6108SOL     OW29959   0.721   3.317   0.346  0.2953 -0.0782 -0.3459
 6108SOL    HW129960   0.700   3.224   0.337  2.1012 -0.4550 -0.6202
 6108SOL    HW229961   0.645   3.354   0.300 -0.0595 -0.0727  0.2482
 6109SOL     OW29962   1.878   0.282  12.420  0.4408 -0.2967 -0.2624
 6109SOL    HW129963   1.815   0.343  12.380 -0.5293 -2.3008 -1.7922
 6109SOL    HW229964   1.866   0.306  12.512 -0.2912  1.4495 -0.8079
 6110SOL     OW29965   1.726   3.216   8.279  0.9493 -0.0375 -0.1175
 6110SOL    HW129966   1.685   3.241   8.361  1.1717 -0.7957  0.2231
 6110SOL    HW229967   1.653   3.177   8.231  1.3908 -1.1429  0.1066
 6111SOL     OW29968   0.322   4.457   1.133 -0.4276 -0.0531  0.9838
 6111SOL    HW129969   0.399   4.479   1.081 -1.3464 -0.7168 -0.6620
 6111SOL    HW229970   0.371   4.446   1.214  2.3430  2.3479 -0.3643
 6112SOL     OW29971   1.507   3.342   4.608  0.1228 -1.1095  0.2863
 6112SOL    HW129972   1.556   3.259   4.617  0.0009 -0.9579  2.4158
 6112SOL    HW229973   1.579   3.405   4.607 -0.7220 -0.1503  0.6584
 6113SOL     OW29974   3.487   3.535  16.644  0.3011  1.0292  0.0611
 6113SOL    HW129975   3.509   3.586  16.565  0.7464  1.0414  0.1943
 6113SOL    HW229976   3.567   3.520  16.694  0.6557  2.7138 -0.0066
 6114SOL     OW29977   0.882   0.917   6.121  0.4950  0.2042 -0.2978
 6114SOL    HW129978   0.920   1.000   6.150 -0.1509  0.4155 -0.0589
 6114SOL    HW229979   0.911   0.916   6.030  0.9269  0.9073 -0.1737
 6115SOL     OW29980   3.872   3.094   8.967  0.4216  0.3557  0.2559
 6115SOL    HW129981   3.785   3.073   8.932  0.6373  0.6512 -0.4412
 6115SOL    HW229982   3.850   3.142   9.047  0.8569 -0.1742  0.6960
 6116SOL     OW29983   2.468   1.731  11.323 -0.1951  0.3165  0.2693
 6116SOL    HW129984   2.399   1.786  11.359 -1.9531 -2.5185  1.3010
 6116SOL    HW229985   2.511   1.786  11.257 -1.2202  0.5312 -0.2100
 6117SOL     OW29986   3.122   1.980   4.237 -0.0541  0.2749 -0.1657
 6117SOL    HW129987   3.145   1.899   4.191  1.0987 -0.4839  1.7252
 6117SOL    HW229988   3.205   2.023   4.217 -0.2019  0.3148 -0.7015
 6118SOL     OW29989   4.695   0.670   4.775 -0.3315  0.2431 -0.0791
 6118SOL    HW129990   0.024   0.704   4.714  1.7421 -0.6315  1.6553
 6118SOL    HW229991   4.706   0.734   4.845 -3.3877 -0.1457  0.7624
 6119SOL     OW29992   0.845   1.924   4.532 -0.5604 -0.2843 -0.1598
 6119SOL    HW129993   0.810   1.929   4.621 -1.5710 -2.3144 -0.4346
 6119SOL    HW229994   0.889   2.008   4.523  1.6905 -1.5248 -0.8656
 6120SOL     OW29995   1.058   2.735   6.325 -0.3285  0.7064 -0.2738
 6120SOL    HW129996   1.128   2.741   6.260  1.7785  0.2324  1.9297
 6120SOL    HW229997   1.025   2.824   6.316 -1.0128  0.5630  0.7301
 6121SOL     OW29998   4.682   3.564   6.832  0.4474  0.5802  0.4899
 6121SOL    HW129999   4.628   3.543   6.756  1.4441  0.7624 -0.2734
 6121SOL    HW230000   4.610   3.554   6.893  0.7382 -1.5117  0.5019
 6122SOL     OW30001   3.587   1.008   9.469 -0.0764 -0.2485 -0.4044
 6122SOL    HW130002   3.566   1.048   9.385  0.1950  1.3835  0.3024
 6122SOL    HW230003   3.507   0.962   9.493  0.3092  0.2291  1.8522
 6123SOL     OW30004   0.692   2.789   5.039 -0.2375  0.3199 -0.1442
 6123SOL    HW130005   0.657   2.791   5.128  1.1358 -0.5186  0.4128
 6123SOL    HW230006   0.760   2.856   5.031  0.2253 -0.2845 -1.3831
 6124SOL     OW30007   1.610   1.331   7.843 -0.4566  0.0915 -0.3058
 6124SOL    HW130008   1.579   1.291   7.761 -1.0423  1.4129 -0.7335
 6124SOL    HW230009   1.649   1.255   7.886  0.0149  0.8414  0.5835
 6125SOL     OW30010   1.568   2.987   9.553  1.0877 -0.0508 -0.0806
 6125SOL    HW130011   1.507   3.054   9.524  0.8438  0.4757  1.6322
 6125SOL    HW230012   1.640   3.039   9.588  0.7049  0.2133  0.3142
 6126SOL     OW30013   0.485   2.989   8.189  0.1680 -0.1497 -0.1281
 6126SOL    HW130014   0.487   2.940   8.272  0.8872  0.6523  0.3301
 6126SOL    HW230015   0.578   3.006   8.172  0.1117  0.8939  0.6205
 6127SOL     OW30016   3.220   2.904  11.186 -0.4532 -0.7281  0.2087
 6127SOL    HW130017   3.254   2.927  11.099 -0.6203  1.5938  0.7414
 6127SOL    HW230018   3.141   2.958  11.187 -1.2159 -1.8839  0.9452
 6128SOL     OW30019   4.223   0.300   6.631 -0.0562  0.1021 -0.6386
 6128SOL    HW130020   4.295   0.316   6.570  0.2534 -0.5297 -0.4312
 6128SOL    HW230021   4.256   0.334   6.714 -0.0063 -1.0529 -0.1887
 6129SOL     OW30022   4.309   3.102   6.440 -0.5147 -0.2123 -0.1828
 6129SOL    HW130023   4.364   3.051   6.500 -1.2264  1.6888  2.0773
 6129SOL    HW230024   4.337   3.056   6.361 -1.1365 -0.6598 -0.1381
 6130SOL     OW30025   3.738   1.025  16.287  0.3867 -0.9108  0.7540
 6130SOL    HW130026   3.649   1.050  16.263  1.4263  2.7363  0.5960
 6130SOL    HW230027   3.750   0.949  16.230  2.1462  0.0288 -0.1418
 6131SOL     OW30028   2.103   3.601   7.946  0.0288 -0.0005  0.0793
 6131SOL    HW130029   2.149   3.525   7.983  1.1467  0.4658 -0.3626
 6131SOL    HW230030   2.038   3.611   8.016  0.6756 -0.1302  0.7050
 6132SOL     OW30031   1.961   3.482   6.873  0.0510 -0.1593 -0.1517
 6132SOL    HW130032   1.925   3.527   6.949 -1.0978  2.6794 -2.3993
 6132SOL    HW230033   2.050   3.515   6.863  0.4779 -1.8529 -2.0855
 6133SOL     OW30034   3.738   3.441   3.099 -0.0829  0.0406 -0.3248
 6133SOL    HW130035   3.719   3.406   3.186 -1.9408 -0.0910 -0.7806
 6133SOL    HW230036   3.828   3.409   3.088  0.6595  0.8449  3.1292
 6134SOL     OW30037   2.885   0.918  14.569 -0.4031  0.4229  0.5775
 6134SOL    HW130038   2.862   0.838  14.615 -0.1478  0.1597  0.2486
 6134SOL    HW230039   2.974   0.899  14.540 -0.7264  1.3162 -1.0464
 6135SOL     OW30040   2.821   0.436  10.721 -0.2885  0.0033 -0.0561
 6135SOL    HW130041   2.823   0.531  10.726 -1.4490  0.0546 -0.6856
 6135SOL    HW230042   2.822   0.439  10.625 -1.5715 -2.1976 -0.1459
 6136SOL     OW30043   0.709   4.699   8.409  0.6085  0.3572 -0.3282
 6136SOL    HW130044   0.689   4.640   8.336  0.3361  0.1340 -0.0720
 6136SOL    HW230045   0.659   0.042   8.386 -2.0521 -1.0230  0.7496
 6137SOL     OW30046   1.872   1.921   6.054 -0.1851 -0.0398 -0.0625
 6137SOL    HW130047   1.921   2.003   6.065  1.0031 -0.5773 -1.2691
 6137SOL    HW230048   1.866   1.910   5.959  4.0647  1.2170 -0.4770
 6138SOL     OW30049   3.896   1.912  16.501 -0.3605  0.1535  0.1644
 6138SOL    HW130050   3.840   1.979  16.462 -2.9786 -1.9255  0.3607
 6138SOL    HW230051   3.904   1.849  16.430 -1.4874 -0.1471  0.3176
 6139SOL     OW30052   0.894   1.172   1.760 -0.5811  0.1233  0.2836
 6139SOL    HW130053   0.822   1.231   1.783 -0.4636 -0.6246  2.6358
 6139SOL    HW230054   0.841   1.093   1.754 -0.9478  0.3529  0.4939
 6140SOL     OW30055   1.872   0.108   2.445 -0.0657 -0.6738 -0.3770
 6140SOL    HW130056   1.966   0.092   2.456  0.0644  1.3871  1.6219
 6140SOL    HW230057   1.869   0.175   2.378  2.7961  0.3641  0.5313
 6141SOL     OW30058   2.202   2.269   3.865 -0.5938  0.1822 -0.8035
 6141SOL    HW130059   2.116   2.232   3.887  0.0650 -1.5095 -1.0175
 6141SOL    HW230060   2.199   2.354   3.908 -2.1317 -0.4452  0.3458
 6142SOL     OW30061   0.034   3.869   2.492 -0.4215  0.4049 -0.0460
 6142SOL    HW130062   4.718   3.834   2.564 -0.4262  0.2946 -0.1033
 6142SOL    HW230063   0.103   3.803   2.481 -1.9481 -1.4683  1.6288
 6143SOL     OW30064   0.864   2.354  15.753 -0.1590  0.1859 -0.6148
 6143SOL    HW130065   0.781   2.345  15.799  0.0239  0.6794 -0.1942
 6143SOL    HW230066   0.838   2.333  15.663  0.6760 -1.6210 -0.4469
 6144SOL     OW30067   0.458   4.140  10.220 -0.3092  0.1544  0.2039
 6144SOL    HW130068   0.456   4.137  10.316 -1.2256  1.0963  0.2200
 6144SOL    HW230069   0.536   4.190  10.201 -1.0698  1.0967 -0.4123
 6145SOL     OW30070   2.660   2.345  10.606 -0.7655  0.3215  0.5515
 6145SOL    HW130071   2.698   2.303  10.684  0.5663  2.7312  1.2163
 6145SOL    HW230072   2.737   2.347  10.548 -0.2575  1.0847  1.2519
 6146SOL     OW30073   4.292   0.475   7.825  0.1620 -0.5340  0.0074
 6146SOL    HW130074   4.371   0.524   7.800  0.4865 -1.2907 -0.4236
 6146SOL    HW230075   4.274   0.513   7.911  1.2660  0.8407 -0.3613
 6147SOL     OW30076   3.582   2.910   0.254 -0.3142 -0.7870  0.3320
 6147SOL    HW130077   3.610   2.908   0.163 -0.5616  0.3678  0.2325
 6147SOL    HW230078   3.662   2.876   0.295  0.5593  0.1331 -0.6042
 6148SOL     OW30079   0.900   3.705   5.917  0.5106 -0.7040 -0.1706
 6148SOL    HW130080   0.909   3.788   5.965 -0.5914 -0.8697  0.3211
 6148SOL    HW230081   0.858   3.641   5.975  0.1061  0.1391  0.4709
 6149SOL     OW30082   2.127   4.579   3.370 -0.3332  0.4963 -0.5095
 6149SOL    HW130083   2.065   4.615   3.308  0.7511  0.3103 -1.7051
 6149SOL    HW230084   2.064   4.525   3.417  0.3499 -2.0824 -2.5448
 6150SOL     OW30085   1.592   0.963   4.436 -0.0867  0.3148 -0.1120
 6150SOL    HW130086   1.630   0.893   4.489 -0.3020  0.2025 -0.1045
 6150SOL    HW230087   1.662   0.978   4.372  0.4629  0.0852  0.4335
 6151SOL     OW30088   3.249   3.936   5.601 -0.0259 -0.0522 -0.7039
 6151SOL    HW130089   3.185   3.981   5.545 -0.1895  0.6043  0.0137
 6151SOL    HW230090   3.311   4.007   5.617 -1.8626  1.4229 -0.0558
 6152SOL     OW30091   0.621   1.172   7.006  0.2641 -0.2146 -0.4909
 6152SOL    HW130092   0.625   1.122   7.088  0.9905  0.3027 -0.2153
 6152SOL    HW230093   0.625   1.097   6.947  0.1461 -0.4300 -0.2264
 6153SOL     OW30094   0.937   4.579  17.064 -0.2989 -0.0937 -0.3369
 6153SOL    HW130095   0.953   4.606  16.973 -1.2239  0.9002 -0.2004
 6153SOL    HW230096   0.895   4.655  17.104 -2.4489 -1.1293 -0.5992
 6154SOL     OW30097   4.554   3.270  11.263  0.7167 -0.2978 -0.7180
 6154SOL    HW130098   4.558   3.265  11.358  2.0199  0.8355 -0.7029
 6154SOL    HW230099   4.611   3.347  11.255 -0.3254  0.8001  2.6957
 6155SOL     OW30100   1.397   1.000   2.046 -0.0903 -0.0391  0.3511
 6155SOL    HW130101   1.481   1.036   2.075  0.8699 -2.1139  0.0795
 6155SOL    HW230102   1.395   0.945   2.124  0.5486 -0.8395 -0.2020
 6156SOL     OW30103   1.367   2.840   9.710 -0.0193  0.0642  0.2361
 6156SOL    HW130104   1.361   2.748   9.687 -1.6415 -0.3789  2.3631
 6156SOL    HW230105   1.437   2.874   9.655 -1.7716  3.1659 -0.0772
 6157SOL     OW30106   2.534   0.175   6.436 -0.7971  0.3626  0.0902
 6157SOL    HW130107   2.459   0.134   6.480 -1.7793  3.1189  1.0201
 6157SOL    HW230108   2.493   0.187   6.350 -2.0655 -2.3254  0.3204
 6158SOL     OW30109   4.437   2.264   8.520 -0.3256  0.0724 -0.7306
 6158SOL    HW130110   4.402   2.210   8.591  1.2464  1.0373  0.7944
 6158SOL    HW230111   4.520   2.291   8.559  0.5695 -2.0973 -1.1172
 6159SOL     OW30112   2.522   2.835   4.617 -0.1305 -0.2866  0.0413
 6159SOL    HW130113   2.614   2.855   4.636  0.1729 -0.8709 -0.7647
 6159SOL    HW230114   2.507   2.776   4.691 -1.0047  0.1193  0.1824
 6160SOL     OW30115   3.985   0.977   1.623 -0.1612 -0.2421  0.7393
 6160SOL    HW130116   4.055   0.934   1.672  1.5959  2.5562  0.6923
 6160SOL    HW230117   3.920   0.943   1.684  0.1954 -0.8545  0.7749
 6161SOL     OW30118   4.527   0.081   5.860  0.5978  0.3115 -0.0179
 6161SOL    HW130119   4.502   0.124   5.942 -1.9808 -0.5378 -0.3748
 6161SOL    HW230120   4.616   0.052   5.881  0.2574 -2.5738 -2.5110
 6162SOL     OW30121   2.793   0.388  11.758  0.4493  0.0770  0.2056
 6162SOL    HW130122   2.878   0.421  11.786  1.1640  0.5984 -2.5789
 6162SOL    HW230123   2.798   0.292  11.764  1.0162 -0.0440 -2.0922
 6163SOL     OW30124   1.189   1.125   3.329  0.0515 -0.2413  0.3478
 6163SOL    HW130125   1.278   1.102   3.302 -0.2909 -0.3590 -0.6899
 6163SOL    HW230126   1.180   1.071   3.407  0.8770 -1.9572 -0.7198
 6164SOL     OW30127   0.888   4.235   8.836  0.2456  0.1289  0.5334
 6164SOL    HW130128   0.898   4.176   8.762  0.9612  1.6852 -0.6330
 6164SOL    HW230129   0.883   4.169   8.904  0.2951  0.5958  0.9943
 6165SOL     OW30130   3.395   2.870  13.146 -0.2647  0.2902  0.1897
 6165SOL    HW130131   3.325   2.816  13.110 -0.7644  1.2049 -0.1846
 6165SOL    HW230132   3.349   2.934  13.201 -1.2481 -0.6889  0.5077
 6166SOL     OW30133   3.404   4.541  17.456  0.2687 -0.2931  0.0218
 6166SOL    HW130134   3.310   4.535  17.474  0.2885  0.5897  0.4107
 6166SOL    HW230135   3.413   4.634  17.437  1.6423 -0.0298  2.0142
 6167SOL     OW30136   2.581   2.670   6.517 -0.1518 -0.0375 -0.4347
 6167SOL    HW130137   2.553   2.635   6.432 -1.7828  1.6038 -0.5656
 6167SOL    HW230138   2.571   2.764   6.503 -1.3032 -0.2181 -0.8427
 6168SOL     OW30139   2.569   0.855   5.891  0.0813  0.1413  0.0214
 6168SOL    HW130140   2.596   0.915   5.960  1.1397 -1.5397  1.0647
 6168SOL    HW230141   2.521   0.919   5.837  0.5740  0.0562 -0.5200
 6169SOL     OW30142   0.310   0.708   2.444 -0.0356 -0.2231  0.3915
 6169SOL    HW130143   0.238   0.649   2.423  0.4072 -0.3745 -0.7315
 6169SOL    HW230144   0.339   0.728   2.354  0.9345 -1.9820  0.3114
 6170SOL     OW30145   0.520   0.822   5.336 -0.5023 -0.1178  0.2724
 6170SOL    HW130146   0.611   0.815   5.308 -0.3237  0.0029  0.8229
 6170SOL    HW230147   0.523   0.848   5.428  2.4715  1.3929 -0.2665
 6171SOL     OW30148   2.888   2.854   7.864  0.0595  0.4579 -0.3451
 6171SOL    HW130149   2.803   2.811   7.870 -1.1399  3.0377  1.1926
 6171SOL    HW230150   2.906   2.895   7.949 -0.6370  1.4979 -0.7146
 6172SOL     OW30151   2.481   3.354   4.624 -0.1109 -0.3537 -0.1507
 6172SOL    HW130152   2.455   3.263   4.639  0.9482 -0.7259 -0.5805
 6172SOL    HW230153   2.433   3.377   4.544 -0.5049 -0.1657  0.1398
 6173SOL     OW30154   2.320   2.529  14.881 -0.0832  0.5724 -0.5768
 6173SOL    HW130155   2.240   2.523  14.828  0.1220  1.0094 -0.9339
 6173SOL    HW230156   2.360   2.445  14.856  1.9362  1.0184  1.1800
 6174SOL     OW30157   1.164   1.482   6.847  0.0053 -0.1660 -0.1807
 6174SOL    HW130158   1.122   1.493   6.932  0.4870  0.0772  0.0264
 6174SOL    HW230159   1.116   1.404   6.819 -0.1893 -0.1549  0.1244
 6175SOL     OW30160   2.263   3.626   8.412  0.6945 -0.5840 -0.0168
 6175SOL    HW130161   2.199   3.673   8.358  1.1354 -0.1066 -0.1189
 6175SOL    HW230162   2.313   3.581   8.345  1.7642 -1.5893  1.4490
 6176SOL     OW30163   2.364   4.121   8.136  0.8148 -0.1530  0.6794
 6176SOL    HW130164   2.378   4.204   8.089  0.0832  0.4460  1.5177
 6176SOL    HW230165   2.453   4.095   8.162  1.0835 -2.0183 -2.0762
 6177SOL     OW30166   0.662   4.538   7.656  0.8451  0.5196 -0.4482
 6177SOL    HW130167   0.608   4.483   7.714 -0.7231 -0.4169 -2.7615
 6177SOL    HW230168   0.597   4.570   7.593  0.6811  0.0826 -0.5026
 6178SOL     OW30169   2.539   0.576   5.275  0.2795  0.6903  0.1298
 6178SOL    HW130170   2.464   0.600   5.331 -0.5718 -1.2753 -0.1802
 6178SOL    HW230171   2.497   0.499   5.238  0.2749  1.0655 -0.6382
 6179SOL     OW30172   4.671   1.175   7.417 -0.0672  0.1366  0.3697
 6179SOL    HW130173   4.601   1.181   7.352  1.4131 -1.2405 -1.3654
 6179SOL    HW230174   4.684   1.264   7.449 -0.9433  0.3303  0.2004
 6180SOL     OW30175   0.230   2.059   6.325 -0.2618 -0.6909  0.1340
 6180SOL    HW130176   0.249   2.116   6.400 -0.8620  1.0777 -1.0754
 6180SOL    HW230177   0.290   1.985   6.339  1.5592  0.6626 -0.5344
 6181SOL     OW30178   0.897   1.453   2.106  0.5461 -0.2381 -0.3645
 6181SOL    HW130179   0.872   1.535   2.065  1.6799 -0.0147 -0.6267
 6181SOL    HW230180   0.938   1.409   2.031  0.2353  0.3693 -0.8886
 6182SOL     OW30181   2.480   3.626   6.260  0.3092  0.2155  0.4879
 6182SOL    HW130182   2.501   3.670   6.343 -1.4167 -0.2502  1.1735
 6182SOL    HW230183   2.553   3.567   6.246 -0.8532 -1.1535  0.1987
 6183SOL     OW30184   2.055   3.762   7.737 -0.1525 -0.1618 -0.5764
 6183SOL    HW130185   1.963   3.736   7.730 -0.5070  0.9349  0.0333
 6183SOL    HW230186   2.084   3.700   7.804  1.3239 -0.4404 -1.4779
 6184SOL     OW30187   3.606   3.114   3.730  0.0335 -0.1335 -0.0108
 6184SOL    HW130188   3.578   3.025   3.710 -0.9503  0.3045 -0.5475
 6184SOL    HW230189   3.690   3.102   3.775  0.9924  0.2589 -1.6912
 6185SOL     OW30190   2.446   4.457   8.015 -0.3688  0.2709  0.3717
 6185SOL    HW130191   2.528   4.466   8.063 -0.0229  1.1481 -0.3904
 6185SOL    HW230192   2.463   4.515   7.940  0.7084  0.0491  0.4438
 6186SOL     OW30193   3.174   1.264   4.506  0.4572 -0.0690  0.2081
 6186SOL    HW130194   3.253   1.220   4.539 -0.7432 -2.7153 -0.5376
 6186SOL    HW230195   3.127   1.187   4.477 -1.4475  0.4126  2.0304
 6187SOL     OW30196   3.716   1.865   3.034 -0.5129  0.0282  0.1828
 6187SOL    HW130197   3.674   1.779   3.024  1.0034 -0.5363 -1.4027
 6187SOL    HW230198   3.643   1.921   3.060 -0.2273 -0.3959  1.8899
 6188SOL     OW30199   0.891   2.406   5.398 -0.4020 -0.1543 -0.0513
 6188SOL    HW130200   0.834   2.431   5.470  0.2072  0.0542  0.3647
 6188SOL    HW230201   0.835   2.381   5.325 -0.7331  1.5135 -0.3684
 6189SOL     OW30202   2.362   4.356   3.764  0.3994 -0.2309 -0.3029
 6189SOL    HW130203   2.286   4.298   3.755 -0.3298  0.6479  0.1980
 6189SOL    HW230204   2.381   4.395   3.678 -0.1472  0.0269 -0.3056
 6190SOL     OW30205   2.606   4.563   3.336 -0.1381 -0.1091  0.6561
 6190SOL    HW130206   2.538   4.532   3.277  0.6585  1.0930 -0.8881
 6190SOL    HW230207   2.683   4.557   3.279  0.3869 -2.6784  1.6329
 6191SOL     OW30208   0.730   2.458   6.841  0.3931  0.8495 -0.4602
 6191SOL    HW130209   0.818   2.426   6.860  0.0945  0.8613  0.8952
 6191SOL    HW230210   0.740   2.553   6.849 -1.0841  1.1531 -2.0382
 6192SOL     OW30211   3.290   3.452   8.788  0.1793  0.8303  0.3879
 6192SOL    HW130212   3.292   3.367   8.831  1.1735  0.3180 -0.7053
 6192SOL    HW230213   3.277   3.503   8.869 -2.1397  1.4527 -0.3714
 6193SOL     OW30214   3.972   3.597   6.404 -0.0730 -0.8009 -0.0532
 6193SOL    HW130215   4.030   3.657   6.358  1.6147 -1.7553  0.8625
 6193SOL    HW230216   4.019   3.593   6.487  1.0872 -2.6170 -0.8052
 6194SOL     OW30217   2.115   1.838   0.196 -0.0590  0.3944  0.5895
 6194SOL    HW130218   2.156   1.853   0.281  1.4828  1.2024 -0.3045
 6194SOL    HW230219   2.073   1.923   0.182 -1.5852 -0.4167  0.2336
 6195SOL     OW30220   0.765   0.127  17.354  0.4995  0.3548  0.2099
 6195SOL    HW130221   0.699   0.197  17.362 -0.6212 -0.7436  0.6435
 6195SOL    HW230222   0.836   0.150  17.414 -0.6633 -0.6059  1.9642
 6196SOL     OW30223   1.313   3.677   0.744  0.8113  0.1763 -0.5463
 6196SOL    HW130224   1.259   3.630   0.681  1.8634 -0.2048 -1.1758
 6196SOL    HW230225   1.406   3.670   0.720  0.6989 -1.3715 -0.5227
 6197SOL     OW30226   1.685   4.415  16.975 -0.1460 -0.0459  0.3021
 6197SOL    HW130227   1.752   4.375  16.919  0.9119 -0.5688  1.9666
 6197SOL    HW230228   1.636   4.342  17.011 -1.8310  1.2898  0.7520
 6198SOL     OW30229   3.901   1.225   7.412  0.5720 -0.1161  0.2617
 6198SOL    HW130230   3.938   1.253   7.327 -1.9830 -1.1487 -1.1679
 6198SOL    HW230231   3.846   1.152   7.385 -0.2941  0.2569  1.0309
 6199SOL     OW30232   3.584   2.741   9.640 -0.0847 -0.2465  0.1967
 6199SOL    HW130233   3.609   2.793   9.716 -2.9953  0.2151  0.8555
 6199SOL    HW230234   3.654   2.754   9.576  0.3456  1.9736  1.1298
 6200SOL     OW30235   4.689   2.683   3.074 -0.0335 -0.6018 -0.0804
 6200SOL    HW130236   4.663   2.606   3.125  1.2923 -2.3886 -2.1018
 6200SOL    HW230237   4.717   2.642   2.991 -3.7001 -2.0113 -0.6276
 6201SOL     OW30238   4.268   0.516   3.541 -1.2284  0.3901  0.2844
 6201SOL    HW130239   4.343   0.574   3.533  0.1743 -1.5039 -0.3800
 6201SOL    HW230240   4.327   0.441   3.527 -0.1243  1.3583 -0.2331
 6202SOL     OW30241   0.062   3.093   5.214  0.6396 -0.8006  0.8475
 6202SOL    HW130242   0.137   3.102   5.155 -0.6412  1.3677 -0.4241
 6202SOL    HW230243   0.038   3.001   5.207  1.0186 -0.7718 -1.0261
 6203SOL     OW30244   3.358   3.219   5.708 -0.2546  0.0772 -0.3929
 6203SOL    HW130245   3.401   3.136   5.730 -1.3422 -0.6118 -0.8692
 6203SOL    HW230246   3.432   3.274   5.732  0.0645 -0.1730 -0.8021
 6204SOL     OW30247   0.978   1.073  10.321 -0.5850 -0.3193 -0.3047
 6204SOL    HW130248   0.958   0.982  10.300  0.0734 -0.5121 -0.1112
 6204SOL    HW230249   0.993   1.072  10.415  0.3244 -0.3758 -0.4406
 6205SOL     OW30250   3.043   3.679  10.046  0.0115  0.1593  0.3946
 6205SOL    HW130251   3.068   3.770  10.031  0.2232 -0.2200 -1.5973
 6205SOL    HW230252   2.983   3.670   9.972  0.7400  0.2113 -0.2049
 6206SOL     OW30253   3.259   3.467  15.807 -0.8124  0.7356  0.1658
 6206SOL    HW130254   3.165   3.484  15.810 -1.2050 -1.4592  0.5452
 6206SOL    HW230255   3.278   3.500  15.719 -2.1355  1.6915  0.2445
 6207SOL     OW30256   1.964   3.880  14.678  0.0693 -0.2977  0.5934
 6207SOL    HW130257   2.054   3.865  14.708  0.0249  1.1633  1.4448
 6207SOL    HW230258   1.944   3.957  14.730  0.2374 -1.4953  2.4192
 6208SOL     OW30259   3.646   3.639  17.501  0.8183  0.3901 -0.1688
 6208SOL    HW130260   3.574   3.581  17.479  1.8712  0.0208 -2.6884
 6208SOL    HW230261   3.717   3.618  17.440  1.5220 -0.0663  0.8117
 6209SOL     OW30262   3.646   4.167  10.051 -0.0427  0.3355 -0.4381
 6209SOL    HW130263   3.667   4.086  10.003 -1.5662 -0.0674 -0.4364
 6209SOL    HW230264   3.553   4.183  10.034 -0.5932 -1.5281  0.7708
 6210SOL     OW30265   4.392   4.027   4.083 -0.3545 -0.2198  0.2351
 6210SOL    HW130266   4.377   4.036   4.177  1.2726  0.9851  0.3822
 6210SOL    HW230267   4.306   4.023   4.042 -1.2096 -0.4832  2.0681
 6211SOL     OW30268   4.372   4.140  14.648 -0.1830  0.7084 -0.1291
 6211SOL    HW130269   4.288   4.175  14.618  0.2542  0.0789 -2.1237
 6211SOL    HW230270   4.423   4.140  14.567 -0.1202  1.4584 -0.0913
 6212SOL     OW30271   1.875   3.596   7.104 -0.0487 -0.0455  0.3367
 6212SOL    HW130272   1.892   3.690   7.102 -1.9835  0.3072  0.3948
 6212SOL    HW230273   1.800   3.598   7.164  0.9294 -0.6746  1.5786
 6213SOL     OW30274   4.028   2.847   0.323  0.0441  0.1139  0.3630
 6213SOL    HW130275   4.100   2.895   0.363  1.8858 -2.5513  0.2649
 6213SOL    HW230276   4.036   2.775   0.385 -1.3987  0.8820  1.4551
 6214SOL     OW30277   2.833   1.889  15.462  0.2327 -0.0741 -0.1158
 6214SOL    HW130278   2.894   1.873  15.534  1.1586  0.3449 -0.8001
 6214SOL    HW230279   2.887   1.892  15.383  0.3213  0.6796 -0.0271
 6215SOL     OW30280   1.301   1.568   2.805  0.1525  0.8398 -0.2079
 6215SOL    HW130281   1.284   1.504   2.736  2.3256  0.6801 -0.5964
 6215SOL    HW230282   1.242   1.545   2.877 -0.8504 -0.5182 -1.4808
 6216SOL     OW30283   0.213   4.554   5.131  0.0841  0.3023  0.3716
 6216SOL    HW130284   0.247   4.572   5.219 -0.0500 -0.6973  0.6333
 6216SOL    HW230285   0.212   4.645   5.101 -0.2832  0.2858  0.3372
 6217SOL     OW30286   1.606   2.983  12.007 -0.6564 -0.3126 -0.0989
 6217SOL    HW130287   1.700   2.968  12.019 -0.9769  0.2627  2.9568
 6217SOL    HW230288   1.604   3.075  12.032 -2.1616 -0.5418  0.6123
 6218SOL     OW30289   3.922   2.333   8.681  0.2963  0.3814 -0.5354
 6218SOL    HW130290   4.003   2.379   8.702  0.0692  0.5523 -0.0351
 6218SOL    HW230291   3.861   2.351   8.752  0.8429  1.7119 -0.4063
 6219SOL     OW30292   1.267   1.805   4.328  0.3731  0.3024  0.0561
 6219SOL    HW130293   1.270   1.767   4.416  0.5488 -1.7644 -0.8447
 6219SOL    HW230294   1.306   1.892   4.335 -0.2424  0.3764  2.3901
 6220SOL     OW30295   1.367   1.681   2.520  0.0640 -0.5717  0.3499
 6220SOL    HW130296   1.362   1.661   2.614  0.9950 -1.6508  0.1657
 6220SOL    HW230297   1.285   1.729   2.523 -0.4647 -1.4835  0.5405
 6221SOL     OW30298   2.070   1.402   7.719  0.4539  0.2374  1.0921
 6221SOL    HW130299   2.088   1.480   7.668 -0.2187 -0.8355 -0.7771
 6221SOL    HW230300   2.094   1.442   7.803 -1.6521 -0.4750  2.0329
 6222SOL     OW30301   1.120   4.072   1.154  0.1337 -0.0936  0.5085
 6222SOL    HW130302   1.165   4.106   1.077 -0.3269  0.9611  0.7021
 6222SOL    HW230303   1.100   3.980   1.137 -0.3985  0.2218 -0.5486
 6223SOL     OW30304   2.014   3.752   2.765 -0.4199 -0.1639  0.6418
 6223SOL    HW130305   1.947   3.693   2.799 -0.7967  0.3554  0.7957
 6223SOL    HW230306   2.071   3.683   2.730 -2.6929 -1.0818 -1.2690
 6224SOL     OW30307   1.192   4.267   4.512 -0.0547  0.3316  0.0644
 6224SOL    HW130308   1.128   4.294   4.577 -0.7980 -0.5886 -0.2730
 6224SOL    HW230309   1.181   4.330   4.441  1.6055 -0.7431 -1.1842
 6225SOL     OW30310   2.553   4.306   6.158  0.3101 -0.2051 -0.0582
 6225SOL    HW130311   2.469   4.259   6.156  0.8040 -1.0877  0.3073
 6225SOL    HW230312   2.597   4.272   6.235 -0.4218 -0.7941  0.0962
 6226SOL     OW30313   4.164   3.589   1.739 -0.0394  0.3840  0.0658
 6226SOL    HW130314   4.191   3.568   1.650  0.4364  1.8737 -0.1428
 6226SOL    HW230315   4.157   3.503   1.780  2.6525 -0.3981 -1.1749
 6227SOL     OW30316   3.376   0.799   9.572  0.2283 -0.3438 -0.2547
 6227SOL    HW130317   3.385   0.705   9.588 -1.7034 -0.5064 -0.1379
 6227SOL    HW230318   3.392   0.831   9.660 -0.3865  0.3819 -0.3975
 6228SOL     OW30319   0.467   1.136   2.052  0.0041 -0.8026 -0.3973
 6228SOL    HW130320   0.556   1.172   2.055 -0.9229  1.4351  0.5514
 6228SOL    HW230321   0.423   1.201   1.997  3.1016  0.2222 -1.6694
 6229SOL     OW30322   1.991   2.862  13.698 -1.1131 -0.4738 -0.3231
 6229SOL    HW130323   1.953   2.939  13.655 -0.7421  0.1569  0.4719
 6229SOL    HW230324   2.086   2.866  13.687 -1.2119  0.8674 -0.6506
 6230SOL     OW30325   3.309   1.636   1.904 -0.3997  0.0762  0.1708
 6230SOL    HW130326   3.252   1.602   1.972 -0.0089 -4.3114 -1.6947
 6230SOL    HW230327   3.255   1.622   1.826  1.7884 -2.3449 -0.9277
 6231SOL     OW30328   2.293   0.192   8.657 -0.2356  0.7021  0.5184
 6231SOL    HW130329   2.378   0.169   8.620  0.0685  1.5842  0.6844
 6231SOL    HW230330   2.313   0.258   8.723  0.1921  1.4877 -0.4161
 6232SOL     OW30331   1.688   0.135   4.913 -0.4054 -0.2899  0.3248
 6232SOL    HW130332   1.744   0.111   4.839  0.1997  1.6715  0.1249
 6232SOL    HW230333   1.738   0.207   4.952 -0.2899 -0.4919  0.5460
 6233SOL     OW30334   2.728   3.204   5.918  0.4069  0.4271  0.5512
 6233SOL    HW130335   2.741   3.110   5.908 -1.3470 -0.2607  4.7659
 6233SOL    HW230336   2.771   3.212   6.004 -3.2513  0.2607  2.4054
 6234SOL     OW30337   2.104   1.655   9.081  0.4275 -0.2414  0.3128
 6234SOL    HW130338   2.178   1.692   9.032 -0.1536  0.5639  0.0363
 6234SOL    HW230339   2.050   1.622   9.010  2.3830  1.3250 -1.9084
 6235SOL     OW30340   3.405   2.680   6.221  0.0333 -0.0549 -0.2941
 6235SOL    HW130341   3.392   2.744   6.151 -0.1951  0.7256  0.4535
 6235SOL    HW230342   3.396   2.601   6.169 -2.4591 -1.9771  3.0261
 6236SOL     OW30343   2.915   1.166   2.516 -0.3191 -0.6971  0.0059
 6236SOL    HW130344   2.882   1.249   2.552  0.1439  0.0731 -1.3676
 6236SOL    HW230345   2.908   1.103   2.587 -1.1947  0.5112  1.0097
 6237SOL     OW30346   3.595   3.632   6.643 -0.3343  0.5912  0.3125
 6237SOL    HW130347   3.612   3.638   6.549  3.7062  1.8367  1.0832
 6237SOL    HW230348   3.677   3.670   6.675  0.5193 -0.4386 -0.6714
 6238SOL     OW30349   2.052   3.847   9.496  0.0886 -0.0296 -0.5729
 6238SOL    HW130350   2.055   3.862   9.401 -2.6802  1.1804 -0.4617
 6238SOL    HW230351   2.107   3.914   9.538 -2.4338 -0.1169  2.8743
 6239SOL     OW30352   2.285   0.695   7.844 -0.4756 -0.6603 -0.7101
 6239SOL    HW130353   2.326   0.780   7.834 -0.4482 -0.6006 -0.0648
 6239SOL    HW230354   2.247   0.691   7.756 -0.7713  1.9638 -0.6976
 6240SOL     OW30355   0.499   0.135   6.778 -0.5309  0.4099  0.0433
 6240SOL    HW130356   0.573   0.076   6.761 -0.8107  0.0718 -0.0044
 6240SOL    HW230357   0.427   0.086   6.738 -0.1022 -1.2970  1.3175
 6241SOL     OW30358   2.251   2.482   4.045  0.5572  0.2500  0.2690
 6241SOL    HW130359   2.317   2.416   4.065  1.4973  1.0492 -0.2471
 6241SOL    HW230360   2.283   2.561   4.088 -0.8206  0.7459  0.4007
 6242SOL     OW30361   4.025   2.139  12.864 -0.3220  0.4819  0.4042
 6242SOL    HW130362   3.962   2.135  12.936 -0.7087  1.5936  0.1322
 6242SOL    HW230363   3.983   2.211  12.817 -0.6627  0.1436  0.1897
 6243SOL     OW30364   2.173   1.575   1.300  0.4657  0.7634  0.6221
 6243SOL    HW130365   2.226   1.621   1.235  1.9741 -0.4946  0.9425
 6243SOL    HW230366   2.189   1.482   1.282 -1.9391  0.4365  0.1446
 6244SOL     OW30367   1.924   3.742   6.352 -0.2592 -0.0169 -0.0918
 6244SOL    HW130368   1.849   3.759   6.295  1.2610 -0.9721 -2.3743
 6244SOL    HW230369   1.949   3.663   6.304 -0.2574 -0.3286  0.4210
 6245SOL     OW30370   2.201   1.273  11.469  0.1880  0.1085 -0.2955
 6245SOL    HW130371   2.215   1.338  11.399  0.7840 -0.0908 -0.3573
 6245SOL    HW230372   2.119   1.232  11.443  0.8341 -0.0921 -2.0167
 6246SOL     OW30373   3.037   2.092   2.907  0.4648 -0.3191 -0.4687
 6246SOL    HW130374   2.969   2.058   2.849 -0.6425 -0.3931  0.8675
 6246SOL    HW230375   3.107   2.093   2.842  0.1079  0.0536 -0.8479
 6247SOL     OW30376   4.630   4.515   6.625 -0.0327 -0.1176  0.1857
 6247SOL    HW130377   4.572   4.589   6.606 -0.2101  0.2491  2.1752
 6247SOL    HW230378   4.601   4.503   6.715 -1.2802  0.7007 -0.1134
 6248SOL     OW30379   0.448   2.921   0.659 -0.7801 -0.5697 -0.0290
 6248SOL    HW130380   0.383   2.855   0.636  0.1194 -1.1407 -0.9331
 6248SOL    HW230381   0.404   2.965   0.733  0.1932  0.4932 -0.0820
 6249SOL     OW30382   2.808   4.294   9.071 -0.3359  0.6290  0.9116
 6249SOL    HW130383   2.817   4.220   9.010  1.4779  1.2500  0.4078
 6249SOL    HW230384   2.775   4.356   9.006 -0.3664 -1.2218 -0.8326
 6250SOL     OW30385   3.816   0.609   4.435 -0.2286 -0.2396  0.0301
 6250SOL    HW130386   3.743   0.646   4.484  0.1125  1.5562 -0.8211
 6250SOL    HW230387   3.855   0.693   4.410 -0.9360 -0.5311 -2.0077
 6251SOL     OW30388   2.227   3.627   6.459  0.1991 -0.0878  0.4365
 6251SOL    HW130389   2.190   3.545   6.492 -0.7861 -0.4130 -1.4872
 6251SOL    HW230390   2.261   3.598   6.374 -3.4918  0.2214 -1.1653
 6252SOL     OW30391   0.927   1.845   6.135 -0.5194  0.1448  0.1226
 6252SOL    HW130392   1.016   1.836   6.168 -0.5689 -3.3868 -0.7465
 6252SOL    HW230393   0.888   1.876   6.217 -0.6799  1.4765 -0.4541
 6253SOL     OW30394   4.051   1.392   5.897 -0.6999  0.4800 -0.1194
 6253SOL    HW130395   4.115   1.365   5.831  0.7686  1.2522  0.9750
 6253SOL    HW230396   4.070   1.342   5.976 -0.6671 -0.6252 -0.8368
 6254SOL     OW30397   1.480   3.815  12.001 -0.1652 -0.1486  0.4455
 6254SOL    HW130398   1.449   3.856  11.920  1.1914  1.7204  0.8619
 6254SOL    HW230399   1.523   3.885  12.051 -1.3969  0.6327  0.4347
 6255SOL     OW30400   0.407   4.423   2.913 -0.1281 -0.1262 -0.0749
 6255SOL    HW130401   0.415   4.355   2.846 -0.1792  0.5800 -0.7835
 6255SOL    HW230402   0.480   4.402   2.971  0.7825  1.3554 -0.7184
 6256SOL     OW30403   1.820   2.824   5.329  0.1389  0.0892  0.1339
 6256SOL    HW130404   1.765   2.825   5.250  2.4473  0.0724 -1.4677
 6256SOL    HW230405   1.747   2.814   5.391 -0.5919  1.0750 -0.5695
 6257SOL     OW30406   4.043   2.423   6.449 -0.4537  0.1252 -0.2435
 6257SOL    HW130407   3.972   2.440   6.386 -2.0352  2.8983  2.3240
 6257SOL    HW230408   4.068   2.509   6.482  0.5992 -0.3422  0.1885
 6258SOL     OW30409   2.046   1.264   9.673  0.2499 -0.0715 -0.5213
 6258SOL    HW130410   1.956   1.258   9.708  0.9627 -2.7820  0.8167
 6258SOL    HW230411   2.027   1.327   9.603 -0.9165  1.0736  0.7997
 6259SOL     OW30412   2.384   0.515   3.959  0.5048 -0.7525 -0.2770
 6259SOL    HW130413   2.385   0.582   3.891 -0.9685 -0.3106  0.1232
 6259SOL    HW230414   2.313   0.460   3.925 -0.8953 -0.5904  2.3378
 6260SOL     OW30415   4.278   0.831   5.051 -0.2501  1.3476  0.0314
 6260SOL    HW130416   4.262   0.847   5.144  0.2723  1.3160  0.1289
 6260SOL    HW230417   4.226   0.894   5.002 -1.6757  0.3134  0.2010
 6261SOL     OW30418   1.405   1.017   5.660 -0.9840  1.0266 -0.2110
 6261SOL    HW130419   1.346   0.945   5.684 -0.2049  0.7177  0.7782
 6261SOL    HW230420   1.393   1.006   5.566  2.1429  1.0852 -0.6093
 6262SOL     OW30421   4.712   0.305   0.763 -0.2871 -0.0974  0.0745
 6262SOL    HW130422   4.698   0.386   0.714 -1.1631 -0.9087 -1.0190
 6262SOL    HW230423   0.049   0.319   0.823  1.2478 -1.3484 -1.5156
 6263SOL     OW30424   3.972   0.492  10.912 -0.4102 -0.2841  0.9084
 6263SOL    HW130425   4.067   0.498  10.917 -0.2565 -2.3728  0.4536
 6263SOL    HW230426   3.955   0.429  10.842 -0.4080  0.6024  0.1082
 6264SOL     OW30427   1.252   2.010   9.612 -0.5298 -0.5502  0.0182
 6264SOL    HW130428   1.302   2.091   9.625  0.2573 -0.9008 -0.8467
 6264SOL    HW230429   1.202   2.012   9.694 -0.1775  0.1117  0.2187
 6265SOL     OW30430   4.635   1.255  15.706 -0.3175 -0.4313  0.3261
 6265SOL    HW130431   4.684   1.214  15.635  0.3611  0.1655  0.4492
 6265SOL    HW230432   4.552   1.209  15.695 -0.2603 -0.7451  1.2059
 6266SOL     OW30433   0.294   2.509   5.586 -0.6870  0.8891 -0.1427
 6266SOL    HW130434   0.372   2.534   5.536  0.7144 -1.0971  1.0678
 6266SOL    HW230435   0.219   2.548   5.540 -0.5311  0.5011 -0.7286
 6267SOL     OW30436   2.507   4.255   6.563  0.0911 -0.2226  0.3443
 6267SOL    HW130437   2.493   4.183   6.502 -1.0306  0.7571 -0.5672
 6267SOL    HW230438   2.430   4.249   6.619 -0.1893 -1.0317 -0.1405
 6268SOL     OW30439   1.082   3.723   3.128 -0.4177 -0.2786 -0.3436
 6268SOL    HW130440   1.046   3.800   3.084  1.4188  0.0862 -1.2228
 6268SOL    HW230441   1.009   3.662   3.133 -0.0482 -0.8465 -1.6691
 6269SOL     OW30442   0.102   0.277   4.307 -0.0127  0.3279  0.3559
 6269SOL    HW130443   0.030   0.232   4.263  1.0106 -0.5936 -0.3555
 6269SOL    HW230444   0.111   0.229   4.390 -0.2940 -1.2611 -0.5338
 6270SOL     OW30445   2.779   1.088  13.553  0.4114 -0.6144  0.1677
 6270SOL    HW130446   2.730   1.018  13.509  0.9547 -0.0163 -1.3754
 6270SOL    HW230447   2.868   1.051  13.552  0.0352 -1.4584 -1.8773
 6271SOL     OW30448   0.899   1.658   8.800 -0.3531  0.3667  0.4044
 6271SOL    HW130449   0.921   1.652   8.707  0.0519 -1.7487  0.6386
 6271SOL    HW230450   0.883   1.752   8.812  1.2087  0.5965  0.7202
 6272SOL     OW30451   0.489   3.365   3.229 -0.1861  0.3265  0.3345
 6272SOL    HW130452   0.522   3.416   3.154 -1.0499 -0.7119 -0.7476
 6272SOL    HW230453   0.399   3.351   3.200  0.4293 -0.3091 -1.2998
 6273SOL     OW30454   2.220   1.726  13.079 -0.1155  0.3731 -0.0181
 6273SOL    HW130455   2.196   1.816  13.056 -1.9302  0.1244  0.9014
 6273SOL    HW230456   2.263   1.731  13.165 -0.6947 -0.7543  0.3406
 6274SOL     OW30457   2.205   2.757   6.871  0.4652  0.0822  0.1242
 6274SOL    HW130458   2.256   2.744   6.791  0.9328  3.1701 -0.0794
 6274SOL    HW230459   2.123   2.789   6.833  0.7779 -0.4070 -0.9695
 6275SOL     OW30460   0.667   1.935   5.234  0.4000 -0.1872 -0.0424
 6275SOL    HW130461   0.653   1.866   5.170  2.2979 -0.0374 -0.6356
 6275SOL    HW230462   0.608   2.006   5.208  1.8941  1.0029 -0.1902
 6276SOL     OW30463   0.419   2.566   2.569  0.1315 -0.3913 -0.4751
 6276SOL    HW130464   0.512   2.579   2.582 -0.0877 -1.4748  2.1143
 6276SOL    HW230465   0.385   2.648   2.604 -0.7962 -0.4441 -1.2496
 6277SOL     OW30466   0.291   0.964   7.195 -0.0316 -0.5864  0.4056
 6277SOL    HW130467   0.249   1.024   7.133  0.8655  0.0547  0.4199
 6277SOL    HW230468   0.265   1.019   7.268  1.8026  1.8183 -0.7713
 6278SOL     OW30469   2.788   1.677   7.466  0.0755  0.0957  0.4903
 6278SOL    HW130470   2.810   1.599   7.415 -3.1358 -1.3158  1.3217
 6278SOL    HW230471   2.870   1.690   7.515  0.1397 -1.8272  0.8688
 6279SOL     OW30472   0.876   2.747   5.893  0.3263  0.3388  0.2030
 6279SOL    HW130473   0.943   2.680   5.880  0.8972  1.1180 -0.8513
 6279SOL    HW230474   0.930   2.819   5.925 -0.3755  0.2370  1.5954
 6280SOL     OW30475   0.791   4.262   2.928  0.0667 -0.5093  0.0298
 6280SOL    HW130476   0.871   4.238   2.882  0.6063 -1.2979  1.3845
 6280SOL    HW230477   0.774   4.184   2.980  0.6607  0.9408  2.4055
 6281SOL     OW30478   3.764   3.338  14.680 -0.5935  0.5643  0.1045
 6281SOL    HW130479   3.789   3.405  14.743 -0.9126 -0.0415  0.8846
 6281SOL    HW230480   3.692   3.296  14.726 -0.4916 -0.9318 -1.0988
 6282SOL     OW30481   4.214   4.309  10.216  0.6201  0.0100  0.4713
 6282SOL    HW130482   4.218   4.389  10.163  1.3560 -1.2139 -1.3249
 6282SOL    HW230483   4.148   4.331  10.281 -0.9097  0.9250 -1.4003
 6283SOL     OW30484   2.700   0.732   9.295  0.1643 -0.8235  0.0728
 6283SOL    HW130485   2.696   0.683   9.213  1.3252 -1.2399  0.2637
 6283SOL    HW230486   2.785   0.697   9.323  1.3468  1.4485 -0.6319
 6284SOL     OW30487   3.222   1.179   9.777 -0.7137 -0.0001  0.0882
 6284SOL    HW130488   3.190   1.257   9.822  1.2074  1.0497 -0.3384
 6284SOL    HW230489   3.239   1.120   9.850  0.0320 -0.1491 -0.2027
 6285SOL     OW30490   4.328   2.577  12.433 -0.0611 -0.2662  0.1861
 6285SOL    HW130491   4.311   2.566  12.526 -0.5719 -3.7771 -0.2935
 6285SOL    HW230492   4.295   2.492  12.402 -1.2195  1.0392 -2.1857
 6286SOL     OW30493   2.759   3.765   4.308  0.7202  0.2537  0.3222
 6286SOL    HW130494   2.848   3.793   4.287  1.0851  1.5782  3.7410
 6286SOL    HW230495   2.772   3.674   4.281  0.5131  1.3312 -3.4578
 6287SOL     OW30496   4.068   4.472   7.616  0.3170  0.4461  0.4416
 6287SOL    HW130497   4.105   4.559   7.629 -1.3493  1.0136  1.3752
 6287SOL    HW230498   3.981   4.501   7.591  0.5175  0.7465  0.0884
 6288SOL     OW30499   1.921   0.423   2.470  0.1559 -0.3066  0.5478
 6288SOL    HW130500   2.009   0.445   2.441  0.0167 -0.7407 -0.1953
 6288SOL    HW230501   1.885   0.388   2.388 -0.4468  0.2815  0.5650
 6289SOL     OW30502   4.321   2.468   8.358  0.5027 -0.1662  0.1060
 6289SOL    HW130503   4.269   2.398   8.318  2.0791 -1.2556 -0.0338
 6289SOL    HW230504   4.389   2.424   8.409  0.8812  1.5327  1.0494
 6290SOL     OW30505   2.994   4.633   6.735 -0.7930 -0.2565  0.2078
 6290SOL    HW130506   3.076   4.583   6.742  0.2796  1.5020 -0.0132
 6290SOL    HW230507   2.988   4.667   6.824 -0.9068  0.3876 -0.0538
 6291SOL     OW30508   1.244   4.231   5.276 -0.3145  0.8387  0.3147
 6291SOL    HW130509   1.285   4.264   5.356 -0.2261 -0.2736  0.7328
 6291SOL    HW230510   1.222   4.312   5.230  0.0330 -1.0189 -3.1025
 6292SOL     OW30511   3.123   3.626  12.223 -0.1531 -0.5682  0.3872
 6292SOL    HW130512   3.117   3.532  12.208 -0.8745 -0.7354  1.6448
 6292SOL    HW230513   3.043   3.628  12.276  0.0573 -1.9789  0.7464
 6293SOL     OW30514   1.723   1.796   6.338 -0.1965  0.1067  0.1536
 6293SOL    HW130515   1.794   1.766   6.282  1.6715  1.4116  1.7999
 6293SOL    HW230516   1.667   1.835   6.271 -1.9804 -0.6468  1.2192
 6294SOL     OW30517   2.138   1.435   8.634 -0.5920  0.7371 -0.1750
 6294SOL    HW130518   2.115   1.376   8.562  1.1781  0.2312 -0.3153
 6294SOL    HW230519   2.172   1.368   8.694 -0.3720  1.3797  0.4080
 6295SOL     OW30520   3.982   2.231   4.396  0.0401  0.2437 -0.5649
 6295SOL    HW130521   4.068   2.192   4.382  0.7238  1.4046  0.4826
 6295SOL    HW230522   3.948   2.155   4.443 -0.0829 -0.3799 -1.6733
 6296SOL     OW30523   1.884   4.320   8.283 -0.5058 -0.4419 -0.5663
 6296SOL    HW130524   1.833   4.401   8.280  1.2767  0.9354  5.3552
 6296SOL    HW230525   1.883   4.290   8.192 -1.2900  0.1754 -0.7653
 6297SOL     OW30526   1.371   4.164   2.395 -0.1380 -0.1294  0.0431
 6297SOL    HW130527   1.338   4.182   2.307  1.9086 -1.4503 -0.9876
 6297SOL    HW230528   1.362   4.254   2.425 -0.1245 -0.4152  0.8925
 6298SOL     OW30529   0.759   0.963   1.887  0.4773 -0.1936 -0.2546
 6298SOL    HW130530   0.780   0.983   1.978 -1.1760  1.3723 -0.2134
 6298SOL    HW230531   0.664   0.954   1.894  0.4423  0.7318  0.4821
 6299SOL     OW30532   1.763   2.803  14.879  0.1007  0.1757  0.3359
 6299SOL    HW130533   1.741   2.737  14.945  0.5888  1.2314  1.5529
 6299SOL    HW230534   1.790   2.874  14.937 -1.6413  0.7003  0.4962
 6300SOL     OW30535   1.695   0.456   4.559  0.0299 -0.2570  0.0233
 6300SOL    HW130536   1.756   0.470   4.487 -1.4523 -1.0775 -1.4070
 6300SOL    HW230537   1.719   0.365   4.573 -0.4809 -0.0913  1.9083
 6301SOL     OW30538   0.420   3.666   0.028  0.2674 -0.6779 -0.3973
 6301SOL    HW130539   0.457   3.673   0.116  0.4260 -0.6086 -0.4707
 6301SOL    HW230540   0.341   3.614   0.047  1.0613 -1.0943  1.7809
 6302SOL     OW30541   2.078   1.030   8.528  0.2020  0.4463 -0.2978
 6302SOL    HW130542   2.067   0.944   8.568  2.1360 -0.2732 -1.2955
 6302SOL    HW230543   2.162   1.070   8.552 -0.2602  1.7883 -0.8880
 6303SOL     OW30544   3.036   2.584   7.890  0.2873 -0.8639  0.2806
 6303SOL    HW130545   3.060   2.655   7.831 -2.4582 -1.0338 -1.0068
 6303SOL    HW230546   3.075   2.517   7.833 -0.8059 -0.8904 -0.4308
 6304SOL     OW30547   2.669   4.047  16.583  0.1579  0.5314 -0.0656
 6304SOL    HW130548   2.600   4.087  16.638  1.5206  2.2241  0.4065
 6304SOL    HW230549   2.644   4.062  16.492 -0.0618 -1.4145 -0.3168
 6305SOL     OW30550   2.142   1.051  12.062 -0.2573  0.3553 -0.2598
 6305SOL    HW130551   2.049   1.062  12.045 -0.0078  0.4667 -1.6179
 6305SOL    HW230552   2.156   0.967  12.016 -1.1344 -0.4562  0.9706
 6306SOL     OW30553   2.825   1.372   5.507  0.0503  0.0008 -0.3794
 6306SOL    HW130554   2.731   1.355   5.500 -0.0893  0.1070  1.2885
 6306SOL    HW230555   2.870   1.287   5.506 -2.2121 -1.1842 -2.1681
 6307SOL     OW30556   0.476   2.772  10.145  0.1661  0.0800  0.3051
 6307SOL    HW130557   0.411   2.702  10.133 -0.4719  0.5969  0.7438
 6307SOL    HW230558   0.430   2.850  10.175  1.3623  0.3408  1.4873
 6308SOL     OW30559   2.764   4.439   0.187 -0.7260 -0.2259  0.7157
 6308SOL    HW130560   2.709   4.508   0.149 -1.0057 -0.4858  0.6428
 6308SOL    HW230561   2.824   4.437   0.113 -0.4328 -0.0441  0.9499
 6309SOL     OW30562   3.040   3.043   3.191 -0.3128 -0.6426  0.1169
 6309SOL    HW130563   3.075   3.126   3.161 -1.7613 -0.3682 -0.8159
 6309SOL    HW230564   3.089   2.983   3.136  0.4582 -0.5665  0.7232
 6310SOL     OW30565   4.683   2.635  12.276  0.0054  0.2439 -0.0944
 6310SOL    HW130566   4.714   2.720  12.245 -0.5103  0.9285  1.2525
 6310SOL    HW230567   4.618   2.608  12.212 -0.6426  0.0081  0.6683
 6311SOL     OW30568   2.627   3.954   8.513 -0.1832  0.0220 -0.1700
 6311SOL    HW130569   2.702   3.985   8.563 -1.4136  0.2732  1.5051
 6311SOL    HW230570   2.587   3.887   8.568 -0.7235  0.1221 -0.4391
 6312SOL     OW30571   3.751   2.389   3.361  0.2226 -0.2986  0.1222
 6312SOL    HW130572   3.712   2.302   3.356 -0.7655  0.1813 -0.4742
 6312SOL    HW230573   3.678   2.439   3.399 -0.4893 -1.5626  0.4123
 6313SOL     OW30574   1.398   1.882  13.475  0.1795  0.1962 -0.3385
 6313SOL    HW130575   1.398   1.976  13.491 -1.0980 -0.4427  3.3986
 6313SOL    HW230576   1.479   1.869  13.425  1.2493 -1.1390  1.7649
 6314SOL     OW30577   3.855   2.001   4.509 -0.2607  0.6931  0.4318
 6314SOL    HW130578   3.925   1.957   4.461 -2.4194 -2.8909  0.5930
 6314SOL    HW230579   3.779   1.973   4.458  0.4754  0.6130 -0.6047
 6315SOL     OW30580   1.261   1.481  16.474  0.0727 -0.4971  0.5192
 6315SOL    HW130581   1.290   1.406  16.422  0.2351 -1.1607  1.5607
 6315SOL    HW230582   1.166   1.480  16.464  0.0806 -1.0107  0.5054
 6316SOL     OW30583   2.558   2.811   3.992  0.2734 -0.3434  0.0534
 6316SOL    HW130584   2.614   2.768   3.927 -1.5115 -1.7382 -0.5602
 6316SOL    HW230585   2.566   2.753   4.068  0.5489  2.4274  2.1283
 6317SOL     OW30586   2.996   4.202   6.001  0.2778 -0.1458 -0.8502
 6317SOL    HW130587   2.915   4.252   6.002  1.2417  1.4396 -3.8761
 6317SOL    HW230588   2.999   4.166   5.913 -1.7508 -2.0428 -0.1513
 6318SOL     OW30589   1.882   2.923   7.692  0.0624 -1.1144  0.0230
 6318SOL    HW130590   1.814   2.944   7.628 -0.9281  0.3642  1.5582
 6318SOL    HW230591   1.842   2.949   7.775 -0.2904 -0.7351 -0.2705
 6319SOL     OW30592   4.561   2.534   7.145 -0.2342 -0.5383  0.2242
 6319SOL    HW130593   4.531   2.525   7.236 -0.0679  0.1828  0.3565
 6319SOL    HW230594   4.526   2.453   7.110  0.5237 -0.8015  0.0700
 6320SOL     OW30595   1.690   3.483  14.023  0.2440 -0.6468 -0.3861
 6320SOL    HW130596   1.610   3.487  14.074 -0.0255 -1.3738 -0.7464
 6320SOL    HW230597   1.757   3.513  14.084  0.1603  0.7785 -0.9813
 6321SOL     OW30598   4.098   0.001   7.150 -0.4242 -0.0656  0.5264
 6321SOL    HW130599   4.036   4.666   7.136 -1.0092  0.8825 -1.7679
 6321SOL    HW230600   4.166   4.702   7.207  0.3789  0.0530 -0.3619
 6322SOL     OW30601   4.584   3.446   5.880  0.2863  0.0097 -0.2169
 6322SOL    HW130602   4.647   3.471   5.813  0.2009 -0.1533 -0.3576
 6322SOL    HW230603   4.550   3.362   5.849 -1.8732  0.3344  1.2502
 6323SOL     OW30604   4.264   2.096  15.894  0.0538 -0.3251  0.1526
 6323SOL    HW130605   4.192   2.096  15.957 -0.4846  1.3103 -0.4441
 6323SOL    HW230606   4.322   2.158  15.938  0.9881 -0.0426 -1.5014
 6324SOL     OW30607   4.009   3.520   3.349 -0.1466  0.3644  0.6844
 6324SOL    HW130608   4.059   3.544   3.271 -0.3635 -0.7869  0.1991
 6324SOL    HW230609   4.079   3.525   3.414  0.5559 -1.8302  0.0967
 6325SOL     OW30610   0.996   1.833  14.448  0.0825 -0.3363 -0.0012
 6325SOL    HW130611   0.943   1.804  14.522 -1.6528  0.9721 -0.7286
 6325SOL    HW230612   0.989   1.929  14.448 -0.7235 -0.4039 -2.6037
 6326SOL     OW30613   1.381   3.179   0.683 -0.1431  0.9557  0.1712
 6326SOL    HW130614   1.383   3.121   0.606  1.7966  1.3149 -0.0489
 6326SOL    HW230615   1.290   3.203   0.696  0.3098  1.2069  2.8158
 6327SOL     OW30616   2.865   2.009   8.452 -0.1938 -0.0570  0.3000
 6327SOL    HW130617   2.936   1.969   8.402 -0.9221 -0.5886 -0.3138
 6327SOL    HW230618   2.914   2.079   8.494  2.1548 -1.5143 -0.0325
 6328SOL     OW30619   1.890   3.331   3.776  0.1219 -0.3207  0.0450
 6328SOL    HW130620   1.896   3.319   3.682 -1.1258  0.7774 -0.1827
 6328SOL    HW230621   1.811   3.280   3.795 -0.0559  0.1942  0.7010
 6329SOL     OW30622   0.384   2.318   7.683 -0.2544  0.3386 -0.0608
 6329SOL    HW130623   0.347   2.244   7.636 -1.8609  0.3183  1.2458
 6329SOL    HW230624   0.444   2.275   7.744  0.5947 -1.9827 -2.5061
 6330SOL     OW30625   3.788   0.879   5.925  0.0180  0.0488  0.4136
 6330SOL    HW130626   3.713   0.833   5.965  2.1159 -3.3166  0.5089
 6330SOL    HW230627   3.856   0.826   5.967 -0.9601 -0.1611  1.7424
 6331SOL     OW30628   2.708   4.715   0.684 -0.6846 -0.1171 -0.1529
 6331SOL    HW130629   2.686   4.637   0.632  2.4965 -1.9695  1.3001
 6331SOL    HW230630   2.689   4.687   0.773 -2.1767 -1.7643 -0.9797
 6332SOL     OW30631   0.573   4.372   4.839 -0.3090 -0.6751 -0.0655
 6332SOL    HW130632   0.591   4.360   4.932 -3.3590 -0.7410  0.5392
 6332SOL    HW230633   0.483   4.404   4.841 -0.1074 -0.1292  0.3642
 6333SOL     OW30634   4.103   2.999   3.751  0.1362 -0.3251  0.1231
 6333SOL    HW130635   4.192   3.005   3.786  0.5161  0.6223 -1.0137
 6333SOL    HW230636   4.095   2.904   3.737  1.4268 -0.4153  0.0235
 6334SOL     OW30637   4.090   0.233   4.924  0.3927 -0.4153 -0.4593
 6334SOL    HW130638   4.022   0.300   4.932  0.0153 -0.9324  0.7071
 6334SOL    HW230639   4.063   0.170   4.991  2.7139  1.0081  1.8219
 6335SOL     OW30640   1.064   4.408   6.718  0.0689  0.5572  0.1515
 6335SOL    HW130641   1.067   4.361   6.800  0.8543 -1.8512 -1.2742
 6335SOL    HW230642   1.022   4.343   6.662  0.9739  0.1930 -0.1028
 6336SOL     OW30643   3.731   3.079   5.592 -0.1367 -0.0428 -0.7586
 6336SOL    HW130644   3.643   3.044   5.577 -1.4151  1.5108  3.2508
 6336SOL    HW230645   3.733   3.164   5.547 -0.0001  0.9740  1.1690
 6337SOL     OW30646   1.938   4.204   0.848  0.0824  0.2778  0.4639
 6337SOL    HW130647   1.857   4.254   0.844  0.2066  0.4366 -0.0902
 6337SOL    HW230648   1.987   4.260   0.908  2.4322  0.3257 -1.4641
 6338SOL     OW30649   1.206   2.985   6.169 -0.2819  0.5766  0.1093
 6338SOL    HW130650   1.284   3.000   6.222  1.1272  0.8960 -2.0450
 6338SOL    HW230651   1.140   3.003   6.235 -1.7234  2.3063 -1.8138
 6339SOL     OW30652   3.329   2.999   2.604 -0.0999 -0.0275  0.3824
 6339SOL    HW130653   3.275   2.924   2.582  1.0941 -0.1916 -2.0062
 6339SOL    HW230654   3.419   2.965   2.609  0.7143  1.9071 -0.9047
 6340SOL     OW30655   4.566   3.655   8.525 -0.2376  0.7731 -0.4475
 6340SOL    HW130656   4.489   3.683   8.574  0.0925  1.5948 -0.4009
 6340SOL    HW230657   4.635   3.687   8.583  0.5610 -3.1037  0.7400
 6341SOL     OW30658   4.312   3.346  15.661 -0.2327  0.1546 -0.1948
 6341SOL    HW130659   4.335   3.392  15.742  1.3588  0.5727 -0.8916
 6341SOL    HW230660   4.394   3.298  15.652 -0.5293 -0.9874  3.1854
 6342SOL     OW30661   4.063   3.081   6.279 -0.6392 -0.2525 -0.3332
 6342SOL    HW130662   4.102   3.084   6.192  0.4818 -0.3101  0.1624
 6342SOL    HW230663   4.136   3.059   6.338 -1.7802 -2.4327  0.2543
 6343SOL     OW30664   4.532   4.586   0.315 -0.0886 -0.0378  0.2801
 6343SOL    HW130665   4.594   4.600   0.243  0.6107 -0.3890  0.8157
 6343SOL    HW230666   4.509   4.677   0.335 -0.2409  0.0099 -0.0958
 6344SOL     OW30667   3.121   0.075   7.747 -0.3211 -0.4076 -0.4042
 6344SOL    HW130668   3.072   4.736   7.781 -0.1484 -0.1426  0.4299
 6344SOL    HW230669   3.152   0.048   7.660  0.4095  0.1779 -0.3216
 6345SOL     OW30670   3.031   1.146  11.282 -0.7864 -0.2653 -0.3781
 6345SOL    HW130671   3.087   1.081  11.239  0.1098 -0.4256  1.0156
 6345SOL    HW230672   3.076   1.230  11.272  0.5928 -1.1251 -1.4146
 6346SOL     OW30673   0.982   4.486   4.955  0.0959  0.0762  0.1306
 6346SOL    HW130674   0.962   4.400   4.992 -0.0433  0.6432  1.3792
 6346SOL    HW230675   0.906   4.535   4.985  1.2029  2.7219 -1.3576
 6347SOL     OW30676   4.498   3.605  11.282  0.4327 -0.0141  0.1510
 6347SOL    HW130677   4.425   3.610  11.220  0.6913  1.6423 -0.0177
 6347SOL    HW230678   4.445   3.584  11.360 -1.8128 -1.7861 -1.8378
 6348SOL     OW30679   1.722   1.636   2.414 -0.4472 -0.7931  0.3541
 6348SOL    HW130680   1.716   1.659   2.321  2.0879 -2.9072 -0.3510
 6348SOL    HW230681   1.817   1.623   2.421 -0.1957  0.3270 -0.8678
 6349SOL     OW30682   3.998   1.289   1.916 -0.0279  0.0353 -0.1261
 6349SOL    HW130683   4.031   1.261   1.830 -1.3074 -2.1958  0.1297
 6349SOL    HW230684   3.944   1.364   1.891  0.1641 -0.1244 -1.0512
 6350SOL     OW30685   0.104   3.420   8.409  0.3820 -0.2436  0.1691
 6350SOL    HW130686   0.102   3.513   8.433  0.4759 -1.0629  3.2942
 6350SOL    HW230687   0.046   3.379   8.473  3.4389 -1.5059  2.1282
 6351SOL     OW30688   0.639   4.042   3.837 -0.5850  0.6572 -0.4541
 6351SOL    HW130689   0.637   3.991   3.918  0.7988 -1.3954 -1.6881
 6351SOL    HW230690   0.646   4.130   3.874  1.8001  0.5001 -0.5183
 6352SOL     OW30691   1.019   2.592   7.690 -0.2580 -0.8090  0.5691
 6352SOL    HW130692   1.104   2.548   7.687  0.6871  1.1097 -1.0523
 6352SOL    HW230693   0.973   2.540   7.624 -1.3195 -0.2048  0.8434
 6353SOL     OW30694   4.375   3.407   4.177  0.7627  0.0219 -0.0064
 6353SOL    HW130695   4.464   3.391   4.144  0.7506 -0.9178  0.3989
 6353SOL    HW230696   4.327   3.337   4.133  1.6077 -0.7108  0.2143
 6354SOL     OW30697   3.273   4.173   8.344  0.0015  0.0372  0.4952
 6354SOL    HW130698   3.266   4.216   8.429  2.8128  2.3400 -0.4469
 6354SOL    HW230699   3.333   4.103   8.372  2.7253  1.8622 -0.7997
 6355SOL     OW30700   4.146   2.455   2.066 -0.0727 -0.2599 -0.3591
 6355SOL    HW130701   4.137   2.360   2.066  1.9152 -0.4468  1.4907
 6355SOL    HW230702   4.106   2.481   2.149 -1.1697 -1.6645 -0.4452
 6356SOL     OW30703   0.421   2.548  13.250  0.2861 -0.1056 -0.0833
 6356SOL    HW130704   0.365   2.471  13.260 -1.3416  0.8776 -1.6213
 6356SOL    HW230705   0.514   2.525  13.252 -0.3601 -2.7427  0.3700
 6357SOL     OW30706   2.662   0.351   9.499  0.3981  0.5789 -0.2182
 6357SOL    HW130707   2.628   0.275   9.452  2.5423 -0.2199 -0.5025
 6357SOL    HW230708   2.674   0.402   9.420 -0.1104 -0.1314 -0.7509
 6358SOL     OW30709   0.656   0.798   4.163  0.0347  0.1807  0.2109
 6358SOL    HW130710   0.698   0.800   4.250  0.6351  1.3405 -0.1014
 6358SOL    HW230711   0.628   0.889   4.154  0.3375  0.2129 -0.3762
 6359SOL     OW30712   3.144   4.616   8.536  0.1476 -0.7505 -0.2958
 6359SOL    HW130713   3.191   4.677   8.593 -0.6981 -1.5308  1.2440
 6359SOL    HW230714   3.059   4.606   8.580 -0.5762  0.3385 -1.4850
 6360SOL     OW30715   4.148   3.187   4.445  0.1914  0.4868  0.4236
 6360SOL    HW130716   4.076   3.123   4.448 -0.1903  0.9382  0.9514
 6360SOL    HW230717   4.206   3.153   4.513 -0.0771  0.0694  0.4473
 6361SOL     OW30718   1.017   3.576   1.685  0.1791 -0.4081  0.2225
 6361SOL    HW130719   0.984   3.651   1.735 -0.1053 -1.1899  1.2187
 6361SOL    HW230720   1.109   3.605   1.686  0.3207 -0.9226  2.7295
 6362SOL     OW30721   3.151   0.880  17.020 -0.3626 -0.5915 -0.2709
 6362SOL    HW130722   3.231   0.892  17.072  0.4665 -0.8709 -1.4635
 6362SOL    HW230723   3.081   0.902  17.080  0.1552 -1.6662  0.7151
 6363SOL     OW30724   3.395   4.507   9.152 -0.6405 -0.0098  0.2570
 6363SOL    HW130725   3.445   4.581   9.118 -1.3290  0.3066 -0.0862
 6363SOL    HW230726   3.344   4.538   9.228 -0.3055  2.7526 -0.6541
 6364SOL     OW30727   1.652   0.551   3.186 -0.1535 -0.4461 -0.2405
 6364SOL    HW130728   1.693   0.551   3.100 -0.8536 -1.9463 -0.5712
 6364SOL    HW230729   1.722   0.600   3.230 -0.5027 -3.7677  4.0250
 6365SOL     OW30730   1.482   3.713   0.508 -0.0756  0.1658 -0.0445
 6365SOL    HW130731   1.533   3.794   0.512 -1.1028  0.8040  0.1788
 6365SOL    HW230732   1.548   3.646   0.528 -1.4857 -0.1297  3.4793
 6366SOL     OW30733   1.042   2.465   5.117 -0.3932 -0.4641 -0.3880
 6366SOL    HW130734   0.954   2.481   5.083 -0.4503  0.5940  0.2798
 6366SOL    HW230735   1.067   2.551   5.148 -2.0487 -0.1329  0.0152
 6367SOL     OW30736   2.058   1.805  15.479 -0.0458 -0.1014 -0.3715
 6367SOL    HW130737   2.030   1.882  15.528 -1.3754  0.4439 -1.9743
 6367SOL    HW230738   2.153   1.814  15.489  0.2055 -1.8145 -1.0748
 6368SOL     OW30739   1.688   3.392   1.394  0.4461  0.3642  0.2138
 6368SOL    HW130740   1.659   3.420   1.481 -0.7583 -2.5333  0.7657
 6368SOL    HW230741   1.751   3.326   1.423 -0.1622  0.1968  1.1352
 6369SOL     OW30742   0.547   0.596   9.314 -0.1916  0.5460 -0.3392
 6369SOL    HW130743   0.539   0.689   9.292 -0.5662  1.0048  1.6759
 6369SOL    HW230744   0.633   0.576   9.276  0.0685  1.5799 -0.2933
 6370SOL     OW30745   0.980   3.808   1.818  0.2918  0.4136 -0.1747
 6370SOL    HW130746   1.045   3.866   1.860  0.1020 -1.3936  2.6502
 6370SOL    HW230747   0.932   3.881   1.778  0.2896 -0.0136 -0.9256
 6371SOL     OW30748   0.675   0.015   7.832 -0.0795 -0.0124 -0.0917
 6371SOL    HW130749   0.699   4.685   7.767  1.6065 -1.3222  1.8758
 6371SOL    HW230750   0.760   0.009   7.875 -0.9523 -1.2766  1.4422
 6372SOL     OW30751   4.418   0.904  17.565 -0.0147 -0.1462  0.4091
 6372SOL    HW130752   4.386   0.975  17.619  1.0200  0.0361  0.7865
 6372SOL    HW230753   4.422   0.829  17.625 -3.1659 -1.6435 -1.2307
 6373SOL     OW30754   1.641   3.535   6.060 -0.3671 -0.1055 -0.0889
 6373SOL    HW130755   1.593   3.593   6.001 -0.3135  0.0158 -0.0150
 6373SOL    HW230756   1.578   3.467   6.082  0.7914 -0.4838  2.0565
 6374SOL     OW30757   0.338   0.202   6.014 -0.4558  0.4967  0.0235
 6374SOL    HW130758   0.383   0.286   6.018  0.1349  0.1960 -0.2061
 6374SOL    HW230759   0.403   0.145   5.972 -1.8478  0.2034 -1.7109
 6375SOL     OW30760   2.917   1.925   2.698  0.5921  0.9087  0.1485
 6375SOL    HW130761   2.950   1.877   2.622  1.4830 -1.5464  2.0830
 6375SOL    HW230762   2.896   2.010   2.659  0.0646  1.1159  0.9027
 6376SOL     OW30763   0.189   0.862   6.271 -0.4412  0.1407  0.1987
 6376SOL    HW130764   0.179   0.934   6.333 -0.9970 -0.5031  0.8708
 6376SOL    HW230765   0.131   0.882   6.198  1.4184  0.1514 -1.2429
 6377SOL     OW30766   4.380   4.232   4.653  0.1071  0.6840 -0.4791
 6377SOL    HW130767   4.390   4.225   4.748 -0.5356  1.7232 -0.3368
 6377SOL    HW230768   4.465   4.202   4.621 -0.2870 -0.7458 -0.1927
 6378SOL     OW30769   4.403   0.248   8.436 -0.2634  0.0819  0.4349
 6378SOL    HW130770   4.368   0.160   8.423  0.5823 -0.4349  1.6193
 6378SOL    HW230771   4.495   0.229   8.454  0.4558  2.9596 -0.1205
 6379SOL     OW30772   3.792   3.078   6.263 -0.0915 -0.2736 -0.3737
 6379SOL    HW130773   3.886   3.061   6.258 -0.1663 -1.2195  1.2362
 6379SOL    HW230774   3.802   3.162   6.306  1.3527 -0.3687 -0.5443
 6380SOL     OW30775   1.011   0.446   4.580  0.6232  0.0426  0.2118
 6380SOL    HW130776   0.953   0.458   4.505 -0.5583 -1.6995  0.8606
 6380SOL    HW230777   0.992   0.357   4.610  0.8119 -0.7737 -2.0650
 6381SOL     OW30778   3.780   3.900   3.954 -0.0607  0.8382 -0.4876
 6381SOL    HW130779   3.689   3.870   3.951  0.2591 -0.1494 -0.2474
 6381SOL    HW230780   3.784   3.954   3.875 -0.2094 -1.0075 -1.7550
 6382SOL     OW30781   3.425   0.687   7.155  0.4070  0.4621  0.1916
 6382SOL    HW130782   3.444   0.601   7.117 -0.2860 -0.3915  1.7446
 6382SOL    HW230783   3.340   0.671   7.197  1.2803 -0.9900  1.4371
 6383SOL     OW30784   1.431   2.802   3.920  0.4596  0.0941  0.1475
 6383SOL    HW130785   1.451   2.850   3.839 -2.6051 -2.9024 -2.3770
 6383SOL    HW230786   1.360   2.859   3.951  0.1184  0.0022 -0.4546
 6384SOL     OW30787   3.531   1.714   3.988 -0.0772  0.7002 -0.4851
 6384SOL    HW130788   3.571   1.793   4.023 -1.8488  1.2319  0.3396
 6384SOL    HW230789   3.523   1.661   4.068  2.7679  0.1293 -0.5998
 6385SOL     OW30790   4.152   3.220   9.162  0.1484  0.1118  0.3337
 6385SOL    HW130791   4.069   3.268   9.172  0.5193  0.4797  1.5624
 6385SOL    HW230792   4.130   3.133   9.196  0.2503 -0.4519 -1.0494
 6386SOL     OW30793   2.334   0.327   6.814  0.1833 -0.2633  0.5658
 6386SOL    HW130794   2.371   0.352   6.729  0.7181  0.1446  0.9162
 6386SOL    HW230795   2.402   0.271   6.852 -0.2261 -0.6032  0.7963
 6387SOL     OW30796   4.110   1.807   8.639  0.3824  0.3982 -0.7510
 6387SOL    HW130797   4.038   1.759   8.681  0.9416  0.3196  0.1232
 6387SOL    HW230798   4.105   1.895   8.676  0.8248 -0.0664  0.4457
 6388SOL     OW30799   4.700   2.456   3.287 -0.3000 -0.1118 -0.0263
 6388SOL    HW130800   4.726   2.368   3.314  2.0019  0.3855 -0.6565
 6388SOL    HW230801   4.650   2.488   3.362 -0.6542  4.2232 -2.0794
 6389SOL     OW30802   3.958   2.701   4.634  0.0498 -0.0158  0.2696
 6389SOL    HW130803   3.996   2.622   4.597  0.6709  0.4306 -0.0562
 6389SOL    HW230804   4.034   2.759   4.634 -1.4818  2.0044 -1.8261
 6390SOL     OW30805   0.577   3.345   9.096  0.7849  0.2642 -0.5367
 6390SOL    HW130806   0.661   3.303   9.077  1.0083  0.6168 -0.3334
 6390SOL    HW230807   0.547   3.293   9.172  0.4197  4.8636  2.4569
 6391SOL     OW30808   3.168   0.739  13.364 -0.5380 -0.4797  0.6112
 6391SOL    HW130809   3.151   0.653  13.402 -1.0196 -1.0367 -0.8736
 6391SOL    HW230810   3.262   0.741  13.382 -0.5091  0.6284  0.3672
 6392SOL     OW30811   1.639   2.940   8.787 -0.8356  0.8882 -0.2095
 6392SOL    HW130812   1.729   2.971   8.785  0.5475 -3.0625 -0.3859
 6392SOL    HW230813   1.598   2.968   8.705 -1.5248 -2.7857 -1.1259
 6393SOL     OW30814   1.769   2.452  15.166  0.1069  0.0539 -0.2355
 6393SOL    HW130815   1.850   2.411  15.196 -0.9179 -0.7168  1.4298
 6393SOL    HW230816   1.805   2.522  15.110 -1.4712 -0.0329 -1.3661
 6394SOL     OW30817   2.882   2.053   5.942  0.2629  0.4539  0.1561
 6394SOL    HW130818   2.841   2.139   5.940  0.5977  0.5714 -1.4860
 6394SOL    HW230819   2.928   2.063   5.859  1.1960 -4.4341  0.0435
 6395SOL     OW30820   1.269   2.207   2.434  0.2795  0.3968 -0.0280
 6395SOL    HW130821   1.218   2.262   2.493  0.2404 -0.0526  0.3518
 6395SOL    HW230822   1.221   2.220   2.352 -2.1760 -0.0597  1.3201
 6396SOL     OW30823   3.851   3.845   4.750 -0.0107  0.1736  0.2200
 6396SOL    HW130824   3.772   3.795   4.733  0.4360 -0.1779 -0.8226
 6396SOL    HW230825   3.912   3.813   4.684 -0.7826 -0.4903 -0.1676
 6397SOL     OW30826   2.905   4.219   7.376  0.5352 -0.3214 -0.2382
 6397SOL    HW130827   2.959   4.179   7.307 -2.0990 -1.2193 -1.7808
 6397SOL    HW230828   2.963   4.208   7.451 -0.1871 -1.1708  0.1910
 6398SOL     OW30829   2.089   4.391   2.174  0.7969 -0.4201  0.3862
 6398SOL    HW130830   2.126   4.368   2.259  0.6830 -1.8770  0.0370
 6398SOL    HW230831   2.072   4.484   2.188 -0.0599 -0.6693  0.9930
 6399SOL     OW30832   0.252   4.167   1.363 -0.6653 -0.0859  0.5787
 6399SOL    HW130833   0.317   4.187   1.295 -0.2016 -1.7404  0.5382
 6399SOL    HW230834   0.291   4.220   1.433 -0.1900 -2.3793  2.0249
 6400SOL     OW30835   4.349   4.614   1.203 -0.2439 -0.2695  0.2887
 6400SOL    HW130836   4.281   4.619   1.136  0.1234 -3.2538 -0.3075
 6400SOL    HW230837   4.306   4.546   1.255  0.4432 -2.0414 -1.4591
 6401SOL     OW30838   4.057   0.577   5.178  0.3092  0.3854  0.0570
 6401SOL    HW130839   4.038   0.647   5.116  1.5836 -1.2228 -2.1349
 6401SOL    HW230840   4.013   0.608   5.258 -1.5605  1.9459 -1.5721
 6402SOL     OW30841   0.809   3.647   4.646  0.2308 -0.4004  0.1851
 6402SOL    HW130842   0.890   3.697   4.651  1.8253 -2.9464 -0.0683
 6402SOL    HW230843   0.763   3.708   4.588  0.0410 -1.0676 -0.3605
 6403SOL     OW30844   4.056   3.083  16.421 -0.3358 -0.3302  0.8689
 6403SOL    HW130845   4.097   3.099  16.506  4.2275 -1.0577 -1.1893
 6403SOL    HW230846   4.128   3.104  16.362  0.6285 -0.7097  1.9071
 6404SOL     OW30847   1.874   4.426   7.712  0.1029  0.4772  0.3627
 6404SOL    HW130848   1.874   4.479   7.791 -1.5879  1.0163  0.0017
 6404SOL    HW230849   1.814   4.353   7.728  0.8169 -0.3621 -0.7644
 6405SOL     OW30850   4.111   1.524   6.278  0.2879  0.0243 -0.2578
 6405SOL    HW130851   4.132   1.617   6.272 -0.6884  0.3580  1.3859
 6405SOL    HW230852   4.163   1.483   6.209 -0.7591  0.3052 -1.2294
 6406SOL     OW30853   3.952   2.062   3.503  0.0978  0.1319  0.6013
 6406SOL    HW130854   3.995   1.976   3.501  1.9348  1.0949 -1.2843
 6406SOL    HW230855   3.959   2.084   3.410 -3.1115  0.1865  0.3807
 6407SOL     OW30856   1.906   3.737   0.479  0.1488 -0.4382 -0.3692
 6407SOL    HW130857   1.860   3.814   0.446 -0.1769 -0.2499  0.5463
 6407SOL    HW230858   1.889   3.754   0.571  1.0200  2.1879 -0.6963
 6408SOL     OW30859   2.832   0.140   1.428  0.2200  0.2347  0.4510
 6408SOL    HW130860   2.762   0.201   1.451  0.8448  1.0907  0.0621
 6408SOL    HW230861   2.808   0.061   1.477  1.0022  0.0535  0.5395
 6409SOL     OW30862   3.092   0.129  14.182 -0.0811 -0.1058 -0.1650
 6409SOL    HW130863   3.159   0.065  14.159  1.5340  1.2325  0.9323
 6409SOL    HW230864   3.128   0.203  14.133  1.6937  0.0069  1.3144
 6410SOL     OW30865   2.403   2.343   9.759  0.3326 -0.6452  0.3820
 6410SOL    HW130866   2.452   2.264   9.781 -0.7996 -1.2825  0.6185
 6410SOL    HW230867   2.410   2.359   9.665  0.2499  2.5007  0.8925
 6411SOL     OW30868   1.453   1.860  12.424 -0.5134 -0.1410  0.8469
 6411SOL    HW130869   1.433   1.952  12.407  1.1385 -0.1605 -1.1817
 6411SOL    HW230870   1.545   1.859  12.399 -0.8666  2.0357 -0.5783
 6412SOL     OW30871   2.866   3.676   5.528  0.2445 -0.0209  0.3787
 6412SOL    HW130872   2.953   3.668   5.488 -0.4269 -0.3643 -1.0315
 6412SOL    HW230873   2.817   3.722   5.460 -0.7798 -2.8369 -0.7809
 6413SOL     OW30874   2.613   4.091   6.976 -0.1571 -0.2148 -0.2251
 6413SOL    HW130875   2.638   4.094   6.884  2.7136 -1.2635  0.5228
 6413SOL    HW230876   2.657   4.167   7.015 -0.9256 -0.6625  1.5067
 6414SOL     OW30877   3.072   3.759  10.966  0.0623  0.5156  0.1334
 6414SOL    HW130878   3.150   3.771  10.912 -0.0416 -0.4038 -0.2115
 6414SOL    HW230879   3.079   3.833  11.026  0.8556  2.3286 -2.2093
 6415SOL     OW30880   2.710   4.260   5.953  0.2333  0.0307 -0.1834
 6415SOL    HW130881   2.684   4.176   5.917  1.2519  0.3786 -1.7066
 6415SOL    HW230882   2.648   4.264   6.026 -3.1199  2.8292 -3.1579
 6416SOL     OW30883   2.303   1.997   9.507  0.0475 -0.2666 -0.2673
 6416SOL    HW130884   2.244   2.071   9.500 -0.2541 -0.3275  1.5881
 6416SOL    HW230885   2.306   1.976   9.600 -1.6304  1.2342  0.1183
 6417SOL     OW30886   0.732   4.323   3.789 -0.4985 -0.0909  0.3992
 6417SOL    HW130887   0.733   4.358   3.879  1.7920 -0.9475  0.6921
 6417SOL    HW230888   0.638   4.324   3.770 -0.5735 -0.0169  0.7732
 6418SOL     OW30889   0.791   2.885   8.864 -0.8457  0.6631 -0.6896
 6418SOL    HW130890   0.699   2.906   8.882 -0.8945  0.6330 -0.9008
 6418SOL    HW230891   0.830   2.887   8.951  0.6178  2.1039 -1.3811
 6419SOL     OW30892   2.969   0.900  12.573  0.2126 -0.0310 -0.4678
 6419SOL    HW130893   3.011   0.973  12.620 -0.2938 -0.0649  0.0453
 6419SOL    HW230894   3.044   0.843  12.559  0.1000 -0.1758 -0.4754
 6420SOL     OW30895   4.358   2.922   6.231  0.1230 -0.3598 -0.1443
 6420SOL    HW130896   4.321   2.895   6.147  1.2359 -1.5525 -0.2483
 6420SOL    HW230897   4.336   2.839   6.274  2.2727 -0.6402  0.3974
 6421SOL     OW30898   3.506   4.362   3.946  0.2459 -0.1686  0.0985
 6421SOL    HW130899   3.452   4.439   3.927 -0.3557 -0.5936  0.0650
 6421SOL    HW230900   3.503   4.372   4.041 -1.5193  2.4128 -0.2349
 6422SOL     OW30901   3.878   2.569  16.811 -0.1961 -0.2987 -0.0675
 6422SOL    HW130902   3.970   2.589  16.794  0.2483 -1.1715  1.3399
 6422SOL    HW230903   3.878   2.547  16.905  0.2308  0.6893  0.1611
 6423SOL     OW30904   2.715   3.435   3.579 -0.5528  0.3058  0.3983
 6423SOL    HW130905   2.746   3.524   3.564 -0.6691  0.1954 -0.4939
 6423SOL    HW230906   2.740   3.427   3.671  1.4244  0.5802 -0.1162
 6424SOL     OW30907   2.966   2.098   3.658  0.4000  0.6342 -0.2502
 6424SOL    HW130908   3.016   2.176   3.631 -1.7304  1.6630 -1.2326
 6424SOL    HW230909   2.950   2.124   3.749 -0.6463 -2.0735  0.3314
 6425SOL     OW30910   1.091   1.523   2.289 -0.1298 -1.1649  0.0908
 6425SOL    HW130911   1.003   1.498   2.262  0.3809 -1.1424 -1.5833
 6425SOL    HW230912   1.123   1.536   2.200  1.3702  1.7864  1.0578
 6426SOL     OW30913   2.515   3.997   8.813 -0.2755 -0.5478 -0.2461
 6426SOL    HW130914   2.529   3.949   8.895  0.2148 -0.5905 -0.3577
 6426SOL    HW230915   2.466   3.933   8.762 -1.4106  2.2483 -2.6747
 6427SOL     OW30916   3.507   0.597  11.542  0.5289  0.0822  0.0348
 6427SOL    HW130917   3.599   0.616  11.557  0.6020  1.0669 -1.5740
 6427SOL    HW230918   3.505   0.630  11.452  1.5055 -0.0261 -0.0246
 6428SOL     OW30919   2.055   4.626  12.948 -0.2024  0.9056 -0.2684
 6428SOL    HW130920   2.116   4.685  12.904  1.0992  0.5456  1.0945
 6428SOL    HW230921   2.054   4.662  13.036 -2.4445  2.1349 -0.7786
 6429SOL     OW30922   1.256   1.738   6.783  0.0739 -0.1166  0.3085
 6429SOL    HW130923   1.239   1.655   6.827 -2.8598 -0.4784 -1.4947
 6429SOL    HW230924   1.170   1.778   6.793  0.6132  0.7953  1.3465
 6430SOL     OW30925   1.609   0.850   1.688  0.1990 -0.2446 -0.3131
 6430SOL    HW130926   1.683   0.894   1.728  1.4969  1.8149 -5.0257
 6430SOL    HW230927   1.632   0.852   1.596 -1.3346 -0.5978 -0.7143
 6431SOL     OW30928   3.093   0.172   1.426  0.4127 -0.1069 -0.2267
 6431SOL    HW130929   3.124   0.095   1.474  2.5418  0.2596 -1.0234
 6431SOL    HW230930   2.998   0.166   1.416  0.4313 -1.8684  0.6434
 6432SOL     OW30931   4.630   4.203   1.005  0.6793 -0.0569 -0.2198
 6432SOL    HW130932   4.720   4.234   1.020  0.7922 -0.7141  0.4778
 6432SOL    HW230933   4.637   4.153   0.924 -0.1234  0.7559 -0.7894
 6433SOL     OW30934   3.089   2.102   5.327  0.1531 -0.2173  0.1260
 6433SOL    HW130935   3.093   2.196   5.344  1.6124 -0.1403 -0.7165
 6433SOL    HW230936   3.115   2.116   5.236  0.0443  0.9488  0.2757
 6434SOL     OW30937   1.931   0.926  14.478  0.0358  0.2380 -0.2369
 6434SOL    HW130938   1.984   0.878  14.414 -0.3068  0.8976 -1.0228
 6434SOL    HW230939   1.843   0.914  14.443 -0.2593  1.3018  0.1334
 6435SOL     OW30940   3.869   0.083  11.751 -0.0041  0.3632  0.2487
 6435SOL    HW130941   3.919   0.114  11.826  0.7759 -1.4525  0.4883
 6435SOL    HW230942   3.793   0.141  11.749  0.5484  1.0307 -1.2415
 6436SOL     OW30943   1.150   4.677   6.765 -0.5344  0.2610 -0.4278
 6436SOL    HW130944   1.101   4.595   6.765  2.0463 -1.2806 -1.6871
 6436SOL    HW230945   1.088   4.729   6.816  0.1864  0.5845  0.1180
 6437SOL     OW30946   1.444   1.552   4.260 -0.7339  0.0066  0.1588
 6437SOL    HW130947   1.386   1.620   4.294 -0.9898  0.7058 -1.6232
 6437SOL    HW230948   1.383   1.479   4.260  0.3001 -0.8725 -0.5485
 6438SOL     OW30949   0.521   3.608  12.105 -0.3891  0.1769 -0.0071
 6438SOL    HW130950   0.427   3.606  12.120 -0.1298  0.3925  1.5742
 6438SOL    HW230951   0.552   3.536  12.159 -1.1327 -0.0151  0.1650
 6439SOL     OW30952   2.187   2.730  16.775 -0.2798  0.7083  0.1899
 6439SOL    HW130953   2.120   2.798  16.769 -1.8968 -0.8669  0.4571
 6439SOL    HW230954   2.247   2.744  16.702  0.6035 -0.6979  0.6409
 6440SOL     OW30955   3.505   4.235   3.457  0.5549 -0.4892 -0.8763
 6440SOL    HW130956   3.442   4.164   3.449 -1.9388  1.3976  1.8647
 6440SOL    HW230957   3.450   4.308   3.485 -1.1036 -2.2370  0.4613
 6441SOL     OW30958   0.647   1.827   3.003  0.2883  0.2738 -0.1550
 6441SOL    HW130959   0.739   1.805   2.994 -0.0524 -1.5140  0.8019
 6441SOL    HW230960   0.620   1.797   2.916 -2.0329 -0.0401  0.6547
 6442SOL     OW30961   3.820   3.192   8.224  0.2870 -0.0859 -0.7979
 6442SOL    HW130962   3.782   3.159   8.143  1.1735  0.2662 -1.3623
 6442SOL    HW230963   3.912   3.191   8.197  1.0125 -0.2292  1.6660
 6443SOL     OW30964   0.227   3.608   5.983 -0.0657 -0.1606 -0.3245
 6443SOL    HW130965   0.194   3.650   6.062 -1.1402 -0.5052 -0.5852
 6443SOL    HW230966   0.264   3.688   5.947 -3.6015  0.3291 -2.8534
 6444SOL     OW30967   3.951   2.993   7.375  0.3648  0.4471 -0.3137
 6444SOL    HW130968   3.972   2.923   7.313 -0.1389 -0.4775  0.5494
 6444SOL    HW230969   3.931   3.070   7.323 -1.9185 -0.0504 -0.2057
 6445SOL     OW30970   4.504   0.295   2.237 -0.4120 -0.1988 -0.3090
 6445SOL    HW130971   4.572   0.336   2.184  1.5455 -2.1178  0.7167
 6445SOL    HW230972   4.429   0.285   2.178 -2.1036  1.9784  1.4683
 6446SOL     OW30973   3.132   0.697  12.561 -0.2669  0.2634 -0.1695
 6446SOL    HW130974   3.217   0.661  12.588  0.0132  0.9434 -0.1493
 6446SOL    HW230975   3.071   0.628  12.589  1.1210 -0.6759  0.5210
 6447SOL     OW30976   1.054   1.065  11.968  0.5760  0.1191  0.2521
 6447SOL    HW130977   1.132   1.076  11.914  1.0713 -2.1479  0.4996
 6447SOL    HW230978   1.050   0.969  11.970  1.8844  0.0616 -0.1755
 6448SOL     OW30979   2.213   2.006  11.163 -0.3689  0.0379  0.5163
 6448SOL    HW130980   2.242   1.928  11.115  4.7576  1.5880  1.0014
 6448SOL    HW230981   2.259   1.998  11.246 -1.4356 -1.3820  0.9553
 6449SOL     OW30982   0.345   1.271   6.403 -0.0853  0.3016  0.4581
 6449SOL    HW130983   0.433   1.248   6.431 -0.3612  1.2499  2.1002
 6449SOL    HW230984   0.355   1.346   6.345 -0.4874  0.6700  0.8647
 6450SOL     OW30985   4.177   0.698   7.231  0.6707  0.2185 -0.5919
 6450SOL    HW130986   4.089   0.660   7.235  0.1214  1.7715  2.3552
 6450SOL    HW230987   4.221   0.644   7.165 -0.5540 -0.5259 -0.7951
 6451SOL     OW30988   1.689   3.515   0.509 -0.5523 -0.2812  0.0878
 6451SOL    HW130989   1.782   3.535   0.520 -0.4866 -1.0186  0.9279
 6451SOL    HW230990   1.689   3.476   0.421 -1.3743  1.1769 -0.5543
 6452SOL     OW30991   0.403   0.607   2.869  0.5880  0.2529  0.4339
 6452SOL    HW130992   0.397   0.581   2.777  2.8000 -2.5042  1.0908
 6452SOL    HW230993   0.461   0.540   2.904  0.2647  0.1588  0.7842
 6453SOL     OW30994   4.472   2.766   1.775  0.5444  0.4625 -0.4209
 6453SOL    HW130995   4.487   2.694   1.836 -1.4365 -0.5452 -1.1311
 6453SOL    HW230996   4.398   2.735   1.723 -1.0507  3.0904  0.3129
 6454SOL     OW30997   4.734   0.862   4.067  0.1026 -0.2668  0.4526
 6454SOL    HW130998   0.081   0.863   4.114  0.6053 -0.1642 -0.4451
 6454SOL    HW230999   0.001   0.776   4.024  1.2657  0.0187 -0.0171
 6455SOL     OW31000   0.385   0.509   5.801 -0.0446 -0.3153 -0.0395
 6455SOL    HW131001   0.342   0.582   5.846  0.1960  1.2633 -2.4009
 6455SOL    HW231002   0.474   0.501   5.834 -0.3046 -1.8003  0.3356
 6456SOL     OW31003   3.382   0.805  14.997 -0.3974 -0.9527  0.3520
 6456SOL    HW131004   3.356   0.776  15.084  3.2818  2.9026  2.7273
 6456SOL    HW231005   3.341   0.892  14.994  3.4095  0.8561  0.5675
 6457SOL     OW31006   3.262   0.455   3.491 -0.6685  0.2891 -0.3842
 6457SOL    HW131007   3.177   0.483   3.458 -0.2697  1.9291 -0.0190
 6457SOL    HW231008   3.304   0.426   3.410 -0.9782 -2.1332  0.3106
 6458SOL     OW31009   2.797   4.415   3.981  0.1197 -0.1462 -0.2413
 6458SOL    HW131010   2.891   4.412   3.993  0.4586  1.1675 -2.6593
 6458SOL    HW231011   2.768   4.394   4.070  1.2500  0.2478  0.2074
 6459SOL     OW31012   4.341   0.714   2.637  0.1654  0.1054  0.1785
 6459SOL    HW131013   4.289   0.640   2.667  2.5053 -0.6950  2.2506
 6459SOL    HW231014   4.293   0.755   2.565  0.7224  1.7207  0.7182
 6460SOL     OW31015   2.679   0.178  16.974 -0.1074  0.4290 -0.2022
 6460SOL    HW131016   2.769   0.202  16.994 -0.1068 -0.3526  0.7431
 6460SOL    HW231017   2.685   0.109  16.908  1.4092 -0.0159  0.4092
 6461SOL     OW31018   4.233   1.192   4.505 -0.6379  0.2768  0.1239
 6461SOL    HW131019   4.158   1.154   4.460 -0.6175 -1.3005  1.4010
 6461SOL    HW231020   4.295   1.170   4.436 -0.3635  0.7110  0.2309
 6462SOL     OW31021   3.532   3.765   8.016  0.1406  0.3904 -0.4839
 6462SOL    HW131022   3.622   3.754   7.983 -0.9373 -0.9745 -2.9722
 6462SOL    HW231023   3.522   3.854   7.982 -0.2907 -1.3632 -4.9786
 6463SOL     OW31024   2.629   0.582   8.791 -0.3678 -0.4527  0.6135
 6463SOL    HW131025   2.627   0.556   8.699 -3.1886  0.8871  0.2912
 6463SOL    HW231026   2.720   0.602   8.812 -0.2772  1.6168 -1.7403
 6464SOL     OW31027   1.409   1.560   6.951 -0.1167 -0.5039  0.0810
 6464SOL    HW131028   1.436   1.586   6.863 -0.6828  0.1055  0.0878
 6464SOL    HW231029   1.337   1.499   6.938 -0.3924 -0.1260 -0.1375
 6465SOL     OW31030   0.093   1.631   1.430 -0.2005 -0.1595 -0.3076
 6465SOL    HW131031   0.016   1.687   1.442  0.2492  0.0133  1.8165
 6465SOL    HW231032   0.049   1.546   1.425 -2.1461  0.7426  1.1396
 6466SOL     OW31033   4.648   0.465   2.979 -0.2510  0.8256  0.2046
 6466SOL    HW131034   4.673   0.555   2.959  1.1969 -0.1731 -2.3884
 6466SOL    HW231035   4.619   0.434   2.894 -0.3623  0.3683  0.4101
 6467SOL     OW31036   4.309   1.375   3.859 -0.5558  0.3995  0.3976
 6467SOL    HW131037   4.342   1.463   3.880  1.1217  0.3730 -2.0711
 6467SOL    HW231038   4.256   1.397   3.782 -0.6161 -1.5031 -0.1068
 6468SOL     OW31039   4.604   1.752   1.493 -0.2057  0.8377 -0.1203
 6468SOL    HW131040   4.607   1.838   1.534  2.2870  0.5737  0.2382
 6468SOL    HW231041   4.541   1.769   1.423 -0.3598  1.3297  0.1362
 6469SOL     OW31042   4.260   2.071   4.895  0.3895 -0.0352 -0.6629
 6469SOL    HW131043   4.216   2.000   4.848 -0.1709  1.0816 -1.8102
 6469SOL    HW231044   4.206   2.077   4.974  1.1549 -1.6923  0.0078
 6470SOL     OW31045   3.941   0.313   8.750  0.7059  0.0405 -0.5917
 6470SOL    HW131046   3.923   0.256   8.676 -0.4080 -2.0620  1.2871
 6470SOL    HW231047   3.858   0.358   8.768  1.1386  0.6650 -0.1389
 6471SOL     OW31048   2.242   2.976   1.613 -0.6822  0.4341  0.3853
 6471SOL    HW131049   2.156   2.940   1.635  0.2291 -1.6182  0.5745
 6471SOL    HW231050   2.299   2.943   1.683  0.0658  1.6660  0.3567
 6472SOL     OW31051   2.418   2.418   3.436  0.3524  0.0121 -0.5478
 6472SOL    HW131052   2.487   2.384   3.380 -0.0863  0.7903 -1.5728
 6472SOL    HW231053   2.342   2.384   3.389 -0.5637 -1.0051  1.6607
 6473SOL     OW31054   2.366   2.273  14.836  0.5556  0.1755  0.0904
 6473SOL    HW131055   2.359   2.276  14.740  0.4547 -0.4403  0.0765
 6473SOL    HW231056   2.383   2.185  14.868  0.5278 -0.3794 -1.4260
 6474SOL     OW31057   2.922   0.632   7.934 -0.2480  0.3042 -0.3131
 6474SOL    HW131058   2.889   0.559   7.987 -0.3073  1.7958  1.6976
 6474SOL    HW231059   2.991   0.582   7.890  0.2037  1.5883 -1.0538
 6475SOL     OW31060   1.356   3.288   9.160  0.6309 -0.2519 -0.2812
 6475SOL    HW131061   1.285   3.312   9.101  2.1521 -2.3485 -2.9366
 6475SOL    HW231062   1.336   3.342   9.237 -0.2537  0.1828 -0.8178
 6476SOL     OW31063   3.871   1.096  12.029  0.1853 -0.0985  0.1407
 6476SOL    HW131064   3.836   1.174  12.071  3.8527  2.0439 -0.8125
 6476SOL    HW231065   3.801   1.079  11.966 -0.6365 -1.9521  1.5708
 6477SOL     OW31066   2.912   2.556   2.613 -0.0096 -0.2411 -0.3728
 6477SOL    HW131067   2.939   2.485   2.554  1.1273 -0.1335  0.0187
 6477SOL    HW231068   2.826   2.533   2.647 -0.0926  0.3738 -0.1736
 6478SOL     OW31069   4.067   0.373  10.212 -0.5796  0.5921 -0.2276
 6478SOL    HW131070   4.035   0.284  10.220  1.5336 -0.2171 -0.6886
 6478SOL    HW231071   3.988   0.405  10.169  1.4592  3.5487 -1.7861
 6479SOL     OW31072   2.584   2.444   6.103  0.2079  0.2007  0.1933
 6479SOL    HW131073   2.572   2.521   6.159 -2.3575  0.0332 -0.1121
 6479SOL    HW231074   2.518   2.456   6.035  0.1054  0.0800  0.2712
 6480SOL     OW31075   1.258   1.273  14.527  0.5925  0.2443 -0.1839
 6480SOL    HW131076   1.335   1.314  14.488  0.8326  0.4170  0.4717
 6480SOL    HW231077   1.189   1.339  14.513 -1.1389 -1.3736  0.7047
 6481SOL     OW31078   4.714   3.136   1.311  0.2933 -0.5631 -0.4541
 6481SOL    HW131079   0.016   3.198   1.373 -2.1099 -0.4239  0.8923
 6481SOL    HW231080   4.638   3.104   1.359  1.9451 -1.2399  1.7182
 6482SOL     OW31081   1.324   2.230   2.708  0.7385  0.1450 -0.2993
 6482SOL    HW131082   1.244   2.277   2.731  1.7566  0.4827  2.5213
 6482SOL    HW231083   1.309   2.147   2.753 -0.3525 -0.0727 -1.0448
 6483SOL     OW31084   0.622   1.227   1.561  0.2001 -0.2876  0.4185
 6483SOL    HW131085   0.555   1.248   1.626  0.1285  0.4077  0.1202
 6483SOL    HW231086   0.605   1.135   1.544  0.1505 -0.5857  2.1470
 6484SOL     OW31087   4.689   1.084   3.350  0.0751 -0.1123  0.1143
 6484SOL    HW131088   4.654   1.148   3.412  1.9839 -0.9443  2.0456
 6484SOL    HW231089   4.695   1.011   3.410 -0.0836  0.5023  0.8748
 6485SOL     OW31090   4.154   0.544  10.385 -0.1516 -0.5102 -0.0636
 6485SOL    HW131091   4.158   0.492  10.466  1.7442  2.5286  1.7834
 6485SOL    HW231092   4.095   0.492  10.330 -1.7735  0.6357  0.6010
 6486SOL     OW31093   3.142   0.941   1.365 -0.1605 -0.0895  0.2997
 6486SOL    HW131094   3.197   0.939   1.287 -3.9962  1.1797 -2.4656
 6486SOL    HW231095   3.064   0.980   1.324 -1.4177 -1.4321  1.3991
 6487SOL     OW31096   0.741   4.447   4.249  0.0962 -0.2181 -0.1118
 6487SOL    HW131097   0.720   4.509   4.319 -2.8311 -0.7705 -0.4943
 6487SOL    HW231098   0.826   4.411   4.276  1.0951 -0.4873 -3.6254
 6488SOL     OW31099   3.483   1.069   5.046 -0.3272  0.3238  0.1782
 6488SOL    HW131100   3.471   1.054   5.140  0.9219 -1.7461  0.0175
 6488SOL    HW231101   3.573   1.102   5.040 -1.4342  3.0526 -1.0944
 6489SOL     OW31102   1.131   4.650   7.495 -0.5002 -0.0368  0.2859
 6489SOL    HW131103   1.087   4.733   7.513  1.3346  0.6974  1.3908
 6489SOL    HW231104   1.114   4.649   7.401  0.1552 -0.0081  0.1686
 6490SOL     OW31105   4.636   2.497   0.900  0.4754 -0.1881 -0.0108
 6490SOL    HW131106   4.615   2.524   0.989  3.1769 -2.3689  1.3091
 6490SOL    HW231107   4.560   2.512   0.843  0.6751 -2.8601 -1.0152
 6491SOL     OW31108   2.177   2.530   8.374  0.0783  0.3607  0.0925
 6491SOL    HW131109   2.184   2.435   8.383 -0.5753  0.2765 -0.3455
 6491SOL    HW231110   2.082   2.534   8.383  0.3185  2.3245  1.9061
 6492SOL     OW31111   3.862   2.908  16.020 -0.0859 -0.2131 -0.0281
 6492SOL    HW131112   3.771   2.920  15.996  0.2165  0.4437 -0.8496
 6492SOL    HW231113   3.851   2.859  16.101 -0.8733  1.0281  0.6136
 6493SOL     OW31114   0.564   0.695   3.878 -0.1929 -0.3284  0.4199
 6493SOL    HW131115   0.565   0.600   3.867 -2.8566 -0.3483  0.4146
 6493SOL    HW231116   0.521   0.721   3.797 -0.5263 -1.3369  0.2858
 6494SOL     OW31117   1.661   3.529   2.099 -0.4098  0.5782 -0.0369
 6494SOL    HW131118   1.599   3.514   2.170 -0.6455 -0.2670 -0.4173
 6494SOL    HW231119   1.706   3.595   2.152 -0.2558 -0.1625  0.7550
 6495SOL     OW31120   2.834   2.354   2.120 -0.4737  0.5582 -0.1216
 6495SOL    HW131121   2.801   2.315   2.039 -1.7981 -1.0046  1.1993
 6495SOL    HW231122   2.785   2.311   2.190  0.0980  0.4541  0.2160
 6496SOL     OW31123   3.673   1.752   5.712 -0.2233 -0.1401  0.2465
 6496SOL    HW131124   3.622   1.673   5.691  1.2923 -0.6205 -1.6409
 6496SOL    HW231125   3.726   1.758   5.632  0.5206  2.9698  1.0156
 6497SOL     OW31126   0.828   4.397   3.318  0.3035 -0.0382  0.0720
 6497SOL    HW131127   0.917   4.381   3.350  0.3920 -0.0875 -0.1940
 6497SOL    HW231128   0.783   4.413   3.401  2.4439  1.1196  1.0179
 6498SOL     OW31129   3.326   4.620   9.392  0.0534 -0.5982  0.1714
 6498SOL    HW131130   3.381   4.696   9.408  1.1004 -1.2466 -0.4017
 6498SOL    HW231131   3.249   4.662   9.431  0.7245  0.7279  0.0450
 6499SOL     OW31132   0.718   2.174   3.211 -0.3937  0.2004  0.2374
 6499SOL    HW131133   0.655   2.168   3.140 -1.3883 -0.6060  1.1712
 6499SOL    HW231134   0.707   2.262   3.247  1.7688  0.8632 -0.6764
 6500SOL     OW31135   1.248   4.272   2.126 -0.3975 -0.7321 -0.4370
 6500SOL    HW131136   1.248   4.336   2.055 -0.8545  0.1115  0.3277
 6500SOL    HW231137   1.170   4.296   2.176  1.7202  0.4289  2.3119
 6501SOL     OW31138   4.207   1.910   1.790 -0.1532  0.8639 -0.9596
 6501SOL    HW131139   4.299   1.886   1.777 -0.4450 -0.4358 -0.6566
 6501SOL    HW231140   4.162   1.841   1.741 -1.5293  0.2503  1.1443
 6502SOL     OW31141   2.731   3.708   3.303  0.3283  0.2719  0.0484
 6502SOL    HW131142   2.742   3.701   3.397 -0.9641  0.8689  0.2416
 6502SOL    HW231143   2.650   3.660   3.286  0.5440 -0.1317  0.1740
 6503SOL     OW31144   1.427   0.139   6.873 -0.5589  0.8822 -0.0528
 6503SOL    HW131145   1.512   0.150   6.831  0.0101  1.0247  1.1659
 6503SOL    HW231146   1.384   0.169   6.792  0.2519 -0.3476 -0.9330
 6504SOL     OW31147   4.200   1.680   3.649  0.1056 -0.7051 -0.1783
 6504SOL    HW131148   4.146   1.728   3.586 -0.6699  0.4522  1.3669
 6504SOL    HW231149   4.285   1.725   3.650 -1.0854  1.4811  2.4049
 6505SOL     OW31150   2.724   4.216   9.321  0.4519 -0.1933 -0.4507
 6505SOL    HW131151   2.795   4.152   9.315 -1.5158 -2.1981 -2.2042
 6505SOL    HW231152   2.741   4.265   9.240  0.6602 -0.1376 -0.3750
 6506SOL     OW31153   2.123   1.334   3.101 -0.1764  0.6633 -0.2765
 6506SOL    HW131154   2.109   1.429   3.101  0.2770  0.7189 -3.2039
 6506SOL    HW231155   2.031   1.313   3.112  0.0706 -0.0231  0.4267
 6507SOL     OW31156   1.434   0.560   3.496 -0.4174  0.4054  0.2796
 6507SOL    HW131157   1.423   0.486   3.437 -0.1094 -2.3784  3.7070
 6507SOL    HW231158   1.464   0.628   3.436  0.5932 -0.7259 -0.4762
 6508SOL     OW31159   4.424   0.264   7.511  0.0141 -0.4599 -0.2230
 6508SOL    HW131160   4.473   0.331   7.463  0.0681 -0.5355 -0.2727
 6508SOL    HW231161   4.483   0.248   7.584 -0.4966  1.4207  0.6145
 6509SOL     OW31162   4.120   1.326   8.686  0.3714 -0.2601  0.8280
 6509SOL    HW131163   4.133   1.336   8.780 -0.3538 -0.8525  0.9871
 6509SOL    HW231164   4.199   1.278   8.661 -0.5480 -1.0348 -0.5517
 6510SOL     OW31165   2.583   0.602   9.070  0.5060 -0.1618  0.0345
 6510SOL    HW131166   2.494   0.636   9.061  1.0457  0.8529 -1.4206
 6510SOL    HW231167   2.607   0.595   8.978  2.6974 -2.7407  0.7816
 6511SOL     OW31168   0.427   2.385   2.329 -0.1976  0.4713  0.4519
 6511SOL    HW131169   0.363   2.314   2.334 -1.5756  1.6295 -0.5515
 6511SOL    HW231170   0.404   2.431   2.410 -1.3057  3.3278 -1.4980
 6512SOL     OW31171   0.668   3.853   1.942 -0.5803  0.3936 -0.3839
 6512SOL    HW131172   0.753   3.837   1.982 -0.4999 -0.0652 -0.7344
 6512SOL    HW231173   0.677   3.819   1.853  0.7902  2.4236 -1.0191
 6513SOL     OW31174   3.735   4.078   5.512  0.0315  0.1009  0.3372
 6513SOL    HW131175   3.779   4.066   5.596 -0.9223  1.4477  1.0245
 6513SOL    HW231176   3.774   4.163   5.489  1.2948 -0.3400  0.8489
 6514SOL     OW31177   3.155   1.880  16.114  0.3412  0.2079 -0.5046
 6514SOL    HW131178   3.211   1.821  16.165  0.0124 -1.3409 -1.9432
 6514SOL    HW231179   3.203   1.963  16.113 -0.4452  0.6647 -0.4418
 6515SOL     OW31180   2.675   4.146   6.334  0.0456  0.1663  0.2254
 6515SOL    HW131181   2.672   4.080   6.403  2.9946 -0.1423  0.0256
 6515SOL    HW231182   2.692   4.082   6.264 -0.6216 -3.1490  3.0700
 6516SOL     OW31183   0.853   4.347   9.713 -0.4702 -0.3352  0.2262
 6516SOL    HW131184   0.814   4.359   9.800 -1.5046 -0.1469 -0.2683
 6516SOL    HW231185   0.896   4.431   9.697 -3.0338  0.9689  0.2009
 6517SOL     OW31186   3.993   1.049   5.482  0.1330 -0.2829 -0.7075
 6517SOL    HW131187   3.959   1.045   5.571  0.6536  0.3979 -0.4722
 6517SOL    HW231188   3.941   0.985   5.434  1.0238 -1.1258 -0.5390
 6518SOL     OW31189   2.304   1.866   7.437 -0.0838 -0.0523  0.1466
 6518SOL    HW131190   2.296   1.956   7.405 -3.1708 -0.6647 -0.7867
 6518SOL    HW231191   2.273   1.873   7.527  2.2980 -1.6378  1.0952
 6519SOL     OW31192   1.584   1.632   7.420  0.0997  0.2829 -0.4325
 6519SOL    HW131193   1.676   1.607   7.425  0.0111  0.3309  1.4954
 6519SOL    HW231194   1.553   1.599   7.336 -2.0149 -0.3726  0.6005
 6520SOL     OW31195   3.331   3.380   8.382  0.4055  0.5493  0.3729
 6520SOL    HW131196   3.405   3.319   8.376  0.4343  0.4915  1.2917
 6520SOL    HW231197   3.379   3.461   8.363  1.6012 -0.1958  0.2211
 6521SOL     OW31198   0.879   0.122  17.086  0.0157  0.0080 -0.1116
 6521SOL    HW131199   0.825   0.133  17.163  1.4696  1.9707  0.6231
 6521SOL    HW231200   0.946   0.190  17.086 -0.1352  0.1638 -0.7316
 6522SOL     OW31201   3.905   2.401  11.084 -0.1568 -0.4787  0.0744
 6522SOL    HW131202   3.883   2.435  10.998  1.1443 -0.4408 -0.2382
 6522SOL    HW231203   3.944   2.318  11.055  0.7069 -0.5221  1.3113
 6523SOL     OW31204   1.405   3.009   8.655  0.1029  0.1608 -0.0447
 6523SOL    HW131205   1.331   2.955   8.627  0.2843  0.6580 -1.5132
 6523SOL    HW231206   1.363   3.052   8.729  0.6917 -1.3213  1.1512
 6524SOL     OW31207   3.264   1.641  13.203  0.1450 -0.3105 -0.0642
 6524SOL    HW131208   3.267   1.640  13.298 -1.9537 -0.4902 -0.0010
 6524SOL    HW231209   3.290   1.549  13.200 -1.2671 -0.7688  1.6324
 6525SOL     OW31210   1.264   2.075   4.353 -0.0382 -0.0237 -0.2240
 6525SOL    HW131211   1.246   2.114   4.438  0.8917  0.4390 -0.2367
 6525SOL    HW231212   1.181   2.087   4.306 -0.0873  2.6783  0.5271
 6526SOL     OW31213   2.506   2.507  15.268 -0.0072  0.0696 -0.7528
 6526SOL    HW131214   2.494   2.415  15.244 -1.9248 -0.9168  4.0265
 6526SOL    HW231215   2.533   2.496  15.359  0.7161  1.3611 -0.8098
 6527SOL     OW31216   0.989   0.199  14.165 -0.0961 -0.0301  0.1403
 6527SOL    HW131217   0.960   0.141  14.095 -0.5417  2.0372 -1.3673
 6527SOL    HW231218   1.037   0.141  14.225 -2.2147 -1.1280  0.7883
 6528SOL     OW31219   1.138   0.518   3.075 -0.2428  0.1599  0.2246
 6528SOL    HW131220   1.231   0.539   3.069 -0.5345  1.5612  0.5701
 6528SOL    HW231221   1.116   0.577   3.147 -0.1902 -1.2495  1.3679
 6529SOL     OW31222   1.334   3.889   4.916 -0.0138  0.2542  0.0263
 6529SOL    HW131223   1.362   3.959   4.975 -2.6413  0.6531  0.8310
 6529SOL    HW231224   1.372   3.909   4.831 -0.6937  2.0449  0.1417
 6530SOL     OW31225   3.108   1.309   6.349  0.5689 -0.2401  0.4202
 6530SOL    HW131226   3.173   1.362   6.396  0.5735  0.6712 -0.6103
 6530SOL    HW231227   3.036   1.371   6.347  0.5024 -0.2938  1.3711
 6531SOL     OW31228   1.082   3.176  11.345 -0.4315 -0.1372  0.3656
 6531SOL    HW131229   1.117   3.229  11.417  1.8825 -2.4012  0.8730
 6531SOL    HW231230   0.993   3.211  11.345  1.2816  4.2232 -1.4054
 6532SOL     OW31231   1.962   0.612  12.033  0.2245  0.9198 -0.1154
 6532SOL    HW131232   1.999   0.594  11.946 -0.0939  0.0187 -0.0576
 6532SOL    HW231233   1.913   0.532  12.046 -1.1560  1.6420 -0.9363
 6533SOL     OW31234   3.598   0.137   3.507  0.0285 -0.3936 -0.6306
 6533SOL    HW131235   3.606   0.215   3.563  0.6695 -0.2906 -0.8558
 6533SOL    HW231236   3.647   0.162   3.429  2.2773 -0.5424  0.7233
 6534SOL     OW31237   3.714   2.548   2.363  0.0287 -0.2351  0.4689
 6534SOL    HW131238   3.690   2.524   2.274  0.8637 -1.0002  0.4520
 6534SOL    HW231239   3.630   2.568   2.404 -0.1868  0.0720 -0.1352
 6535SOL     OW31240   2.428   1.342   4.073 -0.2480 -0.1535  0.4129
 6535SOL    HW131241   2.379   1.317   3.995  0.4029 -0.2093  0.0173
 6535SOL    HW231242   2.353   1.372   4.124  0.6173  0.8220  1.1212
 6536SOL     OW31243   0.580   4.463   6.717 -0.4458 -0.5475  0.0152
 6536SOL    HW131244   0.631   4.517   6.657 -0.0729  0.9986  1.7310
 6536SOL    HW231245   0.654   4.408   6.743 -2.0222 -3.1517 -0.9715
 6537SOL     OW31246   0.645   1.806  16.026  0.6937 -0.6322 -0.0848
 6537SOL    HW131247   0.724   1.793  15.974  1.6200  0.1207  1.1336
 6537SOL    HW231248   0.603   1.874  15.973  1.0835 -0.8168 -0.6272
 6538SOL     OW31249   1.621   2.097   5.921  0.2420 -0.4347 -0.3290
 6538SOL    HW131250   1.645   2.126   5.833 -0.3486 -1.0273 -0.6882
 6538SOL    HW231251   1.601   2.005   5.905 -2.8541  0.4099 -1.3437
 6539SOL     OW31252   1.714   4.399   1.420  0.3744  0.1251  0.1009
 6539SOL    HW131253   1.785   4.461   1.434 -0.8802  1.9118 -1.4291
 6539SOL    HW231254   1.652   4.438   1.482 -1.0670 -0.7363 -0.7772
 6540SOL     OW31255   4.338   4.058   1.957  0.6544 -0.1147 -0.2662
 6540SOL    HW131256   4.433   4.065   1.966  0.5054 -1.9125  3.0190
 6540SOL    HW231257   4.335   3.962   1.958  0.6177 -0.1242 -1.0776
 6541SOL     OW31258   2.431   1.027   5.744 -0.4374 -0.0013  0.0462
 6541SOL    HW131259   2.416   1.119   5.764  1.4572  0.0551  1.2117
 6541SOL    HW231260   2.469   1.041   5.657  0.0118  0.6042  0.3394
 6542SOL     OW31261   0.043   3.185   7.933  0.0192 -0.1920 -0.5353
 6542SOL    HW131262   4.691   3.210   7.907  0.3174  1.1736 -0.2801
 6542SOL    HW231263   0.096   3.235   7.870  1.7197  1.1657  1.9480
 6543SOL     OW31264   3.177   3.154   8.571 -0.1625 -0.1031 -0.1344
 6543SOL    HW131265   3.221   3.222   8.520 -0.7172 -0.3392 -0.9434
 6543SOL    HW231266   3.184   3.075   8.517 -1.7442 -2.0157  2.4400
 6544SOL     OW31267   3.792   0.535  11.299 -0.3571  0.1336  0.2179
 6544SOL    HW131268   3.763   0.610  11.352  2.4342  0.9859  0.5481
 6544SOL    HW231269   3.865   0.502  11.351  0.0716  0.9486  0.1339
 6545SOL     OW31270   4.470   2.286  15.629 -0.1309  0.0772  0.4601
 6545SOL    HW131271   4.523   2.233  15.687 -1.0477 -1.2076  0.1185
 6545SOL    HW231272   4.378   2.267  15.651  0.3082 -1.8649  0.5786
 6546SOL     OW31273   0.053   2.930  11.835 -0.4479  0.2738  0.5057
 6546SOL    HW131274   0.009   2.882  11.905 -0.1439 -0.5050  0.1639
 6546SOL    HW231275   0.099   2.866  11.780 -1.2115  0.8851 -0.8580
 6547SOL     OW31276   1.892   0.938   8.990  0.3084 -0.1519  0.6091
 6547SOL    HW131277   1.947   0.986   8.928 -1.0674  0.1266 -0.3892
 6547SOL    HW231278   1.812   0.988   8.975  1.4399  1.1388 -1.2457
 6548SOL     OW31279   1.465   4.393   8.209 -0.0429 -0.0589  0.6361
 6548SOL    HW131280   1.497   4.334   8.277 -1.4165 -1.6120 -0.0739
 6548SOL    HW231281   1.546   4.444   8.211 -0.3274  0.4310 -0.7364
 6549SOL     OW31282   1.387   3.294   1.401  0.3787 -0.1720 -0.2022
 6549SOL    HW131283   1.461   3.321   1.456  1.9452 -2.5500 -1.1459
 6549SOL    HW231284   1.393   3.348   1.322  0.8211 -1.0298 -0.7592
 6550SOL     OW31285   3.685   0.811   7.238 -0.3540  0.3560  0.5014
 6550SOL    HW131286   3.612   0.764   7.196  1.7988 -1.4171 -1.3206
 6550SOL    HW231287   3.745   0.782   7.169 -2.1392  0.4841 -1.0979
 6551SOL     OW31288   4.199   0.135   1.106  0.4710 -0.2078 -0.3004
 6551SOL    HW131289   4.250   0.208   1.141 -0.7589  0.9994 -1.0083
 6551SOL    HW231290   4.188   0.082   1.185 -1.2483  0.0978 -0.3433
 6552SOL     OW31291   2.250   0.628   4.168 -0.1677  0.0421  0.6364
 6552SOL    HW131292   2.318   0.657   4.228 -0.4145 -1.1104  1.4679
 6552SOL    HW231293   2.297   0.578   4.101 -1.6970  0.6092 -0.8896
 6553SOL     OW31294   2.035   0.824  15.028 -0.3825 -0.0156  0.1153
 6553SOL    HW131295   1.968   0.857  14.968 -1.2076  1.2348  1.7196
 6553SOL    HW231296   2.096   0.783  14.967 -1.3155  0.9607 -1.4642
 6554SOL     OW31297   1.760   0.792  13.976  0.2302  0.1942 -0.3937
 6554SOL    HW131298   1.700   0.866  13.987 -1.5713 -1.3313 -0.0162
 6554SOL    HW231299   1.800   0.811  13.891 -0.0196 -1.1677 -0.8081
 6555SOL     OW31300   1.833   4.556   2.320 -0.2494 -0.0390  0.0551
 6555SOL    HW131301   1.924   4.583   2.330 -0.4784  0.1511  1.5946
 6555SOL    HW231302   1.850   4.464   2.340  0.3061  0.2693  1.0058
 6556SOL     OW31303   0.446   3.519   7.247 -0.0620  0.2078 -0.3805
 6556SOL    HW131304   0.532   3.513   7.205  0.8067 -2.3603  1.7129
 6556SOL    HW231305   0.471   3.585   7.312 -0.3937 -0.1084  0.0763
 6557SOL     OW31306   4.194   4.663   0.563  0.7809  0.1097  0.2174
 6557SOL    HW131307   4.225   4.686   0.651 -0.8072 -0.6462  0.9848
 6557SOL    HW231308   4.139   0.004   0.557  1.4415  0.4120 -1.8861
 6558SOL     OW31309   0.821   3.280   4.164 -0.2861  0.8465  0.3840
 6558SOL    HW131310   0.830   3.375   4.152  1.2643  1.0868  3.3132
 6558SOL    HW231311   0.806   3.253   4.074  0.8301 -2.0308  1.0664
 6559SOL     OW31312   3.780   2.652   3.888 -0.3030  0.1322 -0.1608
 6559SOL    HW131313   3.690   2.631   3.911  0.2350 -0.2193  1.6562
 6559SOL    HW231314   3.798   2.598   3.812  0.1867 -0.0079  0.0514
 6560SOL     OW31315   2.233   4.644   2.991 -0.2435 -0.5554 -0.2137
 6560SOL    HW131316   2.186   4.726   3.007  1.5082  0.1013  1.6310
 6560SOL    HW231317   2.301   4.672   2.930 -2.0811  1.2100 -1.4195
 6561SOL     OW31318   0.039   0.247   1.400 -0.4947  0.4945 -0.1620
 6561SOL    HW131319   0.013   0.274   1.312 -2.0336  0.6727  0.3420
 6561SOL    HW231320   0.061   0.331   1.442  0.1466  1.1234 -1.7859
 6562SOL     OW31321   0.326   3.936   7.898 -0.2583 -0.0521 -0.0295
 6562SOL    HW131322   0.303   3.843   7.906 -0.0601  0.1408  2.5271
 6562SOL    HW231323   0.386   3.933   7.972 -0.1848 -0.3896 -0.1021
 6563SOL     OW31324   4.467   3.161  12.764 -0.2412 -0.2381 -0.1578
 6563SOL    HW131325   4.430   3.118  12.687  1.5536 -3.8833  1.0631
 6563SOL    HW231326   4.465   3.094  12.832  1.9756 -0.5210 -0.3819
 6564SOL     OW31327   2.060   2.409   4.926  0.1825  0.3919  0.4068
 6564SOL    HW131328   1.993   2.477   4.916 -1.3561 -1.0542  0.7426
 6564SOL    HW231329   2.001   2.334   4.933  0.4467  0.0299 -1.1773
 6565SOL     OW31330   2.161   3.736   9.163  0.7604 -0.5212  0.5811
 6565SOL    HW131331   2.180   3.706   9.074 -2.8489  0.0442 -0.3861
 6565SOL    HW231332   2.203   3.821   9.173 -1.6496  0.6059  1.0034
 6566SOL     OW31333   4.315   3.323   2.042  0.3418  0.3964  0.5751
 6566SOL    HW131334   4.347   3.396   2.095  1.9818 -0.0948  0.2674
 6566SOL    HW231335   4.390   3.264   2.035  0.5210  0.6553  0.3006
 6567SOL     OW31336   3.265   3.473  12.471 -0.3305  0.0758 -0.1346
 6567SOL    HW131337   3.294   3.556  12.432  1.2783  0.1275  1.1771
 6567SOL    HW231338   3.210   3.506  12.542 -0.7195 -1.1552  0.1380
 6568SOL     OW31339   2.077   2.451  14.760  0.1952 -0.0723 -0.0418
 6568SOL    HW131340   2.058   2.496  14.677 -0.0359 -2.8875 -1.5446
 6568SOL    HW231341   2.010   2.382  14.762  1.1452 -0.9811  0.0566
 6569SOL     OW31342   2.182   0.732  12.474  0.3785  0.2133  0.4858
 6569SOL    HW131343   2.191   0.641  12.449  1.3659 -0.2087  2.3765
 6569SOL    HW231344   2.192   0.770  12.387 -1.3917  0.7907  0.5343
 6570SOL     OW31345   3.684   1.268   2.035  0.1730 -0.3234  0.2625
 6570SOL    HW131346   3.613   1.283   1.973 -0.7945 -0.6929  1.2942
 6570SOL    HW231347   3.705   1.175   2.024 -0.7298 -0.1256 -3.2812
 6571SOL     OW31348   0.243   3.217   2.146  0.4184 -0.5136 -0.2005
 6571SOL    HW131349   0.212   3.276   2.215 -1.4559 -1.9755  0.2182
 6571SOL    HW231350   0.337   3.229   2.159  0.3210  0.8563 -0.8007
 6572SOL     OW31351   3.940   4.064   5.695  0.2940  0.3010  0.0605
 6572SOL    HW131352   4.008   4.123   5.664 -0.5118  1.4400  0.4589
 6572SOL    HW231353   4.000   3.996   5.725  1.0807 -0.0356 -2.2527
 6573SOL     OW31354   1.544   2.627  15.153  0.5163 -0.3393  0.3522
 6573SOL    HW131355   1.470   2.638  15.213  0.5828 -0.5649  0.4758
 6573SOL    HW231356   1.584   2.548  15.189 -1.2915 -1.3260  0.2190
 6574SOL     OW31357   3.197   0.531   7.474 -0.1143  0.2299 -0.4508
 6574SOL    HW131358   3.167   0.462   7.533  1.3796  0.0310  0.0889
 6574SOL    HW231359   3.281   0.551   7.516  0.1131  0.8768 -1.2149
 6575SOL     OW31360   2.995   1.813   1.359  0.8739  0.0624 -0.2370
 6575SOL    HW131361   2.902   1.808   1.378  0.8231 -1.3735 -0.8641
 6575SOL    HW231362   3.024   1.902   1.379  3.0603 -0.7759  0.3745
 6576SOL     OW31363   2.343   4.709   4.952 -0.2138  1.1468 -0.0091
 6576SOL    HW131364   2.410   4.652   4.915  2.7392  5.6397 -1.6013
 6576SOL    HW231365   2.390   4.729   5.033  1.6591 -1.7909 -0.3654
 6577SOL     OW31366   0.760   1.561   4.488  0.8109  0.6042  1.0808
 6577SOL    HW131367   0.699   1.522   4.425 -0.2728  0.2272  2.3638
 6577SOL    HW231368   0.832   1.592   4.434 -1.0366  1.5282 -0.8930
 6578SOL     OW31369   3.793   1.556   7.800  0.5061  0.2525 -0.1640
 6578SOL    HW131370   3.730   1.496   7.760  0.4031  0.4845 -0.3496
 6578SOL    HW231371   3.823   1.496   7.869  1.0528  0.1105 -0.5281
 6579SOL     OW31372   4.547   2.531  11.147 -0.5160  0.2565 -0.3826
 6579SOL    HW131373   4.491   2.463  11.186  0.3375  0.5482  1.3398
 6579SOL    HW231374   4.493   2.607  11.169  0.7022  0.8346  0.5262
 6580SOL     OW31375   4.149   4.577   5.668 -0.4137 -0.4895 -0.1119
 6580SOL    HW131376   4.240   4.605   5.665 -0.2293 -1.1784 -0.8650
 6580SOL    HW231377   4.099   4.651   5.634  0.1742 -0.3282 -0.6184
 6581SOL     OW31378   3.552   4.178   2.345  0.2063 -0.5462  0.2652
 6581SOL    HW131379   3.559   4.146   2.435 -1.0251 -2.6856 -0.4125
 6581SOL    HW231380   3.556   4.272   2.363  1.1326 -0.1748 -1.9237
 6582SOL     OW31381   4.205   4.115   2.215  0.6595 -0.4848  0.4102
 6582SOL    HW131382   4.155   4.057   2.273 -0.4727 -0.2834 -0.3697
 6582SOL    HW231383   4.169   4.100   2.128 -0.0968  2.3630  0.2526
 6583SOL     OW31384   4.465   4.683   2.938 -0.0933  0.3380 -0.4618
 6583SOL    HW131385   4.480   4.715   3.026 -1.1636 -1.2062  0.2992
 6583SOL    HW231386   4.370   4.691   2.926 -0.5327 -1.3763  1.8412
 6584SOL     OW31387   4.645   4.547   3.485  0.4067  0.6737 -0.3645
 6584SOL    HW131388   4.683   4.499   3.559  0.2846  2.9779  1.1824
 6584SOL    HW231389   4.653   4.640   3.507  0.7671 -0.0548  2.6096
 6585SOL     OW31390   0.306   3.330   6.151  0.0451  0.3397  0.1952
 6585SOL    HW131391   0.306   3.419   6.116  0.9666  1.4469  3.0663
 6585SOL    HW231392   0.231   3.289   6.106 -1.1766  1.1657  1.4778
 6586SOL     OW31393   0.672   4.338   5.095  0.2610  0.1880 -0.2109
 6586SOL    HW131394   0.649   4.258   5.143  1.4939 -1.6575 -2.7299
 6586SOL    HW231395   0.765   4.323   5.080  0.1739 -2.0622  1.4003
 6587SOL     OW31396   2.018   3.043   8.004  0.1072  0.0770  0.1363
 6587SOL    HW131397   2.026   3.138   8.010 -1.9132  0.2037  0.6079
 6587SOL    HW231398   1.931   3.044   7.963  0.0776  0.2219  0.2062
 6588SOL     OW31399   1.732   1.486   6.139 -0.2637  0.3671 -0.2862
 6588SOL    HW131400   1.713   1.548   6.068 -1.4157 -0.8835 -1.0707
 6588SOL    HW231401   1.649   1.484   6.187 -0.1554 -2.3108 -0.2637
 6589SOL     OW31402   4.454   3.088  17.497 -0.0670 -0.1494 -0.0575
 6589SOL    HW131403   4.369   3.132  17.503  0.6988  1.2095  0.9206
 6589SOL    HW231404   4.441   3.018  17.433 -0.7492 -1.4109  1.4747
 6590SOL     OW31405   2.170   2.302  12.890 -0.1704 -0.0764 -0.5585
 6590SOL    HW131406   2.077   2.312  12.869  0.2774 -1.4399 -3.1624
 6590SOL    HW231407   2.209   2.340  12.812  2.1160  0.5844  0.9051
 6591SOL     OW31408   3.500   0.939  12.403 -0.2693 -0.5979  0.6260
 6591SOL    HW131409   3.476   0.973  12.489  0.2078 -0.1790  0.5971
 6591SOL    HW231410   3.461   1.009  12.350 -1.0984  0.6409  2.8548
 6592SOL     OW31411   3.786   2.132  13.640 -0.0705 -0.1007 -0.0631
 6592SOL    HW131412   3.731   2.210  13.628  1.4635  0.6829 -2.0699
 6592SOL    HW231413   3.734   2.077  13.699 -1.4129  0.3277 -0.8378
 6593SOL     OW31414   1.124   4.531   5.609 -0.5252 -0.1368 -0.1834
 6593SOL    HW131415   1.140   4.518   5.702  1.7073  1.7018 -0.2989
 6593SOL    HW231416   1.033   4.558   5.622 -1.0990 -3.2537  2.2729
 6594SOL     OW31417   0.828   1.140   0.965  0.0206  0.1459  0.6832
 6594SOL    HW131418   0.879   1.060   0.962 -0.2153 -0.0311  1.4482
 6594SOL    HW231419   0.848   1.173   1.053  0.7069 -1.9153  1.3020
 6595SOL     OW31420   0.142   0.001  16.547 -0.1343 -0.4264 -0.6150
 6595SOL    HW131421   0.054   0.036  16.559  0.8429  1.0699  2.2593
 6595SOL    HW231422   0.167   0.061  16.476 -2.3581 -1.4541 -2.2472
 6596SOL     OW31423   4.022   1.983   0.877 -0.1492  0.1332 -0.2210
 6596SOL    HW131424   3.958   2.052   0.892 -0.2485  0.2334 -1.1044
 6596SOL    HW231425   4.062   1.981   0.964 -0.1117  0.3296 -0.2346
 6597SOL     OW31426   1.246   4.022   4.222  0.5848  0.6272  0.0763
 6597SOL    HW131427   1.194   3.961   4.275  0.1775  1.0689  0.1868
 6597SOL    HW231428   1.213   4.105   4.257 -1.0522  0.5697 -1.3269
 6598SOL     OW31429   1.075   0.135   5.610  0.4439 -0.2694  0.0278
 6598SOL    HW131430   1.026   0.188   5.673  0.0520 -1.8305  1.0330
 6598SOL    HW231431   1.000   0.102   5.560 -0.3318 -1.1386  1.7711
 6599SOL     OW31432   0.217   0.318   5.148 -0.1682 -0.0720 -0.0029
 6599SOL    HW131433   0.166   0.399   5.143 -0.4759 -0.2413  0.4398
 6599SOL    HW231434   0.149   0.258   5.177 -0.8231  0.9062  0.4685
 6600SOL     OW31435   4.174   4.512  10.059  0.7931  0.4895  0.9069
 6600SOL    HW131436   4.107   4.579  10.045 -0.8510 -1.0125  1.6329
 6600SOL    HW231437   4.163   4.463   9.977  1.2234  0.0756  1.0981
 6601SOL     OW31438   3.116   0.168   4.812 -0.2899 -0.3577  0.0606
 6601SOL    HW131439   3.100   0.237   4.877  2.7380  0.3897  0.0109
 6601SOL    HW231440   3.208   0.177   4.789  0.2267 -0.6656  1.9757
 6602SOL     OW31441   0.936   0.032   7.921  0.5436  0.1319 -0.0475
 6602SOL    HW131442   1.021   0.055   7.883 -0.3435  1.5406 -1.1719
 6602SOL    HW231443   0.967   0.000   8.006 -0.8470 -0.9428  0.0631
 6603SOL     OW31444   1.480   3.885   4.211 -0.0870 -0.4160  0.2807
 6603SOL    HW131445   1.391   3.915   4.229  0.0274  0.6110 -0.8241
 6603SOL    HW231446   1.489   3.910   4.119 -0.3781 -3.1200 -0.4820
 6604SOL     OW31447   2.365   1.072  10.904 -0.3278  0.2167 -0.1239
 6604SOL    HW131448   2.389   1.082  10.812  0.1010  3.5354  0.3530
 6604SOL    HW231449   2.451   1.055  10.942 -0.9643  0.5331  1.4796
 6605SOL     OW31450   3.884   4.612   9.952  0.3322 -0.2072  0.1728
 6605SOL    HW131451   3.935   4.690   9.930 -1.6183  0.8097 -0.7439
 6605SOL    HW231452   3.815   4.625   9.887  0.2392  2.6712  0.8363
 6606SOL     OW31453   3.289   1.690  13.605 -0.4929  0.2519  0.2707
 6606SOL    HW131454   3.222   1.707  13.671  0.9542  2.3868  1.2210
 6606SOL    HW231455   3.308   1.598  13.624 -0.5119 -0.3625 -2.7697
 6607SOL     OW31456   2.818   1.931  10.785 -0.2209  0.0051  0.4797
 6607SOL    HW131457   2.851   1.894  10.703  2.8164  0.2583  1.5920
 6607SOL    HW231458   2.739   1.877  10.792 -0.6687  0.6120  0.1558
 6608SOL     OW31459   1.231   1.128  11.597  0.0652  1.3299  0.1001
 6608SOL    HW131460   1.138   1.142  11.611 -0.2236  1.0893 -1.5717
 6608SOL    HW231461   1.266   1.130  11.686  0.3658  2.7498 -0.0600
 6609SOL     OW31462   2.624   1.664  11.828 -0.2718 -0.0247 -0.2192
 6609SOL    HW131463   2.547   1.615  11.799 -0.8198 -0.1538  1.4473
 6609SOL    HW231464   2.615   1.647  11.921  0.0011 -0.4698 -0.2743
 6610SOL     OW31465   4.631   3.134   3.854  0.1410 -0.1492 -0.1679
 6610SOL    HW131466   4.702   3.070   3.847  1.4129  1.4358 -1.6318
 6610SOL    HW231467   4.636   3.156   3.947 -1.0139  0.6938 -0.2938
 6611SOL     OW31468   2.791   4.024  16.283  0.0898 -0.3699 -0.3806
 6611SOL    HW131469   2.699   4.003  16.294 -0.3123  1.4463 -0.3065
 6611SOL    HW231470   2.828   3.935  16.283 -1.6357 -1.0883 -0.2413
 6612SOL     OW31471   2.831   1.953   9.057 -0.4711 -0.5985 -0.4738
 6612SOL    HW131472   2.854   1.873   9.104 -0.0164  0.4259  1.0607
 6612SOL    HW231473   2.915   1.999   9.054 -1.1845  0.9233  2.4947
 6613SOL     OW31474   0.392   3.784   5.457  0.1276 -0.3444  0.1815
 6613SOL    HW131475   0.467   3.724   5.452 -0.0947 -0.5712 -0.4834
 6613SOL    HW231476   0.317   3.726   5.464  1.6900 -2.2739  0.8059
 6614SOL     OW31477   2.978   1.406  11.218  0.6045 -0.5232  0.5539
 6614SOL    HW131478   2.953   1.499  11.222 -0.7419 -1.0056  3.3918
 6614SOL    HW231479   2.928   1.367  11.290  1.7126 -1.1415  0.9785
 6615SOL     OW31480   0.423   3.912   6.343  0.4983  0.0602  0.0337
 6615SOL    HW131481   0.420   3.942   6.433  2.1284 -1.4737  0.5998
 6615SOL    HW231482   0.363   3.965   6.290  0.5318  0.8802  0.8154
 6616SOL     OW31483   1.221   3.406   0.917 -0.1549  0.3171 -0.5648
 6616SOL    HW131484   1.158   3.461   0.963 -0.7407 -2.0369  1.4202
 6616SOL    HW231485   1.167   3.384   0.841  2.0728  1.3250 -2.4502
 6617SOL     OW31486   1.590   4.227  14.131  0.4036  0.4022  0.0476
 6617SOL    HW131487   1.614   4.182  14.212  0.5281  0.1918 -0.1052
 6617SOL    HW231488   1.660   4.202  14.071  0.9998 -2.8804  2.0887
 6618SOL     OW31489   3.973   0.691   6.692 -0.3133  0.3611  0.1259
 6618SOL    HW131490   4.030   0.738   6.631 -1.6917  1.3816 -0.3711
 6618SOL    HW231491   4.036   0.668   6.760  0.8779  3.6426  0.1324
 6619SOL     OW31492   1.446   2.502   8.344 -0.0898 -0.1109  0.0510
 6619SOL    HW131493   1.443   2.542   8.257 -0.6866  2.7077  1.3485
 6619SOL    HW231494   1.380   2.551   8.393 -1.1829 -1.3548 -0.2030
 6620SOL     OW31495   2.700   1.886   8.797  0.0095 -0.2797  0.1594
 6620SOL    HW131496   2.726   1.945   8.867  2.2801  0.5098 -1.3287
 6620SOL    HW231497   2.624   1.929   8.757 -0.5197  0.1227  1.6221
 6621SOL     OW31498   4.636   1.486   2.093  0.2788 -0.2007  0.2031
 6621SOL    HW131499   4.659   1.575   2.119 -1.3288  0.7798 -1.6843
 6621SOL    HW231500   4.710   1.430   2.116 -0.4630 -1.3571 -0.1943
 6622SOL     OW31501   0.087   2.837  15.281 -0.6076 -0.1794  0.4164
 6622SOL    HW131502   0.129   2.881  15.207 -0.3862  0.5255  0.9592
 6622SOL    HW231503   0.038   2.769  15.234 -0.6373 -1.3504  2.1571
 6623SOL     OW31504   3.474   0.779   8.284  0.4797  0.3408  0.4024
 6623SOL    HW131505   3.389   0.774   8.327  0.0693 -0.1661 -0.4932
 6623SOL    HW231506   3.473   0.819   8.197  0.3428 -0.1931  0.1627
 6624SOL     OW31507   3.783   2.480   8.496 -0.6345  0.0433 -0.4087
 6624SOL    HW131508   3.836   2.468   8.418  0.0152  3.7006 -0.5300
 6624SOL    HW231509   3.827   2.416   8.553  0.6014  0.1738 -1.2067
 6625SOL     OW31510   2.411   4.531   9.623  0.2073  0.1886 -0.0202
 6625SOL    HW131511   2.453   4.467   9.566 -1.1974  0.1058 -0.9546
 6625SOL    HW231512   2.346   4.477   9.667 -0.0337  2.9330  3.0802
 6626SOL     OW31513   3.196   0.364   1.686 -0.1573 -0.6599  0.0538
 6626SOL    HW131514   3.164   0.441   1.640 -1.0686  0.4507  2.5188
 6626SOL    HW231515   3.114   0.313   1.692 -0.0572 -0.5441  2.5666
 6627SOL     OW31516   0.053   1.102   7.070  0.0594 -0.3584  0.1890
 6627SOL    HW131517   0.039   1.044   6.995  1.3334 -1.5692  0.8730
 6627SOL    HW231518   4.703   1.139   7.088  0.1049 -0.3580  0.4041
 6628SOL     OW31519   0.671   1.669  16.688 -0.3852  0.1477  0.1802
 6628SOL    HW131520   0.760   1.657  16.655 -0.0092 -0.9116  1.5377
 6628SOL    HW231521   0.618   1.642  16.613 -2.8600 -0.3158  2.0897
 6629SOL     OW31522   3.733   1.576   2.483  0.5054 -0.0131 -0.0827
 6629SOL    HW131523   3.706   1.488   2.511  1.8975 -0.3637  0.1893
 6629SOL    HW231524   3.774   1.614   2.561 -1.2818 -0.9707  1.3122
 6630SOL     OW31525   1.929   0.764   6.075  0.2804  0.0435 -1.2770
 6630SOL    HW131526   2.005   0.770   6.018 -0.4335  0.1703 -2.2205
 6630SOL    HW231527   1.931   0.853   6.108 -0.7354 -1.0788  1.8160
 6631SOL     OW31528   4.254   0.838   5.329  0.0602 -0.7506 -0.3883
 6631SOL    HW131529   4.264   0.752   5.370 -1.7077 -0.3965  0.8023
 6631SOL    HW231530   4.185   0.870   5.387 -1.2322  1.2900 -3.0185
 6632SOL     OW31531   4.384   4.058   0.848  0.4222 -0.1507  0.3965
 6632SOL    HW131532   4.352   3.968   0.835 -0.1614  0.0249  0.6522
 6632SOL    HW231533   4.373   4.055   0.943  0.8951  2.4297  0.5208
 6633SOL     OW31534   0.972   3.119   2.484  0.3802  0.8547 -0.3355
 6633SOL    HW131535   0.901   3.140   2.424 -0.3252  0.4894  0.3834
 6633SOL    HW231536   1.047   3.124   2.424  0.9761  0.6684  0.3869
 6634SOL     OW31537   3.859   3.581   2.286  0.1479  0.2279 -0.1058
 6634SOL    HW131538   3.822   3.656   2.332  0.8365  0.7174 -0.3538
 6634SOL    HW231539   3.901   3.625   2.212  0.2598  0.9860  0.4049
 6635SOL     OW31540   0.238   3.970   7.441 -0.4039  0.1957  0.1697
 6635SOL    HW131541   0.221   4.021   7.362  0.1562 -0.2944 -0.2663
 6635SOL    HW231542   0.220   3.883   7.406 -1.3250  0.1348  0.7805
 6636SOL     OW31543   1.419   3.249   2.822  0.4191  0.3905  0.6175
 6636SOL    HW131544   1.364   3.327   2.831  1.8675  1.2462  1.9936
 6636SOL    HW231545   1.381   3.170   2.861 -1.2282  0.6407 -0.4927
 6637SOL     OW31546   1.625   0.397   6.071 -0.5831 -0.6239 -0.6003
 6637SOL    HW131547   1.638   0.344   6.149 -0.0425  1.5313  0.7711
 6637SOL    HW231548   1.529   0.401   6.064 -0.6170 -1.5693 -0.6457
 6638SOL     OW31549   2.476   2.923   7.346  0.5155  0.2859  0.1246
 6638SOL    HW131550   2.412   2.903   7.277 -0.6894 -0.0202  1.3384
 6638SOL    HW231551   2.487   2.843   7.397  0.3809 -2.1811 -3.7226
 6639SOL     OW31552   1.229   4.671   5.392 -0.3796 -0.4824 -0.0168
 6639SOL    HW131553   1.188   4.616   5.459 -0.2336 -0.1703  0.3318
 6639SOL    HW231554   1.244   4.604   5.326 -1.0925  0.1703 -0.8399
 6640SOL     OW31555   3.134   1.536  10.570 -0.4081  0.4129  0.3054
 6640SOL    HW131556   3.207   1.483  10.602 -0.2930  0.3631 -0.0359
 6640SOL    HW231557   3.138   1.610  10.631  0.5245 -0.2166  0.9958
 6641SOL     OW31558   0.417   2.255  10.673 -0.4590  0.8187  0.2333
 6641SOL    HW131559   0.476   2.230  10.601 -1.2030 -1.0775  0.2944
 6641SOL    HW231560   0.420   2.170  10.718 -3.4506  0.8009  0.3736
 6642SOL     OW31561   3.031   3.340  14.068  0.7765  0.2948 -0.3808
 6642SOL    HW131562   2.943   3.309  14.047 -0.4138  3.1676  0.3599
 6642SOL    HW231563   3.056   3.392  13.992  0.4334  1.2368  0.1557
 6643SOL     OW31564   3.492   0.473   3.180  0.4240 -0.2836 -0.1131
 6643SOL    HW131565   3.418   0.531   3.201  0.0152 -1.0496  0.5463
 6643SOL    HW231566   3.494   0.486   3.085  0.4025  0.2459 -0.0404
 6644SOL     OW31567   1.865   0.117   7.768  0.2060 -0.2897 -0.0876
 6644SOL    HW131568   1.898   0.202   7.740  1.6242 -0.4528  1.0723
 6644SOL    HW231569   1.937   0.056   7.755  1.4198  1.5979 -2.2040
 6645SOL     OW31570   3.330   1.224   5.519  0.1019 -0.1751  0.3499
 6645SOL    HW131571   3.389   1.239   5.592  2.5374 -2.7859 -1.0795
 6645SOL    HW231572   3.271   1.299   5.526 -0.0269 -0.4385  1.9587
 6646SOL     OW31573   4.188   2.375  14.758  0.6544 -0.5181 -0.6046
 6646SOL    HW131574   4.202   2.355  14.665  0.3319 -1.8367 -0.3668
 6646SOL    HW231575   4.240   2.302  14.792 -0.7116 -2.5863 -2.9682
 6647SOL     OW31576   4.446   2.150  16.665 -0.2951 -0.5426 -0.0625
 6647SOL    HW131577   4.478   2.144  16.575  0.1018 -2.7768  0.2257
 6647SOL    HW231578   4.526   2.126  16.712  1.1968  0.5610 -2.0420
 6648SOL     OW31579   3.471   2.634   2.457 -0.6888  0.4495 -0.3225
 6648SOL    HW131580   3.385   2.608   2.423 -1.7171 -1.0884  3.5054
 6648SOL    HW231581   3.440   2.660   2.544 -2.4835  0.6065 -1.0053
 6649SOL     OW31582   3.840   4.510  12.290 -0.7013 -0.2137  0.4428
 6649SOL    HW131583   3.893   4.513  12.210  1.2920  0.0815  1.7780
 6649SOL    HW231584   3.811   4.601  12.288 -1.5642 -0.4912  0.6730
 6650SOL     OW31585   0.341   1.159  12.360 -0.3375  0.4710 -0.1168
 6650SOL    HW131586   0.259   1.196  12.327  1.0504  2.0232 -1.7865
 6650SOL    HW231587   0.386   1.242  12.373  1.0027 -0.4653  1.1821
 6651SOL     OW31588   4.007   4.719   5.476 -0.5719  0.4812  0.2035
 6651SOL    HW131589   4.082   4.728   5.418 -1.3976  0.2085 -0.9175
 6651SOL    HW231590   3.951   0.061   5.466 -1.0662 -0.2246 -2.6212
 6652SOL     OW31591   3.281   4.280  12.879  0.1139  0.2214  0.2667
 6652SOL    HW131592   3.305   4.357  12.828  3.9094  0.8634  3.0080
 6652SOL    HW231593   3.327   4.305  12.959 -0.5461 -0.2521  0.8038
 6653SOL     OW31594   3.961   0.316   6.504  0.3393 -0.1604  0.1835
 6653SOL    HW131595   3.902   0.347   6.572  1.2536 -0.9197  1.3251
 6653SOL    HW231596   4.044   0.314   6.552  1.1406 -0.6962 -1.2012
 6654SOL     OW31597   0.973   4.219   2.670  0.1957 -0.3943 -0.4734
 6654SOL    HW131598   0.949   4.160   2.598 -0.4888 -0.1072 -0.4819
 6654SOL    HW231599   1.050   4.186   2.717 -2.4973 -2.9753  2.1163
 6655SOL     OW31600   0.651   3.896   4.074  0.0660  0.2500 -0.2241
 6655SOL    HW131601   0.741   3.897   4.106  0.1706  0.3115 -0.5144
 6655SOL    HW231602   0.612   3.952   4.141  0.0168  0.0360 -0.0744
 6656SOL     OW31603   4.459   0.650   8.857 -0.1252 -0.2363 -0.0254
 6656SOL    HW131604   4.480   0.741   8.875 -1.5537 -0.0915  0.9177
 6656SOL    HW231605   4.393   0.630   8.924 -1.4943  1.5841 -0.8309
 6657SOL     OW31606   2.159   0.437  10.935 -0.1959 -0.1147 -0.1577
 6657SOL    HW131607   2.064   0.446  10.930 -0.2541 -0.1566  1.0165
 6657SOL    HW231608   2.176   0.343  10.928 -0.8274 -0.0739 -2.3040
 6658SOL     OW31609   2.669   4.234   5.502 -0.0198  0.6964  0.0256
 6658SOL    HW131610   2.618   4.154   5.493 -1.1309  1.3425  0.5837
 6658SOL    HW231611   2.752   4.190   5.485 -2.0896 -1.9229 -3.4193
 6659SOL     OW31612   4.632   3.158  17.326 -0.0882 -0.0174  0.1651
 6659SOL    HW131613   4.565   3.147  17.393  1.1249  0.9803  1.5350
 6659SOL    HW231614   4.624   3.253  17.317 -1.4389 -0.2359 -1.0382
 6660SOL     OW31615   4.149   1.475  15.255 -0.4676  0.4774  0.1724
 6660SOL    HW131616   4.222   1.466  15.316  0.4164 -0.3471 -0.9968
 6660SOL    HW231617   4.173   1.419  15.181  1.3455  0.8524  0.4631
 6661SOL     OW31618   3.258   0.203   9.945  0.2702 -0.2003 -0.3984
 6661SOL    HW131619   3.312   0.176   9.871  0.5708 -2.5736  0.7055
 6661SOL    HW231620   3.303   0.285   9.967  1.3122 -1.1785  1.0722
 6662SOL     OW31621   0.515   1.238   8.374  0.2849  0.6413 -0.6862
 6662SOL    HW131622   0.557   1.189   8.445 -0.0456  0.5753 -0.5379
 6662SOL    HW231623   0.536   1.326   8.407  1.5087  0.3279 -0.6221
 6663SOL     OW31624   2.007   3.889   3.172 -0.0331 -0.0115  0.3162
 6663SOL    HW131625   2.082   3.948   3.181  0.1727 -0.3848  1.1379
 6663SOL    HW231626   1.962   3.925   3.096  1.5597  1.9540  0.3208
 6664SOL     OW31627   0.483   0.094   5.537  0.1855  0.6345 -0.9395
 6664SOL    HW131628   0.471   0.155   5.464 -2.3603  1.6706  0.3409
 6664SOL    HW231629   0.420   0.118   5.606  1.0807 -1.8814  0.7569
 6665SOL     OW31630   3.584   1.950  16.073 -0.6702 -0.4305  1.0060
 6665SOL    HW131631   3.621   1.946  16.161 -0.2462 -0.1994  0.8348
 6665SOL    HW231632   3.512   2.013  16.083  0.1664  1.3447 -4.4214
 6666SOL     OW31633   3.257   1.800  10.341 -0.5316 -0.4589  0.5330
 6666SOL    HW131634   3.229   1.841  10.422 -0.0027  1.2515 -0.1331
 6666SOL    HW231635   3.254   1.878  10.286 -2.0333 -1.2786 -0.5730
 6667SOL     OW31636   4.449   3.666   1.408 -0.2328 -0.1470  0.2707
 6667SOL    HW131637   4.358   3.696   1.410 -0.5143 -1.0727  1.4818
 6667SOL    HW231638   4.500   3.743   1.382 -1.5929  0.7622  0.3067
 6668SOL     OW31639   2.963   4.488   1.736  1.1501 -0.0343 -0.5300
 6668SOL    HW131640   2.963   4.502   1.830 -0.5321  0.5584 -0.6174
 6668SOL    HW231641   3.020   4.411   1.734  0.6006 -0.4855  1.0319
 6669SOL     OW31642   3.524   1.961   7.823  0.2085  0.3184 -0.2168
 6669SOL    HW131643   3.515   1.999   7.736 -0.2278  2.2734  0.6932
 6669SOL    HW231644   3.437   1.979   7.857  0.0227 -0.5666 -0.2112
 6670SOL     OW31645   4.520   0.299   0.955  0.6464  0.0759  0.2537
 6670SOL    HW131646   4.569   0.264   0.881 -0.9991 -0.7223 -0.4381
 6670SOL    HW231647   4.555   0.240   1.022  2.6366  0.4211 -0.4774
 6671SOL     OW31648   0.235   0.078   7.269  0.0831 -0.8388 -0.2306
 6671SOL    HW131649   0.315   0.106   7.313 -0.0201  1.0408 -1.2421
 6671SOL    HW231650   0.265   0.019   7.199  0.9295 -0.5490 -0.1138
 6672SOL     OW31651   2.981   4.445  10.792 -0.1064 -0.0840 -0.5742
 6672SOL    HW131652   2.946   4.517  10.844  3.0326  0.5215  0.7006
 6672SOL    HW231653   2.962   4.469  10.702 -1.0935  0.1957 -0.2914
 6673SOL     OW31654   1.017   1.531   2.575 -0.0342 -0.1544 -0.7902
 6673SOL    HW131655   1.082   1.499   2.638  1.1772  1.2964 -1.3152
 6673SOL    HW231656   1.061   1.517   2.492  1.0606 -0.2306 -0.1994
 6674SOL     OW31657   0.143   0.328   8.658 -0.3605 -0.1876 -0.5193
 6674SOL    HW131658   0.084   0.381   8.710  0.6196  1.6909 -1.3328
 6674SOL    HW231659   0.167   0.394   8.593  1.1661 -0.9099 -0.7066
 6675SOL     OW31660   4.394   0.959   1.617 -0.1323 -0.3760 -0.7867
 6675SOL    HW131661   4.367   1.034   1.564 -1.4288 -1.7192 -2.0551
 6675SOL    HW231662   4.311   0.925   1.650  0.5592 -1.6240 -0.3280
 6676SOL     OW31663   1.808   0.785  16.497 -0.3229  0.1399 -0.7529
 6676SOL    HW131664   1.823   0.880  16.496 -2.7655  0.5308 -0.1166
 6676SOL    HW231665   1.871   0.764  16.566 -0.5793  0.4248 -0.4334
 6677SOL     OW31666   3.256   1.108   6.196  0.0536 -0.1763  0.3755
 6677SOL    HW131667   3.194   1.163   6.244  0.9609 -0.0866  1.4464
 6677SOL    HW231668   3.331   1.105   6.256  1.2566 -1.2490 -1.1851
 6678SOL     OW31669   1.987   2.001   7.158  0.0737 -0.0779  0.0304
 6678SOL    HW131670   1.952   1.991   7.247 -0.3510  0.8264 -0.0412
 6678SOL    HW231671   2.054   1.933   7.168 -2.7966 -2.5251  2.8504
 6679SOL     OW31672   4.548   3.323   2.480  0.1844 -0.4624 -0.2644
 6679SOL    HW131673   4.560   3.315   2.574  3.6801  0.1880 -0.6792
 6679SOL    HW231674   4.603   3.251   2.450 -1.9746 -1.9797 -0.6247
 6680SOL     OW31675   2.510   1.940   4.316  0.3263  0.4039  0.2485
 6680SOL    HW131676   2.458   1.899   4.385 -0.5618  0.9675 -0.0778
 6680SOL    HW231677   2.461   1.901   4.243  1.2138 -0.1351 -0.0605
 6681SOL     OW31678   4.160   3.916   5.759 -0.3559  0.1417  0.0990
 6681SOL    HW131679   4.121   3.829   5.766  0.6302 -0.1380  2.1656
 6681SOL    HW231680   4.244   3.902   5.803 -1.2377  0.7513  1.9804
 6682SOL     OW31681   1.618   2.159   3.488 -0.1559 -0.8332  0.3004
 6682SOL    HW131682   1.649   2.129   3.573  0.7764 -0.3409  0.1319
 6682SOL    HW231683   1.532   2.119   3.475 -0.5336  0.6841 -1.7657
 6683SOL     OW31684   1.732   3.176   3.182 -0.3392 -0.1438  0.0254
 6683SOL    HW131685   1.692   3.179   3.095  0.3669 -0.2758 -0.3012
 6683SOL    HW231686   1.658   3.157   3.240 -0.2969 -0.2701  0.0383
 6684SOL     OW31687   0.825   0.998  16.906 -0.7292  0.2086  0.3156
 6684SOL    HW131688   0.897   1.059  16.892  0.4428 -1.1230  0.5656
 6684SOL    HW231689   0.793   0.984  16.816 -2.0251  1.9692  0.4990
 6685SOL     OW31690   2.919   0.219   4.411  0.3125 -0.1510  0.5707
 6685SOL    HW131691   2.836   0.266   4.414 -1.4187 -3.1620 -0.7219
 6685SOL    HW231692   2.894   0.133   4.378  0.7184 -1.2654  3.1871
 6686SOL     OW31693   4.398   4.389   1.406  0.3762 -0.6682  0.2130
 6686SOL    HW131694   4.430   4.456   1.467  0.0148 -0.9025  0.6570
 6686SOL    HW231695   4.441   4.308   1.432  1.3925  0.9616  3.5658
 6687SOL     OW31696   4.434   0.910   6.584  0.2790  0.3127  0.0658
 6687SOL    HW131697   4.520   0.875   6.561  1.5375  2.4200  1.5010
 6687SOL    HW231698   4.437   0.929   6.678 -0.8953  0.6255  0.0424
 6688SOL     OW31699   4.600   2.034   3.862  0.6812  0.9489 -0.0351
 6688SOL    HW131700   4.570   2.049   3.772 -0.5295  0.4901  0.2903
 6688SOL    HW231701   4.692   2.017   3.842  0.2162 -0.6581 -0.8421
 6689SOL     OW31702   1.088   0.650  13.093  0.5423 -0.0172  0.4756
 6689SOL    HW131703   1.125   0.639  13.180  1.7896  0.4196  0.0087
 6689SOL    HW231704   1.115   0.741  13.083 -0.4914  0.1948 -0.3547
 6690SOL     OW31705   2.508   2.702   6.227 -0.5489 -0.0479 -0.2418
 6690SOL    HW131706   2.434   2.656   6.267  0.0274 -0.5789  0.2198
 6690SOL    HW231707   2.463   2.754   6.160 -0.8120 -0.8742 -0.6971
 6691SOL     OW31708   0.536   4.638  16.609 -0.3849  0.4136 -0.1072
 6691SOL    HW131709   0.455   4.603  16.645 -0.4780  1.1596  0.4169
 6691SOL    HW231710   0.513   4.731  16.610  2.2934  1.0763 -0.4109
 6692SOL     OW31711   3.842   2.158  13.090 -0.2191  0.4181 -0.2332
 6692SOL    HW131712   3.803   2.075  13.062  0.7482 -0.9887  2.5604
 6692SOL    HW231713   3.764   2.214  13.090 -0.0231  0.6872  1.6797
 6693SOL     OW31714   1.382   0.419   8.375  0.4380 -0.0148 -0.2642
 6693SOL    HW131715   1.391   0.500   8.425  0.9650 -0.4180  0.2936
 6693SOL    HW231716   1.301   0.384   8.411  0.4925 -0.3573 -0.4739
 6694SOL     OW31717   3.276   1.525  15.264 -0.1831 -0.5932  0.5341
 6694SOL    HW131718   3.213   1.573  15.210  0.1577 -0.5797  0.1464
 6694SOL    HW231719   3.249   1.546  15.354 -0.3512  1.4279  0.0093
 6695SOL     OW31720   4.687   0.447   5.049  0.7864 -0.3863 -0.3446
 6695SOL    HW131721   0.030   0.500   5.040  1.3467 -1.3917 -1.1965
 6695SOL    HW231722   4.614   0.481   4.997  0.2026 -1.5004 -0.2709
 6696SOL     OW31723   0.800   3.534  14.638 -0.1672  0.2479 -0.0352
 6696SOL    HW131724   0.864   3.496  14.698 -0.7347 -0.3075  0.2154
 6696SOL    HW231725   0.755   3.450  14.630  1.4138 -0.5375 -0.6720
 6697SOL     OW31726   4.440   1.840   2.987  0.3438 -0.5949 -0.3615
 6697SOL    HW131727   4.424   1.755   3.028  1.0212 -1.4059 -1.7742
 6697SOL    HW231728   4.530   1.851   3.016  0.2425  0.5003 -0.4516
 6698SOL     OW31729   1.658   4.501   8.965 -0.2391  0.5480 -0.1511
 6698SOL    HW131730   1.627   4.490   9.055 -1.3604  1.4644 -0.4248
 6698SOL    HW231731   1.748   4.534   8.970  0.4047 -1.0542 -1.0629
 6699SOL     OW31732   0.340   3.184   1.682 -0.5029  0.7763  0.2465
 6699SOL    HW131733   0.255   3.140   1.684 -0.2992  0.3615 -0.1848
 6699SOL    HW231734   0.312   3.275   1.673  0.2144  1.0986  1.2496
 6700SOL     OW31735   1.910   3.364   3.233 -0.1747  0.9282 -0.0520
 6700SOL    HW131736   1.849   3.301   3.195  0.5884  1.6993 -2.5300
 6700SOL    HW231737   1.917   3.418   3.154  2.0179  0.4721 -0.1640
 6701SOL     OW31738   4.072   1.212   6.151 -0.1816 -0.6089 -0.3183
 6701SOL    HW131739   3.995   1.224   6.207 -0.8678 -1.0530 -1.1581
 6701SOL    HW231740   4.134   1.186   6.219  1.2991 -0.3858 -1.5966
 6702SOL     OW31741   3.033   1.970   2.196  0.6304 -0.3953  0.1831
 6702SOL    HW131742   2.938   1.961   2.197  0.4868  1.1282  0.1909
 6702SOL    HW231743   3.043   2.065   2.190 -2.3089 -0.1600 -1.1194
 6703SOL     OW31744   1.706   3.671   3.715  0.2277  0.0280 -0.2381
 6703SOL    HW131745   1.715   3.764   3.696 -0.4140  0.2499  0.5221
 6703SOL    HW231746   1.786   3.658   3.765 -0.2631 -0.7902  0.3502
 6704SOL     OW31747   3.344   0.577   5.379 -0.2840 -0.1604 -0.2565
 6704SOL    HW131748   3.400   0.585   5.302 -0.7643  0.4656 -0.5428
 6704SOL    HW231749   3.255   0.580   5.344 -1.0843 -1.1526  1.7214
 6705SOL     OW31750   3.491   2.879   4.151  0.0719 -0.1062 -0.0989
 6705SOL    HW131751   3.436   2.802   4.165  0.6734 -0.3814  0.7062
 6705SOL    HW231752   3.466   2.909   4.063  0.1688 -0.7579 -0.3456
 6706SOL     OW31753   0.199   0.841   6.627 -0.3914 -0.1914  0.0498
 6706SOL    HW131754   0.252   0.847   6.706  0.1128 -3.0489 -0.0730
 6706SOL    HW231755   0.272   0.821   6.567  0.0591  0.1340  0.4961
 6707SOL     OW31756   1.960   1.848   9.183  0.1832 -0.0093 -0.0734
 6707SOL    HW131757   1.993   1.765   9.148 -2.4030  0.3769 -3.4349
 6707SOL    HW231758   2.049   1.882   9.193  0.8797 -2.5576  2.1694
 6708SOL     OW31759   1.224   3.752   9.632  0.4057  0.3644 -0.1630
 6708SOL    HW131760   1.155   3.688   9.650  1.4585 -1.2511 -1.8229
 6708SOL    HW231761   1.207   3.772   9.540 -0.3576 -1.6631 -0.4719
 6709SOL     OW31762   1.983   0.297   7.307  0.1862  0.2842 -0.0052
 6709SOL    HW131763   1.951   0.355   7.377 -1.3113 -0.0514 -0.4094
 6709SOL    HW231764   1.972   0.213   7.351  1.2446  1.4832  2.5639
 6710SOL     OW31765   0.070   3.287   1.527 -0.4370  0.0856 -0.0198
 6710SOL    HW131766   4.731   3.342   1.505  0.3105  0.0130 -2.6502
 6710SOL    HW231767   0.114   3.357   1.575 -0.5953 -0.8503  1.4920
 6711SOL     OW31768   4.251   3.867  11.911 -0.7193  0.0275 -0.0079
 6711SOL    HW131769   4.224   3.821  11.831  1.6259 -0.5472 -0.4521
 6711SOL    HW231770   4.335   3.826  11.930 -0.8161 -0.5560 -0.8600
 6712SOL     OW31771   2.368   3.824   9.461  0.6141  0.1366  0.0880
 6712SOL    HW131772   2.300   3.876   9.419 -0.7550 -1.6500  0.0922
 6712SOL    HW231773   2.423   3.897   9.487  0.2006  0.5619 -0.2289
 6713SOL     OW31774   1.191   1.841   6.242  0.2998 -0.3057 -0.4636
 6713SOL    HW131775   1.199   1.819   6.335 -1.5830  2.0890  0.2488
 6713SOL    HW231776   1.219   1.932   6.245 -0.4811 -0.0205 -1.7805
 6714SOL     OW31777   2.503   4.478  14.733  0.2377  0.5054 -0.2326
 6714SOL    HW131778   2.593   4.509  14.730 -1.2372  5.0201  2.6837
 6714SOL    HW231779   2.512   4.420  14.808  0.0443  2.1982  1.0840
 6715SOL     OW31780   4.152   0.811   6.525 -0.6705 -0.1052  0.6173
 6715SOL    HW131781   4.234   0.838   6.565  0.3412 -0.1780 -1.3852
 6715SOL    HW231782   4.184   0.797   6.436  2.7733  1.1081  1.6752
 6716SOL     OW31783   0.496   4.099   1.867 -0.4135 -0.4250  0.2223
 6716SOL    HW131784   0.552   4.022   1.858 -0.0633 -0.0767 -0.4923
 6716SOL    HW231785   0.572   4.154   1.886  0.2342 -1.1144 -0.4047
 6717SOL     OW31786   4.652   2.952   6.803  0.6139  0.3549 -0.1615
 6717SOL    HW131787   4.699   2.870   6.821 -1.3714 -1.0634 -1.3977
 6717SOL    HW231788   4.715   3.014   6.838  0.8630  0.4257 -0.7394
 6718SOL     OW31789   4.481   1.100  12.275  0.3081  0.0531  0.0846
 6718SOL    HW131790   4.550   1.162  12.299  1.4266 -1.6082  1.1431
 6718SOL    HW231791   4.431   1.159  12.218  0.2160 -0.7757 -0.6855
 6719SOL     OW31792   2.510   3.276   2.661 -0.4339  0.0148 -0.0749
 6719SOL    HW131793   2.457   3.292   2.739  1.0148 -0.5463  1.0364
 6719SOL    HW231794   2.485   3.185   2.646 -2.3121 -0.0262  3.2507
 6720SOL     OW31795   1.626   1.814  10.214 -0.6840 -0.2472  0.1564
 6720SOL    HW131796   1.570   1.768  10.277 -2.5307 -0.5239 -1.6795
 6720SOL    HW231797   1.707   1.764  10.220 -0.7168 -0.3608 -0.3070
 6721SOL     OW31798   1.452   2.378  13.312 -0.1440  0.0216 -0.3161
 6721SOL    HW131799   1.418   2.375  13.222 -0.3855  0.3106 -0.2348
 6721SOL    HW231800   1.544   2.398  13.295  0.0885  0.0778  1.0295
 6722SOL     OW31801   3.978   4.291  17.136  0.1878  0.2538 -0.1520
 6722SOL    HW131802   3.931   4.262  17.058  2.9689 -1.3281 -1.2401
 6722SOL    HW231803   4.013   4.375  17.105 -0.1966  1.6464  3.1793
 6723SOL     OW31804   1.706   1.914  17.370 -0.2695 -0.1331 -0.0885
 6723SOL    HW131805   1.612   1.894  17.377 -0.1323 -0.2921  1.2132
 6723SOL    HW231806   1.718   1.986  17.433  1.2427  0.2222 -0.7817
 6724SOL     OW31807   4.062   2.930   9.200 -0.7727 -0.0379  0.6766
 6724SOL    HW131808   4.061   2.844   9.242  0.8691 -1.2006 -1.6484
 6724SOL    HW231809   4.152   2.926   9.168 -1.3823 -0.3141 -1.0001
 6725SOL     OW31810   0.094   1.459   5.729 -0.0346 -0.2326  0.2184
 6725SOL    HW131811   0.174   1.495   5.688  0.4609  0.1995  1.5649
 6725SOL    HW231812   0.081   1.514   5.806  0.6937 -0.6243  0.6258
 6726SOL     OW31813   0.309   1.370   9.760  0.2979  0.6907  0.0772
 6726SOL    HW131814   0.398   1.348   9.731 -0.1618 -1.3281  0.2324
 6726SOL    HW231815   0.331   1.456   9.796 -0.4051  0.7224  0.4315
 6727SOL     OW31816   0.212   1.483  11.471  0.5753  0.1314  0.0095
 6727SOL    HW131817   0.241   1.466  11.561 -1.1152 -0.9330  0.3504
 6727SOL    HW231818   0.194   1.396  11.435  1.3177  0.0142 -0.0862
 6728SOL     OW31819   2.111   3.642   3.262  0.2618 -0.0713  0.0350
 6728SOL    HW131820   2.085   3.724   3.220 -0.3215 -0.4266 -0.2981
 6728SOL    HW231821   2.031   3.622   3.311  0.7154  0.0017  0.8051
 6729SOL     OW31822   1.830   3.326   2.021 -0.7092 -0.4135  0.4559
 6729SOL    HW131823   1.902   3.380   1.989 -0.5980 -0.0740  1.2710
 6729SOL    HW231824   1.795   3.378   2.094  1.2710  0.7256  0.5939
 6730SOL     OW31825   3.707   1.363   3.202 -0.1236 -0.4541  0.1124
 6730SOL    HW131826   3.654   1.358   3.122 -2.5180  1.1764  1.6259
 6730SOL    HW231827   3.638   1.359   3.268 -2.0334 -0.5407 -1.8618
 6731SOL     OW31828   4.398   0.765  11.946  0.4072  0.1901  0.4042
 6731SOL    HW131829   4.339   0.840  11.946  1.7312  1.2167 -0.2977
 6731SOL    HW231830   4.469   0.822  11.976  0.6270  0.7421 -1.1640
 6732SOL     OW31831   1.079   3.859   0.133 -0.3026  0.4718  0.1580
 6732SOL    HW131832   1.019   3.914   0.082 -1.7303  0.6430  2.0239
 6732SOL    HW231833   1.084   3.915   0.211 -1.7817  0.0461  0.5643
 6733SOL     OW31834   3.781   1.210  15.150  0.2206 -0.2453  0.0436
 6733SOL    HW131835   3.707   1.162  15.188 -0.3520  0.2972 -0.3895
 6733SOL    HW231836   3.770   1.211  15.055  3.9065 -0.9751 -0.3800
 6734SOL     OW31837   1.877   0.280   8.391  0.3999  0.4887 -0.7904
 6734SOL    HW131838   1.783   0.300   8.399  0.0756 -0.8904 -1.1305
 6734SOL    HW231839   1.909   0.213   8.451  0.8447  0.3382 -1.1996
 6735SOL     OW31840   2.673   2.053   5.472 -0.2581  0.4789  0.2199
 6735SOL    HW131841   2.687   2.041   5.378  1.1189 -0.5493  0.5596
 6735SOL    HW231842   2.763   2.073   5.498 -0.2078  1.7913 -0.9937
 6736SOL     OW31843   2.972   3.057   2.420 -0.5668 -0.0890  0.7766
 6736SOL    HW131844   2.939   3.144   2.397 -0.6719  0.1965  2.0125
 6736SOL    HW231845   2.950   3.067   2.513 -2.2101  1.8285  0.1951
 6737SOL     OW31846   0.726   4.602   1.836 -0.0403  0.4647 -0.2585
 6737SOL    HW131847   0.645   4.558   1.864 -1.1002  2.7366  0.2646
 6737SOL    HW231848   0.686   4.654   1.767  2.0711  1.6910 -0.5619
 6738SOL     OW31849   0.855   2.376   6.436 -0.3389 -0.3018 -0.7389
 6738SOL    HW131850   0.900   2.434   6.497 -0.1210  0.5743 -1.7275
 6738SOL    HW231851   0.903   2.407   6.359 -0.0492  2.0161  0.3766
 6739SOL     OW31852   4.181   0.107   4.694  0.3358  0.0524  0.3769
 6739SOL    HW131853   4.208   0.030   4.744  0.6244 -0.5399 -0.6735
 6739SOL    HW231854   4.151   0.162   4.765  0.5658 -1.6172  1.7682
 6740SOL     OW31855   1.664   0.701  11.616 -0.0108 -0.4989 -0.1817
 6740SOL    HW131856   1.738   0.706  11.556 -0.7536  0.2122 -1.0437
 6740SOL    HW231857   1.714   0.700  11.697  1.6194 -0.1337 -1.1836
 6741SOL     OW31858   0.128   1.786   4.805  0.1183 -0.3069 -0.6118
 6741SOL    HW131859   0.114   1.795   4.710  2.2108  0.9641 -0.8047
 6741SOL    HW231860   0.041   1.818   4.831 -0.3667 -0.0982 -2.4281
 6742SOL     OW31861   0.996   3.851   8.204  0.0298 -0.7393 -0.5008
 6742SOL    HW131862   1.049   3.772   8.216  1.6131  0.1493 -1.5526
 6742SOL    HW231863   0.904   3.829   8.192 -0.1334 -0.0474 -0.5457
 6743SOL     OW31864   2.439   4.593   4.211 -0.8478  0.6392  0.0888
 6743SOL    HW131865   2.362   4.537   4.211 -0.8275  0.5897  1.4878
 6743SOL    HW231866   2.488   4.579   4.130 -0.7075  2.1731 -0.0865
 6744SOL     OW31867   3.288   2.586   4.788  0.6447  0.5768  0.8563
 6744SOL    HW131868   3.254   2.650   4.726  1.2378 -1.0053 -1.0802
 6744SOL    HW231869   3.240   2.507   4.763  0.2366  1.3102 -0.6341
 6745SOL     OW31870   0.828   1.929   2.604 -0.6057  0.0310 -0.0381
 6745SOL    HW131871   0.873   1.990   2.546 -2.4136  1.1995 -0.2325
 6745SOL    HW231872   0.817   1.850   2.550 -1.3478 -0.3309  0.6480
 6746SOL     OW31873   0.228   3.732   9.231  0.2189 -0.2509  0.1321
 6746SOL    HW131874   0.178   3.807   9.263  0.9752  0.2658  0.1017
 6746SOL    HW231875   0.240   3.675   9.307 -0.1648  0.4580  0.7198
 6747SOL     OW31876   0.585   1.787   2.124  0.5019 -0.0746 -0.3515
 6747SOL    HW131877   0.669   1.825   2.149  0.6751  0.4023 -1.6121
 6747SOL    HW231878   0.572   1.732   2.201  1.2729  0.0314 -0.1479
 6748SOL     OW31879   1.787   3.947   4.456  0.0241 -0.8689  0.3261
 6748SOL    HW131880   1.800   4.001   4.377  0.9457 -2.3588 -0.5423
 6748SOL    HW231881   1.742   4.014   4.507  1.7461  0.4971  0.0713
 6749SOL     OW31882   4.023   3.805   4.025 -0.0847  0.0206  0.0303
 6749SOL    HW131883   3.930   3.828   4.017 -0.0243 -0.0813 -0.8707
 6749SOL    HW231884   4.055   3.886   3.986  0.4894 -0.6229 -0.8186
 6750SOL     OW31885   1.647   4.012  12.071 -0.6562 -0.0681  0.3075
 6750SOL    HW131886   1.642   4.107  12.064 -1.7332 -0.2130 -0.8148
 6750SOL    HW231887   1.631   4.005  12.165  3.0868  0.9540  1.0359
 6751SOL     OW31888   2.904   0.125   2.260 -0.0307 -0.1349 -0.1470
 6751SOL    HW131889   2.898   0.218   2.239 -1.0330 -0.2201 -0.2449
 6751SOL    HW231890   2.977   0.119   2.321  0.2947 -1.4227 -0.6708
 6752SOL     OW31891   4.465   3.562  15.281 -0.4681 -0.1491  0.2387
 6752SOL    HW131892   4.505   3.644  15.307 -1.1329  0.0508  0.6359
 6752SOL    HW231893   4.528   3.492  15.300 -3.0607 -2.6744 -0.4143
 6753SOL     OW31894   2.871   4.610   5.152 -0.3223  0.7657  0.3418
 6753SOL    HW131895   2.859   4.688   5.206 -0.0506  1.5113 -0.6732
 6753SOL    HW231896   2.908   4.644   5.071 -1.6044 -0.2390 -0.6537
 6754SOL     OW31897   1.934   0.867  14.754  0.0660  0.4314 -0.3804
 6754SOL    HW131898   1.938   0.883  14.660 -0.1849  1.7425 -0.1656
 6754SOL    HW231899   1.982   0.784  14.751  0.5849  0.6087  3.1255
 6755SOL     OW31900   0.712   2.819  10.008 -0.2595 -0.6109 -0.2943
 6755SOL    HW131901   0.629   2.790  10.044 -0.6446  2.0661  0.9678
 6755SOL    HW231902   0.758   2.734  10.009 -1.6835 -1.3551  0.6070
 6756SOL     OW31903   4.333   2.649   1.531  0.6062 -0.2128  0.1286
 6756SOL    HW131904   4.329   2.627   1.438  1.5764 -0.3071  0.1129
 6756SOL    HW231905   4.273   2.584   1.567  0.0555 -0.1066 -0.5839
 6757SOL     OW31906   3.820   0.305   7.529  0.0689  1.0638 -0.2953
 6757SOL    HW131907   3.732   0.293   7.494  0.6871 -5.1691  0.3675
 6757SOL    HW231908   3.869   0.252   7.466  2.1255  1.9303  0.5835
 6758SOL     OW31909   1.070   2.967   3.368 -0.3554 -0.4958  0.5866
 6758SOL    HW131910   1.112   2.893   3.325 -5.6175 -2.9780 -0.2271
 6758SOL    HW231911   0.979   2.942   3.383 -0.7329  0.3227 -0.2846
 6759SOL     OW31912   0.148   2.480   0.799  0.0073  0.0070  0.1977
 6759SOL    HW131913   0.053   2.469   0.810  0.1227 -0.1880  0.9684
 6759SOL    HW231914   0.165   2.564   0.842  0.7525 -0.0005 -0.0829
 6760SOL     OW31915   2.534   2.106   3.375 -0.2089 -0.0938  0.0270
 6760SOL    HW131916   2.475   2.131   3.447  0.0122 -0.4429  0.3247
 6760SOL    HW231917   2.619   2.090   3.414  0.1485 -0.4679 -0.9008
 6761SOL     OW31918   1.565   4.174   1.408 -0.1850  0.1950  0.1390
 6761SOL    HW131919   1.503   4.214   1.346 -1.3530 -1.9077 -0.0424
 6761SOL    HW231920   1.616   4.254   1.420 -0.4443  0.6111 -1.5163
 6762SOL     OW31921   2.774   3.801   1.901  0.8825  0.0187  0.3626
 6762SOL    HW131922   2.699   3.741   1.889  1.7754 -1.2476  1.0937
 6762SOL    HW231923   2.846   3.754   1.859 -1.4757 -2.5678 -0.7962
 6763SOL     OW31924   4.414   3.632   4.655  0.1153 -0.4435  0.2277
 6763SOL    HW131925   4.466   3.654   4.733  0.7388 -1.7565  0.1727
 6763SOL    HW231926   4.332   3.612   4.699 -0.0910  1.3581  0.6517
 6764SOL     OW31927   3.736   0.575  10.322 -0.0964  0.5120  0.1030
 6764SOL    HW131928   3.755   0.621  10.403 -0.6294  1.9082 -0.5748
 6764SOL    HW231929   3.756   0.485  10.348  2.2455  0.5335 -1.6154
 6765SOL     OW31930   0.330   1.461   4.400  0.2800  0.1376  0.1768
 6765SOL    HW131931   0.305   1.549   4.372  0.0508  0.1338  0.3756
 6765SOL    HW231932   0.249   1.415   4.377 -0.2152  1.2684 -0.3480
 6766SOL     OW31933   0.774   3.703   1.216  0.3094 -0.1308 -0.2460
 6766SOL    HW131934   0.769   3.729   1.308 -0.7097 -0.0930 -0.3073
 6766SOL    HW231935   0.869   3.710   1.206  0.7567 -2.5372  2.3102
 6767SOL     OW31936   3.255   0.612   5.045  0.0771 -0.6485 -0.6243
 6767SOL    HW131937   3.297   0.606   4.959  1.2621  1.7318 -0.2195
 6767SOL    HW231938   3.319   0.659   5.098 -0.2321  1.1654 -1.8401
 6768SOL     OW31939   0.567   0.098   1.725 -0.2558  0.0126 -0.2968
 6768SOL    HW131940   0.530   0.094   1.813  0.7111  0.3388  0.1228
 6768SOL    HW231941   0.511   0.028   1.690  0.9874 -1.3796  0.5020
 6769SOL     OW31942   4.658   1.335   5.449  0.3590 -0.1865 -0.2519
 6769SOL    HW131943   4.684   1.426   5.435 -1.0711  0.1946 -0.4352
 6769SOL    HW231944   4.668   1.331   5.544 -0.4403  1.0163 -0.1070
 6770SOL     OW31945   3.600   1.392  14.965  0.1853  0.2004  0.0501
 6770SOL    HW131946   3.623   1.304  14.935 -1.0383  0.2620 -1.0929
 6770SOL    HW231947   3.556   1.369  15.047 -1.1230  1.1553 -0.3755
 6771SOL     OW31948   3.883   3.082   0.397 -0.1183 -1.0819  0.6228
 6771SOL    HW131949   3.912   3.007   0.345  0.1298 -1.9272  1.9804
 6771SOL    HW231950   3.933   3.066   0.478  1.2176  0.5429  0.1077
 6772SOL     OW31951   1.150   3.386   0.288  0.3590 -0.3975  0.0971
 6772SOL    HW131952   1.226   3.443   0.297  0.2670  0.2839 -3.4010
 6772SOL    HW231953   1.077   3.447   0.277  0.7316 -0.1655 -1.0970
 6773SOL     OW31954   2.508   1.118  11.863 -0.0717 -0.3082 -0.3369
 6773SOL    HW131955   2.441   1.144  11.927  0.3810  0.0655 -0.0165
 6773SOL    HW231956   2.475   1.148  11.778  1.0866  2.6215  0.2287
 6774SOL     OW31957   2.493   2.633   2.882  0.0056 -0.2699  0.2803
 6774SOL    HW131958   2.430   2.580   2.832 -0.2155  0.4204 -0.1783
 6774SOL    HW231959   2.445   2.629   2.965  0.8390  1.8977  0.8511
 6775SOL     OW31960   0.921   1.551   1.019 -0.4579 -0.0061 -0.6186
 6775SOL    HW131961   0.911   1.533   1.113  1.1878  0.0703 -0.4242
 6775SOL    HW231962   0.878   1.637   1.019  0.9526  0.6897 -0.7294
 6776SOL     OW31963   1.203   0.057  10.562 -1.2621  0.2806  0.1122
 6776SOL    HW131964   1.266   4.722  10.551 -0.3485  1.2365 -0.7825
 6776SOL    HW231965   1.145   0.017  10.627  1.1983 -3.7503 -0.1139
 6777SOL     OW31966   1.530   3.666   9.355 -0.7087  0.2188  0.5951
 6777SOL    HW131967   1.593   3.706   9.415 -1.3456  1.1351  0.6613
 6777SOL    HW231968   1.558   3.575   9.367  2.5984  1.0807 -0.6665
 6778SOL     OW31969   1.051   1.377   7.497  0.6048  0.3077  0.5732
 6778SOL    HW131970   1.095   1.374   7.412 -1.8013  1.2882 -0.6985
 6778SOL    HW231971   1.130   1.378   7.551 -0.4893 -3.7141  2.2573
 6779SOL     OW31972   0.215   2.740  15.557  0.6303 -0.4652  0.5863
 6779SOL    HW131973   0.124   2.741  15.585  0.6403 -2.7092  0.6621
 6779SOL    HW231974   0.204   2.774  15.468 -0.9505  0.9945  1.3302
 6780SOL     OW31975   0.255   2.642   2.157 -0.5749 -0.1105 -0.3788
 6780SOL    HW131976   0.174   2.647   2.106 -0.7632  1.8003  0.1159
 6780SOL    HW231977   0.273   2.730   2.190  0.8307 -0.0592 -1.2689
 6781SOL     OW31978   1.113   4.414   7.628  0.2200 -0.1717  0.2529
 6781SOL    HW131979   1.021   4.398   7.607  0.2032 -3.3606  2.6863
 6781SOL    HW231980   1.118   4.499   7.585 -0.4303 -0.7963 -1.0529
 6782SOL     OW31981   4.707   3.545   0.532 -0.5172 -0.5898  0.0507
 6782SOL    HW131982   4.679   3.589   0.452 -0.5635  1.3690  1.1530
 6782SOL    HW231983   4.735   3.615   0.591 -0.4704 -0.5325 -0.0394
 6783SOL     OW31984   3.186   4.329   1.822  0.0654 -0.1361 -0.1960
 6783SOL    HW131985   3.207   4.238   1.845  0.3639  0.1071  0.4842
 6783SOL    HW231986   3.178   4.363   1.911 -1.1500  1.1150 -0.7889
 6784SOL     OW31987   4.645   0.536  14.827  0.0767  0.6954 -0.4148
 6784SOL    HW131988   4.624   0.464  14.768 -0.2682  0.5979 -0.1762
 6784SOL    HW231989   0.004   0.540  14.822  0.1315  2.1548  1.3509
 6785SOL     OW31990   2.925   1.585   8.484 -0.3057  0.3214 -0.0451
 6785SOL    HW131991   2.914   1.652   8.551  2.4536  0.9782 -0.2529
 6785SOL    HW231992   2.842   1.608   8.442 -0.4563  2.6240  1.5015
 6786SOL     OW31993   2.526   1.106   9.179  0.4966  0.0322 -0.4359
 6786SOL    HW131994   2.602   1.065   9.221  0.6455 -0.0806 -0.8206
 6786SOL    HW231995   2.470   1.029   9.183 -0.4783  0.8238  1.7288
 6787SOL     OW31996   2.296   1.129   7.225  0.2910  0.0130  0.0331
 6787SOL    HW131997   2.215   1.179   7.233 -0.7421 -2.1710  3.3422
 6787SOL    HW231998   2.364   1.191   7.199 -1.2221  0.5606 -2.5719
 6788SOL     OW31999   1.323   2.121   3.595  0.0737 -0.0824  0.2936
 6788SOL    HW132000   1.370   2.155   3.671 -0.1996  0.0723  0.3939
 6788SOL    HW232001   1.279   2.199   3.559  0.7048 -0.0801 -0.4941
 6789SOL     OW32002   2.684   4.177   8.138  0.2194  0.1691  0.1092
 6789SOL    HW132003   2.723   4.218   8.061 -0.3066 -0.7861 -0.6755
 6789SOL    HW232004   2.761   4.146   8.186  0.0422  0.8390  0.8086
 6790SOL     OW32005   4.239   1.303   5.713  0.0952  0.3811  0.1998
 6790SOL    HW132006   4.227   1.292   5.619  1.1214  1.7995 -0.0950
 6790SOL    HW232007   4.321   1.353   5.722  0.6276 -0.4155 -0.1771
 6791SOL     OW32008   0.221   3.546   8.998  0.7141  0.5018 -0.4805
 6791SOL    HW132009   0.213   3.628   8.949  0.4444  0.4899 -0.4571
 6791SOL    HW232010   0.192   3.581   9.082  4.1800  1.4203  0.3472
 6792SOL     OW32011   4.592   0.631   5.624 -0.3219 -0.3975 -0.7232
 6792SOL    HW132012   4.570   0.706   5.680 -0.3291 -0.2546 -0.9184
 6792SOL    HW232013   4.649   0.670   5.558 -0.3330  2.2439  0.8131
 6793SOL     OW32014   1.271   3.472   9.383 -0.0329 -0.0895  0.0699
 6793SOL    HW132015   1.313   3.503   9.463 -1.0067 -1.2032  1.0133
 6793SOL    HW232016   1.189   3.434   9.416 -1.0037  0.3515 -1.8106
 6794SOL     OW32017   4.330   1.149   9.071  0.3420  0.3973  0.3505
 6794SOL    HW132018   4.297   1.063   9.099  3.3188 -0.9281 -0.1260
 6794SOL    HW232019   4.355   1.191   9.153 -0.0516  4.2359 -1.5367
 6795SOL     OW32020   4.657   4.185   6.485 -0.7311 -0.4667  0.1219
 6795SOL    HW132021   4.575   4.178   6.532 -1.5368 -0.7801 -1.3246
 6795SOL    HW232022   4.663   4.263   6.429 -1.4816 -0.1201  0.5291
 6796SOL     OW32023   2.839   3.908   1.571 -0.0939  0.1135  0.2924
 6796SOL    HW132024   2.882   3.848   1.631 -1.3838 -2.1848 -1.0811
 6796SOL    HW232025   2.880   3.993   1.586  0.2141 -0.2893  1.6811
 6797SOL     OW32026   0.659   3.057   9.924  0.5667 -0.3595  0.4798
 6797SOL    HW132027   0.691   2.970   9.948 -0.1980 -0.7021  0.2559
 6797SOL    HW232028   0.730   3.099   9.973 -1.1747  2.1965  0.8400
 6798SOL     OW32029   0.409   0.786   2.192 -0.1342  0.2735 -0.2664
 6798SOL    HW132030   0.463   0.780   2.113  0.0510 -1.9625  0.0210
 6798SOL    HW232031   0.321   0.789   2.155 -0.1525  0.7697 -0.1779
 6799SOL     OW32032   3.514   2.903  17.272  0.5804  0.5867 -0.3871
 6799SOL    HW132033   3.462   2.823  17.280  1.2912  0.1358 -0.2858
 6799SOL    HW232034   3.444   2.968  17.272  0.5697  0.5733  0.2070
 6800SOL     OW32035   3.937   3.624   9.096 -0.2401 -0.1603  0.3036
 6800SOL    HW132036   4.008   3.561   9.105 -1.9919 -1.9854  1.3659
 6800SOL    HW232037   3.889   3.584   9.023 -0.3721  0.5068  0.0236
 6801SOL     OW32038   2.008   2.660   5.407 -0.0000 -0.0705 -0.5334
 6801SOL    HW132039   1.926   2.696   5.371  0.6669  0.5365 -1.4367
 6801SOL    HW232040   2.073   2.729   5.394 -0.7891  0.8026  0.1501
 6802SOL     OW32041   0.201   2.269  14.929  0.5458 -0.2249  0.0119
 6802SOL    HW132042   0.156   2.242  15.009  0.2368  1.5303  0.4360
 6802SOL    HW232043   0.151   2.349  14.912 -0.8493 -1.4269 -1.5172
 6803SOL     OW32044   4.318   1.622   5.739  0.8889  0.0190 -0.1494
 6803SOL    HW132045   4.289   1.676   5.666 -0.5057 -0.5073  0.0075
 6803SOL    HW232046   4.292   1.664   5.822  1.3068  0.1584 -0.0910
 6804SOL     OW32047   2.382   2.180   8.440  0.2617 -0.2050  0.6009
 6804SOL    HW132048   2.419   2.255   8.486  0.2384  2.1103 -3.1336
 6804SOL    HW232049   2.451   2.114   8.447  0.9524  0.4951  0.3072
 6805SOL     OW32050   0.128   0.699   2.181  0.3774  0.5528 -0.4888
 6805SOL    HW132051   0.092   0.646   2.253  2.5055  0.7341  0.7173
 6805SOL    HW232052   0.061   0.677   2.117  1.0746  1.3974 -1.5006
 6806SOL     OW32053   3.371   2.992   3.902  0.0151 -0.0670 -0.7225
 6806SOL    HW132054   3.396   2.945   3.822  0.3923  1.3315 -1.4346
 6806SOL    HW232055   3.414   3.077   3.904 -1.3980  0.6493 -1.0537
 6807SOL     OW32056   4.670   2.556  14.508 -0.6628  0.5836 -0.4772
 6807SOL    HW132057   4.725   2.486  14.473 -1.1289  0.0965 -0.2287
 6807SOL    HW232058   4.734   2.581  14.575  0.9665  1.2806 -2.2720
 6808SOL     OW32059   1.681   1.865   4.330  0.0713  0.2802  0.1852
 6808SOL    HW132060   1.722   1.779   4.342 -0.1442  0.4157  1.9215
 6808SOL    HW232061   1.686   1.915   4.411  1.1223 -0.3093  0.4973
 6809SOL     OW32062   1.940   3.257   7.647  0.1992  0.3485 -0.2307
 6809SOL    HW132063   2.034   3.272   7.638 -0.1100  2.9905  1.0847
 6809SOL    HW232064   1.935   3.176   7.698  0.7020  0.8374  0.5889
 6810SOL     OW32065   3.799   1.364  10.242 -0.1806 -0.3046 -0.1086
 6810SOL    HW132066   3.847   1.348  10.161  1.7347  3.2530  0.3388
 6810SOL    HW232067   3.854   1.426  10.289  1.9371 -1.6334 -0.8114
 6811SOL     OW32068   2.623   2.987  12.831  0.3772 -0.3430  0.0985
 6811SOL    HW132069   2.582   3.011  12.749  2.8976  2.3328 -0.3646
 6811SOL    HW232070   2.671   2.907  12.808  0.0532 -0.9481  1.4971
 6812SOL     OW32071   1.951   4.240   2.876  1.2923  0.3406  0.1141
 6812SOL    HW132072   1.941   4.270   2.786 -0.3301 -2.0416 -0.4804
 6812SOL    HW232073   1.943   4.325   2.920  1.4927 -0.1634  1.1287
 6813SOL     OW32074   3.784   4.265  15.875 -0.3725  0.0120 -1.0603
 6813SOL    HW132075   3.872   4.302  15.867 -0.3260  0.4571  1.5954
 6813SOL    HW232076   3.771   4.241  15.783  1.5001  2.4277 -1.9520
 6814SOL     OW32077   2.491   4.058   7.577 -0.1564 -0.2892 -0.0982
 6814SOL    HW132078   2.539   4.136   7.604  0.2488 -0.3873 -0.5434
 6814SOL    HW232079   2.557   3.989   7.572 -0.0010 -0.2850  1.6660
 6815SOL     OW32080   0.873   1.493   1.761  0.2668 -0.2398  0.1465
 6815SOL    HW132081   0.877   1.570   1.819  0.1366 -0.2441  0.1596
 6815SOL    HW232082   0.931   1.438   1.814  1.0442 -0.3841 -0.8511
 6816SOL     OW32083   3.963   0.514  15.571 -0.1587  0.1017  0.3962
 6816SOL    HW132084   4.010   0.435  15.544 -0.9367 -0.9002  1.9581
 6816SOL    HW232085   3.876   0.479  15.586 -0.6028 -0.7280 -4.1135
 6817SOL     OW32086   0.784   0.414   9.240 -0.0914 -0.2918 -0.0504
 6817SOL    HW132087   0.859   0.360   9.265  1.1043  0.3474 -2.2217
 6817SOL    HW232088   0.710   0.354   9.253 -0.9197  1.1483  1.7506
 6818SOL     OW32089   0.967   0.284   8.995 -0.3062  0.6377 -0.5927
 6818SOL    HW132090   0.985   0.247   9.081 -0.3547 -0.6383 -1.1269
 6818SOL    HW232091   0.905   0.218   8.963 -2.2069  3.0010 -1.8023
 6819SOL     OW32092   2.435   0.914   7.812 -0.2648 -0.8306 -0.1803
 6819SOL    HW132093   2.501   0.897   7.879  0.7088  0.4592 -0.8267
 6819SOL    HW232094   2.464   0.998   7.776 -3.6035  0.7353  0.7916
 6820SOL     OW32095   3.678   0.721   7.480  0.2192 -0.3189  0.0431
 6820SOL    HW132096   3.674   0.736   7.385  1.7742  1.1823  0.2220
 6820SOL    HW232097   3.745   0.786   7.498 -0.8835  0.6764  0.5060
 6821SOL     OW32098   0.181   4.062   7.187  0.2997 -0.1060 -0.1993
 6821SOL    HW132099   0.249   4.114   7.144 -0.7039  1.2822 -0.1121
 6821SOL    HW232100   0.103   4.069   7.132  0.5279  1.7571 -0.2914
 6822SOL     OW32101   0.533   1.649   2.793  0.1859 -0.4483 -0.8039
 6822SOL    HW132102   0.456   1.651   2.850  1.2978  0.8610  0.6778
 6822SOL    HW232103   0.549   1.555   2.794  2.2883 -0.0978 -1.1102
 6823SOL     OW32104   3.197   0.017   6.358  0.1487  0.5267 -0.2032
 6823SOL    HW132105   3.109   0.024   6.322 -1.3492 -2.5734  2.9169
 6823SOL    HW232106   3.181   4.668   6.398 -1.2598  0.7135 -0.3603
 6824SOL     OW32107   1.021   4.141   6.523 -0.0104 -0.4030 -1.0665
 6824SOL    HW132108   0.937   4.171   6.488  0.5812  1.9659 -0.4266
 6824SOL    HW232109   1.001   4.048   6.512  0.6518 -0.5984 -0.6257
 6825SOL     OW32110   3.492   2.550  15.701 -0.1530  0.5428  0.5779
 6825SOL    HW132111   3.551   2.503  15.643 -0.5809 -2.2105  2.3611
 6825SOL    HW232112   3.532   2.536  15.787  1.6347 -0.2434 -0.3944
 6826SOL     OW32113   0.796   3.278   5.571  0.4711  0.0061 -0.2198
 6826SOL    HW132114   0.861   3.338   5.536  0.9156 -0.7846 -0.7413
 6826SOL    HW232115   0.771   3.316   5.656 -1.8417  0.7984 -1.2492
 6827SOL     OW32116   1.739   0.824   4.641  0.3652 -0.3629 -0.4150
 6827SOL    HW132117   1.765   0.732   4.645  1.7425 -0.0096 -1.1114
 6827SOL    HW232118   1.821   0.873   4.639 -0.0954  0.4198 -0.1869
 6828SOL     OW32119   0.941   3.319   7.907  0.1299  0.1074  0.5252
 6828SOL    HW132120   0.849   3.293   7.907  0.3136 -0.6388 -2.1089
 6828SOL    HW232121   0.979   3.247   7.957 -2.2670 -3.2028 -2.3680
 6829SOL     OW32122   4.128   4.083   4.632 -0.7463  0.0529 -0.4296
 6829SOL    HW132123   4.213   4.125   4.642 -0.6292 -0.6801  1.6135
 6829SOL    HW232124   4.132   4.013   4.697  0.7099 -0.8156 -1.4556
 6830SOL     OW32125   3.717   3.643  11.252 -0.8128  1.1525 -0.0743
 6830SOL    HW132126   3.783   3.647  11.322  0.8725 -1.7405 -1.5081
 6830SOL    HW232127   3.720   3.551  11.229 -1.9710  1.3080 -0.8465
 6831SOL     OW32128   0.826   2.550  10.052 -0.2611  0.1002  0.2324
 6831SOL    HW132129   0.910   2.513  10.081  0.6635  0.2771 -2.2040
 6831SOL    HW232130   0.774   2.471  10.038  2.2389 -1.5506  0.1619
 6832SOL     OW32131   3.976   0.068   4.435 -0.2856 -0.7083  0.1991
 6832SOL    HW132132   3.897   0.048   4.486  2.3383 -3.0001  3.3807
 6832SOL    HW232133   4.020   0.121   4.502 -0.8643  0.3518 -0.2584
 6833SOL     OW32134   3.297   2.055   2.465  0.2852  0.4639  0.0925
 6833SOL    HW132135   3.280   2.147   2.484 -1.8829  0.1739 -0.4561
 6833SOL    HW232136   3.315   2.066   2.371  0.6023  4.4567  0.6194
 6834SOL     OW32137   4.421   2.693   6.739  0.5335 -0.0263  0.1781
 6834SOL    HW132138   4.421   2.747   6.818  2.6035 -1.4035  1.1106
 6834SOL    HW232139   4.332   2.716   6.711  0.1543 -1.0938  0.4707
 6835SOL     OW32140   1.332   2.427  15.042 -0.0535  0.1813  0.5126
 6835SOL    HW132141   1.380   2.403  15.122 -0.5796  2.3278  1.4612
 6835SOL    HW232142   1.364   2.517  15.042 -0.8006  0.4444 -0.0560
 6836SOL     OW32143   0.016   2.202   4.941  0.5602  0.1061  0.6330
 6836SOL    HW132144   0.021   2.131   5.004 -0.5736  0.7501  1.4396
 6836SOL    HW232145   4.659   2.212   4.921  0.6923 -0.9070 -0.5379
 6837SOL     OW32146   4.246   0.394   5.269  0.0647 -0.1721  0.0188
 6837SOL    HW132147   4.164   0.436   5.241  0.7436  0.1866 -1.4358
 6837SOL    HW232148   4.211   0.384   5.357 -0.4901  0.3943 -0.1312
 6838SOL     OW32149   0.776   0.529  16.384 -0.2838 -0.2965 -0.1435
 6838SOL    HW132150   0.858   0.576  16.372 -0.4345 -0.0560 -0.2185
 6838SOL    HW232151   0.710   0.578  16.335  2.0846  1.8431 -1.1695
 6839SOL     OW32152   1.076   3.484   9.757  0.2580  0.1865 -0.0299
 6839SOL    HW132153   1.163   3.450   9.738 -0.8360 -2.6233 -0.0221
 6839SOL    HW232154   1.045   3.406   9.804  1.7303 -0.7175 -0.5664
 6840SOL     OW32155   0.550   0.540   4.940 -0.4708  0.4078 -0.0188
 6840SOL    HW132156   0.592   0.454   4.944 -1.7047 -0.0455  3.0104
 6840SOL    HW232157   0.525   0.545   5.032  2.5815  1.0911  0.7701
 6841SOL     OW32158   1.393   2.214   4.665  0.2811  0.3869  0.2596
 6841SOL    HW132159   1.313   2.219   4.717  1.1250 -0.8797  1.6795
 6841SOL    HW232160   1.397   2.304   4.634  3.6593  0.6248  1.3467
 6842SOL     OW32161   3.887   2.977   1.072  0.2070 -0.6252 -0.3310
 6842SOL    HW132162   3.839   2.901   1.038  0.1470 -0.8736  0.2983
 6842SOL    HW232163   3.827   3.015   1.137 -0.0400 -0.8608 -0.4170
 6843SOL     OW32164   0.671   0.783  13.803 -0.7738 -0.0468 -0.1913
 6843SOL    HW132165   0.618   0.789  13.724  1.2591  0.3550 -1.5383
 6843SOL    HW232166   0.636   0.839  13.873 -0.3367  0.1920 -0.1645
 6844SOL     OW32167   2.126   3.597   2.283 -0.1056 -0.2610  0.7136
 6844SOL    HW132168   2.064   3.667   2.262 -2.4906 -3.3255 -2.4776
 6844SOL    HW232169   2.207   3.624   2.239 -0.2097 -0.1305  0.6015
 6845SOL     OW32170   2.685   1.075   8.593  0.2284  0.1719 -0.2206
 6845SOL    HW132171   2.692   1.167   8.567 -2.5130 -0.0577 -1.7287
 6845SOL    HW232172   2.741   1.079   8.671 -0.4902  3.8104  0.1344
 6846SOL     OW32173   4.702   0.445   2.718 -0.1003 -0.0251 -0.1686
 6846SOL    HW132174   4.646   0.408   2.650  2.4122 -1.1817 -1.5968
 6846SOL    HW232175   4.696   0.539   2.698  0.0653  0.2501  1.0913
 6847SOL     OW32176   0.813   1.047   5.251  0.4895 -0.1968  0.3719
 6847SOL    HW132177   0.770   1.068   5.168 -1.6071  1.4436  1.8859
 6847SOL    HW232178   0.749   1.092   5.305 -0.1916 -0.7730  0.0440
 6848SOL     OW32179   0.009   2.286   3.034  0.0301 -0.0844  0.0982
 6848SOL    HW132180   0.002   2.305   3.127  1.3652 -0.9609  0.3690
 6848SOL    HW232181   0.052   2.370   3.018  0.2636 -0.0352  0.9700
 6849SOL     OW32182   1.451   0.471  10.046 -0.3930 -0.1037 -0.1809
 6849SOL    HW132183   1.488   0.490   9.960  2.1652 -1.2342  0.6642
 6849SOL    HW232184   1.488   0.545  10.093  1.6008 -0.2229 -1.5433
 6850SOL     OW32185   4.444   3.432   8.467  0.1968  0.0007  0.1273
 6850SOL    HW132186   4.515   3.496   8.460 -1.5454  1.7783 -1.2105
 6850SOL    HW232187   4.433   3.424   8.562  0.8241 -2.3937 -0.0146
 6851SOL     OW32188   4.406   3.881  12.460  0.1230 -0.6095 -0.0957
 6851SOL    HW132189   4.370   3.946  12.520 -0.0815 -2.5526  1.8751
 6851SOL    HW232190   4.497   3.870  12.488  0.1149  1.8433  0.9415
 6852SOL     OW32191   4.289   2.820  10.207  0.3366 -0.4379  0.1477
 6852SOL    HW132192   4.293   2.860  10.294  2.3959  0.4959 -0.3865
 6852SOL    HW232193   4.369   2.769  10.216 -0.1814 -0.8370  2.4868
 6853SOL     OW32194   2.259   3.409   8.594 -0.7465 -0.1688  1.0014
 6853SOL    HW132195   2.250   3.499   8.563  3.7950 -0.3064 -0.7993
 6853SOL    HW232196   2.177   3.381   8.633 -1.8125 -0.0988 -1.1862
 6854SOL     OW32197   2.742   0.860  10.403  0.1309 -0.3446  0.9172
 6854SOL    HW132198   2.670   0.883  10.344  1.3079  1.4924  0.1959
 6854SOL    HW232199   2.714   0.881  10.492 -1.2936  2.9345 -0.2850
 6855SOL     OW32200   3.395   4.357   3.007 -0.1207 -0.4010 -0.2781
 6855SOL    HW132201   3.305   4.342   3.036 -0.4356 -0.7999 -1.4567
 6855SOL    HW232202   3.423   4.270   2.978  0.2138 -1.0506  1.9408
 6856SOL     OW32203   0.162   3.274   3.760 -0.4798 -0.0849  0.0791
 6856SOL    HW132204   0.081   3.273   3.709  0.3893  0.9845 -1.3286
 6856SOL    HW232205   0.121   3.284   3.847 -0.1836 -1.4269  0.3720
 6857SOL     OW32206   4.513   1.593  16.861  0.0859 -0.5848 -0.3956
 6857SOL    HW132207   4.468   1.510  16.878 -0.5645 -0.1549  0.0053
 6857SOL    HW232208   4.447   1.646  16.815 -0.4740 -1.1321 -0.2371
 6858SOL     OW32209   3.130   3.917   6.202  0.4084 -0.0391  0.3640
 6858SOL    HW132210   3.078   3.967   6.265 -2.4668 -0.5823 -1.6013
 6858SOL    HW232211   3.157   3.844   6.259  1.4771 -0.0234 -0.1151
 6859SOL     OW32212   0.325   2.983   2.834 -0.1980  0.6636  0.5270
 6859SOL    HW132213   0.323   3.078   2.819  0.7078  0.1528 -3.0024
 6859SOL    HW232214   0.338   2.979   2.928 -1.2500  0.2647  0.6496
 6860SOL     OW32215   3.435   4.689   8.009  0.0221 -0.0091  0.3093
 6860SOL    HW132216   3.501   0.004   8.056  0.6484  0.5484 -1.1918
 6860SOL    HW232217   3.470   4.685   7.920 -0.2396 -2.2982  0.3151
 6861SOL     OW32218   2.770   1.210   1.950  0.5807  0.2249  0.6180
 6861SOL    HW132219   2.742   1.301   1.962  0.3689  0.3976 -1.2888
 6861SOL    HW232220   2.790   1.174   2.037 -1.7015  0.1205  1.0880
 6862SOL     OW32221   1.171   2.716   4.579  0.0069 -0.0259  0.3608
 6862SOL    HW132222   1.129   2.798   4.550  1.5048  0.1023 -1.4776
 6862SOL    HW232223   1.223   2.703   4.499  3.3067 -2.0309  2.8508
 6863SOL     OW32224   2.958   4.528   1.993 -0.1221  0.2229 -0.2765
 6863SOL    HW132225   2.894   4.487   2.051  0.6860  0.7289  0.9615
 6863SOL    HW232226   3.010   4.579   2.055  0.6795 -0.3339 -0.4875
 6864SOL     OW32227   1.580   0.540   9.812 -0.1317 -0.2579  0.2485
 6864SOL    HW132228   1.659   0.583   9.778  0.2689  0.5789  2.2281
 6864SOL    HW232229   1.553   0.493   9.733 -1.2199  1.4191 -0.3852
 6865SOL     OW32230   1.988   2.753   6.438 -0.1130 -0.0366  0.1477
 6865SOL    HW132231   1.928   2.820   6.404  1.4429  2.5136  2.4512
 6865SOL    HW232232   1.957   2.667   6.408 -1.3303  1.1572 -2.0078
 6866SOL     OW32233   4.178   3.388   5.649 -0.3345  0.0902 -0.0186
 6866SOL    HW132234   4.123   3.435   5.711  1.4657  1.4734  0.5135
 6866SOL    HW232235   4.121   3.379   5.573 -0.2092  0.1191 -0.1164
 6867SOL     OW32236   4.402   0.837   7.231 -0.1065 -0.5196 -0.5619
 6867SOL    HW132237   4.311   0.810   7.247  0.1080 -1.6790 -1.2591
 6867SOL    HW232238   4.394   0.932   7.239 -1.4537 -0.6784 -0.0160
 6868SOL     OW32239   0.602   2.767   5.294  0.5757 -0.5600  0.5484
 6868SOL    HW132240   0.622   2.803   5.381  2.5478  0.6391 -0.3892
 6868SOL    HW232241   0.527   2.720   5.330 -1.6187  0.6514 -2.4715
 6869SOL     OW32242   1.935   2.003  13.150 -0.3094 -0.0166 -0.0488
 6869SOL    HW132243   1.885   1.921  13.149 -0.6730  0.2122 -1.0968
 6869SOL    HW232244   1.858   2.059  13.161 -0.5050 -0.8906  2.9838
 6870SOL     OW32245   1.626   3.487   8.679 -0.1147  0.5786  0.4550
 6870SOL    HW132246   1.553   3.498   8.619  0.5896 -0.8929 -0.6545
 6870SOL    HW232247   1.697   3.541   8.645 -0.1993  0.7367  0.5262
 6871SOL     OW32248   3.656   2.632   6.731  0.2370 -0.3385 -0.2236
 6871SOL    HW132249   3.561   2.618   6.723  0.4124 -1.5791 -0.2646
 6871SOL    HW232250   3.668   2.593   6.818  0.5477  0.5746  0.1355
 6872SOL     OW32251   1.445   4.647  10.749 -0.3722 -0.6842 -0.1971
 6872SOL    HW132252   1.487   4.707  10.688 -1.6041 -0.2420 -0.6229
 6872SOL    HW232253   1.367   4.618  10.701 -0.3662 -0.5639 -0.2793
 6873SOL     OW32254   3.050   2.107   3.945 -0.1428  0.0548  0.1152
 6873SOL    HW132255   3.106   2.072   4.015  0.7783  1.3707  0.0269
 6873SOL    HW232256   3.037   2.197   3.972  1.3549  1.2581 -3.1869
 6874SOL     OW32257   3.547   4.267  15.299 -0.2824 -0.0974  0.1749
 6874SOL    HW132258   3.542   4.309  15.385  1.5306  0.3886  0.0458
 6874SOL    HW232259   3.487   4.323  15.249 -1.1345  0.1866  1.4965
 6875SOL     OW32260   1.144   1.083   8.265  0.0787 -0.3304 -0.0442
 6875SOL    HW132261   1.138   1.027   8.188  0.8404 -0.9170  0.3225
 6875SOL    HW232262   1.210   1.146   8.236 -0.6996  0.9410  0.9562
 6876SOL     OW32263   0.768   0.051   6.759  0.3534  0.1736 -0.3286
 6876SOL    HW132264   0.790   4.696   6.775  1.0421  0.2755 -0.6662
 6876SOL    HW232265   0.803   0.063   6.671 -0.3655  1.0749 -0.4963
 6877SOL     OW32266   4.492   0.531   6.712  0.3957 -0.0613 -0.5378
 6877SOL    HW132267   4.570   0.486   6.679 -1.1799 -0.2158 -4.0448
 6877SOL    HW232268   4.452   0.552   6.628  1.0097  1.4219 -0.4578
 6878SOL     OW32269   0.338   4.448   8.627 -0.7499  0.0533 -0.7188
 6878SOL    HW132270   0.325   4.445   8.532  1.1593 -1.2893 -0.9260
 6878SOL    HW232271   0.409   4.385   8.632 -0.5130  0.2466 -1.6825
 6879SOL     OW32272   4.026   3.466  17.720  0.0113  0.6783 -0.1150
 6879SOL    HW132273   3.949   3.500   0.023  0.2823  0.1995  0.7029
 6879SOL    HW232274   4.050   3.531  17.655  0.8952 -1.1399 -1.6066
 6880SOL     OW32275   2.373   1.363   7.983  0.0019 -0.9635  0.0298
 6880SOL    HW132276   2.450   1.419   7.980 -0.9400  0.4255  1.8540
 6880SOL    HW232277   2.316   1.412   8.042  1.2987 -0.9949  1.2878
 6881SOL     OW32278   3.057   3.026   5.816 -0.2381 -0.3695  0.5288
 6881SOL    HW132279   3.030   2.977   5.894 -0.3183 -2.3548 -0.7512
 6881SOL    HW232280   2.979   3.039   5.761  0.1223  1.5652  0.4897
 6882SOL     OW32281   3.730   2.883  14.206  0.7072  0.0363 -0.7822
 6882SOL    HW132282   3.741   2.789  14.217 -1.1998 -0.4814 -3.3826
 6882SOL    HW232283   3.733   2.892  14.111  3.3028 -2.4898 -0.9081
 6883SOL     OW32284   4.507   0.784   4.203 -0.3327  0.1047  0.0404
 6883SOL    HW132285   4.584   0.833   4.178  0.9087 -1.5866  0.5407
 6883SOL    HW232286   4.527   0.776   4.297 -0.1114  1.2435  0.0823
 6884SOL     OW32287   1.789   3.143  13.443  0.6210 -0.2685  0.5216
 6884SOL    HW132288   1.747   3.215  13.396  1.6999  0.5007  0.7388
 6884SOL    HW232289   1.876   3.154  13.406  0.5385 -1.3127 -0.0006
 6885SOL     OW32290   1.133   1.878   2.945  0.1130 -0.2454  0.0692
 6885SOL    HW132291   1.173   1.817   3.007 -2.1051  0.6080  2.3420
 6885SOL    HW232292   1.068   1.923   3.000 -0.0440 -0.4086  0.0158
 6886SOL     OW32293   3.520   4.362   8.876  0.0310 -0.0024 -0.5173
 6886SOL    HW132294   3.593   4.394   8.930 -0.0478 -1.9087  0.7420
 6886SOL    HW232295   3.530   4.267   8.886  2.7054  0.4402  1.0709
 6887SOL     OW32296   1.035   3.412   5.504 -0.3889  0.3026  0.6608
 6887SOL    HW132297   1.040   3.489   5.448 -0.8277 -0.3149 -0.2366
 6887SOL    HW232298   1.051   3.444   5.592 -0.6727  1.8733  0.1443
 6888SOL     OW32299   3.705   0.679  10.073  0.4000  0.1977 -0.2945
 6888SOL    HW132300   3.700   0.598  10.021 -0.3394  1.1090 -1.6355
 6888SOL    HW232301   3.710   0.651  10.164 -2.3914  3.3643  0.8139
 6889SOL     OW32302   2.101   1.276   8.371 -0.3653  0.0451 -0.0664
 6889SOL    HW132303   2.062   1.258   8.286 -0.8384 -0.9924  0.3619
 6889SOL    HW232304   2.093   1.188   8.408 -1.0020 -0.2996 -1.0253
 6890SOL     OW32305   2.540   2.168   4.466  0.4825 -0.3291 -0.3279
 6890SOL    HW132306   2.544   2.108   4.391  0.2141 -0.9506  0.1572
 6890SOL    HW232307   2.632   2.164   4.492  0.5985  1.1584 -0.5089
 6891SOL     OW32308   2.265   3.061  16.684 -0.1992  0.1098 -0.5003
 6891SOL    HW132309   2.344   3.019  16.651  0.2545  0.2638  0.3877
 6891SOL    HW232310   2.316   3.103  16.753 -1.2607  1.4160 -0.5074
 6892SOL     OW32311   2.867   2.144   2.509 -0.2940  0.0879  0.3491
 6892SOL    HW132312   2.845   2.137   2.416 -1.1972 -2.5009  0.7513
 6892SOL    HW232313   2.932   2.214   2.507  0.8093 -0.9237  1.0188
 6893SOL     OW32314   2.210   2.686   2.037  0.1416  0.6924 -0.3617
 6893SOL    HW132315   2.229   2.779   2.020  0.2141  0.6232 -0.6576
 6893SOL    HW232316   2.129   2.680   1.987  1.4894  0.2352 -2.4573
 6894SOL     OW32317   0.191   2.197   5.954 -0.0919 -0.6649  0.6271
 6894SOL    HW132318   0.145   2.246   5.886  1.1425 -0.3647  0.0129
 6894SOL    HW232319   0.216   2.269   6.012  2.9992 -1.4673  0.3020
 6895SOL     OW32320   1.386   1.967   2.379  0.1452  0.0184 -0.0101
 6895SOL    HW132321   1.461   1.941   2.432  0.4583 -1.7499 -1.2837
 6895SOL    HW232322   1.341   2.033   2.431 -0.6250 -0.4278 -0.1010
 6896SOL     OW32323   3.397   3.204   2.799 -0.1124  0.1961  0.0870
 6896SOL    HW132324   3.312   3.211   2.843 -0.6108  0.5409 -0.9294
 6896SOL    HW232325   3.373   3.143   2.729  0.4521  0.1039 -0.0249
 6897SOL     OW32326   2.266   1.225  15.839  0.4998  0.4230  0.1069
 6897SOL    HW132327   2.197   1.160  15.828 -1.9608  2.9273  0.6646
 6897SOL    HW232328   2.233   1.307  15.801 -0.4529  0.2267  0.5053
 6898SOL     OW32329   1.686   4.561   8.197 -1.4169  0.2433  0.0612
 6898SOL    HW132330   1.668   4.605   8.114  1.9832 -0.4671 -1.0507
 6898SOL    HW232331   1.775   4.592   8.211 -1.5130  1.2047 -1.5653
 6899SOL     OW32332   2.700   0.379   4.357  0.1477  0.1081  0.3515
 6899SOL    HW132333   2.697   0.410   4.267  0.1953 -0.2883  0.2115
 6899SOL    HW232334   2.613   0.338   4.365 -0.3777  0.7236 -2.1361
 6900SOL     OW32335   4.052   0.415  13.788 -0.6266 -0.0994  0.0403
 6900SOL    HW132336   4.056   0.500  13.744  0.1536 -0.2028 -0.0894
 6900SOL    HW232337   4.000   0.429  13.867  1.9888 -1.7555  2.0048
 6901SOL     OW32338   2.483   3.644   8.788  0.4003  0.1400 -0.1222
 6901SOL    HW132339   2.436   3.712   8.740 -0.4417 -0.2760  0.0988
 6901SOL    HW232340   2.486   3.582   8.716 -0.3901 -0.4097  0.3257
 6902SOL     OW32341   3.005   4.002  10.752  0.1037 -0.7599 -0.0330
 6902SOL    HW132342   2.973   4.052  10.827 -1.0379  0.8172 -1.5714
 6902SOL    HW232343   3.003   3.911  10.779 -1.8893 -0.8909 -0.6573
 6903SOL     OW32344   1.412   3.832   9.192  0.0924  0.1458 -0.2828
 6903SOL    HW132345   1.460   3.778   9.255 -2.1630 -0.3886  0.9581
 6903SOL    HW232346   1.341   3.770   9.176  1.0899 -0.6119 -1.8144
 6904SOL     OW32347   0.780   0.196   6.984  0.3500 -0.2514  0.5497
 6904SOL    HW132348   0.795   0.143   6.905 -1.1277  1.1284 -0.6765
 6904SOL    HW232349   0.753   0.123   7.041  0.1011 -0.8611 -0.3388
 6905SOL     OW32350   1.035   1.451  15.926 -0.0331  0.2363  0.0649
 6905SOL    HW132351   1.122   1.481  15.952 -0.2002 -1.6452  2.8347
 6905SOL    HW232352   1.029   1.498  15.843  2.1748  0.5714  0.0981
 6906SOL     OW32353   0.600   1.696   6.517 -0.4869  0.1922  0.2004
 6906SOL    HW132354   0.663   1.631   6.548 -0.4348  0.4370  0.5990
 6906SOL    HW232355   0.637   1.779   6.546 -0.7777 -0.0121  1.1429
 6907SOL     OW32356   3.909   1.308  15.905 -0.1768  0.4399  0.1395
 6907SOL    HW132357   3.931   1.216  15.889 -2.3091  0.1866 -1.4715
 6907SOL    HW232358   3.968   1.347  15.841  1.0306 -0.1712  0.8832
 6908SOL     OW32359   1.724   4.197   7.815  0.0368  0.1690 -0.0132
 6908SOL    HW132360   1.634   4.199   7.849  0.6360 -1.8763  1.6792
 6908SOL    HW232361   1.750   4.109   7.841 -0.4438 -0.7600 -2.6167
 6909SOL     OW32362   2.190   3.303   3.563  0.2697 -0.5856  0.0122
 6909SOL    HW132363   2.107   3.275   3.525 -0.3445  2.9677 -1.2235
 6909SOL    HW232364   2.229   3.223   3.600  1.5295 -0.4707 -1.0498
 6910SOL     OW32365   4.508   1.064  12.714 -0.2370  0.7422  0.5231
 6910SOL    HW132366   4.596   1.041  12.685 -0.5256 -1.1567  1.1614
 6910SOL    HW232367   4.486   0.978  12.751  0.1683  0.8027  0.8995
 6911SOL     OW32368   4.511   2.526   6.156  0.3962 -0.3612  0.1576
 6911SOL    HW132369   4.466   2.540   6.072  2.3729  1.2154 -0.6225
 6911SOL    HW232370   4.545   2.611   6.182  0.1684 -0.4139  0.6256
 6912SOL     OW32371   1.140   4.502   5.872  0.4014 -0.1692 -0.1782
 6912SOL    HW132372   1.201   4.558   5.920 -1.5307  1.1900  0.6592
 6912SOL    HW232373   1.125   4.446   5.948  1.7642  3.2336  2.5856
 6913SOL     OW32374   1.725   3.210  10.721  0.0866  0.0744  0.9953
 6913SOL    HW132375   1.693   3.295  10.690  0.7084 -0.7371 -1.8550
 6913SOL    HW232376   1.653   3.150  10.697 -0.3608 -0.1285  2.8416
 6914SOL     OW32377   3.029   1.479   3.713  0.1789 -0.4040  0.0637
 6914SOL    HW132378   2.944   1.436   3.717  0.0718 -0.1217  0.9351
 6914SOL    HW232379   3.016   1.562   3.667  0.1198 -1.1829 -1.3210
 6915SOL     OW32380   1.591   2.005   4.082  0.0324  0.4252 -0.1810
 6915SOL    HW132381   1.619   1.957   4.160 -0.7060 -1.8851 -1.3521
 6915SOL    HW232382   1.555   2.079   4.131  1.1366  0.4266  0.6365
 6916SOL     OW32383   2.349   3.283   3.874 -0.4019  0.0779  0.2537
 6916SOL    HW132384   2.418   3.296   3.809  1.9231 -1.2078  2.4726
 6916SOL    HW232385   2.329   3.376   3.882 -2.2167 -0.3914  1.1558
 6917SOL     OW32386   2.983   2.278  17.733 -0.4735 -0.3318  0.5113
 6917SOL    HW132387   2.888   2.268  17.735 -0.4137 -1.2373 -0.8669
 6917SOL    HW232388   2.998   2.366   0.024  1.7895 -0.3859 -0.3324
 6918SOL     OW32389   0.868   2.048   8.601  0.0636 -0.4048 -0.1651
 6918SOL    HW132390   0.777   2.065   8.579 -0.6835 -2.0602  1.6213
 6918SOL    HW232391   0.863   1.975   8.663  0.6806  0.1687  0.5520
 6919SOL     OW32392   4.504   3.315   7.369 -0.3156  0.3047 -0.0123
 6919SOL    HW132393   4.419   3.358   7.379 -1.0129 -1.0522 -0.1443
 6919SOL    HW232394   4.471   3.225   7.367  0.9658 -0.1311 -1.1946
 6920SOL     OW32395   1.986   0.731   2.640 -0.4145 -0.1592 -0.1933
 6920SOL    HW132396   2.012   0.644   2.608  1.4871  1.1113 -2.0942
 6920SOL    HW232397   2.047   0.791   2.598  1.4994 -1.6174  0.5210
 6921SOL     OW32398   0.694   1.962  16.288 -0.0742  0.0453 -0.0860
 6921SOL    HW132399   0.657   1.905  16.356 -0.2399  1.5974  1.1284
 6921SOL    HW232400   0.708   1.896  16.220 -0.1534  0.2417 -0.2927
 6922SOL     OW32401   3.773   2.316   9.413 -0.0768  0.6098 -0.7115
 6922SOL    HW132402   3.703   2.322   9.478 -0.0452 -2.3974 -0.3964
 6922SOL    HW232403   3.787   2.222   9.403 -3.1017  0.2731 -1.5984
 6923SOL     OW32404   2.881   0.422   8.120  0.0451 -0.4240 -0.3730
 6923SOL    HW132405   2.840   0.359   8.061 -2.4586  0.1845  0.7191
 6923SOL    HW232406   2.942   0.364   8.165 -0.4772 -1.0828 -0.5170
 6924SOL     OW32407   1.589   2.615   3.411 -0.4717  0.4374  0.2627
 6924SOL    HW132408   1.661   2.585   3.355 -0.3398  0.5959  0.3459
 6924SOL    HW232409   1.551   2.534   3.445 -1.3551  0.3239 -0.9910
 6925SOL     OW32410   0.824   1.753   7.704 -0.4396  0.1031  0.5654
 6925SOL    HW132411   0.766   1.678   7.709 -1.1150  0.7079  1.8643
 6925SOL    HW232412   0.907   1.723   7.741 -1.5729 -3.0861  0.4387
 6926SOL     OW32413   4.074   3.467   4.414 -0.0561 -0.1795 -0.6336
 6926SOL    HW132414   4.145   3.501   4.359 -0.7656  0.0149 -1.4257
 6926SOL    HW232415   4.103   3.375   4.415  1.1048  0.1618 -2.7023
 6927SOL     OW32416   0.634   0.508   5.871  0.1048  0.5222  0.2505
 6927SOL    HW132417   0.653   0.433   5.927 -1.4760 -0.3540 -0.3798
 6927SOL    HW232418   0.675   0.574   5.927 -0.4498  1.7985 -0.8495
 6928SOL     OW32419   2.489   1.780   9.989 -0.1223 -0.0000 -0.1435
 6928SOL    HW132420   2.534   1.702  10.023  2.0011  0.6643 -1.4774
 6928SOL    HW232421   2.487   1.749   9.899 -1.1924  1.6476 -0.6827
 6929SOL     OW32422   0.114   4.475  10.040 -0.2079  0.2690 -0.0430
 6929SOL    HW132423   0.186   4.514   9.990 -0.1710 -0.2061 -0.3624
 6929SOL    HW232424   0.036   4.502   9.993 -0.3568 -0.9999 -0.5325
 6930SOL     OW32425   1.044   4.277   7.153  0.3976  0.1539  0.1925
 6930SOL    HW132426   1.113   4.258   7.216  0.4294  1.3039  0.5104
 6930SOL    HW232427   1.092   4.339   7.099 -0.2078  0.0069 -0.5093
 6931SOL     OW32428   0.191   2.505   7.770 -0.2234 -0.0424  0.2009
 6931SOL    HW132429   0.099   2.481   7.755 -0.3889 -0.2706  1.6155
 6931SOL    HW232430   0.247   2.436   7.734  2.7228  2.1889  0.5079
 6932SOL     OW32431   1.890   0.739   3.309 -0.2977 -0.1798 -0.0195
 6932SOL    HW132432   1.960   0.712   3.249 -0.9739  1.0309 -1.3139
 6932SOL    HW232433   1.911   0.832   3.309 -2.5254  0.3151  2.1092
 6933SOL     OW32434   3.110   3.043   4.223  0.0330 -0.8262 -0.0064
 6933SOL    HW132435   3.183   3.104   4.209 -0.4119 -0.4283 -0.5623
 6933SOL    HW232436   3.045   3.109   4.246  0.7393 -0.0554 -0.2192
 6934SOL     OW32437   3.373   0.164   4.437  0.3078  0.5861  0.7198
 6934SOL    HW132438   3.352   0.070   4.434 -1.8264  1.0299  1.6407
 6934SOL    HW232439   3.290   0.205   4.413 -0.4455 -1.1572  0.2951
 6935SOL     OW32440   0.572   4.477  10.955 -0.4837  0.1006  0.2049
 6935SOL    HW132441   0.546   4.402  11.009  0.9532 -0.4459  0.1362
 6935SOL    HW232442   0.538   4.549  11.009  2.1532  1.3448  0.2340
 6936SOL     OW32443   3.069   0.425   3.919 -0.0169 -0.3004 -0.1524
 6936SOL    HW132444   3.135   0.355   3.913 -1.1897 -1.4363  0.2416
 6936SOL    HW232445   3.016   0.389   3.990  1.3618 -3.7285 -0.8426
 6937SOL     OW32446   3.584   2.470   4.786 -0.3538 -0.0253 -0.8070
 6937SOL    HW132447   3.610   2.433   4.702 -2.0484 -1.4954 -0.6878
 6937SOL    HW232448   3.525   2.538   4.755  0.5940  0.7516 -0.9209
 6938SOL     OW32449   4.239   1.971   6.764  0.0299  0.1052  0.3632
 6938SOL    HW132450   4.166   2.006   6.713  1.4441 -0.3644 -1.9798
 6938SOL    HW232451   4.220   1.882   6.735 -0.9724 -0.8524  4.0372
 6939SOL     OW32452   1.908   4.705   8.242 -0.3397 -0.4029  0.0885
 6939SOL    HW132453   1.999   4.712   8.214 -0.5009  2.4295  0.2545
 6939SOL    HW232454   1.909   0.021   8.322  1.0179 -1.2748  0.6275
 6940SOL     OW32455   1.003   3.461  16.948 -0.0807  0.2814  0.0592
 6940SOL    HW132456   0.992   3.493  16.858 -3.6318  0.9731  0.7415
 6940SOL    HW232457   0.937   3.392  16.944 -0.8305  0.9042  1.9709
 6941SOL     OW32458   1.833   0.237  17.447  0.1389 -0.1205 -0.4930
 6941SOL    HW132459   1.911   0.197  17.408 -2.5152 -1.9933 -3.9257
 6941SOL    HW232460   1.765   0.201  17.390  0.6910 -0.5849 -0.8507
 6942SOL     OW32461   0.840   0.296  13.880 -0.0792 -0.0324 -0.1700
 6942SOL    HW132462   0.888   0.213  13.872  0.6628  0.3202  0.5838
 6942SOL    HW232463   0.845   0.308  13.975  0.2006 -0.4135 -0.1367
 6943SOL     OW32464   3.742   0.224   1.804  0.3429 -0.0242  0.0718
 6943SOL    HW132465   3.736   0.208   1.710 -0.8171  3.0348 -0.3890
 6943SOL    HW232466   3.655   0.259   1.822  0.9188  1.1266  0.6499
 6944SOL     OW32467   4.154   1.549  11.986 -0.1511  0.3993 -0.1851
 6944SOL    HW132468   4.216   1.478  12.001 -0.1040  0.3578 -0.5665
 6944SOL    HW232469   4.186   1.565  11.897 -2.0574 -0.5605 -1.0489
 6945SOL     OW32470   4.411   4.385   2.972  0.4332 -0.0007 -0.0157
 6945SOL    HW132471   4.416   4.312   3.033 -0.2064  0.4678  0.6073
 6945SOL    HW232472   4.391   4.461   3.027  2.0517  0.9432 -0.7243
 6946SOL     OW32473   0.012   3.138   8.232  0.4711  0.0639  0.4213
 6946SOL    HW132474   0.018   3.170   8.142  1.3056  0.6280  0.6831
 6946SOL    HW232475   0.102   3.142   8.263  0.8046  0.9802 -0.6818
 6947SOL     OW32476   0.009   0.856   2.904 -0.0503 -0.0221  0.0616
 6947SOL    HW132477   4.653   0.835   2.892  0.8396 -3.6056 -0.5363
 6947SOL    HW232478   0.032   0.892   2.818 -0.8269 -1.9264 -0.9361
 6948SOL     OW32479   2.763   3.740   3.584 -0.3723  0.0374 -0.6131
 6948SOL    HW132480   2.851   3.778   3.586 -0.4224 -0.0042  2.6875
 6948SOL    HW232481   2.704   3.810   3.614 -0.2311 -0.3853  0.6491
 6949SOL     OW32482   3.977   2.195  16.596 -0.1659  0.1006 -0.2619
 6949SOL    HW132483   3.907   2.234  16.544 -0.4246 -0.2427 -0.1781
 6949SOL    HW232484   3.935   2.185  16.682  0.1393 -0.1668 -0.1422
 6950SOL     OW32485   4.486   1.848  15.411 -0.5849 -0.8645 -0.1433
 6950SOL    HW132486   4.541   1.770  15.403  1.3645  0.3497  1.2116
 6950SOL    HW232487   4.443   1.835  15.496  0.6585  0.6889  0.7316
 6951SOL     OW32488   2.693   1.013   2.740  0.1998  0.0675 -0.0540
 6951SOL    HW132489   2.643   1.091   2.763  0.6095  0.1251  0.6554
 6951SOL    HW232490   2.675   0.962   2.820 -0.6528  2.3219  1.1817
 6952SOL     OW32491   3.963   0.456   8.358 -0.3257 -0.4508 -0.9927
 6952SOL    HW132492   3.927   0.368   8.369 -0.1363 -0.4116 -0.1061
 6952SOL    HW232493   4.055   0.440   8.376 -1.3362 -1.3600  3.2080
 6953SOL     OW32494   4.107   0.753   0.900 -0.4085 -0.3845  0.3075
 6953SOL    HW132495   4.082   0.829   0.847 -1.7925 -1.2228 -0.2358
 6953SOL    HW232496   4.107   0.780   0.992 -2.3487 -1.3609  0.5770
 6954SOL     OW32497   2.858   2.058   1.686 -0.3963 -0.4270 -0.1586
 6954SOL    HW132498   2.877   2.029   1.596 -0.8216 -0.0524 -0.3678
 6954SOL    HW232499   2.808   1.983   1.717 -1.9413  0.6540 -0.0463
 6955SOL     OW32500   2.765   2.497   1.702 -0.0090  0.4835 -0.1858
 6955SOL    HW132501   2.756   2.441   1.625 -1.1476 -0.1466  0.4132
 6955SOL    HW232502   2.691   2.464   1.753 -1.1398  2.4857 -0.5119
 6956SOL     OW32503   3.929   0.035   7.659 -0.6766  0.6970 -0.2372
 6956SOL    HW132504   3.907   4.712   7.732  4.5035 -2.5697 -1.3082
 6956SOL    HW232505   3.919   0.122   7.696  3.6178  1.9489 -1.9575
 6957SOL     OW32506   0.069   3.388   5.033  0.2615  0.0378  0.5843
 6957SOL    HW132507   0.139   3.443   5.066 -0.0454  1.2294 -0.7325
 6957SOL    HW232508   0.114   3.329   4.972  0.6012  0.7058  0.1909
 6958SOL     OW32509   3.159   1.186   2.005 -0.2724  0.5574 -0.1439
 6958SOL    HW132510   3.122   1.098   2.015 -2.4854  1.5703  0.6065
 6958SOL    HW232511   3.128   1.220   1.921 -1.3969 -0.7913 -0.2847
 6959SOL     OW32512   3.193   0.295   5.500  0.2264 -0.1391  0.1280
 6959SOL    HW132513   3.188   0.346   5.419  0.2406 -0.7687 -0.2730
 6959SOL    HW232514   3.132   0.222   5.484  0.3442 -0.1603 -0.2240
 6960SOL     OW32515   1.506   4.582   5.851  0.1174 -0.0044  0.6827
 6960SOL    HW132516   1.450   4.632   5.910 -4.2498 -2.6586 -1.1965
 6960SOL    HW232517   1.467   4.495   5.863 -2.1776  0.9404  0.2161
 6961SOL     OW32518   2.372   2.100   2.092 -0.1546  0.3823  0.1830
 6961SOL    HW132519   2.325   2.136   2.167 -1.7914 -1.0783 -0.1385
 6961SOL    HW232520   2.423   2.178   2.071  0.8382  0.0306  1.3059
 6962SOL     OW32521   3.351   1.602  10.945 -0.2848 -1.0117 -0.3021
 6962SOL    HW132522   3.400   1.684  10.935 -2.0157 -0.0647 -0.9661
 6962SOL    HW232523   3.273   1.636  10.988  0.4071  0.7535 -0.4496
 6963SOL     OW32524   3.310   1.570   0.141 -0.8094 -0.4511 -0.2516
 6963SOL    HW132525   3.272   1.486   0.167  0.1488 -0.0190  2.5409
 6963SOL    HW232526   3.305   1.619   0.223  1.8172  0.6625 -0.7498
 6964SOL     OW32527   3.946   1.105   8.874  0.2185  0.0082 -0.5112
 6964SOL    HW132528   3.880   1.053   8.920  1.4211 -1.4548 -0.4204
 6964SOL    HW232529   3.970   1.158   8.950 -2.9269 -0.2547  0.6826
 6965SOL     OW32530   2.628   4.504   2.557 -0.1157 -0.7614  0.4591
 6965SOL    HW132531   2.579   4.501   2.639 -1.8704 -0.0940 -0.5579
 6965SOL    HW232532   2.556   4.506   2.494 -0.4662  0.7105  0.9155
 6966SOL     OW32533   1.188   2.628  12.107  0.0202  0.0669  0.5144
 6966SOL    HW132534   1.211   2.609  12.017  0.4447 -1.2903  0.9129
 6966SOL    HW232535   1.269   2.601  12.151  0.2699  0.0627  0.0475
 6967SOL     OW32536   0.737   0.194  14.329  0.5622  0.3124 -0.3486
 6967SOL    HW132537   0.806   0.222  14.270 -0.0255 -0.1685 -1.2780
 6967SOL    HW232538   0.748   0.266  14.390 -0.3819  0.3323 -0.1950
 6968SOL     OW32539   2.094   0.975   2.580  0.2855  0.1164  0.1701
 6968SOL    HW132540   2.022   1.016   2.532  0.4407 -0.5061 -0.5896
 6968SOL    HW232541   2.125   1.046   2.637  0.4614 -1.5396  2.1100
 6969SOL     OW32542   1.628   0.939   4.037 -0.0691 -0.1987 -0.3680
 6969SOL    HW132543   1.550   0.978   4.078  1.2905 -0.0810  2.1387
 6969SOL    HW232544   1.615   0.981   3.953  0.5370 -0.9258 -0.8212
 6970SOL     OW32545   2.915   4.616   8.699 -0.1501 -0.1911  0.4428
 6970SOL    HW132546   2.827   4.639   8.728  0.2753 -0.4128  1.9054
 6970SOL    HW232547   2.965   4.684   8.744  0.5467  0.7307 -1.7068
 6971SOL     OW32548   0.643   0.915   6.254  0.0454 -0.3292  0.3215
 6971SOL    HW132549   0.672   0.913   6.345 -0.0461  0.7880  0.3708
 6971SOL    HW232550   0.721   0.964   6.228 -0.6663 -0.0085 -1.1962
 6972SOL     OW32551   2.630   3.579  12.688 -0.3952 -0.4952  0.0755
 6972SOL    HW132552   2.678   3.662  12.682 -1.1327 -0.2284 -2.0910
 6972SOL    HW232553   2.556   3.613  12.738 -0.4386  0.0117 -0.3354
 6973SOL     OW32554   1.803   1.844   5.782  0.1550  0.8182  0.0793
 6973SOL    HW132555   1.815   1.761   5.737 -2.4940  0.3527  0.2189
 6973SOL    HW232556   1.708   1.841   5.795  0.0595 -0.8248 -1.0189
 6974SOL     OW32557   4.356   2.811   4.383  0.5465  1.1120  0.0464
 6974SOL    HW132558   4.417   2.748   4.421  0.8539  1.3543 -0.0482
 6974SOL    HW232559   4.423   2.877   4.369 -1.3357  2.7043 -1.4731
 6975SOL     OW32560   4.057   4.018   5.331  0.5576  0.4222  0.0733
 6975SOL    HW132561   4.008   4.100   5.328  1.9650  1.2185 -1.4641
 6975SOL    HW232562   4.142   4.053   5.358  0.5122 -0.2820  1.1663
 6976SOL     OW32563   3.694   0.340  11.599  0.7420 -0.9397  0.2366
 6976SOL    HW132564   3.782   0.361  11.568  0.9994 -0.7988  1.0698
 6976SOL    HW232565   3.659   0.287  11.527  0.2436 -2.4882  1.5842
 6977SOL     OW32566   3.751   1.004   2.046  0.0950 -0.1515 -0.4102
 6977SOL    HW132567   3.815   0.983   2.115  0.1172 -0.2293 -0.4545
 6977SOL    HW232568   3.680   0.948   2.076  1.9853 -2.2552  0.1404
 6978SOL     OW32569   2.697   0.538   8.524 -0.0627 -0.2226 -0.0737
 6978SOL    HW132570   2.656   0.591   8.456 -0.1693 -1.6649 -1.1547
 6978SOL    HW232571   2.721   0.455   8.483  0.3250  0.3945 -1.0902
 6979SOL     OW32572   1.939   2.494   0.713 -1.1089 -0.5812 -0.0362
 6979SOL    HW132573   1.845   2.478   0.704 -1.2624  0.9019 -0.9592
 6979SOL    HW232574   1.939   2.588   0.732 -3.6637 -0.9106  1.6019
 6980SOL     OW32575   2.677   1.818   5.983  0.1253 -0.4080  0.3077
 6980SOL    HW132576   2.704   1.760   6.054  0.3874  0.1721  0.6821
 6980SOL    HW232577   2.749   1.882   5.989 -0.9766  0.7464  1.1752
 6981SOL     OW32578   4.290   0.016  17.058 -0.4203  0.8123 -0.0736
 6981SOL    HW132579   4.271   0.103  17.093 -2.5342  0.8347 -1.2453
 6981SOL    HW232580   4.262   4.693  17.128 -1.7309 -1.1595 -2.2537
 6982SOL     OW32581   2.802   2.084   3.414 -0.0312  0.1164 -0.2910
 6982SOL    HW132582   2.866   2.070   3.483  0.4598 -2.2441 -1.2303
 6982SOL    HW232583   2.813   2.178   3.401  2.6966 -0.4280 -1.8819
 6983SOL     OW32584   2.414   3.458  11.491 -0.3776 -0.3072 -1.1565
 6983SOL    HW132585   2.406   3.553  11.497  2.4069  0.0256 -2.8112
 6983SOL    HW232586   2.462   3.435  11.571 -1.2626  0.3822 -0.4246
 6984SOL     OW32587   2.423   3.398   1.476 -0.1811  0.0912 -0.4389
 6984SOL    HW132588   2.336   3.358   1.470 -1.0368  1.7907  0.5933
 6984SOL    HW232589   2.426   3.420   1.569 -0.3340  0.1785 -0.4541
 6985SOL     OW32590   3.157   4.459  12.588  0.1754 -0.8118 -0.8822
 6985SOL    HW132591   3.104   4.502  12.521  1.3915 -0.9865 -1.9560
 6985SOL    HW232592   3.249   4.475  12.567  0.2214  0.3631  0.1980
 6986SOL     OW32593   2.273   3.075   8.680 -0.0224  0.0691  0.1725
 6986SOL    HW132594   2.233   3.014   8.619  2.0956 -1.4919  0.3401
 6986SOL    HW232595   2.339   3.121   8.628 -1.0994 -0.4597 -1.6395
 6987SOL     OW32596   0.351   1.169  15.114 -0.7257  0.1140 -0.0297
 6987SOL    HW132597   0.290   1.218  15.058  0.3266  3.1466  1.4309
 6987SOL    HW232598   0.418   1.236  15.126  1.5616 -2.0501 -0.8033
 6988SOL     OW32599   0.432   2.442   4.114  0.5580  0.2913  0.7396
 6988SOL    HW132600   0.462   2.433   4.024 -1.3963  2.7544 -0.1433
 6988SOL    HW232601   0.509   2.480   4.156  0.1737 -0.4564  2.1281
 6989SOL     OW32602   3.085   0.584   6.663 -0.2000 -0.4414 -0.1171
 6989SOL    HW132603   3.007   0.621   6.703 -0.7309 -1.2915 -0.3851
 6989SOL    HW232604   3.141   0.594   6.740 -0.0601 -2.2767  0.0222
 6990SOL     OW32605   3.059   1.071  15.740 -0.0338 -0.3065 -0.5655
 6990SOL    HW132606   3.098   0.991  15.706  1.0280 -0.9326  2.0938
 6990SOL    HW232607   2.983   1.081  15.682 -1.5449  1.5926  1.7302
 6991SOL     OW32608   2.390   0.115  12.654  0.3717 -0.3999  0.2961
 6991SOL    HW132609   2.456   0.157  12.710  0.4763  2.4147 -1.9303
 6991SOL    HW232610   2.442   0.093  12.577 -1.1086 -1.2029 -0.4707
 6992SOL     OW32611   3.275   3.268  11.953  0.8754 -0.4734  0.1837
 6992SOL    HW132612   3.341   3.217  11.906 -0.9637 -2.8192  0.1812
 6992SOL    HW232613   3.307   3.357  11.935 -2.4812  0.5213 -0.8771
 6993SOL     OW32614   3.067   2.550   1.720 -0.2665 -0.8288  0.0413
 6993SOL    HW132615   2.972   2.554   1.703  0.0510  2.1504 -1.0724
 6993SOL    HW232616   3.103   2.626   1.674  3.1202 -2.1662  0.5559
 6994SOL     OW32617   2.018   1.686  16.436 -0.1100 -0.1185 -0.6477
 6994SOL    HW132618   2.088   1.626  16.411 -0.4156 -0.7103 -0.0809
 6994SOL    HW232619   2.013   1.669  16.530 -3.2962 -1.0093 -1.0028
 6995SOL     OW32620   0.441   3.395  11.917 -0.0997 -0.4032  0.0182
 6995SOL    HW132621   0.499   3.470  11.927  0.7089 -1.1619  1.0299
 6995SOL    HW232622   0.497   3.320  11.897  0.5946  0.3498 -0.8582
 6996SOL     OW32623   2.972   1.316  10.516  0.8056 -0.1214  0.1331
 6996SOL    HW132624   2.971   1.263  10.596  2.9571 -1.9226 -1.0340
 6996SOL    HW232625   3.025   1.388  10.549  2.1432 -1.2084  0.3459
 6997SOL     OW32626   3.118   2.659   9.148  0.4496 -0.0035 -0.6012
 6997SOL    HW132627   3.139   2.611   9.228 -2.5984 -1.3377 -0.5743
 6997SOL    HW232628   3.201   2.706   9.145  0.1991  0.3777 -1.4456
 6998SOL     OW32629   3.076   4.368   4.000 -0.5508 -0.3268  0.9598
 6998SOL    HW132630   3.095   4.286   4.046  3.7866  1.2416  1.9597
 6998SOL    HW232631   3.151   4.378   3.942  0.1310 -1.7692  1.5896
 6999SOL     OW32632   3.418   4.225  12.286  0.0707  0.3622 -0.1447
 6999SOL    HW132633   3.439   4.196  12.375  1.0276 -0.7514 -0.7536
 6999SOL    HW232634   3.504   4.225  12.245 -0.3454  1.1472 -1.0296
 7000SOL     OW32635   3.614   3.890  16.001  0.6114  0.0345  0.2311
 7000SOL    HW132636   3.544   3.871  16.063  0.2374 -0.6884 -0.4122
 7000SOL    HW232637   3.635   3.800  15.976 -2.1115 -0.2827 -0.9084
 7001SOL     OW32638   0.201   1.811   2.750  0.4280 -0.2178 -0.0513
 7001SOL    HW132639   0.254   1.861   2.688 -1.9327  0.9223 -1.1439
 7001SOL    HW232640   0.155   1.745   2.698  0.3227  0.4069 -0.7601
 7002SOL     OW32641   2.964   2.362   4.001  0.0795 -0.3836  0.2870
 7002SOL    HW132642   2.870   2.355   3.985  0.3241  0.2757 -1.5210
 7002SOL    HW232643   2.966   2.457   4.015 -2.1499 -0.0545 -1.4366
 7003SOL     OW32644   1.874   0.621   5.729 -0.4782  0.5223 -0.2228
 7003SOL    HW132645   1.939   0.622   5.799 -0.8332  0.0632  0.1176
 7003SOL    HW232646   1.912   0.691   5.677 -0.8822 -1.0947 -2.7277
 7004SOL     OW32647   2.926   4.719   4.763 -0.2651  0.7139  0.1897
 7004SOL    HW132648   2.838   0.004   4.793 -0.2012  3.8147 -1.8139
 7004SOL    HW232649   2.971   0.064   4.783  2.0493 -0.3971 -0.3932
 7005SOL     OW32650   1.568   2.822   6.566 -0.1822  0.4421  0.3123
 7005SOL    HW132651   1.580   2.727   6.565  0.2333  0.4711  2.0158
 7005SOL    HW232652   1.582   2.838   6.659  1.5866 -0.0730  0.1205
 7006SOL     OW32653   2.160   3.394   2.054  0.4298 -0.5960 -0.2888
 7006SOL    HW132654   2.083   3.422   2.004 -1.3065 -1.0054  2.1474
 7006SOL    HW232655   2.189   3.480   2.085 -0.3523  0.8648 -3.6633
 7007SOL     OW32656   2.076   4.205   6.921 -0.2343 -0.5585  0.0483
 7007SOL    HW132657   2.078   4.172   6.831 -0.6159  1.1174 -0.5730
 7007SOL    HW232658   2.032   4.132   6.965 -1.9819  0.6192  0.2630
 7008SOL     OW32659   4.282   2.309   0.040 -0.3827 -0.3426 -0.0779
 7008SOL    HW132660   4.228   2.380   0.004 -0.8030  0.1112  1.4501
 7008SOL    HW232661   4.298   2.257  17.705 -2.2732  0.5274 -1.0361
 7009SOL     OW32662   1.977   0.663   4.534 -0.9008  0.7464  0.5359
 7009SOL    HW132663   1.993   0.730   4.467 -2.1804 -1.6902 -2.2056
 7009SOL    HW232664   1.959   0.582   4.487  2.2134  0.0558  0.5166
 7010SOL     OW32665   0.913   0.358   5.683  0.4456  0.3160  0.0589
 7010SOL    HW132666   0.826   0.332   5.713  0.8924 -1.6621 -0.4223
 7010SOL    HW232667   0.877   0.405   5.608 -2.5175  0.7860  1.7640
 7011SOL     OW32668   1.024   4.325  14.900 -0.2902 -0.5033 -0.0211
 7011SOL    HW132669   1.089   4.290  14.838 -0.7251  1.9854 -1.8971
 7011SOL    HW232670   0.983   4.391  14.844  2.1576  1.4585  0.5159
 7012SOL     OW32671   2.479   2.370   9.468 -0.0683 -0.0787  0.3314
 7012SOL    HW132672   2.507   2.419   9.391  3.8808  2.6602  3.5092
 7012SOL    HW232673   2.395   2.345   9.430  0.5775  1.1240 -1.8746
 7013SOL     OW32674   3.384   3.490  16.172 -0.2804  0.5372  0.1713
 7013SOL    HW132675   3.293   3.463  16.155  0.3341 -0.7103 -1.0594
 7013SOL    HW232676   3.431   3.408  16.184 -0.3136  0.7278  1.6972
 7014SOL     OW32677   1.210   0.089   7.878 -0.1289 -0.6349  0.6716
 7014SOL    HW132678   1.259   0.171   7.880  1.0718 -1.3106 -1.0963
 7014SOL    HW232679   1.272   0.017   7.885  0.2073 -0.4601 -0.5844
 7015SOL     OW32680   0.395   0.046   5.050 -0.0153 -0.5040  0.0837
 7015SOL    HW132681   0.373   0.109   5.118  0.3731  0.5131 -0.7439
 7015SOL    HW232682   0.444   4.719   5.103 -1.5082  0.2062  2.3252
 7016SOL     OW32683   1.526   1.824   4.810  0.5044 -0.6274 -0.3808
 7016SOL    HW132684   1.485   1.749   4.851  0.8550 -1.6316 -1.8517
 7016SOL    HW232685   1.555   1.865   4.891 -0.6977 -0.7215  0.0921
 7017SOL     OW32686   2.055   0.435   4.135 -0.5751 -0.1107  0.3021
 7017SOL    HW132687   2.017   0.452   4.049  1.2900  0.1676 -0.4476
 7017SOL    HW232688   2.121   0.502   4.150  0.1166 -0.3944 -1.4477
 7018SOL     OW32689   2.912   1.773   5.655  0.0398  0.2083  0.1051
 7018SOL    HW132690   2.881   1.684   5.671  1.0920 -0.2000 -0.1147
 7018SOL    HW232691   2.965   1.790   5.732 -0.8588  0.5867  0.6391
 7019SOL     OW32692   4.040   0.017  16.688 -0.1853  0.2658 -0.2140
 7019SOL    HW132693   4.060   4.682  16.628 -2.6873  0.4954 -1.3177
 7019SOL    HW232694   3.948   0.015  16.713 -0.6427  0.8728 -1.8957
 7020SOL     OW32695   4.127   2.966  15.950 -0.4054  0.4031  0.1890
 7020SOL    HW132696   4.130   3.013  15.866  1.3173 -0.7982 -0.4153
 7020SOL    HW232697   4.031   2.961  15.952 -0.4697  1.5726 -0.0200
 7021SOL     OW32698   3.314   3.669   2.706  0.0692 -0.2628  0.0327
 7021SOL    HW132699   3.225   3.700   2.689  0.0903  0.2468  0.8456
 7021SOL    HW232700   3.308   3.628   2.793 -2.4994  0.8226  0.3876
 7022SOL     OW32701   2.102   2.484   6.567  0.1716 -0.1598 -0.4632
 7022SOL    HW132702   2.051   2.407   6.541 -0.5390  0.0314  0.3431
 7022SOL    HW232703   2.162   2.461   6.638  0.1412  1.4407  0.0805
 7023SOL     OW32704   0.227   1.597   8.449 -0.1107 -1.3980 -0.9295
 7023SOL    HW132705   0.322   1.602   8.452 -0.0959 -2.2417  0.1417
 7023SOL    HW232706   0.208   1.572   8.359  1.7625 -1.8610 -1.1980
 7024SOL     OW32707   3.589   0.096   5.931  0.0793  0.0445 -0.1069
 7024SOL    HW132708   3.503   0.105   5.973  1.0100  2.7706  1.2521
 7024SOL    HW232709   3.574   0.124   5.841 -2.2876 -1.4097 -0.1599
 7025SOL     OW32710   2.472   1.200   4.986 -0.2990 -0.0129 -0.7271
 7025SOL    HW132711   2.499   1.258   4.915 -0.2629 -0.5365 -1.1415
 7025SOL    HW232712   2.445   1.271   5.044  0.7747 -1.3598  1.4226
 7026SOL     OW32713   3.845   4.392  10.125 -0.3942 -0.1354 -0.1251
 7026SOL    HW132714   3.864   4.450  10.051 -0.1114 -1.6654 -1.2585
 7026SOL    HW232715   3.790   4.320  10.094 -0.1847  0.2161 -1.3263
 7027SOL     OW32716   3.151   0.770   2.206  0.0975 -0.2226  0.0336
 7027SOL    HW132717   3.148   0.710   2.281  1.2787 -0.9025 -0.4579
 7027SOL    HW232718   3.057   0.772   2.192  0.0227  1.4242  0.7991
 7028SOL     OW32719   0.911   2.293   7.274  0.6490  0.3804 -0.2110
 7028SOL    HW132720   0.898   2.263   7.184 -0.8877 -1.6583  0.6843
 7028SOL    HW232721   0.883   2.213   7.320 -1.3748  0.1660 -1.8214
 7029SOL     OW32722   2.482   4.105   3.324 -0.1391  0.0424 -0.3204
 7029SOL    HW132723   2.539   4.173   3.359  0.2459  0.3604 -1.5596
 7029SOL    HW232724   2.549   4.070   3.265  1.1491 -0.4589  1.4414
 7030SOL     OW32725   4.551   0.167   1.728  0.0656  0.5928  0.3690
 7030SOL    HW132726   4.607   0.206   1.795 -1.0800  1.9320  0.5419
 7030SOL    HW232727   4.586   0.079   1.720 -0.3359  0.4719 -0.0285
 7031SOL     OW32728   4.052   0.871   3.565  0.5201 -0.4110  0.3846
 7031SOL    HW132729   4.018   0.961   3.565  0.2379 -0.5156 -0.1500
 7031SOL    HW232730   3.999   0.826   3.500 -2.0506  3.8254 -0.4817
 7032SOL     OW32731   2.583   3.624   3.001  0.7101  0.1247 -0.1393
 7032SOL    HW132732   2.604   3.533   3.023 -0.2230 -0.1941 -0.5832
 7032SOL    HW232733   2.540   3.647   3.083  1.2012 -1.5070  0.5798
 7033SOL     OW32734   1.180   1.895   8.824  0.7713  0.4976 -0.7430
 7033SOL    HW132735   1.111   1.951   8.786  1.2188  1.4055 -0.2255
 7033SOL    HW232736   1.221   1.943   8.896 -0.9132  0.9999 -0.1132
 7034SOL     OW32737   0.438   0.838   3.643 -0.1083 -0.2147  0.2609
 7034SOL    HW132738   0.454   0.914   3.587 -1.5902 -0.5526 -0.6298
 7034SOL    HW232739   0.383   0.879   3.710  0.4039 -0.3372  0.7496
 7035SOL     OW32740   0.926   4.194   5.345 -0.3846 -0.0532  0.0889
 7035SOL    HW132741   0.918   4.131   5.274 -2.8603 -0.5310  0.7726
 7035SOL    HW232742   1.011   4.233   5.327  0.4870 -1.5082  1.0736
 7036SOL     OW32743   4.633   4.371   5.282 -0.2819  0.5782 -0.7267
 7036SOL    HW132744   4.679   4.375   5.198 -0.7057 -1.2202 -1.0500
 7036SOL    HW232745   4.548   4.352   5.243  0.0481 -1.7405 -0.3013
 7037SOL     OW32746   2.476   1.073   9.938 -0.8183  0.6336 -0.0960
 7037SOL    HW132747   2.568   1.050   9.949 -1.3301 -2.3283 -1.7328
 7037SOL    HW232748   2.461   1.134  10.009  1.5590 -0.2823  1.1766
 7038SOL     OW32749   3.853   1.333   7.948 -0.1701  0.4895  0.1035
 7038SOL    HW132750   3.769   1.292   7.971  0.0969 -0.4248 -0.5491
 7038SOL    HW232751   3.890   1.336   8.036 -1.4418 -1.9231  0.7277
 7039SOL     OW32752   3.562   1.395   8.045  0.3844 -0.2520 -0.2822
 7039SOL    HW132753   3.487   1.418   8.100  1.3625  1.2721  0.4134
 7039SOL    HW232754   3.517   1.345   7.977  1.2259  0.4788 -1.3813
 7040SOL     OW32755   2.770   0.474   2.094 -0.3610 -0.4146  0.5031
 7040SOL    HW132756   2.715   0.462   2.017  0.0560 -0.3756  0.2022
 7040SOL    HW232757   2.707   0.433   2.154  0.5129 -0.9161  1.0923
 7041SOL     OW32758   0.919   1.081   2.455 -0.3346  0.0226  0.0117
 7041SOL    HW132759   0.921   1.142   2.529 -2.5553  1.6649 -1.3321
 7041SOL    HW232760   0.938   0.995   2.493 -1.6140 -0.5337 -0.6141
 7042SOL     OW32761   3.266   2.819   1.196  0.8836  0.7379  0.0955
 7042SOL    HW132762   3.241   2.727   1.193  2.0082  0.5484 -3.3652
 7042SOL    HW232763   3.186   2.870   1.202 -0.7791 -1.8304 -0.3151
 7043SOL     OW32764   3.662   4.402  16.477 -0.4782 -0.6301  0.4372
 7043SOL    HW132765   3.638   4.417  16.386 -1.4244 -3.7921  0.1428
 7043SOL    HW232766   3.621   4.476  16.522 -0.4340  0.2631 -0.9771
 7044SOL     OW32767   3.939   1.025   6.832  0.3815  0.5112 -0.4459
 7044SOL    HW132768   3.864   1.026   6.891 -0.8733 -2.5248 -2.0006
 7044SOL    HW232769   3.998   0.969   6.882 -1.2997 -2.4117 -1.7191
 7045SOL     OW32770   1.053   1.503   4.041  0.2006  0.0079 -0.6582
 7045SOL    HW132771   1.058   1.464   4.129 -0.4950  2.0681  0.2802
 7045SOL    HW232772   1.110   1.579   4.054  1.1783 -0.6468 -1.0646
 7046SOL     OW32773   0.173   0.960   2.344 -0.2439 -0.0888 -0.4191
 7046SOL    HW132774   0.247   0.924   2.392 -0.4071 -0.6294 -0.5636
 7046SOL    HW232775   0.140   0.886   2.292 -1.5210  0.4307 -0.3492
 7047SOL     OW32776   1.293   3.138   1.945  0.0653  0.6657  0.1020
 7047SOL    HW132777   1.244   3.216   1.971 -0.8929 -0.5607  1.9806
 7047SOL    HW232778   1.344   3.115   2.023 -1.0273  1.4571  1.0444
 7048SOL     OW32779   3.758   2.120   7.903  0.5542  0.0091 -0.0354
 7048SOL    HW132780   3.722   2.157   7.984  1.2783  1.0623 -0.1936
 7048SOL    HW232781   3.682   2.067   7.879 -0.0528  0.7207  0.3322
 7049SOL     OW32782   1.746   3.933   7.864 -0.6262 -0.0142 -0.1862
 7049SOL    HW132783   1.746   3.842   7.836  2.7896  0.0356 -0.3476
 7049SOL    HW232784   1.768   3.920   7.957 -1.1422 -1.6514 -0.2878
 7050SOL     OW32785   0.715   0.255  12.310 -0.3630  0.4772 -0.1597
 7050SOL    HW132786   0.649   0.260  12.378 -0.7657 -0.4085 -0.4875
 7050SOL    HW232787   0.682   0.181  12.260 -0.2797 -0.1161  0.6660
 7051SOL     OW32788   2.320   0.538  13.592  0.3410  0.0496 -0.1636
 7051SOL    HW132789   2.348   0.613  13.539  0.4805  0.7406  0.8816
 7051SOL    HW232790   2.288   0.483  13.520  0.7768  1.2224 -1.2456
 7052SOL     OW32791   4.212   3.873   6.765  0.5478 -0.2621  0.0951
 7052SOL    HW132792   4.154   3.859   6.840 -1.0222  1.5179 -0.7715
 7052SOL    HW232793   4.153   3.852   6.692 -0.2933 -0.8453  0.9448
 7053SOL     OW32794   1.815   2.788   9.142 -0.0580 -0.7526 -0.0993
 7053SOL    HW132795   1.868   2.796   9.222  0.6992 -1.3071 -0.5462
 7053SOL    HW232796   1.846   2.707   9.102 -1.0004 -0.9572 -0.4014
 7054SOL     OW32797   3.395   2.305   2.334  0.2690  0.3298 -0.4360
 7054SOL    HW132798   3.383   2.374   2.269  0.0096 -0.4075 -1.1635
 7054SOL    HW232799   3.419   2.234   2.274 -0.6373 -0.8976  0.6629
 7055SOL     OW32800   1.797   4.344   5.202 -0.0453  0.0554  0.3631
 7055SOL    HW132801   1.716   4.342   5.253 -0.1949 -1.3471  0.0577
 7055SOL    HW232802   1.829   4.426   5.240 -0.2864  1.2062 -1.9185
 7056SOL     OW32803   1.139   0.410   5.166 -0.0254 -0.1231  0.0012
 7056SOL    HW132804   1.142   0.320   5.197  0.2615  0.5558  1.9052
 7056SOL    HW232805   1.170   0.404   5.075  0.9288  0.7327  0.2690
 7057SOL     OW32806   2.296   4.301   4.680  0.5932  0.7083  0.0953
 7057SOL    HW132807   2.322   4.383   4.721  2.8436 -0.9771  2.0821
 7057SOL    HW232808   2.317   4.230   4.741  1.3071  0.2269 -0.7089
 7058SOL     OW32809   1.617   3.663   4.804  0.2740 -0.4402  0.0824
 7058SOL    HW132810   1.577   3.749   4.794  3.2017  0.6968 -1.6955
 7058SOL    HW232811   1.655   3.649   4.718 -1.2546 -0.7754 -0.5279
 7059SOL     OW32812   4.272   0.333   9.328  0.0050 -0.7938 -0.4664
 7059SOL    HW132813   4.253   0.317   9.236 -0.5439 -0.4731 -0.4064
 7059SOL    HW232814   4.240   0.252   9.368 -2.8090  0.8040  0.5340
 7060SOL     OW32815   3.451   2.217   6.515  0.5727  0.1769  0.4686
 7060SOL    HW132816   3.514   2.285   6.535  0.7830  0.2280 -0.3702
 7060SOL    HW232817   3.488   2.134   6.546  0.9344  0.9550  2.1146
 7061SOL     OW32818   3.797   2.783   8.402 -0.2649  0.3124 -0.1875
 7061SOL    HW132819   3.758   2.709   8.448  1.0307  0.2045  0.7424
 7061SOL    HW232820   3.868   2.736   8.357  1.0564 -0.9483  3.2382
 7062SOL     OW32821   4.590   3.069   1.068 -0.0157 -0.7379  0.4808
 7062SOL    HW132822   4.624   3.115   1.145  1.0484 -0.8773  0.0944
 7062SOL    HW232823   4.659   3.008   1.044 -1.3296 -2.4654  1.1483
 7063SOL     OW32824   4.248   3.114   1.246  0.3677  0.0524 -0.4160
 7063SOL    HW132825   4.162   3.115   1.289 -0.6386 -0.2339 -2.3860
 7063SOL    HW232826   4.250   3.022   1.221  1.0524 -0.2907  0.9333
 7064SOL     OW32827   2.925   4.502   9.207 -0.9956 -0.2071  0.1961
 7064SOL    HW132828   2.937   4.414   9.172  0.0082 -0.5221  1.3495
 7064SOL    HW232829   2.846   4.529   9.159 -0.5304  0.6593 -0.0844
 7065SOL     OW32830   1.694   0.826   1.423  0.1274  0.0752 -0.0751
 7065SOL    HW132831   1.771   0.770   1.425  0.0316 -0.1697 -2.8249
 7065SOL    HW232832   1.655   0.809   1.337 -2.9528 -1.1479  1.5662
 7066SOL     OW32833   2.176   4.426   9.291  0.0127 -0.5675 -0.4971
 7066SOL    HW132834   2.155   4.520   9.293  0.0554 -0.6201  2.6205
 7066SOL    HW232835   2.245   4.410   9.227  2.1456  0.2665  1.5981
 7067SOL     OW32836   1.181   4.484   4.780 -0.7771  0.1192 -0.3994
 7067SOL    HW132837   1.104   4.499   4.835  0.5243 -2.2299  2.0121
 7067SOL    HW232838   1.247   4.474   4.848 -1.1783  0.5465  0.0549
 7068SOL     OW32839   4.629   3.418  17.306 -0.4662  0.0586 -0.1141
 7068SOL    HW132840   4.706   3.451  17.260 -1.0649  0.4437 -0.8353
 7068SOL    HW232841   4.569   3.492  17.299 -2.0877 -1.1423  1.1268
 7069SOL     OW32842   0.745   3.410   4.773  0.3974 -0.3825 -0.0821
 7069SOL    HW132843   0.765   3.472   4.703  2.6211 -1.5215 -0.4678
 7069SOL    HW232844   0.834   3.405   4.809  0.2690 -0.9533  0.1515
 7070SOL     OW32845   2.085   1.906   1.403 -0.7119  0.1460  0.0275
 7070SOL    HW132846   2.096   1.967   1.475  2.4839  0.8689 -1.0495
 7070SOL    HW232847   1.990   1.890   1.406 -0.9778  1.4724 -1.3497
 7071SOL     OW32848   2.295   1.950   5.234  0.0476 -0.5966  0.5187
 7071SOL    HW132849   2.338   1.896   5.167  2.4036  2.7169 -0.6960
 7071SOL    HW232850   2.348   1.935   5.313  0.0907  1.1498  0.8313
 7072SOL     OW32851   3.187   3.486  16.524  0.2479 -0.0065 -0.1921
 7072SOL    HW132852   3.121   3.501  16.591  0.6799  0.3056  0.1650
 7072SOL    HW232853   3.167   3.556  16.461  1.6196 -1.1860 -1.9686
 7073SOL     OW32854   2.157   3.165   3.075  0.1516 -0.1869  0.2388
 7073SOL    HW132855   2.214   3.242   3.077 -0.1222  0.0475 -0.7457
 7073SOL    HW232856   2.155   3.128   2.986  1.4344 -0.9417  0.5228
 7074SOL     OW32857   1.789   3.407   7.833  0.3065  0.2082 -0.5904
 7074SOL    HW132858   1.832   3.374   7.912 -2.0066  0.1632  0.6570
 7074SOL    HW232859   1.852   3.386   7.764  0.9190  1.8225 -0.5135
 7075SOL     OW32860   2.483   0.462   3.287  0.4561  0.3803 -0.2474
 7075SOL    HW132861   2.491   0.522   3.361  0.5988  0.7687 -0.5769
 7075SOL    HW232862   2.544   0.392   3.310  0.1707 -0.8438 -3.2462
 7076SOL     OW32863   2.000   3.424   4.619 -0.1936 -0.5051  0.1348
 7076SOL    HW132864   2.063   3.457   4.683 -0.0305  2.9400 -1.7995
 7076SOL    HW232865   2.042   3.345   4.585  2.3279  1.5318 -1.4603
 7077SOL     OW32866   0.785   2.543   5.006 -0.0744  0.0232  0.0363
 7077SOL    HW132867   0.761   2.616   5.063  0.5332 -0.1296  0.4944
 7077SOL    HW232868   0.767   2.578   4.919  0.4388 -1.4543 -0.6721
 7078SOL     OW32869   2.052   2.910   5.245 -0.0596 -0.6973 -0.1063
 7078SOL    HW132870   2.036   2.963   5.167 -1.0531  0.8368  1.1469
 7078SOL    HW232871   1.963   2.891   5.275 -0.6490  3.0966  0.5466
 7079SOL     OW32872   1.075   2.056   5.364  0.3715 -0.2861  0.0092
 7079SOL    HW132873   1.084   2.114   5.289  3.0073  0.5317  0.9477
 7079SOL    HW232874   0.992   2.092   5.395 -0.0256 -1.2794  0.1081
 7080SOL     OW32875   4.718   0.042   2.364  0.2490 -0.5323 -0.4684
 7080SOL    HW132876   4.727   0.050   2.459  3.0440  4.1638 -1.1134
 7080SOL    HW232877   4.632   0.001   2.358 -0.4128  1.2614 -3.0952
 7081SOL     OW32878   0.966   0.383   1.923  0.5200 -0.3097 -0.0567
 7081SOL    HW132879   1.020   0.362   1.998 -0.7321  1.0953  1.2556
 7081SOL    HW232880   0.929   0.296   1.906 -0.6285 -0.0495  1.1183
 7082SOL     OW32881   1.705   0.381  10.188  0.2167  0.2961 -0.4352
 7082SOL    HW132882   1.630   0.383  10.129 -0.0214 -1.9502 -0.2266
 7082SOL    HW232883   1.729   0.473  10.193  2.7227 -0.4459  1.2837
 7083SOL     OW32884   2.201   0.001  12.485  0.3641  0.0885  0.4535
 7083SOL    HW132885   2.234   0.015  12.574  0.5982  2.8667 -0.0627
 7083SOL    HW232886   2.277   4.699  12.440  1.3677  1.3894  1.0387
 7084SOL     OW32887   1.061   2.552  16.528 -0.2309  0.0054 -0.8587
 7084SOL    HW132888   1.148   2.550  16.567 -0.2202  0.3359 -0.8622
 7084SOL    HW232889   1.029   2.462  16.539  2.1858 -0.6218  0.8334
 7085SOL     OW32890   4.597   1.146   2.596  0.1453  0.3174 -0.1749
 7085SOL    HW132891   4.658   1.185   2.533  0.5765  1.0633  0.7097
 7085SOL    HW232892   4.545   1.094   2.534  0.1538  1.8877 -1.5270
 7086SOL     OW32893   3.921   2.969   4.546 -0.2173  0.1511 -0.4948
 7086SOL    HW132894   3.956   2.950   4.459  1.3065  1.0657 -0.0740
 7086SOL    HW232895   3.929   2.885   4.591 -0.2707  0.6210  0.3938
 7087SOL     OW32896   3.921   0.848   2.193  0.2778 -0.0316  0.0756
 7087SOL    HW132897   3.940   0.766   2.238 -1.5057  0.3264  1.4697
 7087SOL    HW232898   4.001   0.859   2.143  1.8296  0.1966  2.6262
 7088SOL     OW32899   0.647   4.613   4.466  0.0072 -0.1711  0.3643
 7088SOL    HW132900   0.557   4.587   4.484  0.4836 -0.1683  2.7010
 7088SOL    HW232901   0.641   4.708   4.463  1.4427 -0.0657  0.7757
 7089SOL     OW32902   4.576   1.979   8.181 -0.0306 -0.2355  0.5108
 7089SOL    HW132903   4.510   1.911   8.192 -1.2515  0.8758  0.1796
 7089SOL    HW232904   4.641   1.922   8.221 -1.4667 -0.6524  2.2429
 7090SOL     OW32905   3.543   3.957  16.624 -0.0300  0.2067 -0.0587
 7090SOL    HW132906   3.621   3.902  16.629  0.7590  1.0985 -2.5929
 7090SOL    HW232907   3.547   3.979  16.531 -1.4657 -0.2912 -0.2379
 7091SOL     OW32908   1.627   0.261   3.338  0.7802  0.1155  0.6828
 7091SOL    HW132909   1.690   0.331   3.355  1.5739 -0.0031 -1.8376
 7091SOL    HW232910   1.540   0.301   3.337  0.5457 -0.4111  0.1294
 7092SOL     OW32911   2.766   1.986  13.326 -0.5086  0.8245 -0.5109
 7092SOL    HW132912   2.846   2.008  13.374 -1.0851  0.1717  0.7310
 7092SOL    HW232913   2.793   1.969  13.235 -1.2520 -1.5055 -0.3056
 7093SOL     OW32914   1.425   4.514  12.783 -0.2725 -0.1549 -0.0834
 7093SOL    HW132915   1.334   4.541  12.772  0.4685  1.8518 -1.1995
 7093SOL    HW232916   1.462   4.525  12.696  1.3490 -0.8626  0.5102
 7094SOL     OW32917   0.570   3.624   9.192  0.0921 -0.1985 -0.0736
 7094SOL    HW132918   0.659   3.625   9.157 -0.4675 -0.2490 -1.4774
 7094SOL    HW232919   0.531   3.541   9.163 -2.4175  0.7808  0.5112
 7095SOL     OW32920   2.195   3.628   9.547  0.1743  0.0324 -0.3978
 7095SOL    HW132921   2.134   3.701   9.542 -0.5514 -0.6352 -1.5238
 7095SOL    HW232922   2.276   3.679   9.543 -0.5742  1.2665  0.4667
 7096SOL     OW32923   0.592   3.580   8.419 -0.0077 -0.2567 -0.2850
 7096SOL    HW132924   0.650   3.616   8.486  1.2190 -1.2414 -0.8357
 7096SOL    HW232925   0.509   3.573   8.466 -0.0344 -2.0295 -0.6076
 7097SOL     OW32926   3.255   3.325   3.108  0.1149  0.4575  0.1278
 7097SOL    HW132927   3.201   3.271   3.050 -1.9283  0.0336  2.4218
 7097SOL    HW232928   3.308   3.264   3.158  0.7156 -0.4564 -1.6298
 7098SOL     OW32929   4.606   1.928   5.935  0.0412 -0.3929  0.0355
 7098SOL    HW132930   4.679   1.952   5.991  1.7072 -0.1516 -2.2623
 7098SOL    HW232931   4.533   1.977   5.971  0.1107 -1.1251  1.1681
 7099SOL     OW32932   1.503   3.494   4.974  0.0953  0.6888  0.4178
 7099SOL    HW132933   1.570   3.498   5.041 -2.2617 -0.4748  2.8403
 7099SOL    HW232934   1.560   3.533   4.908 -0.0774 -0.1198 -0.2235
 7100SOL     OW32935   2.507   0.581  13.180  0.1696 -0.1234  0.1422
 7100SOL    HW132936   2.530   0.488  13.177 -1.3913 -0.5603  2.1684
 7100SOL    HW232937   2.588   0.631  13.192  0.3331 -0.3121 -0.1623
 7101SOL     OW32938   2.722   1.339   8.538 -0.3112 -0.4254 -0.1904
 7101SOL    HW132939   2.814   1.362   8.552  0.0160 -1.7353 -0.1690
 7101SOL    HW232940   2.718   1.368   8.446 -1.9683  3.4891  1.1015
 7102SOL     OW32941   0.258   2.405   6.110 -0.7825 -0.3617  0.0631
 7102SOL    HW132942   0.172   2.417   6.151 -0.3409  0.0661  0.8744
 7102SOL    HW232943   0.305   2.451   6.180  1.0927 -2.5381  0.2385
 7103SOL     OW32944   1.629   4.501   9.262  0.0114 -0.0597 -0.2079
 7103SOL    HW132945   1.574   4.487   9.339 -0.6118  0.2122 -0.5978
 7103SOL    HW232946   1.657   4.592   9.259  0.0215 -0.0999 -1.3532
 7104SOL     OW32947   2.060   1.500  11.057 -0.1607  0.8377 -0.0045
 7104SOL    HW132948   1.994   1.447  11.012 -2.7341  0.1451  4.6160
 7104SOL    HW232949   2.109   1.430  11.102 -1.1407  0.2528  0.1625
 7105SOL     OW32950   1.559   1.067   5.132 -0.3568  0.0770 -0.1423
 7105SOL    HW132951   1.555   0.997   5.197  0.3422 -0.8093 -1.0711
 7105SOL    HW232952   1.614   1.017   5.072 -0.3107 -0.7137  0.5594
 7106SOL     OW32953   0.005   1.640   6.592  0.4164 -0.0586 -0.1039
 7106SOL    HW132954   0.081   1.619   6.538  0.4021  0.6924 -0.4143
 7106SOL    HW232955   4.724   1.734   6.588 -1.0364 -0.3059  0.3338
 7107SOL     OW32956   2.228   0.186  16.320 -0.6659  1.0566 -0.0580
 7107SOL    HW132957   2.205   0.158  16.409 -0.7492 -0.1227 -0.4513
 7107SOL    HW232958   2.204   0.279  16.318  0.5432  1.3674  0.0724
 7108SOL     OW32959   2.195   3.856  14.794 -0.1337  0.0635 -0.3631
 7108SOL    HW132960   2.253   3.900  14.856  1.0004 -2.0024  0.0190
 7108SOL    HW232961   2.256   3.872  14.722 -1.3310  0.5683 -1.2745
 7109SOL     OW32962   2.433   0.391  11.992 -0.1395 -0.0722 -0.4674
 7109SOL    HW132963   2.529   0.385  11.994 -0.2078  0.2849  3.3819
 7109SOL    HW232964   2.415   0.376  11.899  1.7998 -3.5487 -0.2829
 7110SOL     OW32965   4.565   2.244  12.943  0.5406  0.0682  0.4639
 7110SOL    HW132966   4.481   2.265  12.902  0.6033 -0.9709 -0.1719
 7110SOL    HW232967   4.629   2.253  12.873  3.1373 -0.6765  2.7267
 7111SOL     OW32968   2.996   0.429   2.929  0.2836 -0.4681  0.0301
 7111SOL    HW132969   3.090   0.437   2.914  0.6654 -1.6617  1.7056
 7111SOL    HW232970   2.959   0.504   2.883 -1.1473  0.0178  1.9679
 7112SOL     OW32971   2.726   1.189   1.483 -0.2098  0.3291 -0.6258
 7112SOL    HW132972   2.679   1.189   1.566  3.6817 -0.4365  1.5779
 7112SOL    HW232973   2.709   1.282   1.468 -0.0827  0.1143 -2.1010
 7113SOL     OW32974   0.767   0.890   3.930 -0.4477  0.2901  0.5345
 7113SOL    HW132975   0.731   0.867   4.016 -0.2594 -1.3481  0.1690
 7113SOL    HW232976   0.711   0.838   3.873  2.9157 -1.7308 -0.9359
 7114SOL     OW32977   1.632   0.796   8.654 -0.4847 -0.0415 -0.3291
 7114SOL    HW132978   1.592   0.830   8.734  0.6623 -0.1792  0.3058
 7114SOL    HW232979   1.692   0.865   8.627  2.6924 -1.7142  2.4748
 7115SOL     OW32980   4.258   2.293  14.529  0.0104  0.3758 -0.5510
 7115SOL    HW132981   4.266   2.310  14.435 -1.4196  3.1614 -0.1755
 7115SOL    HW232982   4.245   2.199  14.520 -2.4951  0.9179 -2.6192
 7116SOL     OW32983   3.661   0.877  10.996 -0.6490  0.2420  0.2051
 7116SOL    HW132984   3.742   0.826  10.996  1.1490  3.1044 -1.0472
 7116SOL    HW232985   3.638   0.873  11.089  1.6237  0.5864  0.7706
 7117SOL     OW32986   3.968   3.182  14.669  0.1637  0.0598  0.4612
 7117SOL    HW132987   4.020   3.249  14.626 -0.3612  0.4376  0.4081
 7117SOL    HW232988   3.885   3.230  14.677  0.1293  0.0335  0.2558
 7118SOL     OW32989   2.182   3.986   7.784 -0.4624  0.0847  0.4960
 7118SOL    HW132990   2.148   4.042   7.714  0.7295  1.3894  0.9608
 7118SOL    HW232991   2.135   3.907   7.759  2.8111 -1.3404 -1.2525
 7119SOL     OW32992   4.590   4.472   0.892  0.0641 -0.2108 -0.4973
 7119SOL    HW132993   4.553   4.393   0.934  1.0103 -0.3730  0.0304
 7119SOL    HW232994   4.559   4.452   0.804 -0.0119  1.8278 -0.9121
 7120SOL     OW32995   0.132   1.604  12.840 -1.0034  0.4139  0.3954
 7120SOL    HW132996   0.053   1.589  12.788 -0.4170  3.0931 -1.2442
 7120SOL    HW232997   0.168   1.515  12.839  1.3859  1.3860  0.0195
 7121SOL     OW32998   0.155   1.070   0.074 -0.1121  0.4134  0.0860
 7121SOL    HW132999   0.121   1.079  17.728  1.0522  2.6705 -0.1372
 7121SOL    HW233000   0.164   1.157   0.113 -2.6586  0.1531  1.2416
 7122SOL     OW33001   2.228   3.338   7.668  0.3737  0.3115 -0.0256
 7122SOL    HW133002   2.279   3.321   7.588  0.9226 -2.8881  0.9623
 7122SOL    HW233003   2.282   3.404   7.711 -0.3929 -0.5537  2.3199
 7123SOL     OW33004   3.566   1.959   6.558  0.0428  0.7036 -0.0662
 7123SOL    HW133005   3.645   1.973   6.611  0.7009 -0.6329 -0.7099
 7123SOL    HW233006   3.602   1.900   6.491  0.4141 -0.5719  1.2511
 7124SOL     OW33007   1.549   4.192  17.048 -0.0385  0.1395 -0.6499
 7124SOL    HW133008   1.576   4.126  16.984 -0.1682  0.2125 -0.7792
 7124SOL    HW233009   1.463   4.155  17.068  0.6742 -0.7894  0.7207
 7125SOL     OW33010   4.081   0.441   3.365  0.6184  0.0145  0.0373
 7125SOL    HW133011   4.100   0.504   3.295 -3.0348  1.4586  0.3384
 7125SOL    HW233012   4.149   0.473   3.425  1.2431  1.7922 -1.6158
 7126SOL     OW33013   0.371   4.373  14.661 -0.2189  0.3815 -0.0384
 7126SOL    HW133014   0.448   4.331  14.623  0.7340  1.5317  0.5948
 7126SOL    HW233015   0.313   4.396  14.588  0.0285  0.1871 -0.2956
 7127SOL     OW33016   1.418   2.978  11.017  0.4950  0.0442 -0.1632
 7127SOL    HW133017   1.369   3.044  10.969  0.8104  0.9051  0.7009
 7127SOL    HW233018   1.444   3.025  11.097  2.4270 -0.3879 -0.5332
 7128SOL     OW33019   0.328   1.316   9.314  0.0352  0.0988 -0.4151
 7128SOL    HW133020   0.368   1.282   9.234  1.6240  0.8485  0.0517
 7128SOL    HW233021   0.237   1.288   9.305  0.2022 -1.0109  1.4849
 7129SOL     OW33022   1.262   2.265   1.057  0.0766 -0.3233  0.2288
 7129SOL    HW133023   1.332   2.204   1.035  0.6021  0.2322  0.3723
 7129SOL    HW233024   1.277   2.336   0.994 -1.9376 -1.5264 -1.6330
 7130SOL     OW33025   0.045   2.054   6.125 -0.4332  0.2975 -0.1475
 7130SOL    HW133026   0.110   2.064   6.195  0.2609 -1.2384 -0.5506
 7130SOL    HW233027   0.079   2.115   6.060 -0.1085  0.0579 -0.2067
 7131SOL     OW33028   3.508   1.620   5.936 -0.3239 -0.3795  0.0177
 7131SOL    HW133029   3.421   1.615   5.895  0.4082 -0.2435 -1.5863
 7131SOL    HW233030   3.563   1.561   5.885 -0.2184 -0.7854  0.6132
 7132SOL     OW33031   0.252   1.377  14.794 -0.2386  0.3171 -0.4233
 7132SOL    HW133032   0.318   1.317  14.829  0.3378  0.6998 -0.8751
 7132SOL    HW233033   0.168   1.346  14.829  0.7528  0.0216  1.7170
 7133SOL     OW33034   3.713   1.034   5.409  0.0756 -0.5744  0.1877
 7133SOL    HW133035   3.695   0.992   5.493 -0.9114  0.0764  0.3006
 7133SOL    HW233036   3.765   0.970   5.361 -0.7277  0.9441 -2.7218
 7134SOL     OW33037   2.042   0.124   0.842  0.1487  0.1968 -0.0553
 7134SOL    HW133038   2.134   0.126   0.813  0.4703  0.9784  1.0189
 7134SOL    HW233039   2.038   0.029   0.844  0.9522  0.1618 -0.0274
 7135SOL     OW33040   4.139   4.237   6.973  0.6309  0.2497  0.8439
 7135SOL    HW133041   4.162   4.223   7.064  0.8259 -0.7589  0.6377
 7135SOL    HW233042   4.215   4.203   6.926  1.5380  0.8645  1.8781
 7136SOL     OW33043   0.777   2.036   4.059  0.5174  0.4154  0.4299
 7136SOL    HW133044   0.800   2.119   4.017 -1.6616  0.6891 -0.2706
 7136SOL    HW233045   0.777   1.981   3.980 -0.2868  1.1141 -0.0607
 7137SOL     OW33046   4.513   1.229   5.981  0.1328  1.1542  0.3336
 7137SOL    HW133047   4.497   1.281   5.902 -3.9854 -1.7453 -0.7305
 7137SOL    HW233048   4.608   1.233   5.987  0.1406  1.8354 -0.2194
 7138SOL     OW33049   1.868   4.394   9.168  0.0645  0.0590  0.5758
 7138SOL    HW133050   1.930   4.456   9.206  1.1022  0.0584 -1.1534
 7138SOL    HW233051   1.784   4.431   9.196  1.3273  1.1660  2.8884
 7139SOL     OW33052   0.669   1.311   1.850 -0.1028  0.3926  0.0939
 7139SOL    HW133053   0.611   1.325   1.924  0.2914 -0.1244  0.4980
 7139SOL    HW233054   0.686   1.401   1.821 -2.8511  0.4759 -1.1997
 7140SOL     OW33055   4.070   4.278   4.404 -0.3053 -0.5735  0.0754
 7140SOL    HW133056   4.012   4.227   4.347 -0.1192  0.2196 -0.8272
 7140SOL    HW233057   4.078   4.215   4.475 -0.6404  2.0533  2.4366
 7141SOL     OW33058   1.373   1.715  16.376  0.4985  0.0063 -0.7604
 7141SOL    HW133059   1.382   1.690  16.284  0.0114  0.2036 -0.8603
 7141SOL    HW233060   1.333   1.642  16.423 -2.3290  1.5929 -0.6905
 7142SOL     OW33061   2.564   2.407  10.972 -0.2557  0.2153  0.5439
 7142SOL    HW133062   2.534   2.473  11.035 -2.3352  0.2192 -0.4480
 7142SOL    HW233063   2.542   2.451  10.890  0.7382  0.6701  0.5230
 7143SOL     OW33064   1.677   4.185   1.753  0.3891 -0.0838  0.3669
 7143SOL    HW133065   1.629   4.108   1.783  0.4917 -0.3303 -0.1035
 7143SOL    HW233066   1.740   4.150   1.690 -0.6464 -0.2646 -0.5614
 7144SOL     OW33067   3.855   0.003  11.438  0.2371  0.0981 -0.1568
 7144SOL    HW133068   3.874   0.015  11.531 -0.8690 -0.2239  0.1103
 7144SOL    HW233069   3.760   0.000  11.449  0.1788 -1.1065 -0.9674
 7145SOL     OW33070   0.040   2.717   2.390  0.0970 -0.3842  0.5068
 7145SOL    HW133071   0.099   2.648   2.361  1.8402  1.5220 -0.5402
 7145SOL    HW233072   4.733   2.735   2.307  1.1109 -0.2382  0.0172
 7146SOL     OW33073   1.900   2.123   3.449 -0.7103 -0.2049  0.2550
 7146SOL    HW133074   1.823   2.180   3.443  0.9501  2.2285  1.6535
 7146SOL    HW233075   1.956   2.169   3.385 -1.6680  1.4173  0.5772
 7147SOL     OW33076   1.874   3.834   4.717 -0.1108 -0.5282  0.4870
 7147SOL    HW133077   1.960   3.793   4.722  0.7107  1.1215 -0.0785
 7147SOL    HW233078   1.864   3.852   4.624  2.5189 -2.1196 -0.0962
 7148SOL     OW33079   0.921   0.963   4.603 -0.2720 -0.5874 -0.4993
 7148SOL    HW133080   0.963   0.947   4.519 -0.5843 -0.1172 -0.7454
 7148SOL    HW233081   0.993   0.994   4.657 -1.2444 -0.4383  0.7366
 7149SOL     OW33082   3.167   1.047  14.263  0.1685 -0.2523 -0.0891
 7149SOL    HW133083   3.166   1.078  14.353 -1.7528 -0.7209  0.0485
 7149SOL    HW233084   3.084   1.083  14.233  0.8546 -0.0928 -1.8040
 7150SOL     OW33085   3.285   0.871   3.265  0.0957 -0.0102  0.0102
 7150SOL    HW133086   3.370   0.872   3.310  0.2143 -3.1781 -0.1850
 7150SOL    HW233087   3.232   0.926   3.323 -0.5318  0.8250 -1.3501
 7151SOL     OW33088   4.722   2.491   8.383 -0.7311 -0.2073 -0.7553
 7151SOL    HW133089   4.701   2.584   8.375  1.9720  0.3923 -1.0767
 7151SOL    HW233090   4.693   2.467   8.471  2.1266  0.5387  0.4137
 7152SOL     OW33091   0.272   0.258  11.145  0.3169 -0.0436  0.1043
 7152SOL    HW133092   0.319   0.211  11.214  0.8042  1.7964  1.0599
 7152SOL    HW233093   0.311   0.216  11.069  0.7617  1.3619 -0.4535
 7153SOL     OW33094   4.095   0.891  10.661 -0.4329  0.1294  0.1661
 7153SOL    HW133095   4.180   0.888  10.704 -0.0629 -0.6857 -0.6143
 7153SOL    HW233096   4.089   0.984  10.640 -1.9205  0.3426  1.4922
 7154SOL     OW33097   3.740   2.875   0.027 -0.2913 -0.5411 -0.8853
 7154SOL    HW133098   3.808   2.935   0.056 -3.0888  1.6756  1.1510
 7154SOL    HW233099   3.767   2.790   0.062  1.5255 -0.1358 -1.3269
 7155SOL     OW33100   4.287   3.260   5.338  0.3338  0.2664  0.4626
 7155SOL    HW133101   4.254   3.341   5.378 -0.1283  0.1641  0.2882
 7155SOL    HW233102   4.378   3.290   5.347  0.3067 -0.1682  2.2348
 7156SOL     OW33103   4.448   1.945  12.236  0.3700  0.4362 -0.5215
 7156SOL    HW133104   4.490   1.927  12.320  0.5168 -1.5814 -1.0180
 7156SOL    HW233105   4.359   1.946  12.271  0.4054 -2.1709 -0.3566
 7157SOL     OW33106   0.191   4.468  12.717  0.1239 -0.4067  0.6808
 7157SOL    HW133107   0.256   4.485  12.786  0.1979 -1.1665  0.8037
 7157SOL    HW233108   0.147   4.393  12.757 -0.1683  0.4742  2.0051
 7158SOL     OW33109   0.522   1.910   6.268  0.1193 -0.2601  0.2104
 7158SOL    HW133110   0.485   1.967   6.335  0.4736  1.6284 -1.1936
 7158SOL    HW233111   0.478   1.952   6.194  0.0956  1.9692  1.5168
 7159SOL     OW33112   4.169   3.182  13.041 -0.4012 -0.1121  0.6397
 7159SOL    HW133113   4.168   3.277  13.030  6.0875 -0.1096  0.0473
 7159SOL    HW233114   4.229   3.167  13.114 -2.1844  0.5158  2.2309
 7160SOL     OW33115   0.732   4.618   6.062 -0.0651 -0.0351  0.2768
 7160SOL    HW133116   0.802   4.582   6.116 -1.2681 -1.0452  1.1701
 7160SOL    HW233117   0.719   4.552   5.993  1.3967 -0.7349  0.6602
 7161SOL     OW33118   4.599   0.930  15.711  0.5133 -0.3114  0.1221
 7161SOL    HW133119   4.527   0.969  15.662  2.2573  0.6799 -1.6436
 7161SOL    HW233120   4.673   0.963  15.660 -0.9967  3.4387  0.3552
 7162SOL     OW33121   1.172   1.446   9.223  0.4622  0.2480  0.7269
 7162SOL    HW133122   1.194   1.397   9.144  0.4782  0.8934  0.3359
 7162SOL    HW233123   1.128   1.522   9.186  0.0310 -0.2748  0.1626
 7163SOL     OW33124   0.781   2.252   8.022 -0.4223  0.1612 -0.3370
 7163SOL    HW133125   0.747   2.334   7.987 -1.1081 -0.3255 -0.8121
 7163SOL    HW233126   0.875   2.264   8.034 -0.6077  2.1838 -0.9503
 7164SOL     OW33127   3.593   3.035   2.364 -0.0553  0.1394 -0.0982
 7164SOL    HW133128   3.685   3.025   2.338 -0.3131  0.5942 -1.1728
 7164SOL    HW233129   3.600   3.106   2.428  0.3806 -1.1864  1.3348
 7165SOL     OW33130   1.542   2.315   2.868 -0.0100 -0.4808 -0.2119
 7165SOL    HW133131   1.477   2.276   2.810  0.4678  0.5866 -1.4845
 7165SOL    HW233132   1.527   2.407   2.844 -1.7604 -1.1986 -1.8535
 7166SOL     OW33133   3.389   2.969   5.053 -0.1147 -0.1241  0.5419
 7166SOL    HW133134   3.456   2.970   5.121  0.2694  0.7812  0.1546
 7166SOL    HW233135   3.412   2.886   5.010  0.0349  1.4279 -2.4064
 7167SOL     OW33136   3.758   4.551   7.263  0.1772 -0.1924 -0.0917
 7167SOL    HW133137   3.831   4.503   7.224 -0.5999 -0.6167 -1.0368
 7167SOL    HW233138   3.763   4.515   7.351 -0.6312 -1.2756 -0.4796
 7168SOL     OW33139   0.602   3.296  14.861 -0.1984 -0.5827 -0.1775
 7168SOL    HW133140   0.512   3.314  14.834  0.1615  0.8953 -0.3446
 7168SOL    HW233141   0.655   3.310  14.783  0.7166 -0.9307  0.3803
 7169SOL     OW33142   3.791   3.696   3.416  0.1821  0.0801  0.4550
 7169SOL    HW133143   3.707   3.652   3.428  0.3399 -0.2165  0.4528
 7169SOL    HW233144   3.844   3.630   3.373  1.2730  0.2157  1.5673
 7170SOL     OW33145   2.772   2.985   4.671  0.5346 -0.0780 -0.0207
 7170SOL    HW133146   2.843   2.941   4.624 -0.0031  0.0938 -1.0171
 7170SOL    HW233147   2.749   3.049   4.603 -0.8333  0.2143  0.7139
 7171SOL     OW33148   2.679   0.013   2.096  0.2113  0.0605  0.3944
 7171SOL    HW133149   2.720   0.017   2.010 -0.4677  3.7090  0.2481
 7171SOL    HW233150   2.755   0.012   2.155 -0.0784  1.9369  0.8045
 7172SOL     OW33151   2.458   1.637   8.579 -0.0143 -0.1455  0.1583
 7172SOL    HW133152   2.520   1.649   8.507 -0.2121  1.7350  0.2899
 7172SOL    HW233153   2.431   1.726   8.600  0.1879 -0.0431 -0.0206
 7173SOL     OW33154   1.940   0.097   7.484 -0.8442  0.0713  0.6929
 7173SOL    HW133155   1.868   0.052   7.441 -2.6749  1.7497  1.9722
 7173SOL    HW233156   1.990   0.020   7.509 -1.3500 -0.3323  0.4624
 7174SOL     OW33157   3.106   3.802   9.042 -0.3623 -0.3055 -0.4479
 7174SOL    HW133158   3.026   3.786   8.992  0.1447 -0.0508 -1.3402
 7174SOL    HW233159   3.132   3.885   9.003 -2.2641  0.7459  0.5203
 7175SOL     OW33160   1.267   1.364  16.878 -0.2375  0.8288 -0.5477
 7175SOL    HW133161   1.359   1.339  16.868 -0.5425 -0.2413 -0.7272
 7175SOL    HW233162   1.263   1.371  16.973 -0.0187  1.2284 -0.5698
 7176SOL     OW33163   1.901   2.383  16.346  0.2506 -0.4129 -0.0059
 7176SOL    HW133164   1.924   2.291  16.355 -0.1125 -0.3392  1.6760
 7176SOL    HW233165   1.809   2.377  16.319  0.3912 -1.0950 -0.3311
 7177SOL     OW33166   3.896   1.513  15.523 -0.1713  0.5828 -0.5178
 7177SOL    HW133167   3.814   1.488  15.481  0.9128 -0.7235 -1.8661
 7177SOL    HW233168   3.915   1.592  15.472 -1.5066  1.3860  0.2341
 7178SOL     OW33169   4.164   3.908   4.854 -0.2445  0.1794  0.2462
 7178SOL    HW133170   4.181   3.819   4.825 -1.1376 -0.0931  0.5564
 7178SOL    HW233171   4.105   3.888   4.927  0.2808  1.1505  0.9491
 7179SOL     OW33172   3.118   0.326   2.208  0.3109 -0.5499 -0.1744
 7179SOL    HW133173   3.178   0.252   2.197  0.4764 -0.6572  1.3812
 7179SOL    HW233174   3.119   0.354   2.116  0.4886 -5.0638 -1.5399
 7180SOL     OW33175   2.697   3.968   3.215 -0.2238 -0.1512 -0.0739
 7180SOL    HW133176   2.710   3.878   3.242  0.4777 -0.3941 -1.1808
 7180SOL    HW233177   2.713   4.010   3.300 -0.4032 -1.0228  0.3848
 7181SOL     OW33178   4.344   2.413   9.069 -0.5480 -0.0140  0.3834
 7181SOL    HW133179   4.433   2.448   9.075 -0.9019  0.8183  0.6938
 7181SOL    HW233180   4.361   2.324   9.037 -1.1798  1.2432 -3.4672
 7182SOL     OW33181   0.523   3.036   3.022 -0.3258 -0.0665 -0.0550
 7182SOL    HW133182   0.526   2.975   3.096  0.9357  0.7841  0.5833
 7182SOL    HW233183   0.595   3.003   2.968  0.7762  1.1642  0.6974
 7183SOL     OW33184   2.687   2.257  14.735  0.2249  0.1308  0.5067
 7183SOL    HW133185   2.735   2.339  14.747 -4.6634  3.4748 -2.7044
 7183SOL    HW233186   2.695   2.221  14.824 -0.4496  1.1412  0.9720
 7184SOL     OW33187   3.623   4.127   4.784 -0.3929  0.0197 -0.0694
 7184SOL    HW133188   3.586   4.038   4.780 -1.6249  0.5615 -0.6155
 7184SOL    HW233189   3.661   4.125   4.872 -0.6748  1.9373  0.0929
 7185SOL     OW33190   4.714   3.087  11.141  0.0433  0.0856  0.5297
 7185SOL    HW133191   4.638   3.030  11.129  0.5989 -0.4084 -0.5922
 7185SOL    HW233192   4.668   3.150  11.197 -1.4737 -2.1901  1.8490
 7186SOL     OW33193   0.732   1.517   0.631 -0.0826 -0.1355 -0.1366
 7186SOL    HW133194   0.770   1.592   0.678 -1.4835 -1.4248  3.0187
 7186SOL    HW233195   0.724   1.453   0.702  0.0391 -1.0395 -0.9339
 7187SOL     OW33196   3.470   1.800   3.257 -0.3195 -0.9400  0.1280
 7187SOL    HW133197   3.520   1.835   3.330  0.2889  1.5311 -1.4854
 7187SOL    HW233198   3.482   1.864   3.187  0.2610 -0.7859  0.3697
 7188SOL     OW33199   2.044   2.136   2.759 -0.0959  0.0892 -0.0675
 7188SOL    HW133200   2.012   2.057   2.716 -2.2757 -0.0584  1.8521
 7188SOL    HW233201   1.967   2.189   2.778  0.8037  0.3865  2.7705
 7189SOL     OW33202   4.075   3.121   3.335  0.0300 -1.0105  0.7097
 7189SOL    HW133203   4.035   3.202   3.365 -2.3498 -1.0685 -2.2970
 7189SOL    HW233204   4.005   3.058   3.353 -2.1522  1.6688  1.5739
 7190SOL     OW33205   4.382   3.124  13.458  0.4928  0.0018  0.1383
 7190SOL    HW133206   4.348   3.200  13.505  1.8320  0.5211  0.2571
 7190SOL    HW233207   4.439   3.087  13.526 -1.5184 -2.8177  0.3168
 7191SOL     OW33208   0.225   1.174   7.365 -0.0005 -0.0424 -0.2238
 7191SOL    HW133209   0.238   1.244   7.428  2.6328 -0.8939  0.2170
 7191SOL    HW233210   0.130   1.165   7.357  0.4242 -3.2765 -1.8356
 7192SOL     OW33211   0.470   2.111   7.382  0.5559 -0.1872 -0.2890
 7192SOL    HW133212   0.388   2.105   7.431 -0.3518 -2.6382 -2.1120
 7192SOL    HW233213   0.524   2.035   7.402  1.2741 -0.2535 -2.5533
 7193SOL     OW33214   0.503   0.402  12.650 -0.3996  0.1230  0.1492
 7193SOL    HW133215   0.487   0.471  12.585 -2.4705  0.0670  0.5898
 7193SOL    HW233216   0.475   0.321  12.607 -1.3035 -0.0642  1.0825
 7194SOL     OW33217   1.854   1.770   1.452  0.3405  0.0077 -0.4490
 7194SOL    HW133218   1.790   1.813   1.509  1.2244 -0.1468  0.6605
 7194SOL    HW233219   1.852   1.679   1.480 -0.5174  0.9628  2.6306
 7195SOL     OW33220   4.644   4.360   7.727 -0.3124 -0.0926 -0.2515
 7195SOL    HW133221   4.676   4.338   7.639  0.6938 -0.7616  0.2832
 7195SOL    HW233222   4.715   4.315   7.773 -2.6199 -1.6696  1.7616
 7196SOL     OW33223   0.116   1.261  15.006 -0.7915 -0.1125  0.2073
 7196SOL    HW133224   0.091   1.170  15.022  0.6601 -0.2614  1.5832
 7196SOL    HW233225   0.030   1.299  14.990 -0.0429  0.2481 -2.9922
 7197SOL     OW33226   3.350   2.644   1.931 -0.1434 -0.5323  0.4177
 7197SOL    HW133227   3.287   2.713   1.950 -1.9415 -2.7140  2.3056
 7197SOL    HW233228   3.382   2.691   1.854 -2.0799 -0.3576 -0.2745
 7198SOL     OW33229   3.901   0.674   8.208  0.5382 -0.0419  0.0148
 7198SOL    HW133230   3.914   0.602   8.270 -1.2209 -0.5196 -0.1784
 7198SOL    HW233231   3.895   0.624   8.127 -0.6810  0.1719 -0.0190
 7199SOL     OW33232   3.509   2.003   4.500 -0.7967 -0.0655  0.5241
 7199SOL    HW133233   3.433   1.960   4.460 -0.1042 -0.2658 -0.6020
 7199SOL    HW233234   3.563   1.931   4.532 -1.2181 -1.3550 -1.6174
 7200SOL     OW33235   0.110   0.344  14.257 -0.0451  0.5520 -0.3887
 7200SOL    HW133236   0.084   0.261  14.217 -1.9710  0.5699  0.7672
 7200SOL    HW233237   0.053   0.342  14.334  1.1354 -0.7433  0.4524
 7201SOL     OW33238   0.271   0.347   1.216 -0.5459 -0.3734  0.5120
 7201SOL    HW133239   0.242   0.258   1.194  0.9693 -0.8913  0.6644
 7201SOL    HW233240   0.298   0.352   1.308  0.1862 -1.3258  0.3443
 7202SOL     OW33241   2.760   2.549   3.551 -0.6698 -0.0953  0.1652
 7202SOL    HW133242   2.665   2.555   3.537 -0.8450 -0.6433  1.1362
 7202SOL    HW233243   2.781   2.472   3.499 -1.1674  0.3729 -0.7439
 7203SOL     OW33244   3.189   1.441   7.891 -0.1937  0.7759 -0.8851
 7203SOL    HW133245   3.195   1.370   7.955 -0.1449  2.0068  0.4762
 7203SOL    HW233246   3.250   1.502   7.932  1.0100 -1.3612  0.4844
 7204SOL     OW33247   2.393   0.850   9.141  0.4235 -0.5293 -0.1378
 7204SOL    HW133248   2.341   0.773   9.117 -0.4026 -0.2811  0.8752
 7204SOL    HW233249   2.456   0.835   9.070  0.4433  1.0608 -0.4452
 7205SOL     OW33250   1.639   1.268   3.329  0.4208 -0.4423  0.4328
 7205SOL    HW133251   1.718   1.214   3.325  0.9610  0.3829  0.1046
 7205SOL    HW233252   1.644   1.310   3.415  1.0389 -0.9589  0.6557
 7206SOL     OW33253   3.653   3.688   1.918 -0.1481  0.2565 -0.0983
 7206SOL    HW133254   3.594   3.647   1.982 -1.8280  4.7324  1.2657
 7206SOL    HW233255   3.738   3.686   1.962  0.6092 -1.9897 -1.6399
 7207SOL     OW33256   3.339   1.469   8.161  0.0817  0.0184  0.0123
 7207SOL    HW133257   3.387   1.530   8.217 -1.5673  1.4518 -0.1604
 7207SOL    HW233258   3.256   1.461   8.207 -0.1545  0.7966 -0.2661
 7208SOL     OW33259   2.415   4.352  17.666  0.5327 -0.2673 -0.7854
 7208SOL    HW133260   2.413   4.378  17.574  0.5996 -1.9202 -1.2541
 7208SOL    HW233261   2.466   4.271  17.662  0.2806 -0.3175 -2.8255
 7209SOL     OW33262   3.894   2.980   2.603  0.3900 -0.0352 -0.0648
 7209SOL    HW133263   3.895   2.901   2.549  0.6363  0.7715 -1.2472
 7209SOL    HW233264   3.880   3.043   2.532  1.5741 -1.3871 -1.4836
 7210SOL     OW33265   2.192   1.103   5.119  0.1995  0.1416  0.4425
 7210SOL    HW133266   2.191   1.135   5.029  2.4478  0.0294  0.3712
 7210SOL    HW233267   2.244   1.023   5.111 -0.0839  0.2038 -1.8671
 7211SOL     OW33268   1.354   3.996  17.581 -0.6742 -0.3364  0.2822
 7211SOL    HW133269   1.353   4.045  17.498  0.2612 -0.9986 -0.1162
 7211SOL    HW233270   1.301   4.057  17.632  0.9689  0.9186  0.4686
 7212SOL     OW33271   3.753   3.517   0.113 -0.2581 -0.0184 -0.2303
 7212SOL    HW133272   3.675   3.462   0.123 -1.0707  1.3382  0.9934
 7212SOL    HW233273   3.810   3.485   0.182 -1.1791  0.8063  0.9130
 7213SOL     OW33274   3.409   3.458   2.557 -0.4807 -0.1568  0.2088
 7213SOL    HW133275   3.360   3.536   2.581 -0.0488 -0.8190  3.3262
 7213SOL    HW233276   3.361   3.383   2.592 -0.1580 -0.0736  0.8303
 7214SOL     OW33277   1.769   3.049   3.517  0.0705  0.0585  0.3361
 7214SOL    HW133278   1.852   3.093   3.501  1.1673 -2.1144  0.1628
 7214SOL    HW233279   1.788   3.013   3.604  1.5330 -0.5750 -0.2630
 7215SOL     OW33280   3.337   3.364   9.242  0.0026 -0.3480  0.5085
 7215SOL    HW133281   3.266   3.418   9.208  0.4546 -0.8398 -1.1833
 7215SOL    HW233282   3.285   3.284   9.246  0.1962 -0.5857 -2.0058
 7216SOL     OW33283   0.371   1.887  10.304  0.0740  0.0231  0.2354
 7216SOL    HW133284   0.309   1.952  10.337 -0.8033 -0.4580 -0.4505
 7216SOL    HW233285   0.419   1.852  10.379 -1.2230 -0.3965  0.8637
 7217SOL     OW33286   4.660   0.857   1.315 -0.3147  0.2010 -0.1980
 7217SOL    HW133287   4.697   0.868   1.228 -0.1356 -0.0877 -0.1592
 7217SOL    HW233288   0.001   0.808   1.343  1.2886  3.2985  0.6853
 7218SOL     OW33289   2.454   3.397   5.691 -0.0545  0.0146  0.4896
 7218SOL    HW133290   2.429   3.327   5.632  0.2129  1.2651 -1.1000
 7218SOL    HW233291   2.459   3.470   5.629  1.2521 -0.2451  0.2736
 7219SOL     OW33292   0.490   3.110  16.501 -0.3227 -0.3758  0.1636
 7219SOL    HW133293   0.491   3.016  16.480 -0.1953  0.1203 -2.0753
 7219SOL    HW233294   0.406   3.113  16.546  1.3506 -3.0824  3.5182
 7220SOL     OW33295   2.551   2.898  15.215 -0.5817 -0.0685  0.3893
 7220SOL    HW133296   2.473   2.951  15.201 -0.2669  0.6405  1.3416
 7220SOL    HW233297   2.526   2.822  15.162 -0.7569 -0.0303  0.4189
 7221SOL     OW33298   4.651   4.432  11.069  0.2506 -0.2348  0.2275
 7221SOL    HW133299   4.587   4.467  11.008 -0.2219 -1.4747 -0.0041
 7221SOL    HW233300   4.736   4.437  11.025  1.0560  1.2464  1.9443
 7222SOL     OW33301   0.662   0.355   8.647  0.4955  0.0116  0.0588
 7222SOL    HW133302   0.729   0.402   8.695  0.1475  1.5703 -0.9926
 7222SOL    HW233303   0.605   0.423   8.611  1.7719  0.0618 -1.9102
 7223SOL     OW33304   1.761   2.680   6.972  0.2074 -0.4145 -0.6539
 7223SOL    HW133305   1.822   2.710   7.041 -0.4737 -1.2020  0.2897
 7223SOL    HW233306   1.818   2.617   6.929  0.8368 -0.0572 -0.3549
 7224SOL     OW33307   4.141   2.637   4.303 -1.0569 -0.1581  0.4064
 7224SOL    HW133308   4.137   2.589   4.386 -1.1072 -2.0943 -0.7017
 7224SOL    HW233309   4.201   2.708   4.326  1.1412 -2.0714  0.6027
 7225SOL     OW33310   0.055   1.831   8.291  0.5533  0.2510 -0.2226
 7225SOL    HW133311   0.022   1.800   8.376 -0.6694 -0.1960 -0.8630
 7225SOL    HW233312   0.150   1.843   8.302  0.8256 -0.8078 -1.4036
 7226SOL     OW33313   2.617   2.771  10.614 -0.0204 -0.4374 -0.3519
 7226SOL    HW133314   2.708   2.744  10.606 -0.0717 -1.4440  2.5943
 7226SOL    HW233315   2.604   2.771  10.519 -0.6230 -0.4180 -0.2739
 7227SOL     OW33316   2.365   0.346   6.057  0.2639  0.4590  0.6372
 7227SOL    HW133317   2.288   0.351   6.001  0.0990  1.8150  0.9878
 7227SOL    HW233318   2.422   0.417   6.027 -1.0033  0.5476 -1.5170
 7228SOL     OW33319   3.897   3.738   2.678 -0.0262  0.0457  0.6524
 7228SOL    HW133320   3.960   3.707   2.613  0.7879  1.0770  0.9397
 7228SOL    HW233321   3.819   3.688   2.653 -0.9960  2.4291 -1.0958
 7229SOL     OW33322   1.554   4.592  15.141 -0.0845  0.5490  0.1249
 7229SOL    HW133323   1.583   4.527  15.205  0.2945  0.5811 -0.0146
 7229SOL    HW233324   1.497   4.643  15.198  0.2423 -0.5643  1.4583
 7230SOL     OW33325   1.706   0.504   5.210 -0.3614 -0.0749  0.6824
 7230SOL    HW133326   1.720   0.574   5.273  1.6217  1.0842 -1.0430
 7230SOL    HW233327   1.750   0.535   5.131 -2.3445 -0.2609 -0.5134
 7231SOL     OW33328   2.579   1.839   5.690 -0.2771  0.0702 -0.2113
 7231SOL    HW133329   2.634   1.901   5.643 -0.5301  0.2562 -0.2636
 7231SOL    HW233330   2.625   1.813   5.770 -0.3245  3.7329  0.9911
 7232SOL     OW33331   0.327   0.944  11.554 -0.4637 -0.1213 -0.5139
 7232SOL    HW133332   0.340   0.880  11.483 -1.0998 -1.3057  0.4449
 7232SOL    HW233333   0.246   0.919  11.597  0.0545 -0.1695  0.4291
 7233SOL     OW33334   1.019   1.869  13.327 -0.0910 -0.0814 -0.1452
 7233SOL    HW133335   1.103   1.911  13.307 -0.2280 -0.0625 -0.6863
 7233SOL    HW233336   1.017   1.780  13.292 -0.6814 -0.2247  0.2565
 7234SOL     OW33337   2.648   1.129   1.165  0.3518 -0.2577 -0.1806
 7234SOL    HW133338   2.615   1.212   1.130  0.2546  0.7942  2.3794
 7234SOL    HW233339   2.613   1.123   1.254  0.8874  1.1203  0.1318
 7235SOL     OW33340   1.119   2.994   9.646  0.1632  0.3365 -0.4589
 7235SOL    HW133341   1.189   2.964   9.703  0.5848 -0.0406 -1.1793
 7235SOL    HW233342   1.079   2.916   9.609 -0.5795 -0.4773  2.0684
 7236SOL     OW33343   1.020   3.732   0.779  0.2976  0.4068  0.1211
 7236SOL    HW133344   1.065   3.691   0.705 -0.2537  0.2252 -0.1148
 7236SOL    HW233345   1.009   3.660   0.841  1.0023 -0.7116 -1.0641
 7237SOL     OW33346   0.445   0.543   0.467 -0.5796  0.2603  0.0154
 7237SOL    HW133347   0.350   0.543   0.481 -0.3049 -0.2191  1.8180
 7237SOL    HW233348   0.455   0.614   0.404  0.9260  1.4014  1.5331
 7238SOL     OW33349   4.609   0.086   6.566  0.1305 -0.0182  0.0658
 7238SOL    HW133350   4.703   0.102   6.559 -0.3070  2.5582  0.0860
 7238SOL    HW233351   4.600   0.094   6.661 -0.4657 -0.4100  0.0440
 7239SOL     OW33352   2.588   2.344   8.717 -0.6521 -0.2936 -0.4980
 7239SOL    HW133353   2.548   2.403   8.653  0.3377  0.5769 -0.3095
 7239SOL    HW233354   2.510   2.324   8.769  0.2138  1.8574  1.6462
 7240SOL     OW33355   2.310   2.746   8.516  0.3127  0.2362  0.0608
 7240SOL    HW133356   2.291   2.831   8.478  2.5561  1.2405  1.2412
 7240SOL    HW233357   2.258   2.682   8.467 -2.1430  0.8416  1.8422
 7241SOL     OW33358   3.219   4.194   4.182 -0.3842  0.2320 -0.7118
 7241SOL    HW133359   3.235   4.119   4.239  1.7023  0.3812 -1.1002
 7241SOL    HW233360   3.309   4.212   4.153  0.3883  0.1493  1.6171
 7242SOL     OW33361   3.050   2.225   9.829 -0.1348 -0.0868  0.3298
 7242SOL    HW133362   2.956   2.215   9.816  0.0811 -1.8464  0.1358
 7242SOL    HW233363   3.051   2.295   9.894  0.0989 -0.0085  0.2432
 7243SOL     OW33364   4.099   2.518  14.966 -0.3700  0.2966  0.5479
 7243SOL    HW133365   4.130   2.467  14.891 -0.3919 -0.8242  1.2967
 7243SOL    HW233366   4.141   2.604  14.955  0.2073 -0.0847 -0.2010
 7244SOL     OW33367   3.840   4.046   7.793  0.1414  0.0096 -0.5011
 7244SOL    HW133368   3.827   3.952   7.782  0.1008 -0.1761  1.1055
 7244SOL    HW233369   3.931   4.054   7.763  0.1905  0.6468 -0.1903
 7245SOL     OW33370   1.011   0.093   2.345  0.0514 -0.1488  0.1443
 7245SOL    HW133371   0.969   0.177   2.363  0.2004 -0.3353  1.3784
 7245SOL    HW233372   1.071   0.091   2.420  0.2162 -2.8921 -0.0594
 7246SOL     OW33373   1.465   4.304   7.062  0.3965  0.4193 -0.6993
 7246SOL    HW133374   1.546   4.348   7.034  1.2302 -0.0586  0.9569
 7246SOL    HW233375   1.429   4.386   7.096  0.1297 -0.6142  1.5033
 7247SOL     OW33376   2.899   2.616   9.343  0.3070  0.3092 -0.1009
 7247SOL    HW133377   2.903   2.594   9.250  0.0994  2.7846 -0.7132
 7247SOL    HW233378   2.947   2.699   9.349  2.1767 -0.8045  0.4302
 7248SOL     OW33379   1.753   2.750   2.956 -0.3219  0.3512 -0.5719
 7248SOL    HW133380   1.804   2.673   2.980  0.7904  0.9619 -0.9519
 7248SOL    HW233381   1.738   2.789   3.042  1.1702  0.7301 -0.4688
 7249SOL     OW33382   0.307   1.026   2.687  0.2515  0.2519  0.0411
 7249SOL    HW133383   0.365   0.950   2.692  0.1739  0.1727 -0.3634
 7249SOL    HW233384   0.224   0.979   2.690  1.8182 -2.6167 -1.4364
 7250SOL     OW33385   3.040   0.756  13.875 -0.1785 -0.3007 -0.0240
 7250SOL    HW133386   3.002   0.735  13.960 -1.1039 -0.2055 -0.4198
 7250SOL    HW233387   3.080   0.840  13.897 -1.0821 -0.2595  1.4423
 7251SOL     OW33388   4.114   0.890   9.894  0.1862  0.1694  0.6238
 7251SOL    HW133389   4.105   0.936   9.977 -0.9974 -0.2994  0.7650
 7251SOL    HW233390   4.101   0.801   9.928  0.7924 -0.5559 -1.0162
 7252SOL     OW33391   2.573   1.635   8.834  0.2686  0.2968  0.4442
 7252SOL    HW133392   2.533   1.644   8.747 -0.1791 -1.2859  0.4865
 7252SOL    HW233393   2.628   1.713   8.824 -1.4181  1.2332 -1.7442
 7253SOL     OW33394   4.419   4.104   5.706  0.6030  0.3226  0.1920
 7253SOL    HW133395   4.506   4.143   5.713  0.1374  1.8442 -2.6938
 7253SOL    HW233396   4.421   4.069   5.795 -0.6291 -0.0575  0.0648
 7254SOL     OW33397   1.558   2.991   6.200  0.6118  0.2222  0.0510
 7254SOL    HW133398   1.637   3.039   6.223  0.6472 -0.2611  0.9229
 7254SOL    HW233399   1.498   3.003   6.273  0.3292 -3.5308  0.4573
 7255SOL     OW33400   1.198   1.165   4.643 -0.2244  0.1222  0.0149
 7255SOL    HW133401   1.226   1.080   4.608 -0.4882  0.9607 -2.2348
 7255SOL    HW233402   1.280   1.214   4.655 -1.0437  1.1829  1.1719
 7256SOL     OW33403   0.799   2.709  13.743 -0.4103  0.2571 -0.1829
 7256SOL    HW133404   0.789   2.742  13.653 -2.6484  0.8900  0.2987
 7256SOL    HW233405   0.780   2.789  13.792 -2.2332  0.4544 -1.1982
 7257SOL     OW33406   2.958   3.430   2.988 -0.6261 -0.2607 -0.5290
 7257SOL    HW133407   2.932   3.521   2.975 -1.8955 -0.1993  2.4737
 7257SOL    HW233408   2.980   3.399   2.900 -0.4779 -0.1741 -0.5218
 7258SOL     OW33409   4.376   0.370   4.085  0.0972  0.1746  0.1260
 7258SOL    HW133410   4.396   0.371   4.179  2.9219 -3.9278 -0.4288
 7258SOL    HW233411   4.281   0.376   4.082  0.2767  1.5278 -2.6634
 7259SOL     OW33412   1.650   4.474   0.300  0.2034  0.2021 -0.7682
 7259SOL    HW133413   1.560   4.452   0.275  1.0093 -1.8544 -1.7447
 7259SOL    HW233414   1.686   4.484   0.212  0.1534  1.8475 -0.6085
 7260SOL     OW33415   3.846   2.834   8.094 -0.2293  0.3489  0.3134
 7260SOL    HW133416   3.894   2.760   8.132 -2.0456 -1.7743 -1.5406
 7260SOL    HW233417   3.921   2.893   8.084  0.3120 -0.2907  0.5879
 7261SOL     OW33418   0.645   4.251   4.071  0.2955  0.0059 -0.2166
 7261SOL    HW133419   0.550   4.251   4.076  0.1692  0.7971 -2.2783
 7261SOL    HW233420   0.667   4.307   4.145  1.4567  0.0198 -0.5638
 7262SOL     OW33421   4.371   1.980   3.470 -0.5304 -0.0728  0.0586
 7262SOL    HW133422   4.451   1.934   3.444 -0.1332  0.3121  0.5870
 7262SOL    HW233423   4.398   2.071   3.455 -0.9212 -0.1072 -0.8361
 7263SOL     OW33424   0.557   1.933   2.655  0.7895  0.3878 -0.1621
 7263SOL    HW133425   0.649   1.908   2.645  0.0692 -1.6515 -1.5898
 7263SOL    HW233426   0.531   1.853   2.701  1.7598 -0.5738 -1.2688
 7264SOL     OW33427   0.975   1.835   8.021 -0.2094  0.1795  0.0415
 7264SOL    HW133428   1.047   1.887   7.987  0.4163 -0.8765 -0.2378
 7264SOL    HW233429   0.968   1.757   7.967  1.2838 -0.7491  1.1884
 7265SOL     OW33430   2.861   0.985   8.388  1.0695 -0.0801 -0.2582
 7265SOL    HW133431   2.779   1.004   8.434 -0.0643 -0.6169 -2.0453
 7265SOL    HW233432   2.861   0.891   8.404 -0.0301 -0.0961 -0.3214
 7266SOL     OW33433   0.956   3.939   3.018  0.2087 -0.1469  0.1815
 7266SOL    HW133434   0.872   3.982   3.033 -0.3826 -1.5995  0.9371
 7266SOL    HW233435   0.941   3.907   2.929 -1.1966 -0.6159  0.5941
 7267SOL     OW33436   1.589   0.558   6.968 -0.0345  0.1447 -0.2100
 7267SOL    HW133437   1.621   0.625   6.907 -0.4085  1.1227  0.6751
 7267SOL    HW233438   1.624   0.478   6.928  2.4820  0.7080  0.8801
 7268SOL     OW33439   2.276   0.293  17.089  0.0750 -0.1177 -0.0082
 7268SOL    HW133440   2.241   0.331  17.171 -1.3554 -1.7648  0.1299
 7268SOL    HW233441   2.271   0.381  17.052 -0.9261 -0.1679 -0.0046
 7269SOL     OW33442   0.262   4.465   3.202  0.2432 -0.0321 -0.2095
 7269SOL    HW133443   0.189   4.526   3.207 -1.3091 -1.8682 -0.5574
 7269SOL    HW233444   0.283   4.473   3.109 -0.1025 -1.6392 -0.4329
 7270SOL     OW33445   3.955   0.499   7.081  0.3788 -0.6965 -0.5534
 7270SOL    HW133446   3.946   0.592   7.060 -1.6408 -0.9583 -0.9010
 7270SOL    HW233447   3.962   0.502   7.176  0.8554  1.1567 -0.6406
 7271SOL     OW33448   2.129   0.726  17.165  0.3766 -0.1054  0.1277
 7271SOL    HW133449   2.199   0.757  17.223  0.6585 -0.1523 -0.1839
 7271SOL    HW233450   2.185   0.666  17.115  1.7527  0.5480  0.8829
 7272SOL     OW33451   3.316   4.472   1.355 -0.3976 -0.0510  0.2976
 7272SOL    HW133452   3.336   4.456   1.448  0.5313 -1.8396 -0.2273
 7272SOL    HW233453   3.401   4.493   1.317 -0.4363 -1.4950 -0.5731
 7273SOL     OW33454   4.501   0.439  11.327 -0.7009  0.5631  0.5656
 7273SOL    HW133455   4.522   0.480  11.411 -1.2823 -2.6786  2.2920
 7273SOL    HW233456   4.580   0.386  11.325 -1.5197 -0.6267  0.1236
 7274SOL     OW33457   3.919   4.061   6.278 -0.6958 -0.0610 -0.2988
 7274SOL    HW133458   3.857   4.116   6.231 -1.2370 -0.4629 -0.0528
 7274SOL    HW233459   3.992   4.114   6.311  0.9897 -1.3064 -2.0143
 7275SOL     OW33460   1.245   0.533   3.682  0.2745  0.8399  0.3451
 7275SOL    HW133461   1.185   0.578   3.622  0.1092 -1.1284 -0.9659
 7275SOL    HW233462   1.327   0.541   3.633  0.3529  0.5459  0.4278
 7276SOL     OW33463   1.384   1.553  12.946 -0.1003  0.5537 -0.1244
 7276SOL    HW133464   1.296   1.516  12.958  0.1744 -0.0603 -0.0130
 7276SOL    HW233465   1.427   1.502  12.877  1.3640  0.0962  1.1339
 7277SOL     OW33466   4.716   2.557   2.840  0.5372  1.0998 -0.2779
 7277SOL    HW133467   4.681   2.605   2.765 -2.4717  0.5544  0.7803
 7277SOL    HW233468   0.010   2.479   2.794 -2.2233  1.2729 -2.3528
 7278SOL     OW33469   1.538   4.288  13.185  0.6483 -0.0501  0.2534
 7278SOL    HW133470   1.507   4.292  13.095 -0.5849  1.8883  0.7778
 7278SOL    HW233471   1.481   4.223  13.226  0.6516 -0.3619 -0.2413
 7279SOL     OW33472   2.882   1.150   8.812 -0.5532 -0.8079  0.0185
 7279SOL    HW133473   2.852   1.232   8.850 -0.5693 -1.7617  2.0756
 7279SOL    HW233474   2.847   1.082   8.870 -3.3102 -2.6645 -3.8025
 7280SOL     OW33475   0.783   3.996   6.608  0.0778 -0.4957  0.1148
 7280SOL    HW133476   0.815   3.915   6.568 -2.5957 -1.3143 -0.3751
 7280SOL    HW233477   0.694   4.012   6.574  0.2386  0.8312  0.3110
 7281SOL     OW33478   2.565   3.366   8.019  0.1004  0.0837  0.5878
 7281SOL    HW133479   2.612   3.446   8.041  2.8346 -1.1985 -0.5699
 7281SOL    HW233480   2.534   3.337   8.105 -1.1005 -0.2547  0.0448
 7282SOL     OW33481   3.932   3.548   4.036  0.0043 -0.1984  0.4131
 7282SOL    HW133482   4.004   3.490   4.010 -0.0265  0.0074 -0.1291
 7282SOL    HW233483   3.962   3.636   4.015 -0.6885  0.3970  1.9364
 7283SOL     OW33484   0.443   2.964   7.634  0.4611 -0.1941  0.0353
 7283SOL    HW133485   0.531   2.927   7.637 -0.2840 -1.8843  0.8554
 7283SOL    HW233486   0.401   2.880   7.611  1.4589 -1.0447  1.3605
 7284SOL     OW33487   3.121   1.930  11.237  0.1190  0.6286 -0.5092
 7284SOL    HW133488   3.039   1.920  11.285  0.3876 -1.1928 -0.4096
 7284SOL    HW233489   3.098   1.989  11.166  0.0782  0.7127 -0.4254
 7285SOL     OW33490   2.112   1.255   4.890 -0.1326 -0.1538 -0.5446
 7285SOL    HW133491   2.019   1.232   4.883 -0.3394  0.7733 -0.9732
 7285SOL    HW233492   2.125   1.290   4.801  1.1252  2.2890  0.6000
 7286SOL     OW33493   1.586   1.639  10.442  0.2321  0.1679 -0.1879
 7286SOL    HW133494   1.614   1.548  10.448  0.5332  0.2542 -0.3083
 7286SOL    HW233495   1.665   1.693  10.439 -0.5275  1.1974 -1.8366
 7287SOL     OW33496   2.439   1.752   1.670 -0.0623  0.5200  0.4840
 7287SOL    HW133497   2.418   1.811   1.599 -1.3125 -0.0342  0.4042
 7287SOL    HW233498   2.422   1.667   1.629  0.0472  0.5113  0.4546
 7288SOL     OW33499   0.479   4.679  11.121 -0.1086  0.1993 -0.1665
 7288SOL    HW133500   0.481   0.028  11.164 -0.3098  0.4997 -0.7588
 7288SOL    HW233501   0.418   4.629  11.175 -0.0912 -1.0922 -1.3391
 7289SOL     OW33502   4.533   2.770   7.038  0.4217  0.1123  0.0750
 7289SOL    HW133503   4.545   2.679   7.064  1.6650 -0.0398 -1.0338
 7289SOL    HW233504   4.615   2.774   6.989 -0.0205  3.5794 -0.3772
 7290SOL     OW33505   0.508   3.879   3.488  0.2278 -0.0170  0.3051
 7290SOL    HW133506   0.517   3.965   3.530 -0.4563  0.1841  0.0494
 7290SOL    HW233507   0.414   3.864   3.497  0.4807 -1.0209  1.1730
 7291SOL     OW33508   4.323   4.436  11.244  0.2753 -0.0368  0.2364
 7291SOL    HW133509   4.267   4.379  11.192 -0.8592 -0.5845  2.0504
 7291SOL    HW233510   4.277   4.520  11.248 -1.0329 -0.7052 -1.0104
 7292SOL     OW33511   3.026   4.177  16.337  0.3851 -0.2533  0.4301
 7292SOL    HW133512   2.950   4.122  16.318  0.6936 -0.4772 -0.1464
 7292SOL    HW233513   3.088   4.119  16.295  1.7641  0.3838  1.5754
 7293SOL     OW33514   1.855   4.286   2.341  0.1480 -0.6776 -0.0237
 7293SOL    HW133515   1.904   4.222   2.290  0.0544 -0.9177  0.1862
 7293SOL    HW233516   1.771   4.244   2.328  0.5543 -1.2795 -0.6705
 7294SOL     OW33517   1.803   2.819  15.168 -0.2387  0.1370  0.2574
 7294SOL    HW133518   1.737   2.888  15.166 -2.7163 -2.1787  0.9375
 7294SOL    HW233519   1.746   2.741  15.172  1.9797 -1.4961 -0.1999
 7295SOL     OW33520   2.494   3.759   4.359  0.0837  0.1444  0.0396
 7295SOL    HW133521   2.587   3.780   4.367 -0.3417  1.3222  1.8309
 7295SOL    HW233522   2.484   3.708   4.439  2.7105  0.8740  0.8247
 7296SOL     OW33523   3.357   0.910   2.101  0.0593  0.3735  0.4024
 7296SOL    HW133524   3.315   0.943   2.022  3.5897 -1.4925 -2.2287
 7296SOL    HW233525   3.284   0.864   2.142  0.2740  0.7371  1.1987
 7297SOL     OW33526   2.952   3.697   1.743 -0.8102 -0.3988 -0.3707
 7297SOL    HW133527   2.921   3.610   1.719 -1.5438 -0.6019  1.3360
 7297SOL    HW233528   3.046   3.679   1.755 -0.9665 -0.4455  0.7800
 7298SOL     OW33529   3.554   1.389   0.546 -0.2325 -0.2266 -0.4007
 7298SOL    HW133530   3.534   1.296   0.543 -2.9730  0.3679 -0.5484
 7298SOL    HW233531   3.497   1.421   0.476 -1.3111  0.3685  0.7233
 7299SOL     OW33532   4.358   1.029   6.000 -0.1909  0.2639 -0.4552
 7299SOL    HW133533   4.388   1.119   5.997 -0.9720  0.5120 -0.8447
 7299SOL    HW233534   4.419   0.984   6.058 -0.6432 -2.1919 -1.8691
 7300SOL     OW33535   0.615   0.148   3.636  0.7713  0.0348 -0.1027
 7300SOL    HW133536   0.598   0.174   3.546  0.5595  0.7290  0.1333
 7300SOL    HW233537   0.534   0.160   3.685  0.0993  0.5012 -1.3545
 7301SOL     OW33538   0.586   0.213   7.675 -0.4657 -0.1304 -0.2053
 7301SOL    HW133539   0.514   0.246   7.730  0.4541 -0.6273  1.3135
 7301SOL    HW233540   0.618   0.141   7.730  1.4128  0.6030 -0.3282
 7302SOL     OW33541   2.757   4.089   3.429 -0.0012  0.0100  0.4257
 7302SOL    HW133542   2.746   4.033   3.505 -2.6995  1.1402  0.8640
 7302SOL    HW233543   2.772   4.177   3.462 -4.4809  0.6382  0.8873
 7303SOL     OW33544   2.661   2.190   7.676  0.3548  0.2296 -0.4055
 7303SOL    HW133545   2.736   2.225   7.627  0.2165 -0.9926 -1.4805
 7303SOL    HW233546   2.600   2.176   7.604  0.5631 -0.8572 -0.3607
 7304SOL     OW33547   4.555   3.408  14.436  0.3122  0.5919 -0.4562
 7304SOL    HW133548   4.565   3.391  14.530 -0.6484 -0.8651 -0.5983
 7304SOL    HW233549   4.582   3.323  14.401  0.3177  0.9939 -1.4139
 7305SOL     OW33550   4.712   1.136   2.246  0.1680 -0.0512 -0.2733
 7305SOL    HW133551   0.010   1.220   2.215  0.4704  0.3397  1.1261
 7305SOL    HW233552   0.051   1.080   2.264  0.1505  0.3356  0.9577
 7306SOL     OW33553   2.043   4.656   3.773 -0.2712  0.2350  0.5274
 7306SOL    HW133554   2.111   4.690   3.715 -0.9327 -1.5989 -1.3081
 7306SOL    HW233555   1.969   4.668   3.713  0.8198  1.2771 -0.6123
 7307SOL     OW33556   4.231   4.038   0.370  0.6302 -0.3840 -0.6088
 7307SOL    HW133557   4.210   4.130   0.387 -0.1500 -0.9292  1.4001
 7307SOL    HW233558   4.167   3.988   0.421  1.4009 -1.2909 -0.5187
 7308SOL     OW33559   0.864   3.808   8.670 -0.0459  0.4778  0.2033
 7308SOL    HW133560   0.923   3.786   8.742  0.2980 -0.9327 -0.5149
 7308SOL    HW233561   0.817   3.727   8.652 -2.0770  1.1540  2.3551
 7309SOL     OW33562   2.135   2.133   6.694 -0.5725 -0.2276  0.5991
 7309SOL    HW133563   2.208   2.075   6.673 -0.5386  0.3900 -1.0065
 7309SOL    HW233564   2.174   2.193   6.757 -0.8397  1.9464 -1.2932
 7310SOL     OW33565   4.154   4.389   9.810  0.4258 -0.1742  0.6059
 7310SOL    HW133566   4.157   4.305   9.855 -0.0686  0.1801  1.2930
 7310SOL    HW233567   4.118   4.352   9.729  0.3768 -0.4858  0.7708
 7311SOL     OW33568   4.466   2.022   0.946  0.0763 -0.3263  0.4031
 7311SOL    HW133569   4.543   2.064   0.907 -0.3077 -0.1321 -0.1528
 7311SOL    HW233570   4.400   2.090   0.959  1.0876  0.2824  2.2783
 7312SOL     OW33571   4.389   0.168   6.112  0.1580  0.0247 -0.1078
 7312SOL    HW133572   4.300   0.202   6.103  0.3630  0.3674 -0.7941
 7312SOL    HW233573   4.430   0.254   6.098  0.4448 -0.1019 -0.0323
 7313SOL     OW33574   2.451   1.679   4.708 -0.3129 -0.0354 -0.4133
 7313SOL    HW133575   2.504   1.659   4.631 -0.5523 -1.5401 -0.1948
 7313SOL    HW233576   2.406   1.760   4.684 -0.5589 -0.5449 -1.6434
 7314SOL     OW33577   1.408   2.813   3.311 -0.7463  0.4557  0.1033
 7314SOL    HW133578   1.390   2.855   3.395  1.5172  1.1124  0.2632
 7314SOL    HW233579   1.452   2.733   3.338 -1.4927 -0.1543 -0.4736
 7315SOL     OW33580   3.542   2.570  13.083 -0.5089 -0.1691  0.2107
 7315SOL    HW133581   3.607   2.625  13.039  0.2164 -0.9702  0.2757
 7315SOL    HW233582   3.464   2.616  13.054 -0.8544  0.3324  1.9302
 7316SOL     OW33583   1.590   1.556   7.165  0.5674 -0.1386  0.1662
 7316SOL    HW133584   1.627   1.474   7.134 -2.4486 -1.2514 -0.5282
 7316SOL    HW233585   1.527   1.566   7.093  1.4047  0.0246 -0.5448
 7317SOL     OW33586   2.330   4.673   2.606  0.4176  1.0397 -0.4359
 7317SOL    HW133587   2.308   4.584   2.636  1.1807  1.0779  0.2476
 7317SOL    HW233588   2.375   4.708   2.683 -0.3651 -2.8169  1.8255
 7318SOL     OW33589   2.684   4.540   6.219  0.1695 -0.2667  0.1876
 7318SOL    HW133590   2.623   4.472   6.191  1.6851 -1.2832 -0.6731
 7318SOL    HW233591   2.665   4.534   6.312  1.8688 -0.6628  0.5079
 7319SOL     OW33592   0.595   1.997   3.481 -0.1343  0.2285 -0.2500
 7319SOL    HW133593   0.521   1.957   3.434  0.5354 -1.1714 -0.1239
 7319SOL    HW233594   0.641   2.050   3.416  1.1265  1.4209  1.6279
 7320SOL     OW33595   1.749   4.323  12.633  0.1997 -0.0581 -0.1114
 7320SOL    HW133596   1.767   4.417  12.636  1.7804 -0.3847  1.2958
 7320SOL    HW233597   1.656   4.324  12.612  0.0475  1.6888  0.6631
 7321SOL     OW33598   3.312   4.129  16.635  0.0624 -0.3129  0.4217
 7321SOL    HW133599   3.377   4.060  16.625  2.0354  1.2782  2.1868
 7321SOL    HW233600   3.244   4.080  16.681  0.1183 -2.8170 -2.1850
 7322SOL     OW33601   1.865   3.583   4.312  0.3473 -0.2948  0.3553
 7322SOL    HW133602   1.865   3.620   4.223 -0.4254  1.0638  0.9168
 7322SOL    HW233603   1.819   3.500   4.300 -0.6948  0.3334 -0.0131
 7323SOL     OW33604   2.403   3.816   5.352  0.0153  0.1498  0.1123
 7323SOL    HW133605   2.491   3.782   5.368  0.0578 -0.0851 -0.6618
 7323SOL    HW233606   2.359   3.734   5.329  0.8913 -0.2252 -0.2123
 7324SOL     OW33607   0.762   0.580  14.008 -0.8247 -0.2015 -0.3732
 7324SOL    HW133608   0.721   0.593  13.923  2.0005 -0.4136 -1.7628
 7324SOL    HW233609   0.685   0.592  14.063 -1.0646 -0.1130 -0.7277
 7325SOL     OW33610   4.028   3.124   1.400 -0.0045 -0.5717 -0.4564
 7325SOL    HW133611   3.947   3.138   1.351  1.1134  0.7700 -1.8947
 7325SOL    HW233612   3.991   3.062   1.463  0.3737  0.3787  0.6970
 7326SOL     OW33613   2.602   3.827   8.265 -0.4017 -0.3168  0.3175
 7326SOL    HW133614   2.624   3.787   8.349 -1.0684 -0.2990  0.5001
 7326SOL    HW233615   2.628   3.917   8.287 -1.0835 -0.4703  1.7704
 7327SOL     OW33616   1.883   3.777   2.280 -0.2558 -1.1131 -0.0868
 7327SOL    HW133617   1.812   3.757   2.341 -1.9537  2.6213 -0.7806
 7327SOL    HW233618   1.913   3.858   2.321 -1.7754 -0.6587  0.1309
 7328SOL     OW33619   3.081   2.466   2.963 -0.3608  0.3750 -0.6543
 7328SOL    HW133620   3.099   2.431   2.875 -1.8458 -1.4445 -0.2237
 7328SOL    HW233621   3.167   2.504   2.981 -0.3553 -0.6918  1.5746
 7329SOL     OW33622   2.917   2.926   0.728 -0.3467  0.1712  0.0191
 7329SOL    HW133623   2.941   2.899   0.639 -0.8655  0.6121 -0.2521
 7329SOL    HW233624   2.963   2.856   0.774 -0.1277  1.0102  1.0651
 7330SOL     OW33625   4.661   2.879   4.723 -0.1521  0.1135 -1.1269
 7330SOL    HW133626   4.654   2.786   4.703  1.0539 -0.8585  2.8244
 7330SOL    HW233627   4.569   2.889   4.745  0.0816  1.5728 -0.7966
 7331SOL     OW33628   0.947   0.835   7.374 -0.1619 -0.1038 -0.7717
 7331SOL    HW133629   0.858   0.803   7.390  0.5987 -1.3083  1.0102
 7331SOL    HW233630   0.994   0.787   7.442  1.7663  0.9478 -1.3701
 7332SOL     OW33631   1.087   1.619  13.197  0.2310 -0.1940 -0.0025
 7332SOL    HW133632   1.155   1.581  13.253  0.1639  2.4713  1.8898
 7332SOL    HW233633   1.006   1.579  13.228 -0.5989  0.1677 -1.6653
 7333SOL     OW33634   0.670   3.296  14.591  0.1321 -0.4032 -0.0443
 7333SOL    HW133635   0.695   3.204  14.586  1.6146  0.1711 -3.1219
 7333SOL    HW233636   0.666   3.318  14.498  2.2875 -1.7591 -0.4480
 7334SOL     OW33637   1.368   2.364   1.323 -0.2721  0.6781  0.0304
 7334SOL    HW133638   1.287   2.312   1.320 -0.4803  1.0241 -0.3263
 7334SOL    HW233639   1.346   2.438   1.381  2.3329  2.6923 -1.5545
 7335SOL     OW33640   2.995   3.206  17.509 -0.3668 -0.0788 -0.2483
 7335SOL    HW133641   2.901   3.199  17.522 -0.9117  0.7241 -3.7986
 7335SOL    HW233642   3.022   3.254  17.587  0.7108  0.5186 -0.9842
 7336SOL     OW33643   0.885   1.652  13.720 -0.5958  0.4766 -0.4367
 7336SOL    HW133644   0.913   1.735  13.682  0.0525  0.5257  0.1506
 7336SOL    HW233645   0.818   1.624  13.658 -1.3998 -0.4923  0.8653
 7337SOL     OW33646   1.685   0.941   5.571  0.1826 -0.6038  0.4061
 7337SOL    HW133647   1.707   0.955   5.663 -0.5364 -0.6639  0.5813
 7337SOL    HW233648   1.601   0.986   5.572 -0.9040 -2.5762 -2.3460
 7338SOL     OW33649   0.335   3.568   0.894  0.0979 -0.3740  0.0869
 7338SOL    HW133650   0.334   3.579   0.989 -2.8506 -2.4651  0.3167
 7338SOL    HW233651   0.301   3.478   0.890 -1.1927  0.0927  0.3278
 7339SOL     OW33652   2.391   2.445   5.632  0.0579 -0.2213 -0.0233
 7339SOL    HW133653   2.452   2.398   5.575 -0.0270 -0.2601 -0.0836
 7339SOL    HW233654   2.310   2.418   5.588 -0.0951 -0.2179  0.2520
 7340SOL     OW33655   0.033   0.053   0.304  0.0275  0.7398  0.4297
 7340SOL    HW133656   0.054   4.715   0.362  0.5038 -1.1740 -2.1937
 7340SOL    HW233657   0.117   0.098   0.296 -0.5813  2.0545  1.5688
 7341SOL     OW33658   4.190   4.421   3.865 -0.0028 -0.3931  0.6125
 7341SOL    HW133659   4.267   4.436   3.812 -0.9764  3.1238  0.1780
 7341SOL    HW233660   4.227   4.413   3.953  0.6138  1.8898  0.5406
 7342SOL     OW33661   0.573   1.028   7.490  0.0483  0.3975 -0.0839
 7342SOL    HW133662   0.618   0.961   7.543  0.3166 -0.6885 -1.6906
 7342SOL    HW233663   0.556   1.101   7.549 -0.3718 -0.8197  1.3176
 7343SOL     OW33664   1.898   2.860  10.183 -0.0108 -0.2080  0.3518
 7343SOL    HW133665   1.894   2.882  10.277 -1.3234 -2.1558  0.7496
 7343SOL    HW233666   1.816   2.895  10.150 -0.3080 -0.1212  1.1672
 7344SOL     OW33667   0.287   1.177   5.315  0.1038 -0.7877  0.6377
 7344SOL    HW133668   0.214   1.235   5.294  1.1469  0.7014  1.1398
 7344SOL    HW233669   0.299   1.190   5.409 -2.3639  1.1190  0.6786
 7345SOL     OW33670   1.758   1.365   4.383  0.0428  0.0209 -0.5315
 7345SOL    HW133671   1.753   1.350   4.477 -1.4881 -1.8163 -0.9055
 7345SOL    HW233672   1.672   1.328   4.363  0.2207 -0.4715 -0.3933
 7346SOL     OW33673   1.416   4.344   7.482 -0.2702 -0.2657 -0.0089
 7346SOL    HW133674   1.471   4.266   7.477  1.1747  0.8908 -2.3320
 7346SOL    HW233675   1.339   4.307   7.439 -0.3069 -1.4783  1.1080
 7347SOL     OW33676   1.823   3.169   2.703 -0.3383 -0.3705  0.0475
 7347SOL    HW133677   1.889   3.128   2.646  1.1044  1.3051  0.5160
 7347SOL    HW233678   1.757   3.101   2.717 -0.7953  0.3470  1.3511
 7348SOL     OW33679   3.058   1.513   6.701  0.0854 -0.6619 -0.1749
 7348SOL    HW133680   3.098   1.445   6.646 -2.7677 -1.6768 -0.9858
 7348SOL    HW233681   3.027   1.571   6.632 -0.4630  0.3594  0.9388
 7349SOL     OW33682   1.995   1.182   1.830  0.1002 -0.0711 -0.3168
 7349SOL    HW133683   2.022   1.270   1.804 -1.8591  0.8461  0.7494
 7349SOL    HW233684   1.911   1.171   1.785  1.0329  1.9774 -2.5682
 7350SOL     OW33685   0.634   0.242  16.667  0.5184 -0.1071 -0.1673
 7350SOL    HW133686   0.697   0.208  16.730 -1.0443  2.1278  2.5682
 7350SOL    HW233687   0.547   0.226  16.703  0.5584 -2.7512 -1.2759
 7351SOL     OW33688   3.176   2.266   1.981  0.5244  0.4776  0.2139
 7351SOL    HW133689   3.221   2.182   1.972  0.7287  0.8522 -2.2409
 7351SOL    HW233690   3.213   2.292   1.897  1.0957 -0.6258  0.1310
 7352SOL     OW33691   2.188   0.199   5.166  0.0169 -0.0108  0.8131
 7352SOL    HW133692   2.139   0.200   5.084 -1.3106 -0.9363  1.6022
 7352SOL    HW233693   2.120   0.195   5.233 -0.7776  1.9389  0.1048
 7353SOL     OW33694   1.660   0.175   3.088  0.4255  0.8116  0.0731
 7353SOL    HW133695   1.610   0.234   3.031  0.7634  0.9501 -0.0801
 7353SOL    HW233696   1.632   0.208   3.173  0.3236 -0.7667  0.6593
 7354SOL     OW33697   2.419   3.889   4.691  0.4145 -0.3129  0.1800
 7354SOL    HW133698   2.466   3.808   4.673 -0.9857 -0.8955 -0.8373
 7354SOL    HW233699   2.332   3.863   4.721 -0.3385  0.3877 -1.4045
 7355SOL     OW33700   3.070   1.693   4.200  0.2945 -0.2071  0.3542
 7355SOL    HW133701   3.034   1.604   4.196  0.9461 -0.5040  1.2876
 7355SOL    HW233702   3.028   1.720   4.282 -3.7117 -0.2801 -1.6339
 7356SOL     OW33703   0.720   0.514   4.105  0.3067  0.1677 -0.3115
 7356SOL    HW133704   0.717   0.605   4.076  0.3899  0.7649  1.5523
 7356SOL    HW233705   0.730   0.481   4.015  2.3554  1.6168 -0.6175
 7357SOL     OW33706   3.989   0.525   8.987  0.0034  0.6910  0.1599
 7357SOL    HW133707   4.002   0.618   9.005 -0.5540  0.4247  1.9590
 7357SOL    HW233708   3.934   0.519   8.909  0.6669  0.5118 -0.2964
 7358SOL     OW33709   4.177   0.847   1.753  0.4861  0.4427  0.1470
 7358SOL    HW133710   4.138   0.759   1.760  0.8877  0.1921 -0.7066
 7358SOL    HW233711   4.224   0.849   1.836  1.1366 -0.3720 -0.1963
 7359SOL     OW33712   2.582   4.310   9.553 -0.1823 -0.2137 -0.1364
 7359SOL    HW133713   2.611   4.270   9.471  1.0504 -1.0587  0.7075
 7359SOL    HW233714   2.555   4.232   9.602  1.5406 -0.0150  1.1282
 7360SOL     OW33715   1.384   0.770   2.225 -0.1026  0.3230 -0.2097
 7360SOL    HW133716   1.316   0.707   2.201 -0.8901 -0.8266  5.0673
 7360SOL    HW233717   1.461   0.719   2.199 -0.0858  0.2397 -0.0011
 7361SOL     OW33718   0.261   2.086   5.355 -0.1117 -0.8592  0.4420
 7361SOL    HW133719   0.348   2.068   5.390  0.5576  0.4534 -0.5604
 7361SOL    HW233720   0.235   2.119   5.441  0.9444  0.8868  0.0994
 7362SOL     OW33721   3.880   1.999   2.605 -0.3797  0.2133  0.3043
 7362SOL    HW133722   3.818   2.034   2.542  2.6941  3.2007 -1.0278
 7362SOL    HW233723   3.966   2.023   2.570 -0.7071 -0.7129 -1.1379
 7363SOL     OW33724   2.418   1.672  13.708 -0.2452  0.0832  0.0782
 7363SOL    HW133725   2.405   1.587  13.666  0.6296 -0.3867  0.7486
 7363SOL    HW233726   2.459   1.645  13.791 -0.2851  0.6566  0.2851
 7364SOL     OW33727   4.379   0.420   0.595 -0.1799  0.2084 -0.0415
 7364SOL    HW133728   4.361   0.433   0.688 -1.3931  0.4662 -0.3129
 7364SOL    HW233729   4.367   0.326   0.581  0.0333  0.4110 -1.6025
 7365SOL     OW33730   1.784   4.570   2.846 -0.3563  0.1047 -0.6077
 7365SOL    HW133731   1.757   4.571   2.754  1.7223  1.9853 -1.1790
 7365SOL    HW233732   1.775   4.663   2.865 -1.3597 -0.1919  0.3647
 7366SOL     OW33733   4.452   3.499  15.841 -0.1497  0.3796 -0.3143
 7366SOL    HW133734   4.537   3.474  15.875  0.2053  0.0920 -1.4155
 7366SOL    HW233735   4.479   3.575  15.790  1.9995 -0.9405 -1.1091
 7367SOL     OW33736   0.491   2.169   4.403 -0.3928 -0.2383 -0.1155
 7367SOL    HW133737   0.501   2.074   4.401  0.1301 -0.1977  0.3446
 7367SOL    HW233738   0.397   2.183   4.400  0.1150  2.7287 -2.0798
 7368SOL     OW33739   0.478   1.614   3.595 -0.6157 -0.2776 -0.1118
 7368SOL    HW133740   0.483   1.695   3.646 -2.8540 -1.0720  1.3827
 7368SOL    HW233741   0.451   1.659   3.515 -1.5990  0.6489  0.7308
 7369SOL     OW33742   1.278   3.267   5.955 -0.1736 -0.4735 -0.1168
 7369SOL    HW133743   1.234   3.323   6.018  0.3592 -0.7502  0.5075
 7369SOL    HW233744   1.368   3.298   5.950 -1.0151  1.8507 -0.4911
 7370SOL     OW33745   1.980   2.883   9.358 -0.3295 -0.0022  0.3977
 7370SOL    HW133746   2.055   2.831   9.331 -0.0440  0.8331 -0.4130
 7370SOL    HW233747   2.012   2.902   9.446 -0.7824 -0.7872  0.7329
 7371SOL     OW33748   1.435   2.786  12.032  0.4400 -0.6095 -0.3386
 7371SOL    HW133749   1.473   2.872  12.049  0.1010 -1.1990  3.2466
 7371SOL    HW233750   1.463   2.736  12.109  1.8874 -0.3233 -0.6694
 7372SOL     OW33751   1.650   2.927   8.423 -0.4304  0.4738  0.2886
 7372SOL    HW133752   1.675   2.845   8.464  2.0163  0.3125 -1.5616
 7372SOL    HW233753   1.668   2.908   8.331  0.6947 -3.0778  1.2454
 7373SOL     OW33754   0.413   0.904   5.770  0.6189  0.0554 -0.1078
 7373SOL    HW133755   0.495   0.872   5.732 -0.5039 -1.2986 -1.3947
 7373SOL    HW233756   0.348   0.841   5.740  0.0676  1.1893 -1.3412
 7374SOL     OW33757   1.030   3.027   8.378 -0.6123 -0.6330  0.2421
 7374SOL    HW133758   0.999   2.953   8.326  1.3676 -1.3693  0.1143
 7374SOL    HW233759   1.020   3.007   8.472  2.2854  1.0884  0.9192
 7375SOL     OW33760   2.765   0.622   2.834 -0.7266 -0.1664  0.3628
 7375SOL    HW133761   2.760   0.714   2.859 -0.3338  0.0243 -0.2463
 7375SOL    HW233762   2.730   0.576   2.909 -0.3582 -0.7284  0.1888
 7376SOL     OW33763   2.323   3.415   4.414 -0.1980 -0.1684 -0.3199
 7376SOL    HW133764   2.358   3.443   4.329 -1.1069 -2.5859 -1.4851
 7376SOL    HW233765   2.231   3.435   4.400 -0.0382  1.5027  0.9651
 7377SOL     OW33766   2.718   2.057  14.936  0.2195 -0.4562 -0.0947
 7377SOL    HW133767   2.734   2.093  15.023  0.6469 -1.4890  0.2513
 7377SOL    HW233768   2.675   1.974  14.958 -0.5093 -0.8548 -2.9107
 7378SOL     OW33769   1.210   1.181   7.161 -0.6586  0.5335  0.1517
 7378SOL    HW133770   1.239   1.197   7.071 -1.4173 -2.4284 -0.6331
 7378SOL    HW233771   1.116   1.196   7.148 -0.9625  0.0963  1.7985
 7379SOL     OW33772   0.637   0.136   4.418 -0.2101  0.1862  0.2255
 7379SOL    HW133773   0.692   0.199   4.371 -1.5812  1.8753  0.8487
 7379SOL    HW233774   0.590   0.185   4.486  0.9871 -0.0231  1.2086
 7380SOL     OW33775   0.627   3.129   1.600  0.1726  0.1751  0.3399
 7380SOL    HW133776   0.534   3.126   1.620  0.6299 -1.6391  2.2584
 7380SOL    HW233777   0.659   3.046   1.636 -1.0572 -1.3856 -2.1536
 7381SOL     OW33778   0.320   3.019   5.088 -0.1484  0.6350  0.6923
 7381SOL    HW133779   0.331   2.936   5.042 -1.0271  0.5062  0.7071
 7381SOL    HW233780   0.332   2.990   5.179 -0.8773 -1.5519  0.0884
 7382SOL     OW33781   3.902   3.695   2.015 -0.4782 -0.1045 -0.0759
 7382SOL    HW133782   3.967   3.680   1.946  0.3776 -0.5703  0.8266
 7382SOL    HW233783   3.931   3.783   2.040 -0.5867 -0.0740 -0.0592
 7383SOL     OW33784   4.098   4.474  16.929  0.7090 -0.5373  0.0941
 7383SOL    HW133785   4.163   4.538  16.900  1.7173 -1.3776  0.4979
 7383SOL    HW233786   4.153   4.396  16.930  1.5312  0.0426  0.2159
 7384SOL     OW33787   2.416   0.506  15.070  0.9301 -0.0525  0.1987
 7384SOL    HW133788   2.450   0.472  14.987  1.9051 -0.0481  0.5972
 7384SOL    HW233789   2.493   0.540  15.115  1.0474  2.2443 -1.7482
 7385SOL     OW33790   1.094   1.885   7.522  0.3174  0.1262 -0.3853
 7385SOL    HW133791   1.035   1.855   7.591  1.3887  1.9029  1.2893
 7385SOL    HW233792   1.099   1.981   7.520 -0.5518  0.1879  0.5115
 7386SOL     OW33793   4.576   2.143  16.423  0.3711 -0.6203  0.4418
 7386SOL    HW133794   4.617   2.227  16.444  0.3974 -0.6168  0.3748
 7386SOL    HW233795   4.602   2.136  16.331 -1.2706  2.3301 -0.2388
 7387SOL     OW33796   3.237   0.611  15.617  0.2975 -0.5232  0.6580
 7387SOL    HW133797   3.193   0.539  15.572  0.0522  1.7083 -2.6108
 7387SOL    HW233798   3.218   0.572  15.703  0.7123  0.3012  1.1233
 7388SOL     OW33799   2.334   3.837   8.666  0.4901 -0.1287 -0.1894
 7388SOL    HW133800   2.267   3.905   8.665 -0.2991 -0.9274 -0.9055
 7388SOL    HW233801   2.316   3.796   8.582  0.2577 -0.3029 -0.0529
 7389SOL     OW33802   1.488   1.224   4.457  0.1426  0.1648  0.3882
 7389SOL    HW133803   1.531   1.139   4.443  1.6402  1.3604 -2.2366
 7389SOL    HW233804   1.437   1.213   4.377  1.7294 -2.8542 -0.2443
 7390SOL     OW33805   3.405   3.975   2.203  0.0411 -0.5376 -0.2328
 7390SOL    HW133806   3.326   4.023   2.178  0.6743  0.8398  0.4085
 7390SOL    HW233807   3.442   4.032   2.270 -1.6150 -0.3065  0.4884
 7391SOL     OW33808   4.189   2.774   0.788 -0.9241 -0.7719  0.8059
 7391SOL    HW133809   4.182   2.859   0.833 -1.1777  0.5266 -1.6892
 7391SOL    HW233810   4.264   2.784   0.730 -0.8750 -0.1346  0.9728
 7392SOL     OW33811   3.229   2.034   3.081  0.1369  0.5056  0.5967
 7392SOL    HW133812   3.155   2.050   3.023 -0.5141 -0.8846  1.0419
 7392SOL    HW233813   3.189   1.985   3.152 -0.6159  1.3307  0.7362
 7393SOL     OW33814   4.366   1.631   4.411  0.0367  0.3376 -0.3105
 7393SOL    HW133815   4.332   1.647   4.323 -2.7828  0.1234  0.7202
 7393SOL    HW233816   4.452   1.596   4.390  0.1286  0.0828  0.4886
 7394SOL     OW33817   1.788   1.688   3.197  0.0748 -0.7547  0.1672
 7394SOL    HW133818   1.833   1.764   3.162 -2.0268  0.1138 -0.6225
 7394SOL    HW233819   1.742   1.731   3.270 -0.6246  1.3579 -1.5055
 7395SOL     OW33820   2.870   1.122   7.847  0.2731  0.1678 -0.7562
 7395SOL    HW133821   2.921   1.153   7.772  2.1364  0.8472  0.8283
 7395SOL    HW233822   2.823   1.059   7.791  1.2950 -1.2588 -0.0010
 7396SOL     OW33823   4.447   0.423   5.699  0.0911  0.3583  0.8116
 7396SOL    HW133824   4.428   0.452   5.788  1.3453  1.1984  0.8058
 7396SOL    HW233825   4.505   0.490   5.663 -2.2823  2.3780  0.7435
 7397SOL     OW33826   0.728   4.308   8.020 -0.1897 -0.2322 -0.6222
 7397SOL    HW133827   0.820   4.324   8.042 -1.0702  0.5546  2.4600
 7397SOL    HW233828   0.748   4.253   7.944  0.3650  1.1997 -1.4935
 7398SOL     OW33829   2.628   4.479   7.510  0.5442  0.0141  0.2862
 7398SOL    HW133830   2.592   4.391   7.514 -0.4842  0.5062  1.7637
 7398SOL    HW233831   2.580   4.513   7.434 -0.0915  1.3754  1.3043
 7399SOL     OW33832   1.691   3.567   7.301 -0.1954  0.1258 -0.3636
 7399SOL    HW133833   1.672   3.479   7.268 -0.4416 -0.9254  2.5740
 7399SOL    HW233834   1.610   3.613   7.280  0.0952  0.7497 -0.1223
 7400SOL     OW33835   3.027   0.563   9.087  0.3730 -0.2253 -0.6323
 7400SOL    HW133836   3.116   0.567   9.053  0.7344 -2.1171  0.0830
 7400SOL    HW233837   3.012   0.469   9.092  0.4807 -0.2780 -1.2924
 7401SOL     OW33838   2.252   1.299   0.985 -0.2782 -0.0241  0.0836
 7401SOL    HW133839   2.245   1.360   0.912 -0.8636  0.3980  0.4846
 7401SOL    HW233840   2.340   1.327   1.009 -0.4293  0.8513 -0.3684
 7402SOL     OW33841   3.453   1.113   6.433 -0.2175 -0.3506 -0.1303
 7402SOL    HW133842   3.473   1.206   6.447 -2.7155  0.4539 -1.8339
 7402SOL    HW233843   3.536   1.094   6.389  1.1677 -1.2127  2.8679
 7403SOL     OW33844   3.412   1.290   1.879 -0.1003 -0.3709 -0.3031
 7403SOL    HW133845   3.402   1.363   1.818 -2.0128 -1.2366 -1.0129
 7403SOL    HW233846   3.330   1.291   1.928 -0.0728 -0.4132 -0.2565
 7404SOL     OW33847   3.687   1.986  13.941 -0.2167  0.5583  0.0200
 7404SOL    HW133848   3.770   2.030  13.959 -0.0445 -0.6039  2.0533
 7404SOL    HW233849   3.633   2.020  14.012 -2.1692  0.9492 -1.6159
 7405SOL     OW33850   3.508   2.179   3.440 -0.0348 -0.3199 -0.7511
 7405SOL    HW133851   3.442   2.155   3.505  0.1844  2.4520  0.5074
 7405SOL    HW233852   3.478   2.266   3.412 -1.3785 -0.9866 -1.4115
 7406SOL     OW33853   1.274   3.683  12.621 -0.2368  0.4132 -0.6376
 7406SOL    HW133854   1.278   3.755  12.685  1.2738  1.1711 -1.5910
 7406SOL    HW233855   1.189   3.648  12.649 -0.2005 -0.7632 -2.0044
 7407SOL     OW33856   1.864   0.757   7.303  0.5112 -0.6471  0.4381
 7407SOL    HW133857   1.927   0.697   7.263  1.9934  0.6881  0.7570
 7407SOL    HW233858   1.785   0.714   7.271  1.7611 -3.4052  1.0943
 7408SOL     OW33859   1.774   3.921   7.404 -0.0555  0.1595 -0.0229
 7408SOL    HW133860   1.766   3.848   7.342  0.7158  1.1890 -1.3454
 7408SOL    HW233861   1.869   3.929   7.391 -0.4760  0.8787 -2.6218
 7409SOL     OW33862   2.323   3.771   3.107  0.0097  0.5389  0.2696
 7409SOL    HW133863   2.337   3.784   3.201 -0.5266 -0.2536  0.4612
 7409SOL    HW233864   2.279   3.685   3.108  0.5389  0.2102 -4.1327
 7410SOL     OW33865   3.878   3.535  15.747  0.3197  0.3738  0.1754
 7410SOL    HW133866   3.882   3.440  15.736  2.1438  0.6174 -1.4065
 7410SOL    HW233867   3.946   3.547  15.680  0.4339  0.2760  0.2720
 7411SOL     OW33868   3.330   3.918   3.241 -0.3734  0.1677 -0.7261
 7411SOL    HW133869   3.345   3.882   3.154  1.9185 -1.6453  0.3860
 7411SOL    HW233870   3.331   3.840   3.297  0.0278 -1.7720 -3.4215
 7412SOL     OW33871   1.597   1.136   9.642 -0.3730  0.3244 -0.2072
 7412SOL    HW133872   1.627   1.176   9.724  1.5227  2.0652 -1.7444
 7412SOL    HW233873   1.538   1.203   9.607 -0.7613 -0.8263 -1.7355
 7413SOL     OW33874   2.367   1.749   8.986 -0.2730 -0.2715  0.3699
 7413SOL    HW133875   2.388   1.832   9.028 -0.7119 -0.5434  1.1315
 7413SOL    HW233876   2.434   1.728   8.921  0.1584  0.2828  0.6407
 7414SOL     OW33877   3.849   0.924  17.239 -0.2795 -0.7440  0.4141
 7414SOL    HW133878   3.902   0.981  17.294 -0.5187 -1.6225  1.5491
 7414SOL    HW233879   3.891   0.934  17.153 -0.5589  0.6242  0.4411
 7415SOL     OW33880   3.419   4.532   5.100  0.0731  0.1766  0.3057
 7415SOL    HW133881   3.461   4.527   5.185 -0.1474 -1.2352  0.3252
 7415SOL    HW233882   3.327   4.518   5.124 -0.0643  1.3850  0.5101
 7416SOL     OW33883   3.096   3.853   5.038 -0.0553  0.2478 -0.1243
 7416SOL    HW133884   3.159   3.788   5.006 -0.4493 -0.5275  0.6834
 7416SOL    HW233885   3.010   3.812   5.044  0.3499 -0.3617  1.4169
 7417SOL     OW33886   3.368   1.339   9.561  0.4057  0.5927  0.7269
 7417SOL    HW133887   3.387   1.405   9.627  0.7644 -0.4537  1.6680
 7417SOL    HW233888   3.380   1.260   9.613  1.7298 -1.6981 -3.0029
 7418SOL     OW33889   4.332   0.519   0.331 -0.6112 -0.1798 -0.0872
 7418SOL    HW133890   4.297   0.608   0.331 -0.8370 -0.2727  0.7629
 7418SOL    HW233891   4.348   0.499   0.423  0.7433 -4.1174 -1.1544
 7419SOL     OW33892   3.854   0.373  13.049  0.0305 -1.1006  0.7066
 7419SOL    HW133893   3.927   0.312  13.062  0.1082 -1.1769 -0.0852
 7419SOL    HW233894   3.849   0.357  12.955  0.5232 -0.4510  0.5715
 7420SOL     OW33895   1.999   2.788  14.716  0.2050  0.6555 -0.5426
 7420SOL    HW133896   1.918   2.787  14.767 -1.2711  2.8710 -2.8543
 7420SOL    HW233897   2.055   2.786  14.794 -0.4117 -0.5724 -0.1290
 7421SOL     OW33898   0.781   2.249  14.743  0.5233 -0.6403 -0.2952
 7421SOL    HW133899   0.825   2.289  14.817  0.4249  1.3885 -1.3142
 7421SOL    HW233900   0.699   2.299  14.741 -0.0516 -1.5430  0.9199
 7422SOL     OW33901   0.311   4.184   3.240 -0.2643 -0.2098 -0.7107
 7422SOL    HW133902   0.280   4.272   3.217 -0.6474 -0.7743 -2.3433
 7422SOL    HW233903   0.266   4.124   3.181 -2.0060  1.6622 -1.2955
 7423SOL     OW33904   3.800   3.729  17.689 -0.6913 -0.3527  0.3491
 7423SOL    HW133905   3.737   3.697  17.624 -1.7931 -0.0418  1.2750
 7423SOL    HW233906   3.793   3.664   0.016 -0.2802 -0.9821 -0.1781
 7424SOL     OW33907   1.296   1.113  11.856  0.0714 -0.0896  0.3491
 7424SOL    HW133908   1.340   1.035  11.890 -0.0292 -1.3885 -2.4952
 7424SOL    HW233909   1.321   1.179  11.920  1.9355 -1.9527  1.5425
 7425SOL     OW33910   4.217   2.815   4.641  0.2166 -0.4993  0.0262
 7425SOL    HW133911   4.248   2.740   4.691  1.0351 -0.9624 -1.1922
 7425SOL    HW233912   4.271   2.809   4.563  1.6038 -0.5162  1.0021
 7426SOL     OW33913   1.915   1.258   4.157  0.1372  0.2176 -0.3483
 7426SOL    HW133914   1.908   1.318   4.231  0.1806  0.1875 -0.3198
 7426SOL    HW233915   1.872   1.182   4.196 -0.4559  0.5959 -0.2671
 7427SOL     OW33916   4.216   0.875   6.260  0.2785 -0.4363 -0.2459
 7427SOL    HW133917   4.287   0.813   6.246  1.9166  1.1701  0.9690
 7427SOL    HW233918   4.249   0.962   6.238 -1.3674 -0.0184 -1.1064
 7428SOL     OW33919   3.865   0.848   5.296  0.1582 -0.1218 -0.0512
 7428SOL    HW133920   3.884   0.858   5.203  0.4619  3.4813  0.3854
 7428SOL    HW233921   3.799   0.779   5.294  0.0271 -0.0073  0.2135
 7429SOL     OW33922   0.188   4.140   8.205 -0.4123 -0.5927  0.2669
 7429SOL    HW133923   0.260   4.082   8.180  0.9118  1.7420 -1.3694
 7429SOL    HW233924   0.117   4.082   8.230 -0.7607 -0.9561 -1.5582
 7430SOL     OW33925   2.980   2.506   4.506 -0.0340 -0.5745  0.0605
 7430SOL    HW133926   2.928   2.548   4.574  0.0245  1.9951 -1.4890
 7430SOL    HW233927   3.070   2.517   4.535 -0.2758  1.7188 -0.0970
 7431SOL     OW33928   4.459   3.823  12.723  0.4865  0.1840 -0.4251
 7431SOL    HW133929   4.400   3.897  12.737 -0.8903 -0.8212 -0.9512
 7431SOL    HW233930   4.497   3.808  12.810 -2.3060 -0.7341  0.6480
 7432SOL     OW33931   0.458   4.554   0.493 -0.0007 -0.2913 -0.6317
 7432SOL    HW133932   0.523   4.487   0.514  2.1933  2.2520  0.5524
 7432SOL    HW233933   0.520   4.612   0.450  0.4958 -1.5226 -1.5909
 7433SOL     OW33934   3.037   2.268   3.163  0.2677  0.0757  0.2299
 7433SOL    HW133935   3.005   2.201   3.101  0.9989  1.0919 -1.2529
 7433SOL    HW233936   3.058   2.340   3.103 -2.9996  0.3398 -0.6548
 7434SOL     OW33937   0.081   3.433   6.498  0.0984  0.1391  0.0329
 7434SOL    HW133938   4.735   3.471   6.467  0.8962  1.7728 -0.0737
 7434SOL    HW233939   0.088   3.343   6.466  1.2141  1.2952 -2.9171
 7435SOL     OW33940   1.532   4.628   3.793  0.3585  0.1759 -0.3717
 7435SOL    HW133941   1.622   4.596   3.791  0.0814 -0.5813 -0.5610
 7435SOL    HW233942   1.486   4.566   3.737  0.9457 -0.6538  0.0704
 7436SOL     OW33943   3.293   4.581   6.774 -0.4587 -0.3923 -0.5801
 7436SOL    HW133944   3.301   4.615   6.863  0.7279 -2.4838  0.0938
 7436SOL    HW233945   3.334   4.647   6.717  2.2957 -2.7428 -1.2973
 7437SOL     OW33946   1.394   3.534   2.230  0.0982 -0.2834 -0.4175
 7437SOL    HW133947   1.327   3.504   2.169  0.0547  2.1347 -1.5518
 7437SOL    HW233948   1.372   3.496   2.315  1.2210  1.3913  0.6393
 7438SOL     OW33949   2.151   4.057   2.145 -0.2737 -0.0465  0.5034
 7438SOL    HW133950   2.073   4.097   2.107  0.9958  0.9717 -1.0204
 7438SOL    HW233951   2.218   4.109   2.101 -1.0439 -1.2631 -2.0969
 7439SOL     OW33952   0.625   2.731   8.304  0.2061  0.7272 -0.7146
 7439SOL    HW133953   0.531   2.719   8.317  0.4824 -0.5778  0.0628
 7439SOL    HW233954   0.648   2.699   8.217  0.4660 -2.3199  0.5053
 7440SOL     OW33955   1.034   1.555  15.007 -0.2920  0.2759  0.1345
 7440SOL    HW133956   1.118   1.601  14.999  0.7594 -1.6019  0.1544
 7440SOL    HW233957   1.016   1.523  14.919 -3.4086  0.0227  0.8556
 7441SOL     OW33958   0.747   2.459   1.949  0.0216  0.3151 -0.2514
 7441SOL    HW133959   0.760   2.366   1.966 -3.4796 -0.2356 -0.6245
 7441SOL    HW233960   0.713   2.495   2.031  3.3226  0.1080  1.2038
 7442SOL     OW33961   4.308   4.121   5.390 -0.0470 -0.2468 -0.3572
 7442SOL    HW133962   4.307   4.209   5.426 -1.1319 -0.6386  0.5694
 7442SOL    HW233963   4.343   4.076   5.467 -1.1056 -0.6149 -0.0893
 7443SOL     OW33964   0.246   4.716   4.831  0.0755  0.1392  0.6914
 7443SOL    HW133965   0.290   0.010   4.910 -2.3411  2.0986  1.3118
 7443SOL    HW233966   0.157   4.723   4.868 -0.7199  0.3126 -1.2563
 7444SOL     OW33967   1.670   3.123   5.021  0.6845 -0.0816 -0.5316
 7444SOL    HW133968   1.695   3.135   4.929  3.3370  0.4488  0.2584
 7444SOL    HW233969   1.578   3.149   5.023  0.1695 -1.7862 -1.8946
 7445SOL     OW33970   2.859   1.808  11.823  0.4855 -0.0494  0.0358
 7445SOL    HW133971   2.868   1.893  11.867 -0.3982 -0.0274  0.1784
 7445SOL    HW233972   2.768   1.792  11.849  0.9487 -1.2779  0.8842
 7446SOL     OW33973   0.014   2.425   1.636 -0.7967  0.3060 -0.8383
 7446SOL    HW133974   0.082   2.359   1.625 -0.0261  0.3653  3.6226
 7446SOL    HW233975   0.073   2.493   1.668 -0.0046 -0.6519 -0.2660
 7447SOL     OW33976   4.350   0.044  13.810 -0.2331  0.5867  0.6317
 7447SOL    HW133977   4.364   4.731  13.891  1.3617 -0.5756 -0.3464
 7447SOL    HW233978   4.430   0.096  13.804 -0.6140  1.1040 -0.0084
 7448SOL     OW33979   3.230   1.960   0.164  0.6356  0.1158  0.2557
 7448SOL    HW133980   3.202   1.992   0.079  1.4733  1.5597  0.5343
 7448SOL    HW233981   3.173   2.019   0.213 -0.0171  0.1548 -0.5596
 7449SOL     OW33982   1.181   1.772  17.483  0.0359 -0.6732 -0.1041
 7449SOL    HW133983   1.174   1.793  17.390 -0.5560 -2.2379 -0.4215
 7449SOL    HW233984   1.223   1.686  17.475  1.5435 -0.0774  1.5010
 7450SOL     OW33985   3.276   4.089  10.758  0.5516 -0.1003 -0.1599
 7450SOL    HW133986   3.189   4.080  10.719  0.3984 -2.3155  0.6642
 7450SOL    HW233987   3.271   4.177  10.795 -1.9446 -0.7698  1.0450
 7451SOL     OW33988   1.135   1.232  10.142 -0.1939 -0.0891 -0.8292
 7451SOL    HW133989   1.102   1.180  10.069  1.1396 -0.6457 -1.0282
 7451SOL    HW233990   1.086   1.191  10.214  3.0993 -0.8914  0.9517
 7452SOL     OW33991   2.031   3.917   3.790 -0.0307  0.0845  0.4502
 7452SOL    HW133992   2.035   4.001   3.836  0.7015 -0.4500  1.3587
 7452SOL    HW233993   2.049   3.942   3.699 -0.5691 -0.2991  0.2406
 7453SOL     OW33994   1.677   0.238   6.342  0.5519 -0.1780 -0.2402
 7453SOL    HW133995   1.769   0.212   6.334  0.7805 -0.1913  2.4293
 7453SOL    HW233996   1.634   0.157   6.367 -0.1371 -0.1249 -1.2335
 7454SOL     OW33997   3.255   2.006   4.673  0.3088 -0.5015 -0.1447
 7454SOL    HW133998   3.166   2.003   4.638  1.0389 -0.1583 -2.0289
 7454SOL    HW233999   3.278   2.098   4.657 -1.8311 -0.1484 -1.0882
 7455SOL     OW34000   0.692   3.692   3.463 -0.3682 -0.2702  0.0706
 7455SOL    HW134001   0.633   3.768   3.466  1.4741  1.1325  0.6143
 7455SOL    HW234002   0.728   3.696   3.552  0.3864  0.1965 -0.2561
 7456SOL     OW34003   0.993   2.615   8.491 -0.0453  0.6537  0.0863
 7456SOL    HW134004   1.002   2.542   8.552  1.1470 -0.0144 -0.8810
 7456SOL    HW234005   0.906   2.638   8.523 -0.6654 -0.5040 -0.7829
 7457SOL     OW34006   2.030   0.009  13.199  0.1020  0.3352  0.2894
 7457SOL    HW134007   1.967   4.688  13.243  0.4737  2.1712  3.2420
 7457SOL    HW234008   2.073   0.044  13.277 -1.5868  0.6606  1.0801
 7458SOL     OW34009   0.341   3.696   4.869 -0.0699 -0.1131 -0.1565
 7458SOL    HW134010   0.413   3.637   4.892  0.4637  1.8250  3.1828
 7458SOL    HW234011   0.368   3.763   4.806 -0.4187  0.1923  0.0171
 7459SOL     OW34012   4.579   3.240   5.660 -0.2936  0.2741  0.1547
 7459SOL    HW134013   4.635   3.283   5.594 -0.8233  0.2422 -0.3137
 7459SOL    HW234014   4.618   3.153   5.669  1.2409  0.9454  0.0757
 7460SOL     OW34015   3.728   2.182   2.074 -0.2221 -0.2598 -0.7568
 7460SOL    HW134016   3.695   2.135   1.998 -1.0561  0.0045 -0.5541
 7460SOL    HW234017   3.734   2.110   2.137  1.6343  0.9283  0.4342
 7461SOL     OW34018   1.739   1.527   8.978 -0.0864  0.5560 -0.2464
 7461SOL    HW134019   1.820   1.514   8.930  0.0962 -1.1425  0.5011
 7461SOL    HW234020   1.764   1.490   9.063  1.6603  0.3924 -0.8473
 7462SOL     OW34021   4.098   0.145   3.350 -0.0182 -0.7014 -0.2356
 7462SOL    HW134022   4.074   0.237   3.356 -1.4467 -1.0984  0.0355
 7462SOL    HW234023   4.181   0.147   3.302  1.2275  1.6852  2.0375
 7463SOL     OW34024   4.103   0.852   2.887  0.4442  0.1355  0.1282
 7463SOL    HW134025   4.045   0.903   2.944  0.0027  1.7014 -1.7139
 7463SOL    HW234026   4.092   0.907   2.810 -0.6306 -3.9889 -2.6514
 7464SOL     OW34027   0.179   1.494   6.084 -0.6552  0.0308 -0.3962
 7464SOL    HW134028   0.110   1.512   6.147  0.0324 -0.1582  0.3982
 7464SOL    HW234029   0.134   1.541   6.013 -2.4363  0.0020  0.7244
 7465SOL     OW34030   2.357   2.736  16.551  0.5080  0.1454  0.0594
 7465SOL    HW134031   2.406   2.818  16.539 -0.3515  0.4535 -1.2822
 7465SOL    HW234032   2.353   2.706  16.461  2.9442  0.0949 -0.0514
 7466SOL     OW34033   2.239   2.793   2.781 -0.7185  0.3954 -0.0642
 7466SOL    HW134034   2.276   2.719   2.828 -0.0803  2.0606  2.0565
 7466SOL    HW234035   2.244   2.756   2.693  3.1818  0.1919  0.2623
 7467SOL     OW34036   4.491   4.173  10.917  0.0556  0.1561  0.2595
 7467SOL    HW134037   4.507   4.171  11.012 -3.0288  0.4631  0.7705
 7467SOL    HW234038   4.462   4.264  10.909 -1.7831 -0.7036 -2.6708
 7468SOL     OW34039   0.613   4.184  15.878  0.1219  0.0909 -0.4286
 7468SOL    HW134040   0.580   4.101  15.912  0.0408  0.3565  0.1309
 7468SOL    HW234041   0.705   4.176  15.855 -0.2230 -2.1417 -1.0519
 7469SOL     OW34042   1.326   1.968   3.119  0.1519 -0.4283 -0.7696
 7469SOL    HW134043   1.325   2.035   3.051  1.9263  1.4934  1.0913
 7469SOL    HW234044   1.246   1.993   3.165  1.5591  0.7883  0.9923
 7470SOL     OW34045   3.335   1.896  10.049 -0.7266  0.1502 -0.5096
 7470SOL    HW134046   3.427   1.910  10.026 -1.2171  1.3799 -1.7327
 7470SOL    HW234047   3.310   1.988  10.043 -0.3144  0.2889 -0.0756
 7471SOL     OW34048   1.758   4.365   0.718  0.1565  0.0243 -0.2177
 7471SOL    HW134049   1.777   4.452   0.682 -0.9027 -1.0993 -3.5385
 7471SOL    HW234050   1.745   4.316   0.637 -0.0508 -0.3049  0.0154
 7472SOL     OW34051   2.852   3.428  11.750 -0.0723 -0.4222 -0.1010
 7472SOL    HW134052   2.911   3.493  11.789  1.7316 -0.8188 -2.1859
 7472SOL    HW234053   2.910   3.403  11.678 -1.1504 -0.5659 -0.9174
 7473SOL     OW34054   3.500   2.305   6.266 -0.0223  0.0064 -0.3950
 7473SOL    HW134055   3.483   2.246   6.339  2.4869 -1.1208 -0.7259
 7473SOL    HW234056   3.584   2.270   6.237  0.9826  0.9733  1.3978
 7474SOL     OW34057   0.691   3.033  12.590 -0.3581 -0.3896 -0.2077
 7474SOL    HW134058   0.664   2.987  12.670  0.5115  0.5525  0.6348
 7474SOL    HW234059   0.737   2.968  12.538  0.7237 -1.7575  2.4610
 7475SOL     OW34060   3.156   4.604   3.373 -0.1425 -0.6711 -0.1366
 7475SOL    HW134061   3.183   4.591   3.282 -0.5470  1.6287 -0.5692
 7475SOL    HW234062   3.220   4.664   3.411 -0.8121  0.8256 -1.4038
 7476SOL     OW34063   4.546   3.403  12.664 -0.2331 -0.0331 -0.2057
 7476SOL    HW134064   4.567   3.334  12.728 -0.7845 -0.5140 -0.5432
 7476SOL    HW234065   4.525   3.357  12.582  0.4851 -0.3268 -0.2267
 7477SOL     OW34066   1.677   3.387  13.341  0.3525 -0.2188  0.0435
 7477SOL    HW134067   1.593   3.409  13.300 -1.0402 -3.5292  1.1121
 7477SOL    HW234068   1.648   3.357  13.427  0.7623 -2.1745 -0.5108
 7478SOL     OW34069   0.532   1.960  14.720 -0.0066 -0.0988 -0.0204
 7478SOL    HW134070   0.465   1.905  14.761 -1.5401  1.2005 -0.7604
 7478SOL    HW234071   0.521   2.039  14.773  3.9853 -0.6906  1.6276
 7479SOL     OW34072   2.301   2.728   6.613 -0.0286  0.2973 -0.1397
 7479SOL    HW134073   2.299   2.689   6.526  0.6121 -0.1249  0.0406
 7479SOL    HW234074   2.380   2.781   6.606  0.8995 -1.1319 -0.4357
 7480SOL     OW34075   2.841   2.719   5.477 -0.2450 -0.2377 -0.3619
 7480SOL    HW134076   2.866   2.709   5.385 -0.5777  1.2937 -0.6173
 7480SOL    HW234077   2.840   2.634   5.522 -0.4554 -0.6768 -1.1934
 7481SOL     OW34078   1.067   1.329   1.909 -0.3741  0.8295  0.2127
 7481SOL    HW134079   1.037   1.242   1.884  1.1234  0.6434 -0.8548
 7481SOL    HW234080   1.159   1.326   1.886 -0.6323 -1.1764 -0.5658
 7482SOL     OW34081   3.894   0.900   7.514  0.2105 -0.2615  0.1789
 7482SOL    HW134082   3.973   0.894   7.568 -0.5635  1.6157  1.5063
 7482SOL    HW234083   3.938   0.905   7.429 -2.1198  1.0659 -0.9338
 7483SOL     OW34084   2.694   0.942  11.697 -0.1691  0.0120  0.0064
 7483SOL    HW134085   2.644   1.007  11.746 -1.7794  0.8047 -2.6633
 7483SOL    HW234086   2.781   0.978  11.713  0.7283 -2.1632  0.0232
 7484SOL     OW34087   2.859   2.985   6.050 -0.1052  0.0606  0.4092
 7484SOL    HW134088   2.822   2.902   6.079 -1.4611  0.5448  0.0546
 7484SOL    HW234089   2.863   3.033   6.133  0.0370  0.0641  0.4017
 7485SOL     OW34090   1.425   0.832   3.041  0.4848  0.3644  0.2100
 7485SOL    HW134091   1.452   0.833   2.949 -1.5873  0.6327 -0.3823
 7485SOL    HW234092   1.488   0.889   3.085  2.8081 -1.1669 -1.0891
 7486SOL     OW34093   0.598   4.468  14.481 -0.5123  0.5130 -0.5962
 7486SOL    HW134094   0.675   4.524  14.479 -2.0539  2.5330 -2.9186
 7486SOL    HW234095   0.618   4.417  14.403  0.2137  0.0199 -0.0924
 7487SOL     OW34096   1.361   1.845  10.987  0.6445 -0.3377  0.3182
 7487SOL    HW134097   1.293   1.825  11.051 -1.1359  0.3723 -1.3526
 7487SOL    HW234098   1.428   1.890  11.038  0.1250  0.1421  0.5796
 7488SOL     OW34099   0.128   1.337  12.821  0.3792 -0.4208 -0.1357
 7488SOL    HW134100   0.137   1.282  12.744  0.5292 -1.9917  1.0083
 7488SOL    HW234101   0.096   1.275  12.887 -1.4068 -0.8938 -1.4577
 7489SOL     OW34102   2.926   0.504   7.605 -0.1599  0.3788  0.2040
 7489SOL    HW134103   2.848   0.501   7.660 -0.5503  1.5991 -0.2862
 7489SOL    HW234104   2.937   0.599   7.596  0.9790 -0.2367 -5.1487
 7490SOL     OW34105   3.009   2.436   8.282  0.0984  0.6325  0.1516
 7490SOL    HW134106   2.971   2.516   8.247 -1.8262 -0.7710 -1.0229
 7490SOL    HW234107   2.950   2.408   8.351  0.5169  2.4713  1.2422
 7491SOL     OW34108   1.454   4.186   9.563  0.2243 -0.4870  0.6111
 7491SOL    HW134109   1.372   4.144   9.537 -0.0785  0.9915 -0.8249
 7491SOL    HW234110   1.517   4.120   9.534 -0.1965  0.3165 -2.0849
 7492SOL     OW34111   4.367   2.231   2.946 -0.3626 -0.2633  0.0459
 7492SOL    HW134112   4.332   2.143   2.933 -2.4488  0.7549 -1.0738
 7492SOL    HW234113   4.308   2.286   2.895 -1.0887 -0.9982  0.0908
 7493SOL     OW34114   2.254   0.280   3.273 -0.1687  0.3771  0.2792
 7493SOL    HW134115   2.319   0.347   3.254 -1.3940  1.2935 -0.6971
 7493SOL    HW234116   2.296   0.204   3.313 -1.1411  0.4362  1.4322
 7494SOL     OW34117   3.049   3.630   3.812  0.1660  0.1670  0.2890
 7494SOL    HW134118   3.043   3.691   3.886 -1.6531  0.9577 -0.4962
 7494SOL    HW234119   3.093   3.688   3.749  1.4310  0.5489  1.5325
 7495SOL     OW34120   1.527   3.245  12.081  0.6000  0.4231 -0.3781
 7495SOL    HW134121   1.457   3.293  12.036 -1.1212 -2.4801 -0.7633
 7495SOL    HW234122   1.599   3.305  12.060  0.1476  1.0727 -0.0987
 7496SOL     OW34123   2.386   1.768   6.297  0.5142 -0.1523 -0.3513
 7496SOL    HW134124   2.453   1.828   6.329 -0.9134  1.5573 -0.5810
 7496SOL    HW234125   2.356   1.805   6.214  1.0923  0.9610 -0.0681
 7497SOL     OW34126   2.269   1.679   0.992 -0.3014 -0.5964 -0.0546
 7497SOL    HW134127   2.203   1.748   0.999  1.3715  0.9292  0.7227
 7497SOL    HW234128   2.239   1.640   0.910 -1.8787 -0.1427  0.2990
 7498SOL     OW34129   3.206   3.209   5.920 -0.1199 -0.0006  0.0129
 7498SOL    HW134130   3.272   3.227   5.853 -0.1073  1.8070  0.4999
 7498SOL    HW234131   3.156   3.134   5.887  1.5865 -1.1033 -0.0174
 7499SOL     OW34132   4.488   4.138   2.203  0.0178  0.3913  0.5071
 7499SOL    HW134133   4.498   4.099   2.290  1.8227  0.5272  0.3674
 7499SOL    HW234134   4.398   4.114   2.182  0.5252  0.3667 -1.6286
 7500SOL     OW34135   4.213   2.639  11.656  0.5027  0.4131 -0.2630
 7500SOL    HW134136   4.233   2.610  11.567 -1.2525 -0.4570 -0.3850
 7500SOL    HW234137   4.284   2.694  11.689  0.3642  0.5443 -0.1831
 7501SOL     OW34138   2.623   2.413   3.971 -0.2082 -0.0361 -0.0484
 7501SOL    HW134139   2.598   2.463   4.049 -2.4875  0.2020 -0.9413
 7501SOL    HW234140   2.634   2.326   4.010 -1.9340 -1.4755 -2.8184
 7502SOL     OW34141   1.176   1.183   3.802 -0.4005  0.1817  0.3414
 7502SOL    HW134142   1.082   1.184   3.821 -0.5112 -0.6342 -0.1703
 7502SOL    HW234143   1.191   1.105   3.857  1.6204 -1.4104 -2.4522
 7503SOL     OW34144   2.230   3.078   7.281 -0.3632  0.4805  0.0598
 7503SOL    HW134145   2.297   3.089   7.213  2.3552  1.7847  2.9266
 7503SOL    HW234146   2.186   3.161   7.267 -1.1320  0.5551  2.8710
 7504SOL     OW34147   0.951   1.478   7.049 -0.0126 -0.0389 -0.1345
 7504SOL    HW134148   0.935   1.527   7.129 -1.9382 -0.0325 -0.5423
 7504SOL    HW234149   0.956   1.390   7.086 -1.2905  0.9325  2.3024
 7505SOL     OW34150   2.098   1.982   6.416 -0.0931 -0.3585 -0.4767
 7505SOL    HW134151   2.143   2.043   6.357 -0.8057 -0.3664 -1.0246
 7505SOL    HW234152   2.170   1.931   6.452 -0.7889 -1.2172 -0.3257
 7506SOL     OW34153   3.583   0.009   7.230 -0.0628  0.7634 -0.1547
 7506SOL    HW134154   3.634   0.059   7.167  1.0237 -0.6981 -0.4375
 7506SOL    HW234155   3.640   4.668   7.238 -2.1918 -0.7974  0.0884
 7507SOL     OW34156   4.083   0.162   6.933  0.7626  0.3864 -0.3225
 7507SOL    HW134157   4.029   0.236   6.963 -0.7382 -0.5930 -0.6029
 7507SOL    HW234158   4.109   0.114   7.012  0.1262  1.1113  0.3356
 7508SOL     OW34159   2.211   4.108   8.362  0.1476 -0.5531  0.1999
 7508SOL    HW134160   2.215   4.129   8.268 -0.9681  3.4622  1.0846
 7508SOL    HW234161   2.187   4.016   8.350 -0.9371 -0.2487  0.0478
 7509SOL     OW34162   4.333   0.051  11.446  0.3677  0.4402 -0.3399
 7509SOL    HW134163   4.253   0.001  11.460 -0.5303  1.5068 -1.6693
 7509SOL    HW234164   4.398   0.018  11.508  0.9392  0.4558 -0.9422
 7510SOL     OW34165   3.396   0.770   7.778 -0.8150  0.0462  0.0102
 7510SOL    HW134166   3.374   0.862   7.762  0.1476  0.5425  1.4474
 7510SOL    HW234167   3.437   0.785   7.863  0.1496  0.9021 -0.6120
 7511SOL     OW34168   0.330   0.750  11.002  0.1651  0.0209  0.2528
 7511SOL    HW134169   0.354   0.762  10.911 -2.0343 -2.6305 -0.6939
 7511SOL    HW234170   0.305   0.658  10.991  1.5657 -0.1368 -1.6600
 7512SOL     OW34171   0.116   4.177   7.834  0.3208  0.7506 -0.1376
 7512SOL    HW134172   0.201   4.142   7.807  0.3535  2.4421 -2.2201
 7512SOL    HW234173   0.092   4.097   7.881 -0.0661  0.9302 -0.0340
 7513SOL     OW34174   0.600   3.629   2.350 -0.7698 -0.0121  0.5818
 7513SOL    HW134175   0.653   3.555   2.319  2.3296  2.5762 -0.2332
 7513SOL    HW234176   0.580   3.679   2.272 -0.2711 -3.1508 -1.5705
 7514SOL     OW34177   0.076   2.901   9.255  0.1941 -0.2746  0.4390
 7514SOL    HW134178   0.005   2.883   9.194  0.3852  1.6772 -0.3550
 7514SOL    HW234179   0.102   2.989   9.227  0.5127 -0.2729  0.7401
 7515SOL     OW34180   1.761   2.043  17.620  0.0888 -0.0667  0.6724
 7515SOL    HW134181   1.704   2.033  17.697 -0.8616 -0.7554 -0.1169
 7515SOL    HW234182   1.779   1.952  17.597  1.0960  0.3443 -0.1404
 7516SOL     OW34183   4.055   4.158   5.961 -0.5692 -0.5985  0.4252
 7516SOL    HW134184   4.090   4.200   5.882 -0.4687 -1.7268 -0.1357
 7516SOL    HW234185   4.110   4.195   6.029 -0.2324 -2.1752  1.0087
 7517SOL     OW34186   0.619   2.510  13.769 -0.4715 -0.2430  0.4596
 7517SOL    HW134187   0.617   2.486  13.862  0.2217 -0.4094  0.4362
 7517SOL    HW234188   0.667   2.593  13.770 -0.5180 -0.1821 -2.1316
 7518SOL     OW34189   0.077   3.332   4.029 -0.2581  0.0119  0.0675
 7518SOL    HW134190   0.008   3.387   3.992 -0.1233 -0.0599 -0.2986
 7518SOL    HW234191   0.044   3.316   4.117  1.2223  1.0946  0.8216
 7519SOL     OW34192   2.366   1.913   1.447 -0.0562 -0.0335  0.4313
 7519SOL    HW134193   2.276   1.905   1.417 -0.3803 -1.4521  1.8021
 7519SOL    HW234194   2.413   1.918   1.363 -3.0651 -0.7509 -1.2820
 7520SOL     OW34195   0.762   3.067   0.790 -0.0830 -0.0364  0.2701
 7520SOL    HW134196   0.711   3.147   0.804 -1.0441 -0.3781 -1.2054
 7520SOL    HW234197   0.818   3.093   0.717  0.4021 -1.4560  0.1406
 7521SOL     OW34198   3.600   4.546   6.917 -0.2041 -0.1117 -0.2831
 7521SOL    HW134199   3.624   4.630   6.957  1.6969 -1.2734  1.0475
 7521SOL    HW234200   3.556   4.578   6.839  1.3140 -1.9263 -1.8927
 7522SOL     OW34201   1.167   0.242   3.921 -0.0985 -0.2231  0.2457
 7522SOL    HW134202   1.216   0.159   3.925  1.2677  0.6361  1.3843
 7522SOL    HW234203   1.201   0.286   3.999  0.2072 -0.2281  0.1162
 7523SOL     OW34204   3.729   2.593   9.073  0.2793 -0.0396  0.3001
 7523SOL    HW134205   3.772   2.676   9.050 -0.3462  0.4778  0.9899
 7523SOL    HW234206   3.745   2.584   9.167 -2.1837 -0.7151  0.6547
 7524SOL     OW34207   1.961   1.154   2.890  0.0787 -0.2375  0.0160
 7524SOL    HW134208   2.051   1.139   2.860 -0.4681  0.3945 -1.9400
 7524SOL    HW234209   1.934   1.066   2.917 -2.5229  0.7549  0.6332
 7525SOL     OW34210   1.233   1.934   8.035  0.2466  0.0989  0.7251
 7525SOL    HW134211   1.305   1.934   8.097 -0.2274  0.2740  1.2802
 7525SOL    HW234212   1.218   2.028   8.027  0.2683 -0.0514 -1.0680
 7526SOL     OW34213   0.655   1.922   7.459 -0.6178 -0.7273 -0.4004
 7526SOL    HW134214   0.747   1.938   7.481 -0.9021  0.4677 -0.1179
 7526SOL    HW234215   0.652   1.848   7.397 -1.3305 -0.8891 -0.1778
 7527SOL     OW34216   0.228   3.643   2.995 -0.1854 -0.2926 -0.3979
 7527SOL    HW134217   0.230   3.663   2.902  2.9704  4.4431  0.7083
 7527SOL    HW234218   0.287   3.567   2.985 -0.9260 -0.7881 -0.9579
 7528SOL     OW34219   0.326   0.990   3.830 -0.8557 -0.5334 -0.3149
 7528SOL    HW134220   0.364   1.054   3.890  1.5090  1.3929 -3.8906
 7528SOL    HW234221   0.232   1.010   3.830 -0.3568  1.8040 -0.9786
 7529SOL     OW34222   1.837   4.500   4.872 -0.3558  0.1636  0.2104
 7529SOL    HW134223   1.828   4.577   4.817  1.5891  0.3711  0.1996
 7529SOL    HW234224   1.833   4.538   4.960 -1.8605 -0.9479  0.6323
 7530SOL     OW34225   3.697   0.183   9.709  0.1902 -0.5879 -0.1497
 7530SOL    HW134226   3.763   0.216   9.648  0.1580 -0.6353 -0.2106
 7530SOL    HW234227   3.717   0.089   9.715 -2.2061 -1.0885  0.0951
 7531SOL     OW34228   1.139   3.384   9.021  0.6620  0.8581  0.6173
 7531SOL    HW134229   1.141   3.337   8.938 -0.2499 -0.8353  1.5640
 7531SOL    HW234230   1.173   3.470   8.995  1.2835  0.1370 -0.9103
 7532SOL     OW34231   2.408   2.769   2.219 -0.4037  0.2145 -0.2149
 7532SOL    HW134232   2.338   2.827   2.189 -0.7453 -0.1109 -0.0408
 7532SOL    HW234233   2.425   2.715   2.141 -2.0072  2.5027 -2.1706
 7533SOL     OW34234   1.586   3.377  11.624 -0.7381 -0.4321  0.3459
 7533SOL    HW134235   1.603   3.459  11.670  0.6304 -0.6221  0.1901
 7533SOL    HW234236   1.562   3.316  11.694 -2.5091  0.1268  0.2108
 7534SOL     OW34237   2.917   3.589  13.626  0.2362  0.3072  0.3836
 7534SOL    HW134238   2.977   3.550  13.690  0.5028 -0.6653 -0.4706
 7534SOL    HW234239   2.976   3.653  13.587  0.1544 -0.1398 -0.4665
 7535SOL     OW34240   0.263   1.857   9.195  0.2176 -0.4437  1.5786
 7535SOL    HW134241   0.178   1.886   9.162  0.4011  1.2649  2.6593
 7535SOL    HW234242   0.259   1.768   9.158  1.0382  0.5653 -0.9170
 7536SOL     OW34243   1.900   3.810   9.214 -0.5549 -0.0566  0.2545
 7536SOL    HW134244   1.880   3.745   9.281  0.7640 -0.7345 -0.0236
 7536SOL    HW234245   1.964   3.765   9.159 -2.0476 -1.3287 -0.4281
 7537SOL     OW34246   0.789   4.288   6.696  1.1190 -0.3424 -0.5332
 7537SOL    HW134247   0.777   4.282   6.602 -0.0477 -1.4417 -0.3187
 7537SOL    HW234248   0.798   4.193   6.709 -2.2282 -0.3553  1.6623
 7538SOL     OW34249   4.508   3.921   6.373 -0.1213 -0.3107 -0.0931
 7538SOL    HW134250   4.540   3.875   6.451  0.3364 -0.2777 -0.2633
 7538SOL    HW234251   4.532   4.011   6.396 -2.1764  0.2607 -0.1519
 7539SOL     OW34252   3.245   0.592   5.974  0.0085 -0.1636  0.0252
 7539SOL    HW134253   3.268   0.586   5.881 -4.0921 -0.3757 -0.9968
 7539SOL    HW234254   3.160   0.635   5.960  0.9078  1.7929  0.5957
 7540SOL     OW34255   0.697   0.890   6.869 -0.6151 -0.2163  0.5388
 7540SOL    HW134256   0.780   0.936   6.859 -1.2700  0.3656 -2.3547
 7540SOL    HW234257   0.715   0.833   6.944 -2.9977  0.9375  1.9745
 7541SOL     OW34258   1.689   2.067   3.738 -0.2928  0.1072  0.8412
 7541SOL    HW134259   1.775   2.103   3.759 -0.2331 -0.3151  1.3334
 7541SOL    HW234260   1.645   2.077   3.823 -1.6239  0.9129  0.0542
 7542SOL     OW34261   1.799   0.623   4.995  0.0180 -0.4483 -0.3089
 7542SOL    HW134262   1.832   0.712   5.011 -0.2744  0.1119 -2.8804
 7542SOL    HW234263   1.860   0.582   4.934 -1.2683 -0.9807 -1.2352
 7543SOL     OW34264   4.300   2.187   3.850 -0.7076  0.3082 -0.0786
 7543SOL    HW134265   4.229   2.183   3.787 -2.0904 -2.7566  1.6635
 7543SOL    HW234266   4.373   2.173   3.790  0.6054  2.0818  1.0978
 7544SOL     OW34267   0.067   3.691  15.057  0.3086 -0.0798  0.8147
 7544SOL    HW134268   0.000   3.759  15.042 -1.0699 -1.4265  0.8660
 7544SOL    HW234269   0.105   3.686  14.969 -1.6246  0.9118 -0.0878
 7545SOL     OW34270   1.706   4.148  17.613  0.0049  0.1195 -0.4159
 7545SOL    HW134271   1.672   4.146  17.524  0.1658  0.3776 -0.4859
 7545SOL    HW234272   1.640   4.208  17.649 -0.7642  0.1821 -1.9245
 7546SOL     OW34273   1.395   3.547  11.921  0.5402 -0.1550  0.2518
 7546SOL    HW134274   1.429   3.621  11.971  1.7098 -0.5341  0.0080
 7546SOL    HW234275   1.478   3.510  11.892  0.2527 -1.3833  0.9907
 7547SOL     OW34276   2.764   1.239   8.080  0.3630  0.0130  0.2755
 7547SOL    HW134277   2.801   1.214   7.996 -0.1200  0.5962 -0.1097
 7547SOL    HW234278   2.845   1.236   8.130  0.8726 -2.8182 -0.7238
 7548SOL     OW34279   4.060   0.188   5.797 -0.0188  0.1840 -0.1396
 7548SOL    HW134280   3.997   0.213   5.729  0.5935  0.8977 -0.4449
 7548SOL    HW234281   4.143   0.208   5.754 -0.3886  1.2416 -0.3474
 7549SOL     OW34282   1.825   2.150   6.989  0.1484 -0.3699  0.5836
 7549SOL    HW134283   1.872   2.087   7.042  1.4953  0.3360  0.2162
 7549SOL    HW234284   1.737   2.119   7.009  0.0434  0.5776  1.5946
 7550SOL     OW34285   2.683   4.665   0.944 -0.6562  0.6431  0.3539
 7550SOL    HW134286   2.762   4.684   0.994 -0.9573 -0.2052  1.1390
 7550SOL    HW234287   2.611   4.706   0.991 -0.7044  0.4268  0.4684
 7551SOL     OW34288   1.566   1.892   6.130  0.5503 -0.5428  0.5738
 7551SOL    HW134289   1.608   1.950   6.065 -0.1926 -3.1675 -2.2271
 7551SOL    HW234290   1.509   1.958   6.169  0.1767 -0.6904  0.2747
 7552SOL     OW34291   1.196   0.868  11.502 -0.3091 -0.3078  0.0956
 7552SOL    HW134292   1.203   0.952  11.547 -1.9960  0.7729 -1.6612
 7552SOL    HW234293   1.223   0.804  11.568 -0.8529 -0.3043  0.3213
 7553SOL     OW34294   3.723   0.397  15.655  0.2343  0.3485 -0.5555
 7553SOL    HW134295   3.683   0.353  15.579 -1.7211  2.0196 -0.4941
 7553SOL    HW234296   3.661   0.377  15.726  1.2406 -1.3206 -0.1519
 7554SOL     OW34297   2.419   3.519   7.583 -0.2198 -0.2639 -0.0344
 7554SOL    HW134298   2.382   3.601   7.549  1.3212  0.8379  0.9299
 7554SOL    HW234299   2.513   3.533   7.593 -0.3752  1.5972 -1.1121
 7555SOL     OW34300   3.383   1.061   2.638  0.0650  0.5399 -0.2085
 7555SOL    HW134301   3.393   1.151   2.609 -0.3679  0.8814  0.6935
 7555SOL    HW234302   3.440   1.012   2.579 -0.0459 -0.9364  0.8954
 7556SOL     OW34303   2.674   3.920  14.157  0.6939 -0.2009  0.1607
 7556SOL    HW134304   2.667   3.903  14.251  0.4966 -1.4728 -0.0797
 7556SOL    HW234305   2.759   3.964  14.162 -0.5729  2.1984  0.2068
 7557SOL     OW34306   0.673   0.380  11.608 -0.4823 -0.3153  0.0455
 7557SOL    HW134307   0.730   0.305  11.593 -0.2883 -0.1995  0.2108
 7557SOL    HW234308   0.672   0.371  11.704  0.5049  1.3603  0.2120
 7558SOL     OW34309   1.458   2.231  11.438  0.3676  0.0665 -0.1348
 7558SOL    HW134310   1.443   2.324  11.426  2.9611  0.3626 -1.1531
 7558SOL    HW234311   1.486   2.210  11.349  0.5685  0.8683 -0.2628
 7559SOL     OW34312   3.226   0.742   8.025 -0.3204  1.0591  0.0020
 7559SOL    HW134313   3.233   0.648   8.036 -0.6986  1.0644  0.2857
 7559SOL    HW234314   3.170   0.740   7.948 -0.9261 -0.6247  0.5047
 7560SOL     OW34315   1.912   0.789   2.897  0.0034 -0.0212  0.1593
 7560SOL    HW134316   2.000   0.776   2.931 -0.2484 -1.0485  0.4012
 7560SOL    HW234317   1.922   0.779   2.802 -0.1122  2.1025 -0.0885
 7561SOL     OW34318   2.095   0.223   6.707 -0.0177  0.0383  0.5136
 7561SOL    HW134319   2.153   0.278   6.759  0.1327  0.4008 -0.0367
 7561SOL    HW234320   2.013   0.230   6.757 -0.0547  0.6486  0.3719
 7562SOL     OW34321   4.735   3.701   1.163  0.2773  0.8462  0.1421
 7562SOL    HW134322   4.690   3.767   1.216 -2.1235 -3.2728  3.2503
 7562SOL    HW234323   4.701   3.715   1.075  0.7931  0.4931 -0.1137
 7563SOL     OW34324   0.446   0.719   6.109 -1.2041  0.2543 -0.0057
 7563SOL    HW134325   0.431   0.790   6.171  1.0235  0.3900  0.3700
 7563SOL    HW234326   0.527   0.692   6.152 -0.5743  0.3147 -1.1644
 7564SOL     OW34327   0.299   1.001   9.696  0.1908  0.3023 -0.5494
 7564SOL    HW134328   0.354   1.054   9.753 -1.0180  1.2061 -0.2123
 7564SOL    HW234329   0.223   0.976   9.749 -0.1834  0.9191 -0.7817
 7565SOL     OW34330   2.772   0.424   5.671 -0.3723  0.0595 -0.3295
 7565SOL    HW134331   2.757   0.518   5.675  1.6028  0.4305 -1.6688
 7565SOL    HW234332   2.740   0.419   5.581  2.1085  0.6361 -1.2315
 7566SOL     OW34333   2.834   0.199   3.715 -0.2381  0.1910  0.2685
 7566SOL    HW134334   2.809   0.118   3.671 -0.6397  1.2094 -1.3773
 7566SOL    HW234335   2.855   0.257   3.642  0.7274 -1.9969 -1.1940
 7567SOL     OW34336   2.539   3.755   2.351 -0.5320 -0.0561 -0.4055
 7567SOL    HW134337   2.597   3.822   2.387 -2.3235  0.6104  1.2312
 7567SOL    HW234338   2.571   3.669   2.378 -2.9731 -0.9879 -0.4426
 7568SOL     OW34339   2.525   2.719   6.906  0.4467  0.0493  0.1560
 7568SOL    HW134340   2.497   2.809   6.886  1.5995  0.9241  2.4616
 7568SOL    HW234341   2.594   2.744   6.968 -0.7092 -0.3138  1.5948
 7569SOL     OW34342   1.406   0.973   8.104 -0.2609 -0.0480 -0.5448
 7569SOL    HW134343   1.477   0.940   8.160  0.3340  0.6642 -0.8812
 7569SOL    HW234344   1.429   1.066   8.108  0.9170 -0.4306  2.0015
 7570SOL     OW34345   2.187   3.583   3.587  0.6506 -0.1755  0.3792
 7570SOL    HW134346   2.173   3.585   3.492  3.2428 -1.0195 -0.0116
 7570SOL    HW234347   2.198   3.490   3.606  0.5334 -0.3145 -0.2527
 7571SOL     OW34348   0.981   3.124   8.086 -0.1782  0.3407  0.3775
 7571SOL    HW134349   0.966   3.033   8.109  0.9409 -0.6087 -2.6757
 7571SOL    HW234350   0.901   3.168   8.116 -0.9141 -0.4524 -0.4335
 7572SOL     OW34351   4.139   3.411   8.570 -0.2970  0.1323 -0.1173
 7572SOL    HW134352   4.148   3.450   8.657 -0.5474 -1.3010  0.5396
 7572SOL    HW234353   4.115   3.323   8.598 -0.0910  1.1224  3.1392
 7573SOL     OW34354   2.928   1.712   6.503 -0.5376 -0.7239 -0.1145
 7573SOL    HW134355   2.833   1.714   6.504 -0.5214 -0.9908  1.7036
 7573SOL    HW234356   2.961   1.780   6.444  1.5074 -3.2413 -1.9173
 7574SOL     OW34357   3.910   1.007  12.445 -0.1404 -0.2879  0.2701
 7574SOL    HW134358   3.896   1.098  12.471 -0.9869 -0.7203  1.2726
 7574SOL    HW234359   4.006   1.012  12.440 -0.1480 -0.0118  0.4125
 7575SOL     OW34360   0.709   2.677   4.375 -0.0233  0.1708 -0.5979
 7575SOL    HW134361   0.758   2.751   4.338  0.2373  1.1071  1.6319
 7575SOL    HW234362   0.663   2.721   4.446  0.0916 -1.7813  0.6841
 7576SOL     OW34363   0.539   4.567   5.176 -0.1778 -0.3965  0.3236
 7576SOL    HW134364   0.587   4.546   5.257 -0.1890  2.3372  1.0464
 7576SOL    HW234365   0.555   4.483   5.133  4.5405  0.2644  0.7716
 7577SOL     OW34366   2.422   4.632   1.687  0.1023  0.4823 -0.2605
 7577SOL    HW134367   2.353   4.587   1.639  3.1496 -1.9249 -2.4175
 7577SOL    HW234368   2.439   4.568   1.756 -0.4384 -0.8002 -1.3118
 7578SOL     OW34369   3.014   2.256   9.444  0.0770 -0.3946 -0.0078
 7578SOL    HW134370   2.959   2.181   9.465  0.4419 -0.4982  0.5798
 7578SOL    HW234371   2.969   2.280   9.363 -0.7968 -1.9944  0.0045
 7579SOL     OW34372   2.456   1.345   8.552 -0.1986  0.0598  0.1136
 7579SOL    HW134373   2.549   1.343   8.577  0.0212  4.0690 -0.4891
 7579SOL    HW234374   2.433   1.436   8.568  0.0115 -0.0565  1.0647
 7580SOL     OW34375   4.548   1.109   1.984 -0.4851  0.0228  0.4431
 7580SOL    HW134376   4.498   1.191   1.983  0.0532  0.3493 -0.1859
 7580SOL    HW234377   4.582   1.109   2.074 -1.8746 -0.5596  0.9696
 7581SOL     OW34378   4.116   3.477   2.899  0.5960 -0.2391 -0.4649
 7581SOL    HW134379   4.060   3.504   2.827 -1.0312  1.1588  1.3418
 7581SOL    HW234380   4.065   3.409   2.942  2.5408 -1.4009 -0.0079
 7582SOL     OW34381   2.262   3.356  17.029  0.3034 -0.1785  0.6497
 7582SOL    HW134382   2.292   3.350  16.938  0.9756 -0.7120  0.9055
 7582SOL    HW234383   2.270   3.262  17.043 -2.8364 -0.3001  1.6713
 7583SOL     OW34384   1.031   3.948  16.726  0.1205 -0.7834  0.2975
 7583SOL    HW134385   1.064   3.879  16.668 -1.4379 -1.6534  0.4467
 7583SOL    HW234386   0.938   3.926  16.714  0.1127 -1.2740  1.2485
 7584SOL     OW34387   2.719   0.343  12.252  0.4393  0.2631 -0.4119
 7584SOL    HW134388   2.814   0.338  12.259  0.1807 -2.0135  1.7500
 7584SOL    HW234389   2.706   0.424  12.204  0.7777  0.4828 -0.1281
 7585SOL     OW34390   1.378   3.767  13.106 -0.0305  0.5510 -0.2972
 7585SOL    HW134391   1.313   3.711  13.064 -0.7691 -0.6283  2.4352
 7585SOL    HW234392   1.449   3.759  13.042  0.8700 -2.0602  1.0008
 7586SOL     OW34393   0.446   0.172   2.000 -0.0393 -0.6087  0.1227
 7586SOL    HW134394   0.361   0.193   2.037  0.6880 -2.6530  2.9130
 7586SOL    HW234395   0.503   0.137   2.068  0.3659  1.2187  0.7179
 7587SOL     OW34396   0.776   3.983   3.613  0.3501  1.1797 -0.2549
 7587SOL    HW134397   0.722   4.022   3.682  0.7189  1.0606  0.1019
 7587SOL    HW234398   0.783   3.895   3.652 -1.1526  1.2457  0.1503
 7588SOL     OW34399   2.033   0.380  12.938  0.0450 -0.6258  0.1594
 7588SOL    HW134400   2.088   0.438  12.886 -0.8391 -0.1749 -0.2720
 7588SOL    HW234401   1.996   0.339  12.860  0.5684  0.4044 -0.6306
 7589SOL     OW34402   0.968   3.028   5.322 -0.1690 -0.0577  0.0425
 7589SOL    HW134403   1.051   3.066   5.353  0.9110 -2.7859  0.5084
 7589SOL    HW234404   0.921   2.988   5.395 -2.9793  0.1945 -1.6516
 7590SOL     OW34405   3.182   1.370   7.251 -0.5765  0.0409  0.2774
 7590SOL    HW134406   3.215   1.294   7.299 -0.0755 -0.6635 -1.1515
 7590SOL    HW234407   3.141   1.324   7.177  0.6131  0.0798 -0.4143
 7591SOL     OW34408   2.819   4.426   6.676 -0.5681 -0.1974  0.9691
 7591SOL    HW134409   2.879   4.500   6.688 -0.2423 -0.1816 -0.7803
 7591SOL    HW234410   2.758   4.456   6.743 -1.1122  1.1053 -0.1232
 7592SOL     OW34411   3.937   2.341  12.703  0.3018 -0.3163  0.1474
 7592SOL    HW134412   3.878   2.416  12.706  0.6312  0.0401 -2.6885
 7592SOL    HW234413   3.964   2.356  12.613  0.2002  0.5851  0.2741
 7593SOL     OW34414   4.574   2.971   3.019  0.4434  0.0985  0.4048
 7593SOL    HW134415   4.506   2.983   3.084  0.9692  3.6242  0.3012
 7593SOL    HW234416   4.608   2.887   3.051  1.6468  0.6513  0.5975
 7594SOL     OW34417   2.198   0.866   6.571  0.6697 -0.2746  0.2767
 7594SOL    HW134418   2.291   0.852   6.589  0.4282  0.0740  1.8548
 7594SOL    HW234419   2.195   0.951   6.615 -1.2670 -0.1030 -0.1958
 7595SOL     OW34420   0.383   3.351   8.914  0.3376  0.1591 -0.0084
 7595SOL    HW134421   0.429   3.339   8.997 -0.4611 -1.5903  0.1861
 7595SOL    HW234422   0.317   3.411   8.948  1.5009  1.0285  0.7158
 7596SOL     OW34423   2.459   2.776   5.927 -0.7062  0.1536  0.0392
 7596SOL    HW134424   2.434   2.820   5.846 -0.0740  1.2672  0.4424
 7596SOL    HW234425   2.454   2.858   5.977  0.2638  0.1490  0.1526
 7597SOL     OW34426   2.427   1.812   2.859 -0.3398 -0.1742 -0.4652
 7597SOL    HW134427   2.332   1.801   2.854 -0.4162 -0.2452  1.1723
 7597SOL    HW234428   2.434   1.807   2.954  0.8941 -3.0320 -0.7148
 7598SOL     OW34429   2.961   2.986   8.881  0.2089  0.5844  0.2790
 7598SOL    HW134430   2.869   3.009   8.894  0.1490  0.6921 -0.3255
 7598SOL    HW234431   3.009   3.060   8.918  0.1485  0.5608  0.4061
 7599SOL     OW34432   3.260   4.625   3.099 -0.0794 -0.0781  0.0517
 7599SOL    HW134433   3.312   4.556   3.059 -0.6753  1.9384 -4.1744
 7599SOL    HW234434   3.322   4.692   3.130  1.0585  0.8261 -4.2087
 7600SOL     OW34435   4.423   1.353  14.738  0.2510  0.4015 -0.0438
 7600SOL    HW134436   4.343   1.316  14.701 -0.9395  2.5548  0.4417
 7600SOL    HW234437   4.454   1.408  14.666  0.4771 -0.1450 -0.3733
 7601SOL     OW34438   0.707   2.633   8.824 -0.5775  0.8448  0.1972
 7601SOL    HW134439   0.748   2.720   8.824 -0.0640  0.6068  1.3216
 7601SOL    HW234440   0.726   2.607   8.734  1.0397 -0.2901  0.8659
 7602SOL     OW34441   2.279   0.616  11.389 -0.5429  0.0146  0.1809
 7602SOL    HW134442   2.244   0.572  11.467 -1.9289  1.0942  0.1811
 7602SOL    HW234443   2.204   0.628  11.332  1.3410 -2.0966 -2.7176
 7603SOL     OW34444   3.562   0.978  15.258  0.2076  0.1919 -0.0026
 7603SOL    HW134445   3.651   0.974  15.295 -0.4169  1.7738  1.6835
 7603SOL    HW234446   3.513   0.974  15.340 -0.4918 -0.1746 -0.4430
 7604SOL     OW34447   3.635   2.327   4.318  0.4753  0.0171  0.4017
 7604SOL    HW134448   3.694   2.402   4.307  1.1877 -1.0026 -2.5629
 7604SOL    HW234449   3.615   2.324   4.412 -2.1108 -0.5629 -0.1652
 7605SOL     OW34450   2.205   2.695   0.528  0.0024  0.0645 -0.5338
 7605SOL    HW134451   2.126   2.746   0.509  0.7805  1.2112 -0.7046
 7605SOL    HW234452   2.276   2.758   0.513  0.3317 -0.1116  0.2966
 7606SOL     OW34453   1.669   0.788  11.912 -1.4408 -0.8065 -0.3336
 7606SOL    HW134454   1.757   0.794  11.874 -1.4329  0.9423 -0.0543
 7606SOL    HW234455   1.659   0.699  11.945  2.0017 -0.6731  1.0738
 7607SOL     OW34456   3.285   2.320  17.471  0.3093  0.2712  0.1902
 7607SOL    HW134457   3.237   2.402  17.464 -1.3867 -0.8114 -1.0582
 7607SOL    HW234458   3.375   2.351  17.469  1.1307 -2.1832 -0.7081
 7608SOL     OW34459   4.038   1.988   6.569 -0.5104  0.0780  0.2419
 7608SOL    HW134460   3.974   1.969   6.500 -1.4201  0.0791  1.0749
 7608SOL    HW234461   4.072   2.070   6.534 -0.2080 -0.5636 -0.9695
 7609SOL     OW34462   0.977   2.811   1.611  0.1727 -0.2504 -0.2569
 7609SOL    HW134463   0.969   2.757   1.690  0.3533  1.9619  1.2778
 7609SOL    HW234464   0.892   2.852   1.593  1.9039  2.4145 -2.3815
 7610SOL     OW34465   3.969   1.892   8.403 -0.1367  0.1471  0.1133
 7610SOL    HW134466   4.045   1.921   8.453 -1.3612  3.4594  0.0153
 7610SOL    HW234467   3.998   1.803   8.384 -0.9928 -0.2307  0.5940
 7611SOL     OW34468   0.892   1.032   0.012  0.7556 -0.5003  0.2629
 7611SOL    HW134469   0.850   1.080   0.083  1.4792  0.3378  0.1233
 7611SOL    HW234470   0.937   1.106  17.714 -0.3458 -0.2510 -0.4746
 7612SOL     OW34471   4.154   1.882   3.895  0.0309  0.2333 -0.0404
 7612SOL    HW134472   4.221   1.877   3.827  0.9646 -0.3569  0.9332
 7612SOL    HW234473   4.109   1.798   3.892  3.0202 -1.2825 -2.0625
 7613SOL     OW34474   0.341   2.645  11.479  0.4659 -0.0530  0.6304
 7613SOL    HW134475   0.266   2.692  11.442  0.3486 -1.8780 -1.4661
 7613SOL    HW234476   0.347   2.561  11.433 -0.7226  0.5332 -0.5764
 7614SOL     OW34477   1.951   3.099   1.227  0.4253 -0.0888  0.0480
 7614SOL    HW134478   1.877   3.090   1.288  0.7779 -0.9012  0.3479
 7614SOL    HW234479   1.996   3.031   1.277  1.0685  0.2279 -0.1116
 7615SOL     OW34480   4.468   1.829   1.888  0.4322 -0.2516 -0.2801
 7615SOL    HW134481   4.563   1.833   1.879  0.6304 -0.5145  1.7602
 7615SOL    HW234482   4.443   1.737   1.878  0.6424 -0.3700  0.2931
 7616SOL     OW34483   0.721   4.079  11.494  0.0027 -0.2610 -0.7032
 7616SOL    HW134484   0.709   4.056  11.402  1.8356  1.0146 -1.2583
 7616SOL    HW234485   0.634   4.117  11.506 -0.2372 -0.8021 -0.7075
 7617SOL     OW34486   0.084   1.849   4.489  0.3313 -0.2863  0.4809
 7617SOL    HW134487   0.178   1.869   4.483  0.2614 -0.2274 -0.4097
 7617SOL    HW234488   0.090   1.755   4.473  0.7118 -0.1856  0.0258
 7618SOL     OW34489   4.111   3.374   3.924  0.5708  0.6251 -0.3213
 7618SOL    HW134490   4.141   3.292   3.963 -1.8744 -1.1812 -2.2570
 7618SOL    HW234491   4.102   3.349   3.832 -1.4453  2.5503 -0.6572
 7619SOL     OW34492   0.568   3.202   9.354  0.5336 -0.4876  0.4132
 7619SOL    HW134493   0.483   3.208   9.399  0.2514 -2.5837  0.1725
 7619SOL    HW234494   0.554   3.113   9.323  0.3993 -0.3750  0.1513
 7620SOL     OW34495   3.715   0.650   5.215  0.2081  0.1245  0.4852
 7620SOL    HW134496   3.687   0.592   5.144 -2.2557  0.7285  0.9551
 7620SOL    HW234497   3.640   0.710   5.208  2.3019  2.8200  1.2831
 7621SOL     OW34498   2.351   0.269   4.075 -0.3675 -0.3017 -0.5177
 7621SOL    HW134499   2.396   0.348   4.044  0.7811 -1.2256 -1.2031
 7621SOL    HW234500   2.388   0.256   4.163  1.6343 -0.9126 -1.4369
 7622SOL     OW34501   1.637   3.898  17.204  0.5938  0.4307 -0.7804
 7622SOL    HW134502   1.585   3.872  17.280  1.4922 -0.2241 -0.3842
 7622SOL    HW234503   1.675   3.980  17.236 -2.0280  1.7299 -1.0544
 7623SOL     OW34504   0.553   0.397   6.793 -0.2193  1.0678  0.0212
 7623SOL    HW134505   0.600   0.372   6.873 -1.5078 -1.4028  0.0097
 7623SOL    HW234506   0.529   0.308   6.765 -0.0261  0.9325  0.2837
 7624SOL     OW34507   2.644   1.413   8.234 -0.2257 -0.2223 -0.0309
 7624SOL    HW134508   2.562   1.368   8.254 -1.3500  1.5629 -0.6193
 7624SOL    HW234509   2.667   1.374   8.150 -0.8465  1.9570 -1.1986
 7625SOL     OW34510   0.798   3.733   6.464 -0.0505  0.4300 -0.9724
 7625SOL    HW134511   0.760   3.660   6.514 -2.0973  2.3432  0.2569
 7625SOL    HW234512   0.751   3.726   6.380 -0.1682 -1.4957 -0.7563
 7626SOL     OW34513   1.458   3.100   8.940  0.3945 -0.2840  0.5650
 7626SOL    HW134514   1.469   3.171   9.004  1.9133  0.0866 -0.1151
 7626SOL    HW234515   1.545   3.087   8.902  0.7627  2.1762  0.5885
 7627SOL     OW34516   2.759   1.826   9.499  0.1081  0.3830  0.7386
 7627SOL    HW134517   2.777   1.838   9.593  0.4107  0.6936  0.6384
 7627SOL    HW234518   2.845   1.859   9.473 -0.1742  0.2758 -0.3302
 7628SOL     OW34519   0.636   2.673   8.045 -0.4858  0.4386 -0.1862
 7628SOL    HW134520   0.551   2.646   8.009 -1.4595  0.4951  2.1105
 7628SOL    HW234521   0.687   2.607   7.999  1.2104  1.7241 -0.1690
 7629SOL     OW34522   2.910   3.768  14.038  0.0211  0.0458 -0.2038
 7629SOL    HW134523   2.835   3.827  14.025 -0.8438 -0.6035  1.8170
 7629SOL    HW234524   2.952   3.814  14.111 -0.7472 -0.4283  0.5319
 7630SOL     OW34525   1.312   2.864   6.954 -0.1244 -0.1507 -0.2964
 7630SOL    HW134526   1.407   2.855   6.942  0.0600  0.3747  0.7142
 7630SOL    HW234527   1.304   2.958   6.937 -1.6095 -0.1798  0.3007
 7631SOL     OW34528   0.811   4.227   4.696  0.1912 -0.0633  0.1178
 7631SOL    HW134529   0.825   4.321   4.708  0.1333 -0.1966  1.1917
 7631SOL    HW234530   0.766   4.209   4.778  0.5414  1.8574  0.7218
 7632SOL     OW34531   2.917   0.832  15.487 -0.6622  0.2116  0.2191
 7632SOL    HW134532   2.996   0.874  15.523 -0.4809  0.2637 -0.2389
 7632SOL    HW234533   2.852   0.860  15.551 -1.0986 -0.0987 -0.0933
 7633SOL     OW34534   3.945   3.304   6.385  0.0086 -0.2807 -0.2748
 7633SOL    HW134535   3.947   3.386   6.335  2.7471 -1.0454 -1.4562
 7633SOL    HW234536   4.013   3.246   6.349 -1.5205 -1.7970 -0.7019
 7634SOL     OW34537   1.684   4.138   4.627 -0.4634  0.7551 -0.1338
 7634SOL    HW134538   1.718   4.228   4.624  0.9707  0.2691  1.6701
 7634SOL    HW234539   1.589   4.152   4.630 -0.6546 -0.2755 -1.2016
 7635SOL     OW34540   3.784   2.451  10.826  0.3288  0.1255 -0.2486
 7635SOL    HW134541   3.700   2.428  10.865  0.0436 -2.5591 -2.4197
 7635SOL    HW234542   3.787   2.546  10.838 -0.2839  0.1714 -0.4515
 7636SOL     OW34543   2.880   1.805   7.956 -0.0212 -0.0114  0.0486
 7636SOL    HW134544   2.974   1.821   7.947  0.2380 -2.2231 -1.0873
 7636SOL    HW234545   2.874   1.718   7.917  2.8232 -0.5062  0.6975
 7637SOL     OW34546   4.406   0.812   2.227 -0.4809 -0.0958 -0.0408
 7637SOL    HW134547   4.330   0.826   2.284  0.1680 -0.6026  0.9447
 7637SOL    HW234548   4.369   0.769   2.150  1.4159 -0.1771 -0.9111
 7638SOL     OW34549   0.342   2.702   7.344  0.4304  0.3322  0.2173
 7638SOL    HW134550   0.313   2.698   7.435  2.3749  1.6309  0.8759
 7638SOL    HW234551   0.334   2.609   7.322 -3.0214  0.6126  0.2393
 7639SOL     OW34552   0.540   2.185  13.865  0.7027 -0.6894 -0.2259
 7639SOL    HW134553   0.544   2.110  13.806 -1.8849 -0.5163 -0.5993
 7639SOL    HW234554   0.448   2.202  13.883  1.0090  0.8232 -0.0988
 7640SOL     OW34555   2.307   4.579   6.067 -0.1793 -0.2738  0.5297
 7640SOL    HW134556   2.397   4.554   6.046  0.1999 -0.3631  2.2187
 7640SOL    HW234557   2.268   4.514   6.008 -0.5470 -0.8288  1.3814
 7641SOL     OW34558   2.606   4.272   4.752 -0.5544 -0.5694 -0.4595
 7641SOL    HW134559   2.577   4.215   4.681 -2.1110 -1.4992  0.9176
 7641SOL    HW234560   2.628   4.206   4.818  0.6656  0.7895  0.5031
 7642SOL     OW34561   1.487   1.788   8.611 -0.2924 -0.7200 -0.3369
 7642SOL    HW134562   1.416   1.748   8.562  0.0500 -0.8698 -0.7075
 7642SOL    HW234563   1.515   1.866   8.564  1.3369 -0.9183  0.2853
 7643SOL     OW34564   2.723   1.124   2.230 -0.4498  0.6521  0.4134
 7643SOL    HW134565   2.696   1.040   2.193 -0.1353  1.1732 -1.0301
 7643SOL    HW234566   2.722   1.109   2.324 -0.7957  1.2606  0.5099
 7644SOL     OW34567   1.489   3.557   8.949  0.0741  0.0822 -0.1569
 7644SOL    HW134568   1.558   3.621   8.960  0.7388 -1.0185  2.2118
 7644SOL    HW234569   1.512   3.537   8.859 -0.0874  2.7907 -0.7689
 7645SOL     OW34570   2.208   3.424   3.148  0.1369 -0.1081 -0.3435
 7645SOL    HW134571   2.256   3.391   3.225  0.7445  0.9215 -0.2869
 7645SOL    HW234572   2.166   3.496   3.195  1.6485  0.2903  0.4180
 7646SOL     OW34573   2.492   4.512   4.776  0.7508 -0.0203  0.0261
 7646SOL    HW134574   2.543   4.569   4.718  1.2929 -1.7784 -1.2358
 7646SOL    HW234575   2.530   4.425   4.761 -0.5308 -0.2689 -1.7928
 7647SOL     OW34576   1.390   2.829   1.430 -0.6011 -0.0260  0.0705
 7647SOL    HW134577   1.299   2.826   1.400 -0.5822  4.1193 -0.3718
 7647SOL    HW234578   1.427   2.881   1.358 -0.5809 -0.2592 -0.0888
 7648SOL     OW34579   4.578   1.339   4.455  0.4862  0.0218 -0.4627
 7648SOL    HW134580   4.512   1.292   4.404  0.1704 -0.0343 -0.0026
 7648SOL    HW234581   4.659   1.321   4.408  1.0262  1.2685 -0.0294
 7649SOL     OW34582   3.283   4.044   4.602 -0.9230  0.3440 -0.2260
 7649SOL    HW134583   3.315   4.092   4.679  1.0514  1.0629 -1.5145
 7649SOL    HW234584   3.198   4.013   4.636  1.5826 -4.6019  1.5005
 7650SOL     OW34585   0.101   0.510   7.155 -0.4028  0.0116 -0.0443
 7650SOL    HW134586   0.091   0.518   7.250 -2.1689  0.4903 -0.2697
 7650SOL    HW234587   0.021   0.554   7.127  0.3833  2.0565  0.9176
 7651SOL     OW34588   4.190   1.318   9.538 -0.7234 -0.4062 -0.0096
 7651SOL    HW134589   4.183   1.237   9.589  0.1781 -0.6486 -0.2755
 7651SOL    HW234590   4.100   1.313   9.505 -1.1020  0.6134  0.8536
 7652SOL     OW34591   2.013   1.532  12.666 -0.2856  0.2942 -0.2551
 7652SOL    HW134592   2.006   1.437  12.675  2.5490  0.2054  1.2522
 7652SOL    HW234593   1.970   1.544  12.582 -0.6222  1.5102  0.0828
 7653SOL     OW34594   1.192   0.059  14.980  0.4728 -0.2266 -0.4895
 7653SOL    HW134595   1.116   0.052  14.922 -0.1459  0.0015  0.2994
 7653SOL    HW234596   1.178   4.712  15.025 -1.6926 -1.8477 -4.1436
 7654SOL     OW34597   4.230   4.003  15.651 -0.9052 -0.3931 -0.2309
 7654SOL    HW134598   4.265   3.914  15.640 -0.0810 -0.1062  0.1336
 7654SOL    HW234599   4.175   3.978  15.725  0.0277  0.3939  0.7145
 7655SOL     OW34600   4.721   0.410   6.605  0.1021  0.3895 -0.1428
 7655SOL    HW134601   4.715   0.365   6.520  0.4434  0.6394 -0.2994
 7655SOL    HW234602   0.080   0.408   6.611  0.0798 -2.2847 -0.3837
 7656SOL     OW34603   1.951   0.994   4.698  0.0271 -0.4048  0.2667
 7656SOL    HW134604   2.017   1.054   4.665  0.2292 -0.5209  0.4631
 7656SOL    HW234605   1.918   1.056   4.763  0.2210  0.6410 -0.6385
 7657SOL     OW34606   1.237   4.410   1.146 -0.1773  0.7807  0.3207
 7657SOL    HW134607   1.332   4.412   1.142  0.0308 -0.1413  4.8156
 7657SOL    HW234608   1.226   4.372   1.059 -0.2852  0.3962  0.5053
 7658SOL     OW34609   1.154   1.005   2.182 -0.2182  0.0214 -0.0715
 7658SOL    HW134610   1.222   0.994   2.115 -0.9546 -0.1770 -0.7713
 7658SOL    HW234611   1.193   1.066   2.245 -1.5401  0.3170  0.4485
 7659SOL     OW34612   4.592   2.104   7.626 -0.2536  0.1750  0.3909
 7659SOL    HW134613   4.535   2.087   7.551  0.2064 -1.0200  0.3048
 7659SOL    HW234614   4.535   2.107   7.702 -0.2630 -0.7969  0.4186
 7660SOL     OW34615   3.582   4.440   8.626  0.5244 -0.4606 -0.0873
 7660SOL    HW134616   3.557   4.420   8.716 -0.4029  0.2625 -0.1972
 7660SOL    HW234617   3.527   4.512   8.598 -1.5068 -2.0457 -0.1527
 7661SOL     OW34618   4.240   0.129  10.086 -0.2720  0.7143 -0.0804
 7661SOL    HW134619   4.300   0.068  10.128 -0.0752  1.2233  0.3586
 7661SOL    HW234620   4.160   0.109  10.136  0.7200  0.6706  1.4658
 7662SOL     OW34621   1.367   0.989   4.125  0.1800  0.0110 -0.3400
 7662SOL    HW134622   1.330   0.949   4.203  0.1622  0.9252  0.1187
 7662SOL    HW234623   1.297   0.973   4.062  1.5319 -0.5640 -1.7194
 7663SOL     OW34624   2.589   0.590   6.972  0.0697 -0.8544 -0.5936
 7663SOL    HW134625   2.548   0.567   6.888 -2.1674 -0.6551  0.4408
 7663SOL    HW234626   2.509   0.596   7.024  0.8233  2.8943  0.0614
 7664SOL     OW34627   4.153   0.841   6.984  0.5168 -0.0087  0.3876
 7664SOL    HW134628   4.227   0.781   6.974  1.1557  0.6702  1.0017
 7664SOL    HW234629   4.186   0.916   6.934  1.9746 -0.7093  0.3051
 7665SOL     OW34630   2.622   2.693   8.242  0.7195 -0.6130  0.2150
 7665SOL    HW134631   2.687   2.720   8.177  0.6533 -0.3874  0.2438
 7665SOL    HW234632   2.641   2.743   8.321  0.6201  1.1405 -0.8746
 7666SOL     OW34633   3.092   0.948  13.211  0.3294 -0.7987  0.6352
 7666SOL    HW134634   3.105   0.864  13.255  1.4507 -1.0515 -0.1855
 7666SOL    HW234635   3.182   0.981  13.210  0.0751 -0.1532 -0.4773
 7667SOL     OW34636   3.952   2.632   7.885  0.3681  0.2345 -0.0290
 7667SOL    HW134637   3.953   2.538   7.868 -0.9168  0.1765  0.1526
 7667SOL    HW234638   3.874   2.628   7.942 -0.4673 -2.6954 -1.4030
 7668SOL     OW34639   2.813   0.324   6.230 -0.0287  0.6041  0.8646
 7668SOL    HW134640   2.718   0.329   6.238 -0.2222 -0.3313 -0.7356
 7668SOL    HW234641   2.844   0.404   6.271  2.4429  0.3615 -0.5082
 7669SOL     OW34642   2.426   3.589   8.203 -0.4606  0.2311  0.3572
 7669SOL    HW134643   2.483   3.665   8.215  0.2004 -0.3155  0.6752
 7669SOL    HW234644   2.433   3.576   8.109 -1.0581 -0.4428  0.4052
 7670SOL     OW34645   4.223   3.438   0.457  0.4765  0.1633 -0.0819
 7670SOL    HW134646   4.138   3.457   0.497  0.6215  1.4871 -0.4150
 7670SOL    HW234647   4.213   3.453   0.363  0.8159  0.0680 -0.1355
 7671SOL     OW34648   1.509   4.714   5.108  0.0565 -0.0149  0.1100
 7671SOL    HW134649   1.557   0.035   5.049  1.5698  0.4501  1.7879
 7671SOL    HW234650   1.540   4.735   5.196  0.2458  1.3877 -0.2988
 7672SOL     OW34651   1.351   4.010  17.085 -0.4583  0.2852  0.0209
 7672SOL    HW134652   1.279   4.029  17.025 -0.4220  1.1134  0.2324
 7672SOL    HW234653   1.337   3.917  17.102 -0.4864  0.3561  0.3940
 7673SOL     OW34654   3.240   2.171  10.020  0.2391  0.7893  0.0214
 7673SOL    HW134655   3.178   2.177   9.947 -0.1262  1.7390  0.4117
 7673SOL    HW234656   3.277   2.258  10.009  1.7457  0.0450 -0.9320
 7674SOL     OW34657   4.067   1.939  10.353 -0.2290  0.5314  0.3043
 7674SOL    HW134658   4.063   1.990  10.272 -0.2156  0.2381  0.1178
 7674SOL    HW234659   3.997   1.979  10.404 -0.3937 -0.0350  0.5145
 7675SOL     OW34660   2.994   0.478   6.424  0.6135  0.2274 -0.1726
 7675SOL    HW134661   3.025   0.514   6.507 -0.7181 -0.8832  0.8038
 7675SOL    HW234662   2.911   0.448   6.461  0.8125  2.4485  2.0606
 7676SOL     OW34663   3.335   1.643  12.547 -0.0604 -0.1220 -1.0728
 7676SOL    HW134664   3.311   1.633  12.455  3.2399 -0.2804 -1.9103
 7676SOL    HW234665   3.369   1.732  12.558  0.2289 -0.4312  0.5354
 7677SOL     OW34666   2.323   1.054   5.369  0.3472 -0.4113  0.6084
 7677SOL    HW134667   2.287   1.039   5.282 -1.8475  1.6634  1.1697
 7677SOL    HW234668   2.266   1.122   5.404 -1.8300 -2.0380  0.2133
 7678SOL     OW34669   2.439   1.920   7.160 -0.1475 -0.4869  0.1952
 7678SOL    HW134670   2.491   1.894   7.237 -1.5569  2.9436  2.2866
 7678SOL    HW234671   2.523   1.925   7.115  0.1879 -0.1076  0.8569
 7679SOL     OW34672   3.934   4.656   6.856 -0.0005 -0.6151 -0.3445
 7679SOL    HW134673   3.953   4.600   6.781 -0.4218 -1.5843  0.2742
 7679SOL    HW234674   3.984   0.000   6.842 -1.4614  0.2660 -0.4506
 7680SOL     OW34675   0.615   3.913   4.711  0.1216  0.0546 -0.3462
 7680SOL    HW134676   0.525   3.909   4.680  0.2653  0.8373 -0.8628
 7680SOL    HW234677   0.657   3.876   4.634 -0.2689  0.2458 -0.6509
 7681SOL     OW34678   1.583   3.379   9.447 -0.2150 -0.0869 -0.7864
 7681SOL    HW134679   1.642   3.361   9.519 -0.3211 -1.0329 -0.9407
 7681SOL    HW234680   1.562   3.290   9.420 -0.8631 -0.3279  0.5147
 7682SOL     OW34681   4.181   1.943   7.127 -0.4333 -0.1898  0.0468
 7682SOL    HW134682   4.242   1.904   7.190 -1.9938 -0.1391  1.5803
 7682SOL    HW234683   4.176   1.871   7.065 -1.7358  1.0599 -1.2828
 7683SOL     OW34684   2.718   1.364   6.599 -0.5861  0.4011 -0.2574
 7683SOL    HW134685   2.811   1.377   6.613 -0.4021 -0.1830 -0.9718
 7683SOL    HW234686   2.716   1.309   6.522  1.3848 -2.8676  2.0559
 7684SOL     OW34687   4.175   2.400   0.766 -0.6512 -0.5533 -0.0630
 7684SOL    HW134688   4.260   2.434   0.739 -0.9085  0.7330  0.7179
 7684SOL    HW234689   4.139   2.362   0.686  0.9729  0.4034 -1.2330
 7685SOL     OW34690   3.393   1.139   4.561  0.8621 -0.2178  0.2211
 7685SOL    HW134691   3.469   1.197   4.562  0.2805  0.5828 -2.7475
 7685SOL    HW234692   3.431   1.080   4.496  1.4266  0.0706  0.2845
 7686SOL     OW34693   3.876   1.833   9.498  0.2347  0.1066 -0.7481
 7686SOL    HW134694   3.883   1.742   9.467 -1.0452 -0.5401  0.8318
 7686SOL    HW234695   3.925   1.820   9.580 -0.6585  1.1740 -0.0513
 7687SOL     OW34696   0.832   0.118   5.417  0.7058 -0.3269  0.5108
 7687SOL    HW134697   0.773   0.063   5.469 -1.6464  1.4774 -0.2495
 7687SOL    HW234698   0.785   0.201   5.429  2.6172  0.7360  0.6183
 7688SOL     OW34699   4.522   0.670   8.210 -0.5592 -0.3373 -0.2246
 7688SOL    HW134700   4.573   0.746   8.183 -1.7785  0.6485  0.1958
 7688SOL    HW234701   4.580   0.594   8.204  0.3356  0.3536 -0.3360
 7689SOL     OW34702   3.697   4.047  10.989  0.1457 -0.2619 -0.6085
 7689SOL    HW134703   3.713   3.956  11.013 -1.5003 -0.2229  0.5482
 7689SOL    HW234704   3.622   4.064  11.045  1.3566  0.0107  0.9352
 7690SOL     OW34705   2.339   2.306  14.570 -0.3000 -0.2247 -0.1798
 7690SOL    HW134706   2.255   2.279  14.532 -0.0532 -0.3384 -0.6525
 7690SOL    HW234707   2.394   2.295  14.492  1.5117  2.7998  0.6572
 7691SOL     OW34708   4.491   2.242   3.656  0.2545  0.3555  0.4663
 7691SOL    HW134709   4.572   2.291   3.670  0.7898 -0.3096 -0.3190
 7691SOL    HW234710   4.464   2.265   3.567 -0.1132 -2.3081 -0.0834
 7692SOL     OW34711   4.664   2.255   5.439 -0.4961  0.3751 -0.3656
 7692SOL    HW134712   4.632   2.319   5.502  1.4740  0.7196  0.2842
 7692SOL    HW234713   4.663   2.300   5.354 -1.4522 -0.5862 -0.8603
 7693SOL     OW34714   4.001   4.235   3.957 -0.3934  0.3084  0.0017
 7693SOL    HW134715   4.065   4.300   3.929  1.4631 -1.4390  0.1922
 7693SOL    HW234716   3.920   4.280   3.932 -0.8075 -0.4546 -0.0163
 7694SOL     OW34717   3.712   0.299  10.881 -0.1867  0.5242 -0.2382
 7694SOL    HW134718   3.659   0.234  10.836  4.3028 -2.7734 -0.7578
 7694SOL    HW234719   3.729   0.252  10.963  0.5024  0.5216 -0.3821
 7695SOL     OW34720   0.179   3.730   8.787 -0.0517 -0.4351  0.4471
 7695SOL    HW134721   0.200   3.792   8.858 -0.4376  2.6436 -2.1195
 7695SOL    HW234722   0.100   3.765   8.746  0.0780 -1.0586 -0.3179
 7696SOL     OW34723   3.748   3.906   4.382 -0.0797 -0.2247 -0.1352
 7696SOL    HW134724   3.839   3.909   4.353  0.3392  0.3646  1.2385
 7696SOL    HW234725   3.727   3.993   4.416 -0.6361 -0.1246 -0.7411
 7697SOL     OW34726   1.472   4.671  13.006 -0.7943 -0.0634  0.1371
 7697SOL    HW134727   1.425   4.632  12.931 -1.0434 -2.4000  1.5000
 7697SOL    HW234728   1.556   4.698  12.969 -0.7785 -0.1395  0.1161
 7698SOL     OW34729   1.987   4.279   3.231 -0.2721  0.3476 -0.0668
 7698SOL    HW134730   1.928   4.334   3.179 -1.2296 -1.1637 -0.5839
 7698SOL    HW234731   1.937   4.198   3.215  0.8075 -0.4293  0.4675
 7699SOL     OW34732   0.214   2.202   6.567  0.0066  0.4375 -0.7325
 7699SOL    HW134733   0.234   2.294   6.585  0.0932  0.0372  1.2180
 7699SOL    HW234734   0.169   2.178   6.648  0.2129 -0.0702 -0.7666
 7700SOL     OW34735   0.079   1.436   6.802  0.2265  0.0710 -0.3435
 7700SOL    HW134736   0.115   1.513   6.758  1.0235  0.3227  0.7755
 7700SOL    HW234737   0.157   1.380   6.812  0.7784  1.0454  0.6979
 7701SOL     OW34738   0.854   1.919  10.395  0.1775 -0.1396  0.3759
 7701SOL    HW134739   0.917   1.956  10.456  0.8626 -0.6993  0.0085
 7701SOL    HW234740   0.879   1.828  10.381  2.6492  0.1137  3.1101
 7702SOL     OW34741   3.159   1.581   1.424  0.1740 -0.2586 -0.1512
 7702SOL    HW134742   3.106   1.636   1.366  0.0382  1.8685  1.9682
 7702SOL    HW234743   3.114   1.591   1.509 -1.1920  2.2850 -1.1688
 7703SOL     OW34744   1.625   4.302   6.179  0.5463  0.1661 -0.4428
 7703SOL    HW134745   1.567   4.248   6.124  0.3826  0.4469 -0.5489
 7703SOL    HW234746   1.569   4.335   6.250  1.1635  0.7657 -0.2394
 7704SOL     OW34747   1.069   2.566   4.777 -0.3314 -0.3309 -0.2895
 7704SOL    HW134748   1.110   2.613   4.704 -1.3256 -0.2361 -0.7871
 7704SOL    HW234749   1.109   2.601   4.856  0.0760  0.5568 -0.8764
 7705SOL     OW34750   3.240   0.984   6.584 -0.0232  0.0514 -0.3516
 7705SOL    HW134751   3.312   1.032   6.543  1.4805 -0.5369  1.6033
 7705SOL    HW234752   3.288   0.947   6.658 -0.6368 -1.4565 -0.7242
 7706SOL     OW34753   3.017   3.824   3.995 -0.1204 -0.0119 -0.3632
 7706SOL    HW134754   3.082   3.894   3.997 -0.1016 -0.0656  0.9038
 7706SOL    HW234755   2.937   3.869   3.967  0.1793  1.0227  0.3967
 7707SOL     OW34756   1.785   4.290   5.526 -0.3180  0.3520  0.0507
 7707SOL    HW134757   1.790   4.212   5.580  1.6585 -0.2257 -0.9581
 7707SOL    HW234758   1.692   4.308   5.519 -0.5615 -0.4781  1.2661
 7708SOL     OW34759   1.017   0.383   5.914  0.1405  1.3275 -0.4472
 7708SOL    HW134760   0.997   0.364   5.823 -2.8213 -1.0406  0.7046
 7708SOL    HW234761   0.932   0.417   5.942 -0.9364 -0.7747 -1.2148
 7709SOL     OW34762   4.504   2.207  10.522 -0.2791 -0.3272  0.4817
 7709SOL    HW134763   4.449   2.217  10.445 -0.1467 -3.7640 -0.0338
 7709SOL    HW234764   4.444   2.185  10.593 -0.6527  0.6404  0.4617
 7710SOL     OW34765   1.215   1.342   2.649 -0.3661  0.4110  0.0213
 7710SOL    HW134766   1.252   1.282   2.584 -1.7814  0.4350 -0.7997
 7710SOL    HW234767   1.226   1.289   2.727 -2.1592  1.6406  1.1114
 7711SOL     OW34768   1.250   4.398   8.484 -0.5722  0.3701  0.2971
 7711SOL    HW134769   1.209   4.325   8.530 -1.0932  0.8247  0.5560
 7711SOL    HW234770   1.323   4.357   8.438  0.5162 -0.8929  3.1546
 7712SOL     OW34771   0.075   0.979   6.054 -0.5093 -0.7238  0.9056
 7712SOL    HW134772   0.060   1.074   6.058 -0.4377 -0.6723 -0.3621
 7712SOL    HW234773   0.134   0.964   5.981 -1.9604  1.1096 -0.6425
 7713SOL     OW34774   2.729   3.804  11.124 -0.2238  0.3856  0.1489
 7713SOL    HW134775   2.800   3.828  11.064 -1.0876 -1.9269 -1.8005
 7713SOL    HW234776   2.725   3.877  11.186  0.8600  0.8820 -0.3682
 7714SOL     OW34777   4.365   2.262   5.394  0.4402 -0.1118  0.0728
 7714SOL    HW134778   4.379   2.357   5.389  0.1418 -0.0991 -0.6108
 7714SOL    HW234779   4.368   2.238   5.486  1.6621 -0.7337 -0.1266
 7715SOL     OW34780   0.208   1.967  14.647 -0.0359 -0.3086 -0.1959
 7715SOL    HW134781   0.228   1.927  14.732  0.5891  1.1265  0.3254
 7715SOL    HW234782   0.258   1.916  14.583  1.2348 -0.5597  0.9950
 7716SOL     OW34783   2.246   2.744   4.597  0.3624 -0.2455 -0.0099
 7716SOL    HW134784   2.324   2.798   4.586  1.0341 -1.1570  0.3497
 7716SOL    HW234785   2.221   2.775   4.684 -0.4234 -1.4486  0.1966
 7717SOL     OW34786   0.729   0.604   7.990  0.3153  0.6417  0.2439
 7717SOL    HW134787   0.785   0.576   8.062 -0.1578  0.8858  0.7076
 7717SOL    HW234788   0.791   0.603   7.917  0.4073 -1.9955  0.3554
 7718SOL     OW34789   3.083   0.428   5.242 -0.2425  0.2692 -0.0877
 7718SOL    HW134790   3.068   0.450   5.150 -0.9337 -0.9080 -0.2667
 7718SOL    HW234791   2.995   0.444   5.278 -0.1120 -0.9141  0.7410
 7719SOL     OW34792   1.755   1.035  17.266 -0.5707  0.5013  0.1628
 7719SOL    HW134793   1.708   1.022  17.183  1.0796  0.8295 -0.8274
 7719SOL    HW234794   1.800   1.117  17.245  0.9468 -0.3353  0.1365
 7720SOL     OW34795   2.484   4.412  17.410  0.0826 -0.6144 -0.2740
 7720SOL    HW134796   2.444   4.351  17.349 -0.7518 -0.0996 -0.2285
 7720SOL    HW234797   2.510   4.482  17.350  0.0263 -1.3143 -1.1050
 7721SOL     OW34798   2.128   0.810   4.755  0.0602 -0.5400 -0.1979
 7721SOL    HW134799   2.083   0.740   4.708 -1.3576 -0.2795  0.7770
 7721SOL    HW234800   2.086   0.887   4.715 -0.3304 -1.5512 -1.7208
 7722SOL     OW34801   0.316   1.340   6.876 -0.2720  0.5940  0.0185
 7722SOL    HW134802   0.407   1.368   6.882 -0.3252  0.2352  2.5526
 7722SOL    HW234803   0.309   1.317   6.969 -1.0506 -0.3604 -0.2836
 7723SOL     OW34804   1.812   0.843   7.939  0.0653 -0.0075 -0.4640
 7723SOL    HW134805   1.879   0.839   7.872 -0.9730  1.8354 -1.6010
 7723SOL    HW234806   1.867   0.836   8.017 -0.6893 -0.6584  0.0164
 7724SOL     OW34807   3.394   2.065   9.593  0.3509  0.0751  0.7151
 7724SOL    HW134808   3.438   2.144   9.562 -1.0384  1.4681  2.3026
 7724SOL    HW234809   3.465   2.006   9.618  1.4972  0.9327 -0.5466
 7725SOL     OW34810   2.633   3.696   7.111  0.4609  0.7321 -0.1158
 7725SOL    HW134811   2.726   3.671   7.117  0.4442  0.3041 -1.7366
 7725SOL    HW234812   2.616   3.732   7.198  0.6830 -2.0448  1.0675
 7726SOL     OW34813   2.812   1.059   4.100 -0.1598 -0.0658  0.2822
 7726SOL    HW134814   2.779   0.970   4.112  0.2188 -0.2664 -0.1468
 7726SOL    HW234815   2.761   1.091   4.174 -0.1967  0.5874 -0.0235
 7727SOL     OW34816   3.329   3.755  12.402 -0.6732  0.4790 -0.3971
 7727SOL    HW134817   3.277   3.743  12.322  0.3533 -1.8012 -0.7125
 7727SOL    HW234818   3.345   3.848  12.384  1.1694  0.1651 -0.3791
 7728SOL     OW34819   1.147   1.484   4.431  0.0643  0.3071  0.3351
 7728SOL    HW134820   1.105   1.411   4.385  2.0244 -0.7012  0.1287
 7728SOL    HW234821   1.102   1.563   4.401  2.4129  0.6311 -2.3355
 7729SOL     OW34822   3.800   1.595   4.760  0.6968 -0.4463  0.0442
 7729SOL    HW134823   3.891   1.589   4.790  0.5734  0.4733  0.5917
 7729SOL    HW234824   3.757   1.637   4.834 -1.3244 -2.3262 -0.0801
 7730SOL     OW34825   0.056   1.127  12.359  0.2813 -0.2801  0.7054
 7730SOL    HW134826   0.041   1.190  12.288 -1.8493 -3.2856 -1.4766
 7730SOL    HW234827   0.079   1.048  12.311 -0.5983 -0.2873  0.2957
 7731SOL     OW34828   0.650   3.959   7.606 -0.7967 -0.1433 -0.1407
 7731SOL    HW134829   0.662   3.985   7.515 -0.1900 -0.6472 -0.2071
 7731SOL    HW234830   0.609   3.873   7.607  1.3558 -1.1491  1.9520
 7732SOL     OW34831   2.128   1.635   5.363 -0.4723 -0.0850  0.6472
 7732SOL    HW134832   2.218   1.601   5.367  0.2525  1.9864  2.2545
 7732SOL    HW234833   2.122   1.647   5.458 -0.4030  2.2023  0.3776
 7733SOL     OW34834   4.184   0.262   1.553 -0.1796 -0.2755  0.2887
 7733SOL    HW134835   4.149   0.350   1.564 -2.1412 -0.8763 -1.1750
 7733SOL    HW234836   4.120   0.226   1.492  0.3492 -0.8587  0.0845
 7734SOL     OW34837   4.030   2.656   8.217  0.4557  0.0450  0.1416
 7734SOL    HW134838   4.028   2.562   8.200  0.3983  0.3122 -1.3498
 7734SOL    HW234839   4.117   2.668   8.178  1.0638 -0.0929  1.4677
 7735SOL     OW34840   1.349   2.928   7.536  0.3350  0.5913  0.0061
 7735SOL    HW134841   1.254   2.919   7.538  0.4602 -0.5013  1.6727
 7735SOL    HW234842   1.368   2.875   7.459 -2.2529 -0.4363  0.0804
 7736SOL     OW34843   1.200   0.359  16.459  0.3349  0.6146  0.1836
 7736SOL    HW134844   1.108   0.333  16.454  0.7800 -0.7087 -1.1497
 7736SOL    HW234845   1.225   0.322  16.374 -3.3316  0.4223 -0.7960
 7737SOL     OW34846   3.857   0.144  12.039 -0.3587 -0.2929  0.5339
 7737SOL    HW134847   3.913   0.142  12.117  1.9242 -2.5385 -1.1267
 7737SOL    HW234848   3.831   0.236  12.042 -1.2595 -0.4943 -1.4375
 7738SOL     OW34849   4.516   0.174  14.107  0.4566  0.1746  0.0510
 7738SOL    HW134850   4.459   0.099  14.125  1.9746 -0.8503  0.6026
 7738SOL    HW234851   4.451   0.235  14.072  0.9259  1.2212  1.0426
 7739SOL     OW34852   0.001   2.794   1.815 -0.3144 -0.7402  0.0590
 7739SOL    HW134853   4.668   2.783   1.751 -2.6684  0.6720  2.3684
 7739SOL    HW234854   0.035   2.880   1.788 -0.4842 -1.7647 -3.4534
 7740SOL     OW34855   0.511   2.019  15.906 -0.7165  0.1588  0.0728
 7740SOL    HW134856   0.545   2.107  15.892  1.9505 -0.9463 -0.3051
 7740SOL    HW234857   0.443   2.013  15.838  1.4313  2.0990 -2.2401
 7741SOL     OW34858   4.554   0.021  14.763 -0.1389 -0.5646 -0.0028
 7741SOL    HW134859   4.591   4.688  14.818  1.8505  0.8159  0.4023
 7741SOL    HW234860   4.553   4.711  14.679  2.1753  0.2133 -0.4505
 7742SOL     OW34861   4.264   1.745   7.471 -0.4591  0.2818 -0.5104
 7742SOL    HW134862   4.186   1.697   7.499  0.3646  0.8000  2.6116
 7742SOL    HW234863   4.299   1.786   7.550 -0.6759 -0.8452  0.1615
 7743SOL     OW34864   2.084   1.560   4.321  0.2709  0.4375  0.1680
 7743SOL    HW134865   1.992   1.585   4.326  0.5844  2.5527 -4.2413
 7743SOL    HW234866   2.092   1.500   4.247  0.6452  1.1462 -0.3705
 7744SOL     OW34867   2.428   4.505  12.045  0.0574 -0.0054  0.4165
 7744SOL    HW134868   2.346   4.495  11.995  0.8421 -0.6660 -0.7339
 7744SOL    HW234869   2.418   4.444  12.117 -1.6373  0.0857  0.2774
 7745SOL     OW34870   4.342   1.833   7.707 -0.1436 -0.2345  0.9218
 7745SOL    HW134871   4.356   1.914   7.757  0.7160 -2.5964  4.5185
 7745SOL    HW234872   4.392   1.767   7.756  1.8167  0.6829  0.1548
 7746SOL     OW34873   2.851   2.364   3.357  0.0491  0.2778 -0.0827
 7746SOL    HW134874   2.766   2.388   3.320  0.0987  0.2604 -0.2082
 7746SOL    HW234875   2.900   2.339   3.279 -0.1256  0.0940 -0.1328
 7747SOL     OW34876   3.230   4.323  10.866  0.0891  0.1213  0.0024
 7747SOL    HW134877   3.153   4.349  10.917  1.1955  1.4044  1.0068
 7747SOL    HW234878   3.221   4.387  10.795 -0.7523 -0.5378 -0.4958
 7748SOL     OW34879   4.095   2.273  10.896  0.1322 -0.0900 -0.9018
 7748SOL    HW134880   4.154   2.339  10.933  0.7960 -1.1236 -0.0954
 7748SOL    HW234881   4.079   2.217  10.972  1.2317 -2.4778 -2.4201
 7749SOL     OW34882   2.293   2.573   1.025 -0.0383 -0.0267  0.4913
 7749SOL    HW134883   2.212   2.524   1.041 -0.5496  0.5058 -0.4502
 7749SOL    HW234884   2.292   2.574   0.929  0.3670 -0.1478  0.4875
 7750SOL     OW34885   4.046   4.308   8.590  0.5416  0.0133  0.0994
 7750SOL    HW134886   4.081   4.266   8.511  1.0658 -1.4680  1.1202
 7750SOL    HW234887   3.957   4.328   8.560  0.8780 -0.8200 -1.4565
 7751SOL     OW34888   1.623   2.706   5.473 -0.3102  0.2848  0.2908
 7751SOL    HW134889   1.647   2.613   5.468  0.4101  0.5608 -1.3508
 7751SOL    HW234890   1.528   2.705   5.463 -0.0843  0.5877 -2.0423
 7752SOL     OW34891   0.920   1.151   3.236 -0.0467 -0.1232 -0.1877
 7752SOL    HW134892   0.869   1.130   3.314  1.6774 -0.8987  0.7379
 7752SOL    HW234893   1.010   1.134   3.266 -0.2463 -1.3393 -0.2732
 7753SOL     OW34894   0.695   4.646   3.772 -0.1872 -0.4657 -0.3419
 7753SOL    HW134895   0.669   4.619   3.860  2.4929  1.9116  1.1700
 7753SOL    HW234896   0.709   0.003   3.786  0.1447 -0.8431  1.7382
 7754SOL     OW34897   3.994   3.876  15.804  0.2804  0.0564  0.6545
 7754SOL    HW134898   4.051   3.800  15.819  0.6852 -0.1664 -1.8647
 7754SOL    HW234899   3.918   3.857  15.859  0.7309 -0.7301  1.0136
 7755SOL     OW34900   3.071   1.772   5.882 -0.5205 -0.8054 -0.2552
 7755SOL    HW134901   3.118   1.823   5.948 -1.5316  2.1580 -1.8063
 7755SOL    HW234902   3.146   1.734   5.836 -1.7794 -3.0689 -0.4281
 7756SOL     OW34903   1.410   1.423   3.917  0.0906  0.4093  0.2213
 7756SOL    HW134904   1.393   1.366   3.843 -0.6070 -1.0778  1.5269
 7756SOL    HW234905   1.344   1.491   3.902 -0.0386  0.1200 -0.5214
 7757SOL     OW34906   1.914   2.971  14.525 -0.1840 -0.4368  0.1705
 7757SOL    HW134907   1.846   2.939  14.584  1.4080  0.8955  2.6946
 7757SOL    HW234908   1.987   2.920  14.559  1.3165 -0.6973 -3.3935
 7758SOL     OW34909   0.275   2.492  14.269 -0.0333  0.0724  0.2393
 7758SOL    HW134910   0.214   2.479  14.342 -0.3169 -1.9422 -0.3491
 7758SOL    HW234911   0.215   2.521  14.200 -0.4297  3.1643  1.9092
 7759SOL     OW34912   0.686   3.583   4.290 -0.4508  0.0083 -0.3439
 7759SOL    HW134913   0.604   3.537   4.272  0.3108 -0.5822 -2.2583
 7759SOL    HW234914   0.723   3.574   4.202  1.0702  0.1428  0.2797
 7760SOL     OW34915   1.767   1.587  14.094  0.4446  0.0706  0.3960
 7760SOL    HW134916   1.704   1.659  14.087  2.3790  1.7719  0.0541
 7760SOL    HW234917   1.711   1.513  14.112 -2.0267  1.3682 -2.0224
 7761SOL     OW34918   0.868   0.596  10.187 -0.4349 -0.3347  0.2628
 7761SOL    HW134919   0.896   0.516  10.232  1.3654 -1.0055 -2.0211
 7761SOL    HW234920   0.868   0.581  10.093  0.6977 -3.0543  0.6961
 7762SOL     OW34921   0.077   2.917   1.040  0.0788 -0.0063 -0.3614
 7762SOL    HW134922   0.156   2.904   1.092 -0.7245 -0.2878  0.7808
 7762SOL    HW234923   0.121   2.954   0.964 -0.9474  3.0952  0.5477
 7763SOL     OW34924   0.446   4.191   8.853  0.3192 -0.1117  0.1862
 7763SOL    HW134925   0.474   4.221   8.767  0.9101  1.5394  0.9634
 7763SOL    HW234926   0.498   4.112   8.865  0.8202  0.6625  3.1009
 7764SOL     OW34927   4.137   0.854   7.630 -1.0535 -0.1576 -0.3379
 7764SOL    HW134928   4.209   0.815   7.581 -1.8175  2.3433 -3.4465
 7764SOL    HW234929   4.112   0.770   7.670  1.3989 -0.3118  0.8331
 7765SOL     OW34930   1.115   1.804  16.396 -0.6921 -0.0252 -0.3721
 7765SOL    HW134931   1.121   1.896  16.420 -1.4123  0.1084 -0.7384
 7765SOL    HW234932   1.209   1.785  16.389 -1.0508 -0.5975 -3.4482
 7766SOL     OW34933   1.108   2.394   9.360 -0.1405  0.4879 -0.2775
 7766SOL    HW134934   1.037   2.458   9.357 -0.2303  0.3175 -1.7754
 7766SOL    HW234935   1.162   2.408   9.282 -1.7256  1.4835 -1.1912
 7767SOL     OW34936   2.567   1.571   7.956 -0.0840  0.2186  0.3888
 7767SOL    HW134937   2.573   1.653   7.907  1.1166  1.1482  2.0864
 7767SOL    HW234938   2.512   1.593   8.031 -1.4600 -2.4917  0.1623
 7768SOL     OW34939   0.620   1.421   4.008  0.2801 -0.4030  0.3295
 7768SOL    HW134940   0.657   1.470   3.936  1.3858 -0.8493  0.5911
 7768SOL    HW234941   0.703   1.383   4.038 -0.3381 -1.6610  0.4281
 7769SOL     OW34942   4.188   3.340   7.399  0.2617  0.2775 -0.0041
 7769SOL    HW134943   4.158   3.297   7.479 -1.6569 -2.5244 -2.2252
 7769SOL    HW234944   4.102   3.356   7.361  0.8810  1.2919 -0.9678
 7770SOL     OW34945   2.760   1.518   2.804  0.3285  0.2153 -0.3482
 7770SOL    HW134946   2.679   1.475   2.830  0.8252 -1.7663 -2.0479
 7770SOL    HW234947   2.752   1.604   2.844 -1.9413 -0.1549 -0.0471
 7771SOL     OW34948   0.406   0.194   4.090 -0.4118 -0.2459  0.2892
 7771SOL    HW134949   0.384   0.257   4.159  1.0253  1.0656 -0.4333
 7771SOL    HW234950   0.390   0.109   4.129  1.0314 -0.2604  0.8600
 7772SOL     OW34951   0.405   3.449   1.388 -0.4027  0.1520 -0.0094
 7772SOL    HW134952   0.488   3.409   1.414  0.4518  2.7202  1.2096
 7772SOL    HW234953   0.379   3.498   1.465  2.5143 -0.4942  1.3964
 7773SOL     OW34954   1.987   1.169   6.832 -0.1598  0.6553 -0.3390
 7773SOL    HW134955   1.974   1.221   6.911 -0.2145  1.4381 -0.8560
 7773SOL    HW234956   2.007   1.240   6.771  1.4403  2.5994  2.4592
 7774SOL     OW34957   2.173   1.396   9.400  0.1717  0.0760  0.2365
 7774SOL    HW134958   2.204   1.471   9.350 -0.0524 -0.3325 -0.5045
 7774SOL    HW234959   2.241   1.396   9.467  1.4616 -1.5013 -1.0829
 7775SOL     OW34960   0.728   0.104   5.696 -0.2283 -0.1118 -0.4100
 7775SOL    HW134961   0.729   0.115   5.791 -3.2950  3.6942 -0.8249
 7775SOL    HW234962   0.636   0.111   5.669 -1.2339  0.1104  3.0472
 7776SOL     OW34963   3.264   4.098   7.371  0.1253  0.0509 -0.1107
 7776SOL    HW134964   3.293   4.166   7.310 -1.5898  2.5692  1.8790
 7776SOL    HW234965   3.213   4.055   7.303  4.7566 -3.4868 -1.3358
 7777SOL     OW34966   4.259   0.897   9.151  0.3999  0.2297 -0.6955
 7777SOL    HW134967   4.242   0.926   9.240  0.3563  0.4823 -0.7865
 7777SOL    HW234968   4.297   0.810   9.164 -0.0320  0.2859  0.9295
 7778SOL     OW34969   1.784   0.693   5.411 -0.3975  0.1967  0.1964
 7778SOL    HW134970   1.718   0.719   5.474  0.5243 -1.3583  1.8127
 7778SOL    HW234971   1.864   0.717   5.458  0.2506  1.6099 -1.6094
 7779SOL     OW34972   1.833   2.926   3.807 -0.3462  0.0976  0.1200
 7779SOL    HW134973   1.903   2.913   3.871 -2.2614 -0.0871  2.1473
 7779SOL    HW234974   1.775   2.985   3.855  0.6919 -0.0304  1.5488
 7780SOL     OW34975   2.085   0.418   3.118  0.0753  0.6278  0.2974
 7780SOL    HW134976   2.011   0.357   3.128  1.4305 -1.1433 -0.4241
 7780SOL    HW234977   2.153   0.361   3.155 -1.3290 -1.0194  0.3333
 7781SOL     OW34978   1.797   1.160  15.056 -0.2201  0.3214  0.0351
 7781SOL    HW134979   1.839   1.156  14.970  1.3528 -0.3453  0.8322
 7781SOL    HW234980   1.704   1.169  15.033 -0.2519 -0.2450 -0.0485
 7782SOL     OW34981   1.619   1.526   4.903  0.1976  0.0563 -0.1410
 7782SOL    HW134982   1.707   1.493   4.918 -0.0821  0.1161  1.6427
 7782SOL    HW234983   1.565   1.466   4.955  1.5351 -1.2210 -0.2329
 7783SOL     OW34984   4.180   4.254   1.890  0.5826 -0.7158  0.1732
 7783SOL    HW134985   4.250   4.197   1.923 -0.0467 -0.6540  1.6471
 7783SOL    HW234986   4.227   4.300   1.820 -1.8573  0.9835 -0.3583
 7784SOL     OW34987   2.469   2.690   9.302  0.0091 -0.1813  0.3799
 7784SOL    HW134988   2.491   2.604   9.266  1.7184  0.5484 -0.2993
 7784SOL    HW234989   2.534   2.709   9.369 -2.0309 -0.3789  2.4367
 7785SOL     OW34990   2.488   2.942   6.477  0.5823  0.2302 -0.3620
 7785SOL    HW134991   2.397   2.960   6.453  0.1644 -1.7935 -0.2426
 7785SOL    HW234992   2.535   2.997   6.415 -1.0806  0.2601 -1.6016
 7786SOL     OW34993   1.391   2.642  13.372 -0.0925 -0.3801 -0.1661
 7786SOL    HW134994   1.403   2.547  13.378  0.9413 -0.1225  1.9510
 7786SOL    HW234995   1.468   2.663  13.425 -1.6298  2.6389  0.8299
 7787SOL     OW34996   3.173   3.551  10.292  0.0698 -0.2873 -0.1166
 7787SOL    HW134997   3.262   3.537  10.258  0.0649  0.4311 -0.4201
 7787SOL    HW234998   3.143   3.597  10.213 -2.5082  1.8963  2.1429
 7788SOL     OW34999   1.479   4.712   4.067 -0.0484 -0.3058 -0.0036
 7788SOL    HW135000   1.547   0.043   4.065  0.1705 -0.5667 -1.4207
 7788SOL    HW235001   1.473   4.689   3.974  1.4908 -1.9788  0.2989
 7789SOL     OW35002   2.662   2.142   7.938 -0.0518  0.2767 -0.4882
 7789SOL    HW135003   2.567   2.149   7.929 -0.3013 -0.6998  1.3778
 7789SOL    HW235004   2.687   2.170   7.850 -0.3223 -0.5930 -0.8411
 7790SOL     OW35005   2.637   1.134   1.731 -0.5664 -0.2278  0.0050
 7790SOL    HW135006   2.686   1.145   1.813 -2.3412 -1.5557  1.2531
 7790SOL    HW235007   2.561   1.188   1.753 -0.2448  0.1148  0.2801
 7791SOL     OW35008   2.171   2.055   4.242 -0.0639 -0.4930  0.3567
 7791SOL    HW135009   2.088   2.032   4.200  0.8894 -0.9110 -1.3259
 7791SOL    HW235010   2.231   1.993   4.201  1.2836  1.6268 -0.9299
 7792SOL     OW35011   4.326   3.781   1.902 -0.4898  0.6404  0.3963
 7792SOL    HW135012   4.410   3.758   1.862 -0.4191 -0.6371  1.2796
 7792SOL    HW235013   4.266   3.723   1.855  0.4859 -0.0936  0.0251
 7793SOL     OW35014   3.793   0.964   9.142  0.6956 -0.1598 -0.5093
 7793SOL    HW135015   3.746   1.047   9.146 -0.8532 -0.9300 -2.0282
 7793SOL    HW235016   3.792   0.950   9.236 -0.8024  0.7991 -0.3821
 7794SOL     OW35017   3.684   3.591  16.175 -0.2051  0.0290  0.4284
 7794SOL    HW135018   3.596   3.627  16.168 -0.2495  0.1729  1.5806
 7794SOL    HW235019   3.668   3.514  16.230 -0.6146 -0.8097 -0.8745
 7795SOL     OW35020   1.087   3.814   7.761 -0.1094  0.6435  0.0279
 7795SOL    HW135021   1.098   3.881   7.828  1.9797  0.6343 -0.2883
 7795SOL    HW235022   1.154   3.755   7.795 -1.4897  0.0786  1.7193
 7796SOL     OW35023   2.117   4.199   5.448  0.1460  0.4205 -0.2727
 7796SOL    HW135024   2.029   4.222   5.480 -0.6442 -1.4710 -1.0705
 7796SOL    HW235025   2.103   4.186   5.355  0.0068 -0.2672 -0.1533
 7797SOL     OW35026   2.162   1.994   1.914  0.5424  0.3740  0.3489
 7797SOL    HW135027   2.249   2.015   1.948  0.5635  1.6443 -0.5096
 7797SOL    HW235028   2.121   1.969   1.997  0.4201 -0.7732 -0.0606
 7798SOL     OW35029   3.141   4.220   6.235  0.5395  0.2611 -0.6185
 7798SOL    HW135030   3.187   4.302   6.217 -0.4015  1.1662  1.1359
 7798SOL    HW235031   3.081   4.218   6.160  1.5902  0.8121 -1.4826
 7799SOL     OW35032   2.575   4.605   0.072 -0.0702 -0.1047  0.0866
 7799SOL    HW135033   2.582   4.590  17.721  2.3482  2.3402 -0.1431
 7799SOL    HW235034   2.480   4.617   0.067 -0.0051  0.3980  0.0233
 7800SOL     OW35035   0.372   3.965   3.801  0.4040  0.5380  0.2636
 7800SOL    HW135036   0.368   3.911   3.880 -1.1183  0.6268  0.2576
 7800SOL    HW235037   0.459   4.005   3.806  0.6356 -0.1120  1.2624
 7801SOL     OW35038   0.133   1.598   2.598  0.1086 -0.0664 -0.1424
 7801SOL    HW135039   0.194   1.635   2.535  0.4833  2.2853  1.6084
 7801SOL    HW235040   0.180   1.517   2.618 -0.5327 -0.6871 -1.1717
 7802SOL     OW35041   2.620   4.692   6.706 -0.0546  0.1021 -0.7669
 7802SOL    HW135042   2.546   4.669   6.762  1.4951  0.8538  1.6050
 7802SOL    HW235043   2.613   4.635   6.629  1.1388  1.1363 -1.6611
 7803SOL     OW35044   2.632   3.724   5.123 -0.6979 -0.1698  0.0768
 7803SOL    HW135045   2.546   3.759   5.100 -0.3048  1.4278  1.0454
 7803SOL    HW235046   2.648   3.658   5.055  2.2035  1.4260 -0.7878
 7804SOL     OW35047   2.169   4.257   1.725  0.3706  0.2204 -0.0954
 7804SOL    HW135048   2.194   4.326   1.665  1.1993  0.4092  0.4632
 7804SOL    HW235049   2.109   4.304   1.783  1.1504  1.4109 -0.2638
 7805SOL     OW35050   0.849   2.145   5.466 -0.2865  0.4049 -0.1080
 7805SOL    HW135051   0.803   2.126   5.384  0.2839  1.0418 -0.5739
 7805SOL    HW235052   0.845   2.240   5.467  1.9392  0.4953  0.0451
 7806SOL     OW35053   3.168   0.109   3.595  0.0377 -0.1798  0.2921
 7806SOL    HW135054   3.141   0.192   3.554  1.9403  1.0981  1.6118
 7806SOL    HW235055   3.087   0.058   3.603  0.2860 -0.3338  1.8524
 7807SOL     OW35056   1.509   1.221   7.585  0.3993 -0.2265 -0.2018
 7807SOL    HW135057   1.528   1.254   7.497 -1.3306  2.6048  0.5164
 7807SOL    HW235058   1.561   1.140   7.585  1.2187  0.2936 -1.2780
 7808SOL     OW35059   1.599   4.134   7.489 -0.5229 -0.1439  0.0089
 7808SOL    HW135060   1.620   4.133   7.582  0.9757 -3.0664 -0.3667
 7808SOL    HW235061   1.664   4.075   7.452 -2.7297 -1.7499 -1.3065
 7809SOL     OW35062   4.200   4.380   0.695 -0.0305 -0.0054 -0.0694
 7809SOL    HW135063   4.121   4.431   0.713 -0.8095 -0.8533 -1.0698
 7809SOL    HW235064   4.233   4.414   0.612  0.4167  0.0255  0.1224
 7810SOL     OW35065   4.621   2.863  11.422  0.4570  0.0923  0.1281
 7810SOL    HW135066   4.598   2.789  11.478  0.2981  0.2971  0.3293
 7810SOL    HW235067   4.644   2.927  11.489 -0.6014  0.4705  0.1303
 7811SOL     OW35068   4.293   1.529  16.081 -0.4583  0.4492  0.3027
 7811SOL    HW135069   4.275   1.461  16.146  0.3342  2.9169  3.0970
 7811SOL    HW235070   4.267   1.606  16.132 -0.6223  0.2978  0.4442
 7812SOL     OW35071   1.287   1.695   7.739 -0.7202  0.3630  0.5487
 7812SOL    HW135072   1.344   1.770   7.757  0.4344 -0.2468 -0.6197
 7812SOL    HW235073   1.288   1.681   7.644  1.7181  0.3445  0.5755
 7813SOL     OW35074   2.963   3.481   1.089 -0.0660  0.4708  0.3245
 7813SOL    HW135075   2.893   3.419   1.071 -0.4393  1.3306 -1.2282
 7813SOL    HW235076   3.018   3.477   1.011 -0.5107  1.1379 -0.0332
 7814SOL     OW35077   0.207   4.303   4.302  0.1107  0.2584  0.0547
 7814SOL    HW135078   0.189   4.226   4.356  0.7835 -0.0274 -0.1302
 7814SOL    HW235079   0.159   4.377   4.339  1.4025  1.5639 -0.8686
 7815SOL     OW35080   3.001   0.768   3.630 -0.0791  0.5106 -0.3191
 7815SOL    HW135081   2.967   0.680   3.648  1.4415  0.5824  3.0676
 7815SOL    HW235082   3.094   0.758   3.650 -0.3822 -1.5611  0.0570
 7816SOL     OW35083   2.707   3.455   5.808  0.2647  0.1938 -0.1265
 7816SOL    HW135084   2.619   3.438   5.774 -0.1424  0.7289  0.6577
 7816SOL    HW235085   2.710   3.371   5.854 -2.7576  0.8335  1.2323
 7817SOL     OW35086   3.256   1.806   5.521  0.1100 -0.4019  0.0261
 7817SOL    HW135087   3.306   1.734   5.481 -0.4678 -1.7482  1.7089
 7817SOL    HW235088   3.324   1.873   5.529 -0.5267  0.2142  0.2567
 7818SOL     OW35089   4.171   4.262   1.545 -0.3471 -0.2007  0.0238
 7818SOL    HW135090   4.220   4.332   1.589 -2.5522  1.3675 -0.0271
 7818SOL    HW235091   4.200   4.265   1.454  1.7386 -1.9968  0.6289
 7819SOL     OW35092   3.654   2.180   8.632  0.0223 -0.0604 -0.2343
 7819SOL    HW135093   3.596   2.163   8.558  0.1577  0.5609 -0.4870
 7819SOL    HW235094   3.741   2.196   8.595 -0.4799 -0.1633 -1.4738
 7820SOL     OW35095   0.707   2.380   0.342  0.0975  0.2159  0.0102
 7820SOL    HW135096   0.684   2.309   0.403 -2.1464 -1.2614 -2.5928
 7820SOL    HW235097   0.767   2.339   0.280  0.0695 -1.0765  0.8375
 7821SOL     OW35098   0.255   1.976   0.691 -0.1542 -0.4048  0.0296
 7821SOL    HW135099   0.215   1.961   0.605  1.0932 -1.2519 -0.3929
 7821SOL    HW235100   0.239   2.070   0.700 -0.6797 -0.6221  1.4172
 7822SOL     OW35101   0.989   2.997   7.013 -0.0749  0.0693 -0.3088
 7822SOL    HW135102   1.069   3.024   6.967  0.0915 -0.2562 -0.2093
 7822SOL    HW235103   0.938   3.078   7.011  0.4853  0.4476  1.4497
 7823SOL     OW35104   4.399   4.595  16.044  0.8151 -0.1604 -0.2596
 7823SOL    HW135105   4.377   4.649  15.967 -0.0166  0.1197  0.1796
 7823SOL    HW235106   4.440   4.663  16.097 -0.5973  0.3740  0.1400
 7824SOL     OW35107   4.628   4.457   6.004  0.2367  0.8936  0.0565
 7824SOL    HW135108   4.664   4.440   6.092  1.9229  2.4868 -0.3129
 7824SOL    HW235109   4.682   4.529   5.970 -0.6816  1.4864 -0.1492
 7825SOL     OW35110   1.867   0.669   9.034  0.2863 -0.5364  0.1739
 7825SOL    HW135111   1.902   0.756   9.020 -0.7479 -0.0831  0.3923
 7825SOL    HW235112   1.820   0.695   9.113  0.6407 -0.5785  0.3993
 7826SOL     OW35113   2.084   4.361   1.052  0.3906  0.1806 -0.2348
 7826SOL    HW135114   2.160   4.353   1.109  0.7186  1.6754 -0.4440
 7826SOL    HW235115   2.021   4.317   1.109 -0.2003  0.1764 -0.8864
 7827SOL     OW35116   2.766   4.501  11.172  0.5418  0.3621  0.2511
 7827SOL    HW135117   2.845   4.519  11.222  0.7194  1.2099 -0.3196
 7827SOL    HW235118   2.702   4.565  11.201 -0.9269 -0.5483 -0.9877
 7828SOL     OW35119   2.067   1.868   7.728 -0.4962 -0.1595  0.2419
 7828SOL    HW135120   1.984   1.907   7.699 -0.3183 -0.3106 -0.4611
 7828SOL    HW235121   2.117   1.948   7.743 -0.3944 -1.0644  4.6740
 7829SOL     OW35122   0.548   0.400   2.969 -0.3484 -0.3050 -0.0795
 7829SOL    HW135123   0.593   0.356   2.896  0.1645 -1.4559  0.9346
 7829SOL    HW235124   0.626   0.409   3.022 -0.0437 -4.6840  0.2141
 7830SOL     OW35125   2.014   3.555  13.873  0.2318 -0.2251 -0.1149
 7830SOL    HW135126   1.955   3.515  13.809  0.6755 -0.5277 -0.3354
 7830SOL    HW235127   2.096   3.548  13.824  0.1969  2.9054 -0.6011
 7831SOL     OW35128   0.999   2.225   0.410 -0.4258  0.1228 -0.3098
 7831SOL    HW135129   0.905   2.206   0.406 -0.4075 -0.2931  1.2415
 7831SOL    HW235130   1.010   2.272   0.327 -0.6158  0.3392 -0.2110
 7832SOL     OW35131   1.617   2.293   5.247  0.0272  0.1548 -0.1758
 7832SOL    HW135132   1.688   2.230   5.254  1.7383  2.2125  1.0806
 7832SOL    HW235133   1.638   2.330   5.160  1.2891 -0.0572  0.0303
 7833SOL     OW35134   1.496   2.766   7.306 -0.4833  0.3301  0.1712
 7833SOL    HW135135   1.543   2.735   7.228 -0.3700 -0.3190  0.4999
 7833SOL    HW235136   1.522   2.858   7.302 -0.5568  0.3674  0.5627
 7834SOL     OW35137   2.579   0.960   6.980 -0.1841 -0.5742 -0.1611
 7834SOL    HW135138   2.661   0.984   7.022 -0.6984  3.6859 -1.6437
 7834SOL    HW235139   2.546   1.032   6.926 -0.1037 -0.4997 -0.1089
 7835SOL     OW35140   1.982   3.161   8.355 -0.1159 -0.2860  0.1426
 7835SOL    HW135141   1.992   3.066   8.362  0.2481 -0.2026  0.7638
 7835SOL    HW235142   1.891   3.177   8.331  0.8649 -1.3318 -4.2501
 7836SOL     OW35143   0.808   3.189   9.047  0.5894 -0.3695 -0.0574
 7836SOL    HW135144   0.902   3.202   9.035  0.5657 -0.0386  0.0980
 7836SOL    HW235145   0.813   3.119   9.112 -0.6554 -1.5513 -1.2482
 7837SOL     OW35146   4.038   3.590   2.497  0.4271 -0.0095  0.0445
 7837SOL    HW135147   3.986   3.591   2.417  0.8831 -2.2385 -0.2785
 7837SOL    HW235148   4.117   3.545   2.467 -0.0756  0.6137 -2.2022
 7838SOL     OW35149   1.559   0.173   2.342 -0.6241  0.3989  0.2370
 7838SOL    HW135150   1.615   0.096   2.332 -1.3262 -0.1084  0.2057
 7838SOL    HW235151   1.486   0.149   2.284  1.7859 -0.2946 -2.5364
 7839SOL     OW35152   2.121   2.987   4.175  0.4312  0.1501 -0.7975
 7839SOL    HW135153   2.128   3.080   4.154  2.2394  0.5002  1.4302
 7839SOL    HW235154   2.043   2.960   4.125 -0.1451 -0.5935  0.4983
 7840SOL     OW35155   2.054   1.605   3.534 -0.2900 -0.4051 -0.3293
 7840SOL    HW135156   2.095   1.641   3.456 -0.5995  0.3426 -0.1400
 7840SOL    HW235157   1.980   1.665   3.538 -0.9623 -1.2427 -0.2281
 7841SOL     OW35158   2.912   2.647   8.611 -0.0022 -0.5461  0.3773
 7841SOL    HW135159   2.975   2.576   8.615  0.1193 -0.5167 -0.9869
 7841SOL    HW235160   2.896   2.658   8.705  0.9156  1.3513  0.3179
 7842SOL     OW35161   3.293   2.715  17.204  0.0413  0.0658  0.3895
 7842SOL    HW135162   3.251   2.669  17.277 -0.6621  0.9012  0.4988
 7842SOL    HW235163   3.360   2.649  17.185  0.1950  0.6646 -1.1295
 7843SOL     OW35164   0.092   0.733   1.913 -0.6584 -1.1800 -0.1351
 7843SOL    HW135165   0.151   0.667   1.876  1.3692  0.5332  0.1002
 7843SOL    HW235166   0.141   0.810   1.886  1.0894 -2.0059  0.7175
 7844SOL     OW35167   0.528   0.411   1.871 -0.0357 -0.4629 -0.2540
 7844SOL    HW135168   0.609   0.440   1.913 -0.2949  2.4576 -1.7437
 7844SOL    HW235169   0.518   0.325   1.911  2.3512  0.4298  2.2548
 7845SOL     OW35170   1.858   4.736   9.013  0.0613  0.4961  0.3345
 7845SOL    HW135171   1.900   0.013   8.928  0.2782  0.8516  0.4954
 7845SOL    HW235172   1.771   0.030   8.986 -0.6415 -0.7448  1.2451
 7846SOL     OW35173   2.161   4.246  12.609 -0.1637 -0.1254  0.2811
 7846SOL    HW135174   2.118   4.304  12.672  1.5861  0.4859  0.8969
 7846SOL    HW235175   2.130   4.162  12.642 -0.0940  0.1225  0.9784
 7847SOL     OW35176   0.179   2.754   4.972  0.1469 -0.2443 -0.5601
 7847SOL    HW135177   0.225   2.714   5.045  0.0640  1.1686  0.2527
 7847SOL    HW235178   0.181   2.682   4.908  1.2990 -0.8082  0.1297
 7848SOL     OW35179   1.789   1.628   5.624  0.0990 -0.0590 -0.2822
 7848SOL    HW135180   1.800   1.616   5.529 -1.6313 -1.4535 -0.3051
 7848SOL    HW235181   1.745   1.544   5.638  0.3249 -0.5181 -2.3053
 7849SOL     OW35182   4.266   3.734  10.195 -0.1220 -0.3694 -0.0711
 7849SOL    HW135183   4.326   3.807  10.181  0.5345 -1.0155 -0.6786
 7849SOL    HW235184   4.278   3.677  10.118 -0.2380  0.2287 -0.5302
 7850SOL     OW35185   1.217   2.246   6.432  0.1360 -0.0444 -0.8231
 7850SOL    HW135186   1.251   2.335   6.447 -1.7102  0.2738  1.4057
 7850SOL    HW235187   1.136   2.277   6.392  0.7875  2.7639 -0.0033
 7851SOL     OW35188   4.334   0.856   8.283  0.2397 -0.4530 -0.1264
 7851SOL    HW135189   4.402   0.805   8.241 -0.5070 -1.7431  0.2374
 7851SOL    HW235190   4.311   0.802   8.359  1.9710 -1.9066 -0.6575
 7852SOL     OW35191   3.908   3.807   8.356 -0.4600 -0.1717 -0.4700
 7852SOL    HW135192   3.818   3.841   8.356  0.6766  2.7124  3.1630
 7852SOL    HW235193   3.901   3.719   8.394  1.5406  1.3302  3.2744
 7853SOL     OW35194   1.737   2.133   6.710  0.4558 -0.2265  0.6572
 7853SOL    HW135195   1.763   2.143   6.801  0.9592  0.2961  0.4576
 7853SOL    HW235196   1.775   2.212   6.672  2.5141 -0.6711  1.7661
 7854SOL     OW35197   3.673   0.319   1.359  0.2795 -0.0425 -0.4284
 7854SOL    HW135198   3.608   0.258   1.323 -0.6813  1.4085 -1.1564
 7854SOL    HW235199   3.629   0.353   1.436 -0.6739  0.6726 -1.2925
 7855SOL     OW35200   0.173   2.863   8.623  0.1837  0.0293 -0.2803
 7855SOL    HW135201   0.109   2.926   8.590  1.4295  1.3498 -0.1520
 7855SOL    HW235202   0.244   2.913   8.662 -0.4940  0.3721  0.5075
 7856SOL     OW35203   2.650   0.592   4.999  0.0220  0.0670  0.3915
 7856SOL    HW135204   2.712   0.663   4.984 -1.4275  1.0128 -1.0537
 7856SOL    HW235205   2.622   0.608   5.090 -1.6535  0.2731 -0.1598
 7857SOL     OW35206   0.195   1.306  15.346 -0.0405 -0.1758 -0.2240
 7857SOL    HW135207   0.287   1.301  15.318  0.0778 -1.8335  0.4551
 7857SOL    HW235208   0.145   1.248  15.289  0.0341 -1.7097  1.2653
 7858SOL     OW35209   3.447   3.856   7.594 -0.4247  0.3054  0.2739
 7858SOL    HW135210   3.399   3.858   7.677 -0.6368  1.5895  0.1260
 7858SOL    HW235211   3.388   3.818   7.529  0.8785  0.0323 -0.7394
 7859SOL     OW35212   1.650   2.265  16.282  0.3796 -0.1189 -0.1283
 7859SOL    HW135213   1.564   2.250  16.322 -0.0016  0.4348 -0.7439
 7859SOL    HW235214   1.633   2.336  16.221  0.2346  0.2750  0.3705
 7860SOL     OW35215   3.238   3.921   8.651  0.2990 -0.1119  0.3148
 7860SOL    HW135216   3.273   3.853   8.708  0.1151  1.6785  2.5498
 7860SOL    HW235217   3.192   3.976   8.715 -1.7448 -1.3640 -0.0778
 7861SOL     OW35218   2.313   0.569   2.130  0.0898 -0.0268 -0.2391
 7861SOL    HW135219   2.267   0.651   2.150  2.0245  0.4709  2.2336
 7861SOL    HW235220   2.279   0.562   2.041 -1.6080 -0.0465  0.4116
 7862SOL     OW35221   4.342   1.784   9.006 -0.2277  0.0738 -0.1284
 7862SOL    HW135222   4.423   1.746   9.041  0.8820  1.5005 -1.1066
 7862SOL    HW235223   4.284   1.749   9.074  0.3355  2.3808  1.5443
 7863SOL     OW35224   3.085   3.796   9.678 -0.1036  0.0625 -0.8983
 7863SOL    HW135225   3.043   3.717   9.711  1.2022 -0.9227 -1.6261
 7863SOL    HW235226   3.149   3.752   9.622  2.6022  0.5585  1.8224
 7864SOL     OW35227   3.943   2.150  17.425  0.4338 -0.1493 -0.3464
 7864SOL    HW135228   3.903   2.165  17.510  0.0200 -1.6701 -0.2587
 7864SOL    HW235229   3.968   2.058  17.435 -1.3347 -0.5298  0.5786
 7865SOL     OW35230   1.042   2.642   2.069 -0.5356 -0.6113 -0.4676
 7865SOL    HW135231   1.061   2.569   2.127  1.0570 -0.7317 -1.1249
 7865SOL    HW235232   1.048   2.718   2.128  0.1549 -0.1572 -1.1100
 7866SOL     OW35233   3.374   2.706   5.491 -0.4363 -0.2795 -0.0982
 7866SOL    HW135234   3.337   2.630   5.536 -3.6418  1.2909 -0.0814
 7866SOL    HW235235   3.325   2.779   5.528  0.1763 -1.3622  2.8538
 7867SOL     OW35236   0.503   4.056   2.324  0.2110 -0.2509 -0.0795
 7867SOL    HW135237   0.436   4.115   2.290  0.0884 -0.1978  0.2523
 7867SOL    HW235238   0.562   4.058   2.248  0.1448 -2.4507 -0.1709
 7868SOL     OW35239   2.523   0.861  12.855  0.0169  0.3600 -0.1718
 7868SOL    HW135240   2.481   0.891  12.775 -0.1136 -1.5880 -0.8148
 7868SOL    HW235241   2.615   0.881  12.836 -0.4761  2.2795 -0.5966
 7869SOL     OW35242   3.483   1.221  14.537 -0.2856 -0.2469  0.4905
 7869SOL    HW135243   3.459   1.269  14.457  1.0516 -0.4533 -0.0494
 7869SOL    HW235244   3.578   1.216  14.527 -0.4715  0.9087 -2.1295
 7870SOL     OW35245   1.083   4.253   3.349 -0.3766 -0.4145  0.1411
 7870SOL    HW135246   1.042   4.171   3.375  0.7044 -1.0745 -0.2382
 7870SOL    HW235247   1.139   4.219   3.279  1.7390  1.5269  0.8647
 7871SOL     OW35248   1.234   2.334   3.478  0.2158 -0.0797  0.4911
 7871SOL    HW135249   1.303   2.360   3.417  0.4212 -0.1038  0.7124
 7871SOL    HW235250   1.214   2.421   3.512 -0.9290  0.4263 -1.4582
 7872SOL     OW35251   0.988   3.659  13.070  0.4730 -0.4125  0.0177
 7872SOL    HW135252   0.899   3.667  13.105  0.7088 -1.9165  0.9626
 7872SOL    HW235253   1.036   3.589  13.113  3.2649  1.3463 -0.2174
 7873SOL     OW35254   0.589   4.163   8.237  0.7109  0.0290  0.3293
 7873SOL    HW135255   0.659   4.219   8.271  1.0079  0.7791 -1.5533
 7873SOL    HW235256   0.562   4.200   8.154 -1.8919  0.6860  1.4732
 7874SOL     OW35257   4.461   4.505   6.836 -0.0968  0.6286  0.6077
 7874SOL    HW135258   4.475   4.554   6.917 -2.6309  0.6965  1.0225
 7874SOL    HW235259   4.380   4.461   6.864 -1.2051  2.2339 -0.0525
 7875SOL     OW35260   1.447   3.873  13.354  0.4916 -0.4246 -0.1615
 7875SOL    HW135261   1.410   3.812  13.290 -0.6632  1.3593 -1.2079
 7875SOL    HW235262   1.431   3.957  13.310 -3.9533  0.3120  2.8041
 7876SOL     OW35263   2.625   0.831   5.259  0.1215 -0.2687 -0.1263
 7876SOL    HW135264   2.590   0.742   5.270 -0.6517 -0.0624 -0.9481
 7876SOL    HW235265   2.566   0.870   5.195 -0.4525  0.4086  0.8212
 7877SOL     OW35266   0.508   0.005  17.470  0.1729  0.1403 -0.4152
 7877SOL    HW135267   0.580   4.683  17.450  0.1179 -0.7735  2.1027
 7877SOL    HW235268   0.504   0.046  17.384 -1.2094  1.7278  0.3958
 7878SOL     OW35269   4.539   1.420  11.863 -0.0469  0.0943 -0.4452
 7878SOL    HW135270   4.618   1.384  11.823  1.7715  3.1162  0.4172
 7878SOL    HW235271   4.494   1.338  11.882 -1.4396  0.6250 -1.4597
 7879SOL     OW35272   3.828   2.825   9.528 -0.5509  0.4975  0.1050
 7879SOL    HW135273   3.843   2.785   9.614  1.7424  1.1151  0.0094
 7879SOL    HW235274   3.861   2.908   9.560 -0.4267 -0.3844  2.2442
 7880SOL     OW35275   2.401   2.199   6.009  0.1424 -0.2833  0.0166
 7880SOL    HW135276   2.493   2.200   5.983 -0.0185 -0.2632 -0.5592
 7880SOL    HW235277   2.360   2.136   5.950  0.5885  1.0608 -1.7406
 7881SOL     OW35278   4.061   2.676  12.528  0.2533 -0.2071 -0.3357
 7881SOL    HW135279   4.120   2.660  12.455 -0.1221 -1.3286 -0.3919
 7881SOL    HW235280   4.127   2.667  12.597  0.3345 -1.6239 -0.5900
 7882SOL     OW35281   0.520   0.786   2.617  0.3127  0.3360  0.1230
 7882SOL    HW135282   0.431   0.773   2.585 -0.5358 -0.3665  2.7529
 7882SOL    HW235283   0.567   0.824   2.543 -0.7699  0.3766 -0.5433
 7883SOL     OW35284   0.217   4.671   1.918 -0.0044 -0.6284 -0.2471
 7883SOL    HW135285   0.190   4.715   1.999 -2.7869 -2.9283  0.0981
 7883SOL    HW235286   0.170   4.588   1.928  0.0251 -0.4915  1.0593
 7884SOL     OW35287   3.021   3.008   5.100  0.4124  0.1955  1.0446
 7884SOL    HW135288   2.947   2.983   5.156 -0.9112  0.5970 -0.5422
 7884SOL    HW235289   3.085   2.936   5.105 -0.0610 -0.3282 -0.6311
 7885SOL     OW35290   3.672   1.241   3.989  0.0444  0.2218  0.0571
 7885SOL    HW135291   3.629   1.215   3.908  0.9397  1.2898 -0.7613
 7885SOL    HW235292   3.623   1.187   4.051  0.4346 -0.2249 -0.0269
 7886SOL     OW35293   4.039   4.599   8.627 -0.5327 -0.2664 -0.2469
 7886SOL    HW135294   4.051   4.617   8.534 -1.8530  1.5708 -0.0692
 7886SOL    HW235295   4.043   4.504   8.627 -2.6381 -0.3531  0.2957
 7887SOL     OW35296   3.736   2.583   9.343  0.2097  0.3423 -0.3866
 7887SOL    HW135297   3.769   2.501   9.380 -1.0581 -0.5469 -1.2441
 7887SOL    HW235298   3.801   2.648   9.370  0.3791 -0.6750  1.7030
 7888SOL     OW35299   1.834   0.207  15.385  0.6988 -0.2279  0.5055
 7888SOL    HW135300   1.747   0.187  15.420 -1.0858  3.2272 -1.9392
 7888SOL    HW235301   1.856   0.133  15.329  1.2459  1.2951 -1.3110
 7889SOL     OW35302   1.549   1.700   6.537  0.0623  0.4236 -0.3345
 7889SOL    HW135303   1.517   1.787   6.565 -0.6435  0.6347 -1.8387
 7889SOL    HW235304   1.621   1.728   6.481  1.8305 -3.7585 -0.0739
 7890SOL     OW35305   3.642   2.486   1.687 -0.1072 -0.2352 -0.5021
 7890SOL    HW135306   3.617   2.563   1.636  0.9029  0.7718  0.5109
 7890SOL    HW235307   3.650   2.520   1.776  2.5827 -1.6974 -0.1929
 7891SOL     OW35308   1.156   3.255  10.090 -0.0707  0.3874 -0.6471
 7891SOL    HW135309   1.121   3.255  10.179  3.6877  0.7543  0.8272
 7891SOL    HW235310   1.207   3.336  10.098  1.3635 -0.6823  1.0619
 7892SOL     OW35311   1.673   3.232   8.756 -0.0344  0.0840  0.0831
 7892SOL    HW135312   1.705   3.318   8.731 -1.3238  1.1212  1.9410
 7892SOL    HW235313   1.640   3.204   8.671 -2.0201 -0.7269  1.1146
 7893SOL     OW35314   3.015   2.662  11.452 -0.0219  0.0180 -0.3948
 7893SOL    HW135315   3.004   2.621  11.366 -0.5825 -1.1290  0.2335
 7893SOL    HW235316   3.035   2.755  11.439 -0.6483  0.3971  1.4246
 7894SOL     OW35317   2.569   4.477   1.128  0.3362  0.0856 -0.2149
 7894SOL    HW135318   2.568   4.558   1.076  2.8052 -0.1103 -0.5618
 7894SOL    HW235319   2.621   4.420   1.071  0.5994  1.6001 -1.5100
 7895SOL     OW35320   1.178   3.395   6.207 -0.1976 -0.2296 -0.3672
 7895SOL    HW135321   1.234   3.470   6.185 -1.1209  0.9417  1.2892
 7895SOL    HW235322   1.244   3.329   6.231 -1.8061 -1.0431  1.8021
 7896SOL     OW35323   4.138   1.997   5.145  0.4598 -0.2302 -0.2502
 7896SOL    HW135324   4.206   1.935   5.174  3.2662  2.0808 -1.8627
 7896SOL    HW235325   4.175   2.079   5.178  1.2555  0.3979 -2.7708
 7897SOL     OW35326   3.658   3.907   8.269  0.2195 -0.2152  0.0872
 7897SOL    HW135327   3.579   3.907   8.216  0.9048  0.4445 -0.9265
 7897SOL    HW235328   3.624   3.928   8.356  1.4272 -1.8724  0.9744
 7898SOL     OW35329   1.937   3.984   0.660  0.0176 -0.0716 -0.4190
 7898SOL    HW135330   1.928   4.074   0.690 -2.9958 -1.0732  1.6714
 7898SOL    HW235331   1.964   4.006   0.570  0.6507 -1.9940 -0.6955
 7899SOL     OW35332   1.623   2.410   2.547  0.3083  0.4149  0.5877
 7899SOL    HW135333   1.663   2.464   2.615 -0.3493  0.2747  1.0882
 7899SOL    HW235334   1.546   2.460   2.520  1.1238  0.1664 -2.2370
 7900SOL     OW35335   1.968   4.215   8.953  0.2755 -0.3339 -0.0657
 7900SOL    HW135336   1.962   4.300   8.995  0.1267  1.3819 -3.5395
 7900SOL    HW235337   1.914   4.171   9.019  0.2457  0.0130  0.1397
 7901SOL     OW35338   0.248   2.770   7.614  0.0501  0.4580  0.3365
 7901SOL    HW135339   0.246   2.697   7.676 -1.6238  0.3981  0.2329
 7901SOL    HW235340   0.157   2.795   7.634 -0.9663 -1.8462 -1.4448
 7902SOL     OW35341   3.810   1.478  15.110  0.4982  0.0030  0.4656
 7902SOL    HW135342   3.813   1.395  15.158  2.1567 -0.8372 -1.1159
 7902SOL    HW235343   3.741   1.471  15.044  1.3884  0.9572 -0.5621
 7903SOL     OW35344   2.993   1.056   4.381 -0.7299  0.1116  0.4517
 7903SOL    HW135345   2.939   1.016   4.313 -0.0922  0.6783 -0.3778
 7903SOL    HW235346   3.034   0.977   4.415 -1.0377 -0.1151  0.2945
 7904SOL     OW35347   3.224   0.337   6.099 -0.0677  0.1660 -0.1709
 7904SOL    HW135348   3.267   0.413   6.058  1.1003  1.3080  3.1162
 7904SOL    HW235349   3.145   0.336   6.045  0.2126  0.6033 -0.5928
 7905SOL     OW35350   2.450   1.111   8.872 -0.1602 -0.0533  0.2158
 7905SOL    HW135351   2.452   1.207   8.879  0.4407 -0.1843  1.9733
 7905SOL    HW235352   2.483   1.087   8.959 -0.2433  1.4135  0.6680
 7906SOL     OW35353   2.558   1.095   6.624 -0.2569  0.5342  0.4992
 7906SOL    HW135354   2.635   1.151   6.627  1.3368 -1.6852  0.2791
 7906SOL    HW235355   2.492   1.153   6.585 -0.2742  2.0637  2.8196
 7907SOL     OW35356   0.676   2.536  10.920  0.2913  0.1465 -0.0589
 7907SOL    HW135357   0.721   2.618  10.938  2.2725 -0.3289 -2.8508
 7907SOL    HW235358   0.710   2.511  10.834  0.8695  1.6032 -0.2454
 7908SOL     OW35359   1.058   1.383  13.496  0.4051  0.1145  0.3555
 7908SOL    HW135360   1.043   1.451  13.430  0.5602 -1.0706 -0.9018
 7908SOL    HW235361   0.973   1.341  13.509 -0.6515  1.9356 -0.6537
 7909SOL     OW35362   1.513   4.054   0.456  0.0240  0.3501 -0.3728
 7909SOL    HW135363   1.541   4.012   0.537 -0.5869  0.2905 -0.1938
 7909SOL    HW235364   1.494   4.138   0.497  0.0012 -0.9505  2.2243
 7910SOL     OW35365   3.864   2.054   6.360 -0.1911  0.0447  0.0163
 7910SOL    HW135366   3.944   2.049   6.309 -0.4952  0.6543 -0.5159
 7910SOL    HW235367   3.803   2.099   6.302 -0.5598  0.2095  0.5325
 7911SOL     OW35368   2.252   1.270   3.843 -0.0613  0.5762  0.1801
 7911SOL    HW135369   2.208   1.354   3.837 -1.9255 -0.5275 -1.3601
 7911SOL    HW235370   2.331   1.285   3.791  0.3716 -1.3115  0.2948
 7912SOL     OW35371   4.014   1.973   1.140 -0.4976  0.0916  0.5988
 7912SOL    HW135372   3.919   1.984   1.144 -0.1311  3.8882 -0.7763
 7912SOL    HW235373   4.033   1.973   1.233 -1.6543 -0.2847  0.8303
 7913SOL     OW35374   1.597   0.799   6.461  0.2123  0.1842 -0.3620
 7913SOL    HW135375   1.636   0.769   6.379  0.7661 -0.7460  0.2486
 7913SOL    HW235376   1.523   0.853   6.433 -2.8601 -2.5985  2.4013
 7914SOL     OW35377   0.768   0.472   8.326 -0.1504  0.0725  0.0983
 7914SOL    HW135378   0.854   0.457   8.286 -0.5189  0.3233 -0.8037
 7914SOL    HW235379   0.795   0.532   8.395  0.0302 -1.5675  1.4590
 7915SOL     OW35380   3.243   4.149   7.901 -0.5864 -0.1835 -0.5362
 7915SOL    HW135381   3.200   4.064   7.903  1.0277 -1.0060 -0.3339
 7915SOL    HW235382   3.264   4.162   7.808 -0.8549 -1.1189 -0.7201
 7916SOL     OW35383   4.505   1.533   1.854 -0.0598  0.4617 -0.4212
 7916SOL    HW135384   4.569   1.507   1.788 -0.7023 -0.7725 -0.5621
 7916SOL    HW235385   4.551   1.504   1.932 -1.6013 -0.6683  0.0644
 7917SOL     OW35386   3.659   4.371   5.050 -0.0854 -0.0385  0.0552
 7917SOL    HW135387   3.655   4.429   5.126 -0.4582  1.6720 -1.2649
 7917SOL    HW235388   3.610   4.424   4.987  1.2304  0.9873 -0.1082
 7918SOL     OW35389   3.684   2.054   4.256 -0.4630  0.5685 -0.4745
 7918SOL    HW135390   3.696   2.143   4.289  3.6194 -0.3504  0.4087
 7918SOL    HW235391   3.638   2.009   4.328  0.8748  1.8448  1.1841
 7919SOL     OW35392   4.525   1.209   6.408 -0.0327 -0.2447  0.5679
 7919SOL    HW135393   4.536   1.283   6.467 -1.9328  0.9398 -0.5332
 7919SOL    HW235394   4.616   1.182   6.399  0.2277  1.4990 -1.8601
 7920SOL     OW35395   2.555   4.031   9.483 -0.1460 -0.7216  0.0975
 7920SOL    HW135396   2.639   4.026   9.529 -0.4989 -3.0938  0.5039
 7920SOL    HW235397   2.583   4.084   9.409 -1.4059 -3.1450 -2.0990
 7921SOL     OW35398   4.063   0.654   9.991 -0.1814 -0.3638  0.4300
 7921SOL    HW135399   4.034   0.646  10.082  0.0273  0.3697  0.5549
 7921SOL    HW235400   3.998   0.601   9.944 -1.7079  0.5199  1.5262
 7922SOL     OW35401   4.468   2.205   8.045  0.9536  0.6806 -0.0844
 7922SOL    HW135402   4.483   2.134   8.107  0.1506 -0.3484 -1.0590
 7922SOL    HW235403   4.547   2.258   8.053  1.7454 -0.1546 -2.2650
 7923SOL     OW35404   4.669   1.478   8.456 -1.0228 -0.4870 -0.4675
 7923SOL    HW135405   0.016   1.519   8.431 -1.1253 -0.9155 -1.5446
 7923SOL    HW235406   4.624   1.483   8.371 -3.4064  1.6943  0.9412
 7924SOL     OW35407   1.876   0.963  17.494 -0.0435  0.6029  0.3416
 7924SOL    HW135408   1.801   0.927  17.542  0.0606 -1.7492 -1.2993
 7924SOL    HW235409   1.834   0.988  17.412 -1.0929  0.8735  0.9651
 7925SOL     OW35410   0.534   4.598  16.309 -0.4087 -0.2647 -0.1514
 7925SOL    HW135411   0.555   4.623  16.399  1.5125 -3.6401  0.3282
 7925SOL    HW235412   0.566   4.508  16.311  0.3183  0.0139  0.6383
 7926SOL     OW35413   4.046   2.093   2.304  0.2606  0.1980 -0.0015
 7926SOL    HW135414   4.068   2.001   2.293  0.8230  0.2405  0.7734
 7926SOL    HW235415   4.071   2.126   2.217  0.2123  1.1070  0.3318
 7927SOL     OW35416   3.162   0.022   5.278 -0.3463  0.0399 -0.1322
 7927SOL    HW135417   3.080   0.062   5.307 -0.1817 -0.4964  1.0850
 7927SOL    HW235418   3.139   4.710   5.199 -0.9412  2.5416 -1.4613
 7928SOL     OW35419   2.482   1.429   3.725 -0.0680 -0.0663 -0.3409
 7928SOL    HW135420   2.462   1.429   3.632  0.6238 -1.0534 -0.4856
 7928SOL    HW235421   2.476   1.523   3.741  1.2091 -0.1968  0.8837
 7929SOL     OW35422   1.965   1.930   9.451  0.3806 -0.4162  0.4723
 7929SOL    HW135423   1.935   1.924   9.360 -0.2266  0.0991  0.6343
 7929SOL    HW235424   2.036   1.992   9.435  0.2078 -0.4289 -0.3456
 7930SOL     OW35425   2.081   2.252  14.524 -0.1702  0.3991  0.1982
 7930SOL    HW135426   2.044   2.252  14.612 -1.3950  1.0792 -0.3058
 7930SOL    HW235427   2.005   2.255  14.466 -1.0246 -2.4752  1.1873
 7931SOL     OW35428   3.247   3.634  13.069 -0.7253  0.3044  0.0211
 7931SOL    HW135429   3.222   3.597  12.984  3.1237  0.5241 -1.2468
 7931SOL    HW235430   3.174   3.613  13.127  0.1293 -0.1355  0.9476
 7932SOL     OW35431   0.297   4.241   2.272  0.4523  0.1162  0.1553
 7932SOL    HW135432   0.284   4.332   2.299  0.0175 -0.2691  1.2421
 7932SOL    HW235433   0.220   4.201   2.311 -0.6622  0.1385 -2.0273
 7933SOL     OW35434   4.721   1.275   3.158  0.1985 -0.2197  0.0064
 7933SOL    HW135435   4.691   1.240   3.074 -1.4574 -0.9343  0.8879
 7933SOL    HW235436   4.702   1.213   3.228  2.5224 -2.7453 -1.6329
 7934SOL     OW35437   2.406   0.672   9.697  0.1743  1.0386 -0.0279
 7934SOL    HW135438   2.381   0.616   9.623 -0.0837 -0.3630  1.1043
 7934SOL    HW235439   2.406   0.611   9.771 -0.6897  0.4826 -0.4736
 7935SOL     OW35440   1.801   2.260   2.763  0.3310 -0.4957 -1.3794
 7935SOL    HW135441   1.813   2.345   2.721 -2.4065  0.7393  0.3775
 7935SOL    HW235442   1.714   2.264   2.801  1.6337 -3.7472  1.9936
 7936SOL     OW35443   0.664   1.520   7.715  0.3063 -0.1986 -0.0160
 7936SOL    HW135444   0.571   1.511   7.735  0.0981  1.0567 -0.4014
 7936SOL    HW235445   0.710   1.540   7.797  0.4454  2.2164 -0.6781
 7937SOL     OW35446   3.364   2.255   3.122 -0.1358 -0.2155 -0.5122
 7937SOL    HW135447   3.292   2.192   3.123 -0.0655 -0.3059 -1.3093
 7937SOL    HW235448   3.363   2.277   3.216 -1.8088 -0.8584 -0.3846
 7938SOL     OW35449   1.350   1.753   8.339 -0.1201 -0.2321 -0.0469
 7938SOL    HW135450   1.376   1.845   8.329 -0.7251  0.1496  1.8714
 7938SOL    HW235451   1.255   1.749   8.334 -0.0946 -0.6977 -0.1274
 7939SOL     OW35452   1.672   0.581   7.242  0.4744  0.3282  0.0126
 7939SOL    HW135453   1.614   0.654   7.219  0.7562  0.5035 -0.1380
 7939SOL    HW235454   1.696   0.550   7.154 -2.1704 -1.6186 -0.0219
 7940SOL     OW35455   2.432   2.303   2.851  0.0966  0.4732 -0.0795
 7940SOL    HW135456   2.496   2.299   2.921  1.0093  1.2998 -0.8660
 7940SOL    HW235457   2.491   2.323   2.778  0.9763 -1.6642  0.0449
 7941SOL     OW35458   2.371   1.278   6.819 -0.0349 -0.0316  0.0427
 7941SOL    HW135459   2.461   1.310   6.807  0.1445 -1.0332 -1.2689
 7941SOL    HW235460   2.353   1.334   6.894 -0.4900  0.4091 -0.3973
 7942SOL     OW35461   3.717   2.089   3.667  0.3190  0.2215  0.6215
 7942SOL    HW135462   3.660   2.131   3.602 -1.3224 -2.4193  0.3513
 7942SOL    HW235463   3.802   2.080   3.625  0.3496  2.2642  0.2257
 7943SOL     OW35464   0.978   0.702   5.528 -0.2237 -0.5994 -0.0101
 7943SOL    HW135465   0.987   0.682   5.434  2.0653 -1.2367  0.3428
 7943SOL    HW235466   0.894   0.662   5.551  0.1382 -0.0208  2.2333
 7944SOL     OW35467   0.056   3.972   8.940 -0.4229  0.1711  0.4265
 7944SOL    HW135468   0.123   3.973   9.007 -1.1599  0.4493  1.1582
 7944SOL    HW235469   0.081   4.051   8.891  1.4395 -0.8232 -0.1922
 7945SOL     OW35470   1.808   0.720  12.471  0.1108 -0.5601  0.6361
 7945SOL    HW135471   1.856   0.735  12.389  0.0975 -1.0647  0.5377
 7945SOL    HW235472   1.879   0.734  12.535  1.4551 -0.3908 -0.8957
 7946SOL     OW35473   4.598   1.940   0.315 -0.4258 -0.0615  0.0489
 7946SOL    HW135474   4.621   1.986   0.234 -4.4243 -0.1281 -1.1047
 7946SOL    HW235475   4.506   1.960   0.329 -0.4271 -2.0214  2.9268
 7947SOL     OW35476   3.230   0.477   8.061 -0.0067  0.4820  0.2350
 7947SOL    HW135477   3.283   0.444   8.133  0.6545  2.1910  0.5386
 7947SOL    HW235478   3.272   0.429   7.990 -2.4392 -0.9510 -0.2528
 7948SOL     OW35479   1.891   4.361  13.895 -0.1979  0.1882 -0.4620
 7948SOL    HW135480   1.825   4.421  13.859 -0.8038 -0.4589 -0.4397
 7948SOL    HW235481   1.876   4.278  13.849 -1.6895  0.2252 -0.0334
 7949SOL     OW35482   0.018   1.874   5.512  0.1678  0.4774 -0.1736
 7949SOL    HW135483   0.081   1.815   5.469  1.2847  0.9554  0.7941
 7949SOL    HW235484   0.082   1.930   5.556  0.1300 -0.3953  0.9967
 7950SOL     OW35485   1.148   3.400  15.388 -0.0005  0.1835  0.0353
 7950SOL    HW135486   1.109   3.400  15.476 -0.9835 -0.1453 -0.4096
 7950SOL    HW235487   1.071   3.404  15.332  0.5181 -1.5128 -0.7727
 7951SOL     OW35488   2.259   2.346   9.293 -0.0704  0.1862 -0.4074
 7951SOL    HW135489   2.279   2.397   9.215  0.7613  0.6605  0.1136
 7951SOL    HW235490   2.182   2.389   9.331 -0.1146 -0.9147  0.7316
 7952SOL     OW35491   2.071   0.604   7.436 -0.1737 -0.0077  0.6695
 7952SOL    HW135492   2.059   0.588   7.342  1.1598 -2.0891  0.8603
 7952SOL    HW235493   1.989   0.569   7.471  0.4574 -1.6874  0.4837
 7953SOL     OW35494   3.460   1.335  15.196  0.3602 -0.0258 -0.2617
 7953SOL    HW135495   3.400   1.261  15.210 -1.1128  0.4886 -3.9418
 7953SOL    HW235496   3.402   1.408  15.216 -0.6357 -1.0159  0.4383
 7954SOL     OW35497   3.753   2.678   0.431 -0.4787  0.2079 -0.4954
 7954SOL    HW135498   3.815   2.701   0.500 -4.1419 -0.5802  3.0909
 7954SOL    HW235499   3.675   2.662   0.485 -0.2268  2.2833  0.5118
 7955SOL     OW35500   0.134   2.540  14.937 -0.1121  0.3273  0.4645
 7955SOL    HW135501   0.207   2.593  14.968  1.4208 -0.4130 -1.8230
 7955SOL    HW235502   0.064   2.569  14.995 -0.4199  0.5680 -0.0323
 7956SOL     OW35503   4.235   0.974   4.714  1.0570 -0.1240 -0.1761
 7956SOL    HW135504   4.287   0.898   4.739  0.7870  0.0727  1.0187
 7956SOL    HW235505   4.301   1.028   4.670  2.2194 -1.8848 -0.5891
 7957SOL     OW35506   3.732   2.186   4.816  0.2177 -0.6049 -0.2296
 7957SOL    HW135507   3.748   2.257   4.877 -0.9907  0.4024 -1.0743
 7957SOL    HW235508   3.812   2.136   4.830 -0.1191 -0.5462  1.8684
 7958SOL     OW35509   2.759   4.420   4.257  0.4623 -0.0969 -0.2223
 7958SOL    HW135510   2.826   4.366   4.299  0.1811  0.8976  1.5118
 7958SOL    HW235511   2.679   4.387   4.298  0.8275 -0.1444  0.4665
 7959SOL     OW35512   4.091   3.448  13.349 -0.1041 -1.3842 -0.1755
 7959SOL    HW135513   4.184   3.437  13.368  0.0100  1.1289  0.6537
 7959SOL    HW235514   4.082   3.460  13.254 -0.6698 -2.6983 -0.2886
 7960SOL     OW35515   2.590   2.003   8.441 -0.7748  0.5006 -0.3803
 7960SOL    HW135516   2.679   2.028   8.467 -0.8874  2.1451 -1.5793
 7960SOL    HW235517   2.607   1.990   8.348 -1.2555 -0.5198 -0.3287
 7961SOL     OW35518   3.808   4.229   7.379 -0.4153 -0.0872 -0.3565
 7961SOL    HW135519   3.885   4.210   7.326 -1.0375 -2.2826 -0.4346
 7961SOL    HW235520   3.738   4.170   7.355 -1.0726  0.5146  0.0857
 7962SOL     OW35521   3.606   1.363   8.924 -0.0295  0.0476 -0.2394
 7962SOL    HW135522   3.600   1.432   8.858 -0.4547 -0.4350 -0.7069
 7962SOL    HW235523   3.659   1.408   8.990  0.0631  0.0898 -0.3410
 7963SOL     OW35524   4.591   1.319  14.943 -0.0764  0.1008 -0.2110
 7963SOL    HW135525   4.539   1.243  14.967  2.0423 -0.6787  1.9434
 7963SOL    HW235526   4.537   1.354  14.872 -0.0362  0.6690  0.0373
 7964SOL     OW35527   0.120   3.201   9.282  0.6251  0.1814  0.9276
 7964SOL    HW135528   0.080   3.284   9.256  0.3539 -0.0849  0.4892
 7964SOL    HW235529   0.095   3.197   9.375 -0.3892  0.4800  0.6721
 7965SOL     OW35530   2.215   3.623   8.901  0.0394  0.0084 -0.7802
 7965SOL    HW135531   2.283   3.649   8.838 -0.9885  1.2076 -1.4135
 7965SOL    HW235532   2.234   3.530   8.908  1.1970  0.3634  0.7914
 7966SOL     OW35533   1.218   4.490   3.338  0.6215  0.1650 -0.1848
 7966SOL    HW135534   1.163   4.412   3.331 -2.3013  1.9975  2.1956
 7966SOL    HW235535   1.143   4.548   3.351 -0.0732 -0.1666 -2.7776
 7967SOL     OW35536   1.727   1.828   9.573  0.3612 -0.2269  0.3239
 7967SOL    HW135537   1.814   1.863   9.557 -0.1265  1.0495  0.4492
 7967SOL    HW235538   1.727   1.820   9.669  0.8806  1.1603  0.4311
 7968SOL     OW35539   0.419   3.951   1.492  0.2006 -0.2299  0.2758
 7968SOL    HW135540   0.425   4.036   1.447 -0.8399  0.1661  0.8936
 7968SOL    HW235541   0.438   3.900   1.413  1.4959  0.1654  0.3246
 7969SOL     OW35542   3.518   0.719   8.706 -0.0325 -0.5689  0.0211
 7969SOL    HW135543   3.487   0.793   8.655 -0.3768  1.0552  2.5594
 7969SOL    HW235544   3.510   0.742   8.799 -0.5285 -0.9904  0.0832
 7970SOL     OW35545   4.250   2.561   6.991  0.0657  0.2022  0.6652
 7970SOL    HW135546   4.323   2.510   7.026 -1.0370 -1.2013  0.8865
 7970SOL    HW235547   4.199   2.492   6.949 -0.3924  0.2932  1.0588
 7971SOL     OW35548   1.365   4.147   5.034  0.4327  0.7865 -0.2004
 7971SOL    HW135549   1.458   4.171   5.031  0.6650 -0.0887 -0.0416
 7971SOL    HW235550   1.340   4.176   5.122  1.4428  1.1373 -0.0294
 7972SOL     OW35551   2.196   4.449   4.191 -0.5371 -0.0733  0.2752
 7972SOL    HW135552   2.245   4.367   4.187 -0.2994  0.1521 -1.4337
 7972SOL    HW235553   2.182   4.463   4.097 -0.2071  0.1831  0.2621
 7973SOL     OW35554   4.530   4.441   2.153  0.2087 -0.3017  0.0454
 7973SOL    HW135555   4.510   4.347   2.152 -0.4818 -0.1668  1.2990
 7973SOL    HW235556   4.463   4.466   2.090 -0.0626  0.3698  0.6062
 7974SOL     OW35557   0.745   3.716  11.990 -0.6198 -0.7127  0.0845
 7974SOL    HW135558   0.696   3.797  12.003 -0.6312 -0.6603 -0.2863
 7974SOL    HW235559   0.681   3.649  12.015 -1.2688 -0.3723 -0.6930
 7975SOL     OW35560   2.837   4.633   7.542 -0.0545 -0.3227  0.3324
 7975SOL    HW135561   2.757   4.582   7.527 -1.1919  1.5650  0.0473
 7975SOL    HW235562   2.843   4.619   7.637  0.0700 -1.1663  0.2022
 7976SOL     OW35563   2.586   3.461  11.717  0.4973  0.3211  0.2346
 7976SOL    HW135564   2.678   3.447  11.740  0.3891 -0.9632 -0.0933
 7976SOL    HW235565   2.561   3.510  11.795  2.3214  0.9108  0.4443
 7977SOL     OW35566   0.731   1.973   1.546 -0.2356  0.0804  0.2257
 7977SOL    HW135567   0.748   1.883   1.574  2.1278  0.9586  1.6018
 7977SOL    HW235568   0.810   1.998   1.498 -0.2477  0.6182  0.4784
 7978SOL     OW35569   0.348   3.923   4.644  0.1967  0.0831 -0.1583
 7978SOL    HW135570   0.288   3.986   4.604 -1.1774 -0.8594  0.4257
 7978SOL    HW235571   0.299   3.841   4.647  0.0768  0.1929  0.9313
 7979SOL     OW35572   0.086   4.534   9.630  0.4465 -0.4788  0.1204
 7979SOL    HW135573   0.099   4.628   9.641 -0.1842 -0.2475 -1.0686
 7979SOL    HW235574   0.159   4.511   9.688 -0.2121  3.1305  2.4088
 7980SOL     OW35575   2.944   3.244   7.243 -0.6395  0.2447 -0.7707
 7980SOL    HW135576   2.971   3.311   7.180  0.2184  1.4864  0.9021
 7980SOL    HW235577   3.010   3.175   7.232 -0.7377 -0.0198  0.2734
 7981SOL     OW35578   4.030   3.886  16.208 -1.0674  0.2713  0.0104
 7981SOL    HW135579   4.009   3.827  16.135  4.1967 -0.6347 -0.7481
 7981SOL    HW235580   3.950   3.871  16.259 -2.1475 -0.4990 -1.8841
 7982SOL     OW35581   3.514   2.023   3.053  1.2580  0.0453 -0.3569
 7982SOL    HW135582   3.517   2.117   3.073  0.5117  0.2615 -1.2406
 7982SOL    HW235583   3.418   2.021   3.047  1.4718 -1.3274 -2.8718
 7983SOL     OW35584   1.441   0.490   9.095  0.4832  0.0011 -0.3606
 7983SOL    HW135585   1.350   0.498   9.067 -0.0132 -2.5634  0.5006
 7983SOL    HW235586   1.476   0.476   9.007 -0.9215  0.9956 -1.0830
 7984SOL     OW35587   1.387   0.823   1.822  0.3060  0.1874 -0.4172
 7984SOL    HW135588   1.471   0.832   1.777  1.1384 -0.9566  0.9023
 7984SOL    HW235589   1.397   0.898   1.880  0.2468  0.3036 -0.5596
 7985SOL     OW35590   3.218   0.071  12.522 -0.0788 -0.0283 -1.0667
 7985SOL    HW135591   3.168   4.733  12.489 -1.5232  0.1324  0.7123
 7985SOL    HW235592   3.272   0.032  12.591  0.1442  0.8501 -0.7472
 7986SOL     OW35593   2.205   2.791   9.251  0.0978 -0.2184  0.3649
 7986SOL    HW135594   2.284   2.739   9.266 -0.9222 -1.1728  2.3497
 7986SOL    HW235595   2.240   2.869   9.207 -0.0418 -0.4325 -0.1308
 7987SOL     OW35596   0.671   0.758   7.377 -0.8858  0.2196  0.0976
 7987SOL    HW135597   0.578   0.748   7.395 -0.6196  0.5648  1.6639
 7987SOL    HW235598   0.662   0.820   7.305 -2.1185  0.9091  0.8502
 7988SOL     OW35599   1.876   4.371  14.177 -0.0405  0.1447  0.1765
 7988SOL    HW135600   1.886   4.390  14.083  1.2220  0.8814  0.4510
 7988SOL    HW235601   1.907   4.281  14.173  2.8072  1.1491 -0.0552
 7989SOL     OW35602   1.769   4.128  13.972  0.3191  0.8673  0.0105
 7989SOL    HW135603   1.856   4.104  14.005  0.2831 -2.2932 -2.2079
 7989SOL    HW235604   1.758   4.072  13.896 -0.7976  2.8074 -1.2515
 7990SOL     OW35605   0.936   1.823   7.165  0.5571  0.4504 -1.2182
 7990SOL    HW135606   0.983   1.874   7.099  3.8300 -1.3642 -0.3117
 7990SOL    HW235607   1.005   1.772   7.208 -1.2492 -0.7424  0.2815
 7991SOL     OW35608   2.560   4.511   2.136  0.4229 -0.2235 -0.0051
 7991SOL    HW135609   2.507   4.550   2.206 -0.3014 -1.0028 -0.1171
 7991SOL    HW235610   2.632   4.573   2.134  0.9932 -0.8902 -0.2456
 7992SOL     OW35611   4.225   2.657  11.380 -0.4494  0.0211  0.3196
 7992SOL    HW135612   4.237   2.567  11.349  1.6971  0.5250 -0.2897
 7992SOL    HW235613   4.300   2.699  11.338 -0.2673 -0.8376 -0.2102
 7993SOL     OW35614   0.108   4.148   6.708  0.4436  0.1015  0.0472
 7993SOL    HW135615   0.034   4.149   6.648 -1.1070  1.6660  2.0113
 7993SOL    HW235616   0.110   4.239   6.736  1.8871 -0.0087  0.3088
 7994SOL     OW35617   2.982   2.656  17.086  0.3453  0.5861  0.8082
 7994SOL    HW135618   3.032   2.648  17.004 -2.5767 -3.3862 -0.6113
 7994SOL    HW235619   2.955   2.747  17.094 -0.6315  0.4545 -0.9528
 7995SOL     OW35620   1.086   4.417   8.895  0.1805 -0.1515  0.0353
 7995SOL    HW135621   1.012   4.356   8.894 -0.1627  0.2973 -1.9594
 7995SOL    HW235622   1.069   4.454   8.809 -2.3618  0.3909  0.7654
 7996SOL     OW35623   2.593   4.652   0.373 -0.7743 -0.3404 -0.4496
 7996SOL    HW135624   2.653   4.585   0.406 -0.4118  0.7493  1.1235
 7996SOL    HW235625   2.552   4.608   0.299 -0.8758 -1.7300  0.4414
 7997SOL     OW35626   0.840   4.582   5.669 -0.4428 -0.2275 -0.3268
 7997SOL    HW135627   0.869   4.669   5.698 -1.3113  0.3906 -1.3201
 7997SOL    HW235628   0.782   4.554   5.740 -0.5369  0.3543 -0.1704
 7998SOL     OW35629   1.821   3.988   6.998  0.1100 -0.2755  0.1644
 7998SOL    HW135630   1.881   3.955   7.064 -1.0438  0.7090  1.7218
 7998SOL    HW235631   1.775   4.057   7.047 -1.2374 -0.5572 -0.6954
 7999SOL     OW35632   2.267   0.024  14.279  0.1696  0.1356 -0.2465
 7999SOL    HW135633   2.319   4.682  14.298  0.5648  0.4513 -0.0294
 7999SOL    HW235634   2.238   4.729  14.193 -1.8137 -1.5468  1.0351
 8000SOL     OW35635   1.812   2.405   8.167 -0.4014 -0.0669 -0.0781
 8000SOL    HW135636   1.726   2.384   8.130 -1.2136  0.1792  1.6494
 8000SOL    HW235637   1.840   2.318   8.195  0.5802 -0.0436 -1.0226
 8001SOL     OW35638   0.224   2.036  13.168  0.3661  0.1561  0.1950
 8001SOL    HW135639   0.201   1.961  13.222  1.1171  0.1431  0.4944
 8001SOL    HW235640   0.141   2.050  13.122  0.9642  0.6437 -0.7347
 8002SOL     OW35641   0.780   4.630  14.604 -0.3270  0.0061  0.7333
 8002SOL    HW135642   0.729   4.677  14.670 -0.6959 -1.2838  1.3571
 8002SOL    HW235643   0.845   4.598  14.666  0.5616 -0.5172 -0.4669
 8003SOL     OW35644   4.269   2.386   7.750  0.0264 -0.7177 -0.0803
 8003SOL    HW135645   4.194   2.374   7.809 -1.1109  1.7287 -1.0146
 8003SOL    HW235646   4.234   2.447   7.685 -0.6310 -3.3266 -2.1539
 8004SOL     OW35647   0.316   4.506  16.614  0.1259 -0.0443  0.1612
 8004SOL    HW135648   0.264   4.580  16.582 -0.3607 -0.0923  0.8331
 8004SOL    HW235649   0.291   4.430  16.562 -3.0340  1.3750 -0.3791
 8005SOL     OW35650   2.859   0.199   3.016  0.3045  0.2990  0.0221
 8005SOL    HW135651   2.929   0.158   3.067  0.8301  0.5466 -0.4985
 8005SOL    HW235652   2.903   0.281   2.993 -0.2310  0.1306 -1.6047
 8006SOL     OW35653   2.043   3.252   5.249 -0.1649 -0.3525  0.3830
 8006SOL    HW135654   2.090   3.283   5.327  0.3878 -0.8966  0.2716
 8006SOL    HW235655   1.982   3.197   5.298  0.1937 -0.6929  0.4560
 8007SOL     OW35656   4.371   3.554   2.194 -0.4858 -0.0993  0.9344
 8007SOL    HW135657   4.373   3.608   2.115 -0.0623 -0.2940  0.8127
 8007SOL    HW235658   4.286   3.579   2.230  0.7659  2.5809  1.9865
 8008SOL     OW35659   3.067   2.378   2.473  0.2383 -0.1262  0.1647
 8008SOL    HW135660   3.064   2.351   2.382 -2.7810 -0.2775  0.3398
 8008SOL    HW235661   3.123   2.453   2.453 -0.2414  0.2167  0.1169
 8009SOL     OW35662   4.387   0.973   2.766  0.5738  0.1857 -0.2607
 8009SOL    HW135663   4.316   0.954   2.704  1.1893 -0.8291 -0.6579
 8009SOL    HW235664   4.390   0.893   2.818  1.9270 -0.1913 -0.9180
 8010SOL     OW35665   2.907   0.961   7.388  0.2327  0.4529 -0.2380
 8010SOL    HW135666   2.985   0.921   7.425  0.7276  1.5098 -0.1344
 8010SOL    HW235667   2.871   0.884   7.344 -0.0339 -1.8356  3.9738
 8011SOL     OW35668   2.586   0.529  11.643 -0.7382  0.2262  0.1473
 8011SOL    HW135669   2.660   0.486  11.686 -1.2164 -0.3571  0.3956
 8011SOL    HW235670   2.639   0.591  11.594  1.1675 -0.8221  0.8520
 8012SOL     OW35671   2.919   1.455   2.595 -0.2216  0.7169 -0.1324
 8012SOL    HW135672   2.867   1.511   2.537  0.7676  0.9168 -0.8307
 8012SOL    HW235673   2.862   1.479   2.668 -0.5351  1.0994 -0.5047
 8013SOL     OW35674   1.867   0.833  13.740 -0.4717 -0.2084  0.4649
 8013SOL    HW135675   1.836   0.849  13.650  0.5774  0.4258  0.2138
 8013SOL    HW235676   1.901   0.744  13.729 -0.6399  0.1216 -2.8020
 8014SOL     OW35677   1.836   0.479   7.457  0.3327  0.3136  0.0158
 8014SOL    HW135678   1.779   0.403   7.446  1.1364 -0.5107  1.5322
 8014SOL    HW235679   1.787   0.555   7.427 -0.5974 -0.0690  0.5895
 8015SOL     OW35680   0.271   2.004   1.442 -0.1401 -0.3746  0.0636
 8015SOL    HW135681   0.350   1.958   1.412 -0.9754 -2.1693  0.6116
 8015SOL    HW235682   0.297   1.991   1.533 -1.5627 -0.2290  0.4882
 8016SOL     OW35683   4.624   0.694   2.639 -0.5293  0.6481 -0.5065
 8016SOL    HW135684   4.590   0.681   2.551 -1.3504  1.0479 -0.2479
 8016SOL    HW235685   4.541   0.713   2.682 -1.7585 -1.1654 -2.1124
 8017SOL     OW35686   1.123   3.752   9.977 -0.0280  0.2161 -0.0178
 8017SOL    HW135687   1.096   3.672   9.932  0.9530 -0.9241  1.4234
 8017SOL    HW235688   1.214   3.735   9.999  0.0070  1.2133  0.6390
 8018SOL     OW35689   2.988   2.847  12.792  0.2029 -0.1342  0.8112
 8018SOL    HW135690   2.996   2.820  12.700 -1.6015  3.1374 -0.3016
 8018SOL    HW235691   3.075   2.883  12.809  0.2240  0.9110 -1.3955
 8019SOL     OW35692   4.446   3.099   6.027  0.5234 -0.1990  0.2056
 8019SOL    HW135693   4.505   3.034   5.989  0.1722 -0.3508 -0.0861
 8019SOL    HW235694   4.362   3.054   6.020 -0.0317  0.3369  3.5314
 8020SOL     OW35695   3.632   0.810   3.295 -0.1544 -0.3732  0.1141
 8020SOL    HW135696   3.585   0.765   3.364 -0.2724 -0.5998 -0.1145
 8020SOL    HW235697   3.668   0.732   3.253 -0.1338  0.1620 -0.8596
 8021SOL     OW35698   0.615   2.349   7.062 -0.7555 -0.4002 -0.3766
 8021SOL    HW135699   0.639   2.396   6.982  0.6087  1.3189  1.0509
 8021SOL    HW235700   0.604   2.426   7.117  0.9111 -0.1865 -0.3268
 8022SOL     OW35701   1.841   4.287  16.794 -0.2996 -0.0402  0.3033
 8022SOL    HW135702   1.927   4.245  16.785 -1.0067 -0.6256 -3.5198
 8022SOL    HW235703   1.789   4.208  16.783 -1.6205  0.5906  2.0163
 8023SOL     OW35704   0.492   2.446   4.893 -0.0222  0.7912 -0.5269
 8023SOL    HW135705   0.586   2.459   4.905 -0.1390  2.6107 -1.6317
 8023SOL    HW235706   0.493   2.353   4.869  1.9550  0.8251 -0.5225
 8024SOL     OW35707   4.398   2.842   5.322 -0.1944 -0.5312  0.0601
 8024SOL    HW135708   4.423   2.927   5.284  1.0725 -1.5460 -1.3748
 8024SOL    HW235709   4.321   2.869   5.372  0.4284  1.7495 -0.2024
 8025SOL     OW35710   0.979   4.722   4.706  0.1253  0.0678 -0.1974
 8025SOL    HW135711   0.905   4.669   4.676  0.3220 -0.2485 -0.1118
 8025SOL    HW235712   1.020   4.660   4.766  1.1558  0.3888 -0.5665
 8026SOL     OW35713   0.907   2.701   3.431 -0.1055 -0.3384  0.0476
 8026SOL    HW135714   0.866   2.689   3.346 -1.9433  0.9905  0.7355
 8026SOL    HW235715   0.833   2.737   3.480  0.5298  0.6825  0.2549
 8027SOL     OW35716   3.995   1.346   8.194 -0.5879 -1.1229 -0.2089
 8027SOL    HW135717   4.001   1.300   8.278  0.6723 -1.7807 -0.6661
 8027SOL    HW235718   3.935   1.418   8.214  0.5536  0.2345 -1.6417
 8028SOL     OW35719   1.158   2.133   7.405  0.2393 -0.7970  0.2579
 8028SOL    HW135720   1.220   2.086   7.349 -0.8780  0.9779 -2.4760
 8028SOL    HW235721   1.077   2.133   7.354  1.1153  0.8858 -1.1479
 8029SOL     OW35722   0.188   4.176   3.832 -0.0496 -0.2218 -0.1134
 8029SOL    HW135723   0.244   4.098   3.822 -1.7166 -1.3986 -0.1892
 8029SOL    HW235724   0.098   4.147   3.848  0.4204 -1.3065  0.5715
 8030SOL     OW35725   2.119   3.816   6.165 -0.1363  0.4380  0.1053
 8030SOL    HW135726   2.052   3.811   6.233 -0.7142 -1.0745 -0.5937
 8030SOL    HW235727   2.149   3.725   6.166 -0.5139  0.3000 -1.0742
 8031SOL     OW35728   2.495   1.660   9.744  0.3457  0.5817  0.5309
 8031SOL    HW135729   2.583   1.644   9.709 -1.0897 -3.0566 -1.4509
 8031SOL    HW235730   2.452   1.620   9.669  0.1927 -0.1722  1.0172
 8032SOL     OW35731   1.537   2.562   2.789 -0.9565  0.3648  0.1557
 8032SOL    HW135732   1.446   2.586   2.770 -1.1541 -0.4697  0.0400
 8032SOL    HW235733   1.576   2.639   2.831  0.0113  0.4450 -0.8872
 8033SOL     OW35734   1.901   3.793   1.397  0.7462  0.0373 -0.4521
 8033SOL    HW135735   1.936   3.725   1.340 -1.2389 -0.2618 -1.2824
 8033SOL    HW235736   1.895   3.862   1.331  0.9001 -0.5831 -1.1074
 8034SOL     OW35737   2.188   3.510   4.811  0.6220 -0.2612 -0.0097
 8034SOL    HW135738   2.154   3.447   4.874  0.2329  0.8811  0.9225
 8034SOL    HW235739   2.278   3.483   4.825  0.6769  0.9523  1.9079
 8035SOL     OW35740   0.575   1.075   4.128  0.6189  0.3260 -0.1159
 8035SOL    HW135741   0.527   1.091   4.209  1.3433  0.8027  0.2292
 8035SOL    HW235742   0.522   1.133   4.073  0.4856  0.9709  0.6916
 8036SOL     OW35743   1.937   3.612   3.844  0.1483  0.5966 -0.2376
 8036SOL    HW135744   2.002   3.643   3.780  1.1932 -1.6321 -0.2665
 8036SOL    HW235745   1.933   3.517   3.831 -0.0870  0.1760  2.9683
 8037SOL     OW35746   4.635   0.823   8.576 -0.2165 -0.1194 -0.9780
 8037SOL    HW135747   4.644   0.915   8.599 -2.3401  0.4953 -2.6312
 8037SOL    HW235748   4.544   0.798   8.589  0.4949 -3.1483 -1.6857
 8038SOL     OW35749   1.220   1.130   8.525 -0.1275 -0.0231 -0.0116
 8038SOL    HW135750   1.250   1.220   8.539 -0.8348  0.3381 -0.7795
 8038SOL    HW235751   1.212   1.123   8.429  0.7857 -0.8537 -0.0177
 8039SOL     OW35752   3.256   0.097   2.122 -0.2485  0.1294 -0.2699
 8039SOL    HW135753   3.197   0.023   2.136  1.3948 -1.7963 -3.5355
 8039SOL    HW235754   3.285   0.079   2.032 -0.6297 -2.8325  0.2086
 8040SOL     OW35755   3.941   2.696   1.708  0.2372  0.3693 -0.4734
 8040SOL    HW135756   3.976   2.608   1.692  1.2946  0.2924  2.3124
 8040SOL    HW235757   3.961   2.721   1.798  0.8135 -0.4756 -0.3658
 8041SOL     OW35758   2.429   4.040   5.795 -0.8168 -0.3963  0.4288
 8041SOL    HW135759   2.390   4.071   5.714 -0.0827  0.8205  0.5492
 8041SOL    HW235760   2.357   3.986   5.828 -1.2740  1.9437  3.2950
 8042SOL     OW35761   4.164   3.499  11.724  0.1367 -0.5426  0.2480
 8042SOL    HW135762   4.133   3.476  11.812 -0.5603  0.1953  0.1903
 8042SOL    HW235763   4.253   3.462  11.716  0.3638  0.3138 -1.0300
 8043SOL     OW35764   1.808   3.817  11.901 -0.4323  0.3377 -0.1584
 8043SOL    HW135765   1.816   3.905  11.865  0.1983 -0.0856 -1.0489
 8043SOL    HW235766   1.722   3.827  11.941  0.1921 -2.3443  1.8539
 8044SOL     OW35767   0.677   3.054  14.254 -0.0199  0.2835  0.2298
 8044SOL    HW135768   0.675   3.141  14.292 -0.1608 -0.5004  2.0225
 8044SOL    HW235769   0.661   2.995  14.329 -1.5785  1.2494  0.6561
 8045SOL     OW35770   0.184   4.174  10.920 -0.6215  0.2742 -0.0801
 8045SOL    HW135771   0.195   4.259  10.963 -0.5014  0.6039 -0.7617
 8045SOL    HW235772   0.148   4.207  10.838 -1.7213  1.5503  0.9017
 8046SOL     OW35773   3.944   1.592   9.406 -0.1578 -0.5799  0.3247
 8046SOL    HW135774   3.960   1.536   9.483  1.2381 -1.3041 -0.4928
 8046SOL    HW235775   3.908   1.527   9.347 -1.1323  1.2631 -1.0840
 8047SOL     OW35776   1.373   3.252  12.620 -0.0004  0.1019 -0.4779
 8047SOL    HW135777   1.376   3.344  12.644  2.7301  0.6760 -3.0216
 8047SOL    HW235778   1.352   3.203  12.700 -0.3922 -0.0395 -0.6687
 8048SOL     OW35779   4.723   1.288  12.172  0.4857  0.5137 -0.8556
 8048SOL    HW135780   4.713   1.251  12.084  0.5670  0.2908 -0.7698
 8048SOL    HW235781   4.654   1.354  12.182  0.5454  0.6505 -1.3168
 8049SOL     OW35782   3.722   2.199   6.190  0.4710 -0.0410 -0.1812
 8049SOL    HW135783   3.708   2.183   6.097 -0.5705 -1.8049  0.2789
 8049SOL    HW235784   3.787   2.270   6.196  1.3928 -0.8284 -0.9492
 8050SOL     OW35785   1.006   3.655  15.833 -0.1504 -0.5918 -0.4272
 8050SOL    HW135786   0.915   3.627  15.827 -0.8819  1.3921  1.5643
 8050SOL    HW235787   1.022   3.613  15.917 -0.4763  0.3440  0.1000
 8051SOL     OW35788   3.556   0.431   7.065  0.1255  0.1969 -0.7189
 8051SOL    HW135789   3.470   0.397   7.043 -0.1594  0.8687 -0.6504
 8051SOL    HW235790   3.610   0.364   7.022  0.0417  0.6855 -1.5775
 8052SOL     OW35791   0.899   2.772   7.099 -0.1900  0.5417  0.0377
 8052SOL    HW135792   0.887   2.715   7.023 -0.3164  0.7640 -0.1098
 8052SOL    HW235793   0.946   2.846   7.061 -2.0140  0.9477 -1.4468
 8053SOL     OW35794   1.005   3.398  11.149 -0.2329 -0.0151  0.4426
 8053SOL    HW135795   0.950   3.335  11.196  0.3322 -1.0818 -0.3360
 8053SOL    HW235796   1.046   3.441  11.224  0.1202  1.6729 -0.7096
 8054SOL     OW35797   4.514   1.883   7.037 -0.3244 -0.0026 -0.3512
 8054SOL    HW135798   4.540   1.799   7.000  0.1088 -0.4075  0.8669
 8054SOL    HW235799   4.446   1.853   7.098 -0.9628  1.9463 -0.0871
 8055SOL     OW35800   3.208   2.061   8.660 -0.3378  0.4487 -0.3399
 8055SOL    HW135801   3.197   1.966   8.649  4.1195 -0.2600  1.6393
 8055SOL    HW235802   3.270   2.076   8.589 -0.2574  1.1403 -0.1222
 8056SOL     OW35803   1.436   4.619   2.928  0.1415 -0.7212  0.1338
 8056SOL    HW135804   1.385   4.677   2.872  0.0041  0.5486  1.5673
 8056SOL    HW235805   1.393   4.650   3.008 -0.3469 -2.1046  0.4163
 8057SOL     OW35806   0.480   1.864   3.688  0.2358 -0.1804  0.0253
 8057SOL    HW135807   0.519   1.916   3.618  0.3492  0.6731  0.7268
 8057SOL    HW235808   0.418   1.923   3.730  0.9814  0.2312  0.5432
 8058SOL     OW35809   0.507   4.218   8.566  0.3532  0.0313 -0.4237
 8058SOL    HW135810   0.581   4.271   8.596  0.5418  0.3944 -1.5473
 8058SOL    HW235811   0.549   4.131   8.566  0.7719  0.2300 -1.0595
 8059SOL     OW35812   1.905   1.941   3.109 -0.1447 -0.4859 -0.1775
 8059SOL    HW135813   1.817   1.977   3.112  1.1291  2.6677 -1.0545
 8059SOL    HW235814   1.920   1.913   3.018 -0.3172  2.0905 -0.9795
 8060SOL     OW35815   1.674   2.801  14.357  0.0205  0.5272 -0.0057
 8060SOL    HW135816   1.613   2.874  14.342 -1.9928 -1.0185  0.6120
 8060SOL    HW235817   1.694   2.821  14.449  0.6215 -0.0080 -0.0188
 8061SOL     OW35818   3.098   0.977  16.131 -0.3823  0.2936 -0.4543
 8061SOL    HW135819   3.050   0.896  16.115  1.9471 -1.5427  1.8469
 8061SOL    HW235820   3.126   0.970  16.222 -2.7745  1.3099  0.3514
 8062SOL     OW35821   2.690   1.073   3.785  0.3735 -0.0546  0.1299
 8062SOL    HW135822   2.761   1.054   3.846  0.6109  1.4961  0.3263
 8062SOL    HW235823   2.682   0.985   3.746  1.0431 -0.7381  1.5408
 8063SOL     OW35824   4.208   4.556  10.432  0.4697 -0.2972 -0.4042
 8063SOL    HW135825   4.213   4.520  10.520 -1.7074 -2.9245 -1.3483
 8063SOL    HW235826   4.124   4.517  10.406  0.9555 -0.8087 -1.2283
 8064SOL     OW35827   0.442   0.152  14.760 -0.2111  0.1319 -0.2938
 8064SOL    HW135828   0.437   0.162  14.665  0.5923 -0.9213 -0.4527
 8064SOL    HW235829   0.470   0.060  14.754  1.1239  0.5282 -0.1055
 8065SOL     OW35830   3.280   3.121  16.218  0.0593  0.2253  0.3916
 8065SOL    HW135831   3.315   3.172  16.292 -0.5898  1.4264 -0.1174
 8065SOL    HW235832   3.251   3.037  16.252 -3.4694  0.8606 -1.0319
 8066SOL     OW35833   0.189   2.373  10.822 -0.0984 -0.6441  0.2358
 8066SOL    HW135834   0.208   2.439  10.888 -2.2861 -0.5736  0.7664
 8066SOL    HW235835   0.273   2.330  10.804  0.1600 -0.4616  1.0038
 8067SOL     OW35836   0.374   3.267   5.846  0.0378  0.2367 -0.3062
 8067SOL    HW135837   0.455   3.278   5.895  0.3827 -0.5954 -0.6860
 8067SOL    HW235838   0.402   3.189   5.798 -1.1458 -1.4852  1.8060
 8068SOL     OW35839   1.969   1.544   5.952  0.4314  0.0386  0.0645
 8068SOL    HW135840   1.894   1.566   5.897 -0.1197  0.4656  0.9865
 8068SOL    HW235841   1.950   1.452   5.970  0.7770 -0.0960 -0.2544
 8069SOL     OW35842   3.268   3.210  15.164 -0.2340 -0.0500  0.3257
 8069SOL    HW135843   3.232   3.250  15.085 -2.3901  1.1311  1.8848
 8069SOL    HW235844   3.328   3.279  15.192  0.8701 -1.1221  0.6126
 8070SOL     OW35845   1.524   4.020   1.075 -0.4217 -0.3823 -0.4924
 8070SOL    HW135846   1.527   3.926   1.091  0.9847 -0.2272  0.1655
 8070SOL    HW235847   1.548   4.056   1.161 -1.0456 -0.0517 -0.4576
 8071SOL     OW35848   0.521   0.846   2.972 -0.7263 -0.1592 -0.3789
 8071SOL    HW135849   0.603   0.802   2.952  0.1858  2.0142 -1.3241
 8071SOL    HW235850   0.459   0.780   2.940 -0.4474 -0.9723  0.7682
 8072SOL     OW35851   1.572   2.984   4.343 -0.0804 -0.0115 -0.4447
 8072SOL    HW135852   1.485   2.985   4.384 -1.6449 -0.5933 -3.6686
 8072SOL    HW235853   1.603   2.895   4.362 -0.3975 -0.2662 -1.0956
 8073SOL     OW35854   3.153   2.855   2.386  0.4770 -0.8309 -0.2254
 8073SOL    HW135855   3.229   2.902   2.351 -1.8485  1.7849 -1.7405
 8073SOL    HW235856   3.089   2.925   2.378  0.2095 -1.0900 -0.3948
 8074SOL     OW35857   1.392   3.253   3.249  0.2220 -0.3587  0.2487
 8074SOL    HW135858   1.454   3.188   3.283 -2.3939 -1.8155  2.2930
 8074SOL    HW235859   1.303   3.219   3.256  0.0860  0.5438  2.7427
 8075SOL     OW35860   2.135   2.204   9.552 -0.3329  0.4034  0.5347
 8075SOL    HW135861   2.093   2.285   9.523 -0.6630 -0.1829 -0.6322
 8075SOL    HW235862   2.103   2.200   9.642 -2.0356 -0.4244 -0.1110
 8076SOL     OW35863   4.178   1.019  12.493  0.0652  0.1377  0.1252
 8076SOL    HW135864   4.244   1.069  12.540 -0.4139  0.3386  0.5780
 8076SOL    HW235865   4.215   0.932  12.504 -1.5804 -0.6885 -0.7863
 8077SOL     OW35866   0.570   3.566   2.616 -0.1947 -0.6811  0.6212
 8077SOL    HW135867   0.495   3.509   2.633 -1.1270  0.4283  0.2241
 8077SOL    HW235868   0.555   3.586   2.524  0.5506 -1.7601  0.2547
 8078SOL     OW35869   0.403   0.075   0.943 -0.1669 -0.2880 -0.3544
 8078SOL    HW135870   0.401   0.013   0.870 -1.7202 -0.0064 -0.5575
 8078SOL    HW235871   0.369   0.153   0.897  0.6710 -2.6804 -5.0304
 8079SOL     OW35872   2.457   3.494   5.418  0.0603  0.2142  0.4650
 8079SOL    HW135873   2.375   3.517   5.375 -0.0067 -1.2638 -0.1683
 8079SOL    HW235874   2.502   3.431   5.362 -0.9266 -1.4298  1.5242
 8080SOL     OW35875   3.467   4.425   2.043  0.6072  0.0153  0.1413
 8080SOL    HW135876   3.503   4.419   2.131 -0.7262  1.8509  0.8122
 8080SOL    HW235877   3.391   4.368   2.057 -0.3848  1.2332 -0.2835
 8081SOL     OW35878   4.700   3.030   9.574 -0.0413 -0.1381 -0.0651
 8081SOL    HW135879   4.682   3.008   9.665 -3.6571  0.7869 -0.5160
 8081SOL    HW235880   0.003   3.117   9.568 -0.2880 -0.0086  0.1882
 8082SOL     OW35881   2.730   3.172  17.557 -0.5172 -0.1020 -0.3280
 8082SOL    HW135882   2.641   3.201  17.580 -0.6381 -1.7920  1.3328
 8082SOL    HW235883   2.733   3.079  17.580  1.7769  0.2508  0.7081
 8083SOL     OW35884   4.228   1.601  11.729  0.0287 -0.3824  0.7211
 8083SOL    HW135885   4.279   1.535  11.682 -0.4358 -0.9380  1.0111
 8083SOL    HW235886   4.291   1.672  11.746  0.0428 -0.4246  0.8414
 8084SOL     OW35887   3.168   0.055   8.113  0.7422 -0.1181  0.1882
 8084SOL    HW135888   3.236   0.092   8.169  2.0817 -0.0059 -1.5076
 8084SOL    HW235889   3.214   0.039   8.030 -1.5527  0.7505 -1.2480
 8085SOL     OW35890   1.041   1.424   6.082  0.3697 -0.4307 -0.3803
 8085SOL    HW135891   1.078   1.434   6.170 -3.0069  3.1685  0.6243
 8085SOL    HW235892   1.095   1.346   6.066  1.1757 -0.1613  1.0468
 8086SOL     OW35893   1.873   0.491   4.353  0.0155 -0.2727 -0.4669
 8086SOL    HW135894   1.793   0.461   4.311  0.0497  0.2960 -0.9510
 8086SOL    HW235895   1.934   0.475   4.281 -0.7372 -0.4459 -1.0605
 8087SOL     OW35896   2.119   1.668   1.562 -0.1406 -0.2230  0.3997
 8087SOL    HW135897   2.183   1.638   1.497 -1.3758 -2.1577  0.0998
 8087SOL    HW235898   2.053   1.683   1.494 -0.7756 -1.2010  0.7998
 8088SOL     OW35899   3.896   4.455   0.602 -0.1312 -0.4518 -0.1746
 8088SOL    HW135900   3.900   4.394   0.676  0.7160  0.3315  0.4311
 8088SOL    HW235901   3.815   4.500   0.628  1.5333  2.2572  0.3346
 8089SOL     OW35902   1.750   2.658   7.415  0.2937  0.3080  0.2123
 8089SOL    HW135903   1.710   2.572   7.397  1.7347  0.1108 -2.0116
 8089SOL    HW235904   1.676   2.719   7.414 -0.0153 -0.0148  2.4741
 8090SOL     OW35905   0.645   1.687   4.198 -0.2323  0.0039 -0.3075
 8090SOL    HW135906   0.650   1.592   4.208 -1.6907 -0.1162 -0.7941
 8090SOL    HW235907   0.733   1.715   4.224 -0.1168  0.2984 -1.0335
 8091SOL     OW35908   0.183   1.765   7.956 -0.2612 -0.3132 -0.1380
 8091SOL    HW135909   0.235   1.792   7.880  0.2353 -1.9124 -0.3533
 8091SOL    HW235910   0.127   1.843   7.968  0.9609  0.8452 -1.9795
 8092SOL     OW35911   1.632   0.913   6.743  0.7410  0.2657  0.1892
 8092SOL    HW135912   1.726   0.900   6.757  0.4690 -0.5957  1.2581
 8092SOL    HW235913   1.632   0.887   6.651  0.2131 -2.4613  0.9331
 8093SOL     OW35914   3.251   4.459   2.333 -0.0714  0.8002 -0.1874
 8093SOL    HW135915   3.205   4.542   2.347  1.3638  1.2334  2.0602
 8093SOL    HW235916   3.290   4.447   2.420 -1.4951  0.2950  0.3748
 8094SOL     OW35917   4.075   2.221  12.130 -0.6653  0.5676  0.5252
 8094SOL    HW135918   4.123   2.290  12.177 -0.6213 -0.2689  1.7295
 8094SOL    HW235919   4.024   2.265  12.063 -0.6188 -2.2411 -1.3666
 8095SOL     OW35920   0.465   3.118   1.906  0.4079 -0.7702 -0.6803
 8095SOL    HW135921   0.433   3.181   1.971  0.7034 -0.3759 -0.9084
 8095SOL    HW235922   0.413   3.132   1.827 -0.2553 -0.1831 -0.1351
 8096SOL     OW35923   1.526   0.034   6.423 -0.0099  0.3526 -0.5024
 8096SOL    HW135924   1.512   0.028   6.518  0.8340  0.6236 -0.3606
 8096SOL    HW235925   1.540   4.677   6.403 -0.8489  0.4302 -1.4707
 8097SOL     OW35926   0.660   2.311   4.552  0.0745 -0.2258 -0.8138
 8097SOL    HW135927   0.619   2.285   4.469  2.0935 -2.6738 -1.0420
 8097SOL    HW235928   0.598   2.262   4.607  2.0274 -0.7590  0.9195
 8098SOL     OW35929   3.624   1.454  11.637  0.0661 -0.6447 -0.5005
 8098SOL    HW135930   3.705   1.444  11.587  0.1591  2.8768 -1.0752
 8098SOL    HW235931   3.563   1.479  11.568  1.1578  1.1239 -0.8473
 8099SOL     OW35932   4.164   3.221   2.630  0.9368 -0.6948 -0.3531
 8099SOL    HW135933   4.189   3.296   2.575 -1.8086  0.5988  0.1683
 8099SOL    HW235934   4.072   3.248   2.632  1.7586  1.9705  2.3176
 8100SOL     OW35935   1.883   2.401   7.891  0.1114 -0.4011 -0.2216
 8100SOL    HW135936   1.947   2.455   7.844  1.0015 -1.4869 -0.2567
 8100SOL    HW235937   1.929   2.337   7.945 -2.0833  1.2447  3.5728
 8101SOL     OW35938   0.787   1.233   7.893  0.7307 -0.5327  0.2951
 8101SOL    HW135939   0.754   1.266   7.977  0.4996 -0.4709  0.1795
 8101SOL    HW235940   0.795   1.142   7.922  0.6644 -0.0631  1.7917
 8102SOL     OW35941   2.754   3.819  12.684  0.1026  0.1818 -0.1383
 8102SOL    HW135942   2.803   3.891  12.645  0.4668 -0.1366 -0.2619
 8102SOL    HW235943   2.704   3.857  12.756 -0.7929 -0.0469 -0.6424
 8103SOL     OW35944   3.271   2.889   6.382  0.1679 -0.1745  0.4196
 8103SOL    HW135945   3.293   2.802   6.415  1.2612 -0.1610 -0.2636
 8103SOL    HW235946   3.336   2.936   6.435  0.9546 -0.9264  0.1113
 8104SOL     OW35947   1.033   0.560   9.216 -0.5803 -0.5249  0.4177
 8104SOL    HW135948   1.015   0.610   9.296  1.5252  0.1710  0.4619
 8104SOL    HW235949   0.943   0.550   9.185 -0.3295 -2.1447  0.1868
 8105SOL     OW35950   1.297   2.597   7.323  0.2360  0.1445 -0.1817
 8105SOL    HW135951   1.215   2.646   7.325  0.0288 -0.2805  1.3594
 8105SOL    HW235952   1.364   2.664   7.309 -1.4620  2.4009  2.5378
 8106SOL     OW35953   1.714   3.394  15.141  0.2370 -0.3777  0.2054
 8106SOL    HW135954   1.710   3.448  15.062 -0.0252  0.2784  0.6627
 8106SOL    HW235955   1.631   3.347  15.137  0.2654 -0.4088  0.0014
 8107SOL     OW35956   1.404   4.286   9.173 -0.0619 -0.2002  0.2650
 8107SOL    HW135957   1.496   4.276   9.197  0.0866 -1.8818 -1.0459
 8107SOL    HW235958   1.362   4.309   9.256  1.0559 -0.1929  0.8221
 8108SOL     OW35959   2.178   0.900  10.986 -0.5088 -0.0499  0.2312
 8108SOL    HW135960   2.248   0.959  10.959  0.0724 -1.4479 -1.3398
 8108SOL    HW235961   2.197   0.878  11.078  0.6879  0.3349  0.0783
 8109SOL     OW35962   1.696   1.210   6.496 -0.3848 -0.4797  0.3242
 8109SOL    HW135963   1.731   1.129   6.458 -1.1575 -1.0226  0.7596
 8109SOL    HW235964   1.752   1.275   6.454 -0.8344 -1.9233 -2.5177
 8110SOL     OW35965   3.106   2.392  17.120  0.4904 -0.3622  0.3395
 8110SOL    HW135966   3.073   2.482  17.112 -0.8198 -0.7567  1.5230
 8110SOL    HW235967   3.107   2.375  17.026 -0.9614 -0.5071  0.3527
 8111SOL     OW35968   1.989   3.547   1.874  0.4663  0.1921  0.3267
 8111SOL    HW135969   1.904   3.562   1.833  0.3345  2.8231  1.5716
 8111SOL    HW235970   1.989   3.625   1.929 -1.7489 -0.5803  1.4492
 8112SOL     OW35971   1.372   3.555  15.260  0.7806 -0.4206 -0.3450
 8112SOL    HW135972   1.447   3.606  15.289  0.0752 -0.3473  1.3758
 8112SOL    HW235973   1.381   3.485  15.325  0.9559 -0.3083 -0.2509
 8113SOL     OW35974   0.331   4.233   7.021  0.4749  0.0428 -0.1688
 8113SOL    HW135975   0.424   4.214   7.028 -0.0400 -2.4544  0.1731
 8113SOL    HW235976   0.317   4.282   7.101 -0.1824 -0.5279  0.0698
 8114SOL     OW35977   4.102   2.584   1.180  0.6362 -0.0986  0.3259
 8114SOL    HW135978   4.073   2.589   1.089 -1.2412 -1.1494  0.8608
 8114SOL    HW235979   4.046   2.518   1.221  1.7067  0.1256  2.1242
 8115SOL     OW35980   0.835   3.521   1.893  0.2345 -0.1784 -0.1033
 8115SOL    HW135981   0.771   3.463   1.851  1.9186 -1.3457 -1.0768
 8115SOL    HW235982   0.911   3.526   1.834  1.0416 -1.4262  0.8362
 8116SOL     OW35983   3.417   0.328   7.931 -0.3166  0.2558  0.4320
 8116SOL    HW135984   3.425   0.265   7.859 -0.0645  0.0783  0.6137
 8116SOL    HW235985   3.497   0.376   7.907  1.0704 -1.2700  1.9876
 8117SOL     OW35986   3.088   0.001  14.422  0.7139  0.1536 -0.5259
 8117SOL    HW135987   3.180   4.711  14.431  0.2933 -1.4725 -0.9527
 8117SOL    HW235988   3.092   0.058  14.345  0.2203 -0.7773 -1.2371
 8118SOL     OW35989   3.624   4.719  11.565  0.1226  0.3101  0.3546
 8118SOL    HW135990   3.623   4.625  11.549 -1.9976  0.6135 -1.3699
 8118SOL    HW235991   3.539   0.005  11.603 -0.7988  0.6327 -1.8952
 8119SOL     OW35992   3.330   4.139   9.946  0.9056  0.3862 -0.3625
 8119SOL    HW135993   3.250   4.116   9.992  0.4202 -0.9661 -1.8876
 8119SOL    HW235994   3.286   4.168   9.865  0.1605  0.0124 -0.0842
 8120SOL     OW35995   0.705   4.197  17.401  0.3349  0.1887  0.3952
 8120SOL    HW135996   0.619   4.178  17.363  0.7008 -0.5316 -0.0787
 8120SOL    HW235997   0.724   4.243  17.319 -0.9818  0.3376  0.1735
 8121SOL     OW35998   0.015   2.159   9.766  0.6927 -0.6150 -0.3089
 8121SOL    HW135999   4.724   2.108   9.842 -1.4776 -1.0455 -1.3837
 8121SOL    HW236000   0.028   2.246   9.804  0.6753 -0.7492  0.0136
 8122SOL     OW36001   2.448   4.123  16.721 -0.2971 -0.0598 -0.5865
 8122SOL    HW136002   2.430   4.115  16.815  0.1042  1.1269 -0.4074
 8122SOL    HW236003   2.424   4.215  16.706 -0.7007 -0.0587  0.0784
 8123SOL     OW36004   2.877   1.002   4.855  0.0049  0.1087  0.0630
 8123SOL    HW136005   2.857   1.089   4.821 -1.4379 -0.3540 -0.2907
 8123SOL    HW236006   2.807   1.006   4.921 -3.1415 -1.4197 -3.2012
 8124SOL     OW36007   1.873   4.602   1.720  0.1285  0.3738 -0.4125
 8124SOL    HW136008   1.945   4.593   1.783 -0.2280  0.5248  0.0167
 8124SOL    HW236009   1.797   4.571   1.770 -1.3659  1.8434 -1.8011
 8125SOL     OW36010   4.585   2.065  15.734 -0.2455 -0.1519 -0.2126
 8125SOL    HW136011   4.543   1.979  15.731  0.7379 -0.6887  1.1541
 8125SOL    HW236012   4.633   2.055  15.817 -1.7481 -1.0169  0.5449
 8126SOL     OW36013   4.359   1.462   2.189  0.0480 -0.0553 -0.1697
 8126SOL    HW136014   4.454   1.457   2.183  0.2212  1.5651  1.1031
 8126SOL    HW236015   4.338   1.476   2.281  2.1953 -1.0609  0.4788
 8127SOL     OW36016   0.716   1.737   9.160  0.7544  0.0028 -0.0749
 8127SOL    HW136017   0.753   1.717   9.246 -0.8388 -1.4833  0.2726
 8127SOL    HW236018   0.664   1.816   9.174  1.5836 -0.0143  3.2112
 8128SOL     OW36019   3.191   2.215   3.369 -0.0990  0.0105 -0.0482
 8128SOL    HW136020   3.143   2.230   3.288  1.3932 -0.1091 -0.9662
 8128SOL    HW236021   3.181   2.120   3.370  0.4876 -0.0481  0.7529
 8129SOL     OW36022   2.116   1.122  12.453 -0.2084  0.0424  0.1032
 8129SOL    HW136023   2.054   1.112  12.381  2.7545 -3.0638 -2.0112
 8129SOL    HW236024   2.058   1.153  12.522 -1.4166 -0.5004 -0.6646
 8130SOL     OW36025   3.679   0.758   1.024  0.1852  0.0066 -0.3319
 8130SOL    HW136026   3.659   0.714   1.107  0.2240 -1.3216 -1.0175
 8130SOL    HW236027   3.738   0.829   1.048 -1.7388  1.8141 -0.9113
 8131SOL     OW36028   1.631   4.501   6.381 -0.3066  0.0695  0.1050
 8131SOL    HW136029   1.662   4.454   6.304  1.3801 -0.5040  1.1417
 8131SOL    HW236030   1.691   4.469   6.449  0.4116  0.4633 -0.3439
 8132SOL     OW36031   1.981   4.357   3.508 -0.3057  0.2793  0.6152
 8132SOL    HW136032   1.892   4.379   3.481 -0.2881  0.3082  0.5802
 8132SOL    HW236033   2.017   4.307   3.434 -1.5528  0.2007  0.0637
 8133SOL     OW36034   0.024   3.332  15.591 -0.3382  0.3029 -0.0021
 8133SOL    HW136035   4.714   3.287  15.521  0.8595  1.0912 -1.2915
 8133SOL    HW236036   0.063   3.409  15.550 -1.2108  1.0363  0.5355
 8134SOL     OW36037   0.143   3.089   7.232  0.4051  0.1040 -0.1367
 8134SOL    HW136038   0.227   3.046   7.246 -0.5508 -2.0219 -0.9460
 8134SOL    HW236039   0.160   3.183   7.224 -0.2582  0.4230  2.1575
 8135SOL     OW36040   1.284   3.417   2.996 -0.4731 -0.5729  0.0941
 8135SOL    HW136041   1.318   3.384   3.079  1.9636  1.0767 -0.2723
 8135SOL    HW236042   1.191   3.413   3.021 -0.3929 -1.7041  0.2155
 8136SOL     OW36043   2.757   2.142  15.399 -0.0396  0.1001 -0.1407
 8136SOL    HW136044   2.771   2.187  15.482  1.4881 -0.5099 -0.0673
 8136SOL    HW236045   2.718   2.056  15.416  1.1036 -0.3403  0.2473
 8137SOL     OW36046   4.614   4.253   7.327 -0.1687  0.0764  0.3990
 8137SOL    HW136047   4.701   4.266   7.365 -0.7803  0.1114  1.7874
 8137SOL    HW236048   4.603   4.162   7.357  3.5472 -0.8135 -0.9588
 8138SOL     OW36049   0.721   1.333   7.354  0.5809  0.2450 -0.1890
 8138SOL    HW136050   0.798   1.313   7.301  0.0287  0.1949 -0.9725
 8138SOL    HW236051   0.698   1.247   7.390 -0.3857  0.5918  0.0168
 8139SOL     OW36052   1.849   1.769  17.631  0.0104 -0.1396  0.4507
 8139SOL    HW136053   1.944   1.767  17.616 -0.1129 -0.1062 -0.3415
 8139SOL    HW236054   1.828   1.726  17.713 -3.4352  1.8945  0.6203
 8140SOL     OW36055   2.046   4.437  12.774 -0.9492  0.2137  0.2303
 8140SOL    HW136056   1.999   4.485  12.707  0.0550  0.3301 -0.3912
 8140SOL    HW236057   2.063   4.504  12.841  0.9457 -1.5757  1.5515
 8141SOL     OW36058   2.919   1.110   1.296 -0.1688 -0.2883  0.4926
 8141SOL    HW136059   2.914   1.147   1.384  2.1379 -2.2979  1.4491
 8141SOL    HW236060   2.827   1.121   1.270  0.5439 -0.0196 -1.8847
 8142SOL     OW36061   1.006   0.168   7.403 -0.0071  0.0909 -0.1655
 8142SOL    HW136062   1.014   0.233   7.472  1.1369  1.4845 -1.6183
 8142SOL    HW236063   1.008   0.226   7.327  2.6171  1.0167  0.6020
 8143SOL     OW36064   1.649   2.965  16.624  0.3429  1.1072 -0.2466
 8143SOL    HW136065   1.646   2.962  16.720 -2.0676  0.7110 -0.3240
 8143SOL    HW236066   1.696   2.883  16.608 -1.0335  0.1917  0.4078
 8144SOL     OW36067   4.361   0.886   1.941  0.3849  0.5111  0.6910
 8144SOL    HW136068   4.435   0.827   1.929  0.1059 -0.2834  2.7696
 8144SOL    HW236069   4.405   0.964   1.975 -0.4016  0.2371  2.3330
 8145SOL     OW36070   4.539   1.636   9.137 -0.0417 -0.5534 -0.4630
 8145SOL    HW136071   4.528   1.571   9.067 -2.8329 -1.6512  0.9678
 8145SOL    HW236072   4.576   1.576   9.202  0.1641  1.2002  1.0276
 8146SOL     OW36073   3.669   3.919   9.912 -0.4664  0.5364 -0.3094
 8146SOL    HW136074   3.640   3.938   9.822  2.1893  1.0488 -1.0567
 8146SOL    HW236075   3.752   3.874   9.900 -1.4818 -1.4129 -0.1246
 8147SOL     OW36076   0.494   4.206   3.452 -0.2384 -0.5197 -0.1184
 8147SOL    HW136077   0.575   4.176   3.412 -0.4432  1.3982 -2.0069
 8147SOL    HW236078   0.434   4.199   3.377 -0.9223 -1.3365  0.5025
 8148SOL     OW36079   3.402   1.299   2.537 -0.6181 -0.1392  0.5839
 8148SOL    HW136080   3.319   1.342   2.557 -0.3046  0.5025  0.5106
 8148SOL    HW236081   3.388   1.270   2.447 -0.7414 -0.9392  0.8583
 8149SOL     OW36082   3.689   1.782  15.710  0.5056 -0.2913  0.4347
 8149SOL    HW136083   3.734   1.834  15.644 -1.2310 -0.2448 -0.7052
 8149SOL    HW236084   3.760   1.724  15.737 -0.1823 -1.2575  0.1706
 8150SOL     OW36085   0.051   2.712   4.307  0.4507 -0.0941  0.0842
 8150SOL    HW136086   0.106   2.638   4.282  0.4593  0.3295 -1.1216
 8150SOL    HW236087   0.128   2.766   4.328 -0.4326  0.7087  1.2821
 8151SOL     OW36088   3.762   2.473  13.970 -0.1177  0.1482  0.4464
 8151SOL    HW136089   3.766   2.535  13.896 -0.7074 -0.1924  0.1247
 8151SOL    HW236090   3.707   2.401  13.938  1.4191 -0.3591 -1.0359
 8152SOL     OW36091   2.630   4.238  16.332 -0.0849 -0.3463 -0.3412
 8152SOL    HW136092   2.717   4.199  16.327  0.6509  1.4992 -1.6487
 8152SOL    HW236093   2.646   4.308  16.395  0.8229 -0.5485 -0.3476
 8153SOL     OW36094   0.495   1.410  12.040  0.1671 -0.2560  0.1800
 8153SOL    HW136095   0.547   1.487  12.062  0.9542 -0.9121  0.6369
 8153SOL    HW236096   0.542   1.351  12.099  1.6741  2.9161  2.1224
 8154SOL     OW36097   4.373   3.808   3.094  0.0868 -0.0391  0.1660
 8154SOL    HW136098   4.398   3.897   3.069  3.9392 -0.6799  1.6654
 8154SOL    HW236099   4.428   3.789   3.170  1.0419  1.3182 -0.1890
 8155SOL     OW36100   1.508   3.775   5.958  0.4066 -0.1086 -0.0005
 8155SOL    HW136101   1.573   3.845   5.956 -1.1726  1.3271 -1.2907
 8155SOL    HW236102   1.454   3.775   5.879  0.9689  0.8044 -0.3859
 8156SOL     OW36103   4.490   3.138  15.675 -0.0731  0.1778 -0.4607
 8156SOL    HW136104   4.527   3.161  15.760  2.5652  2.8455 -2.3287
 8156SOL    HW236105   4.566   3.107  15.626 -0.5041 -0.1327 -0.9336
 8157SOL     OW36106   1.894   3.530  11.917  0.1239 -0.1644 -0.6311
 8157SOL    HW136107   1.963   3.488  11.968  1.2095  2.1701 -0.1836
 8157SOL    HW236108   1.884   3.620  11.949 -0.4284 -0.5674  0.3297
 8158SOL     OW36109   2.993   1.414   4.228  0.1053  0.5707  0.2562
 8158SOL    HW136110   2.915   1.358   4.227  2.1779 -2.2924 -0.8807
 8158SOL    HW236111   3.030   1.395   4.141  2.0119 -0.7586  1.3643
 8159SOL     OW36112   2.035   4.195   5.165 -0.5923  0.2200 -0.4468
 8159SOL    HW136113   2.005   4.107   5.140 -0.9246 -0.4278  2.1542
 8159SOL    HW236114   1.947   4.233   5.166 -0.6819  0.0343 -1.3083
 8160SOL     OW36115   4.476   3.909   6.818  0.0374 -0.0409  0.1965
 8160SOL    HW136116   4.482   3.858   6.900 -1.2715 -0.5540 -0.0275
 8160SOL    HW236117   4.388   3.885   6.789  1.0062 -2.9468 -0.3026
 8161SOL     OW36118   2.601   4.334   3.465  0.4403  0.0118 -0.0209
 8161SOL    HW136119   2.690   4.368   3.455 -0.4460  2.3586  0.0782
 8161SOL    HW236120   2.560   4.410   3.424  0.3293 -0.7642 -1.3232
 8162SOL     OW36121   2.951   2.583   1.994 -0.2567 -0.1140 -0.3092
 8162SOL    HW136122   2.981   2.524   1.925  2.4415  1.8008 -0.7302
 8162SOL    HW236123   2.911   2.526   2.060  1.3042 -1.3877 -0.4619
 8163SOL     OW36124   2.478   0.299  13.111 -0.6840 -0.1692 -0.0380
 8163SOL    HW136125   2.466   0.213  13.152 -2.1686 -0.6594 -1.5116
 8163SOL    HW236126   2.386   0.320  13.093 -0.2705  1.6676 -0.0200
 8164SOL     OW36127   3.429   1.033   5.320  0.3659  0.3487 -0.1145
 8164SOL    HW136128   3.515   1.027   5.361  0.2526  1.5138  0.2653
 8164SOL    HW236129   3.376   1.069   5.391  0.1273 -1.8444  0.8322
 8165SOL     OW36130   3.584   3.017   6.055 -0.1084 -0.2618  0.1140
 8165SOL    HW136131   3.502   3.010   6.105  0.5012 -0.4643  1.0828
 8165SOL    HW236132   3.649   3.040   6.121  0.5546 -0.3309 -0.5183
 8166SOL     OW36133   1.196   2.827   2.619 -0.0603  0.0608  0.1562
 8166SOL    HW136134   1.122   2.879   2.650 -2.6124 -2.3345 -1.8455
 8166SOL    HW236135   1.274   2.879   2.640 -0.0277 -0.8070  2.1689
 8167SOL     OW36136   3.480   3.440   4.755  0.6797 -0.1206  0.2522
 8167SOL    HW136137   3.537   3.481   4.689  1.8936 -2.7747 -0.3553
 8167SOL    HW236138   3.534   3.447   4.833  2.1436 -1.8018 -0.5930
 8168SOL     OW36139   3.171   4.669  11.101  0.3672  0.7664 -0.1262
 8168SOL    HW136140   3.183   4.728  11.176  2.7157 -0.0296  0.1220
 8168SOL    HW236141   3.233   4.720  11.048 -0.1439  0.3958 -1.0840
 8169SOL     OW36142   2.770   4.038   9.662 -0.0602 -0.2525  0.5421
 8169SOL    HW136143   2.858   4.042   9.700  0.4417  0.5716 -0.7168
 8169SOL    HW236144   2.724   4.018   9.744  1.3989  0.5089  1.5457
 8170SOL     OW36145   1.298   1.430   5.846  0.3842  0.7796  0.4742
 8170SOL    HW136146   1.337   1.345   5.867  0.2939  0.4531 -0.7112
 8170SOL    HW236147   1.290   1.467   5.934 -1.2813  4.1879 -1.1142
 8171SOL     OW36148   4.184   3.974   1.667  0.0552  0.2647  0.9188
 8171SOL    HW136149   4.257   3.987   1.729 -0.9329 -0.9946  2.3454
 8171SOL    HW236150   4.175   4.059   1.626  1.0432  0.4205  1.0232
 8172SOL     OW36151   2.749   1.720  10.182  0.0184 -0.5680 -0.3574
 8172SOL    HW136152   2.808   1.699  10.254 -0.9345  0.2991  0.6600
 8172SOL    HW236153   2.781   1.658  10.116 -1.3324  0.2869 -1.8223
 8173SOL     OW36154   3.999   4.286   5.417 -0.0765 -0.4359 -0.2955
 8173SOL    HW136155   3.952   4.338   5.482 -0.5901 -0.7965 -0.3803
 8173SOL    HW236156   3.921   4.262   5.366 -0.0141  1.8612 -1.4723
 8174SOL     OW36157   1.718   1.685   4.672  0.5770 -0.7291 -0.3706
 8174SOL    HW136158   1.721   1.640   4.756  1.8872  0.7192  0.3782
 8174SOL    HW236159   1.645   1.745   4.688 -0.7285 -1.8227 -2.2880
 8175SOL     OW36160   1.269   0.428   8.127 -0.5789 -0.0510  0.4473
 8175SOL    HW136161   1.179   0.401   8.143 -0.7530 -0.5516 -1.4211
 8175SOL    HW236162   1.309   0.447   8.212  0.2742  2.2722 -0.4850
 8176SOL     OW36163   1.472   1.910   7.688  0.3605  0.1922 -0.2825
 8176SOL    HW136164   1.476   2.002   7.714  2.7064  0.4237 -1.5075
 8176SOL    HW236165   1.462   1.909   7.593  1.7759 -0.2532 -0.4307
 8177SOL     OW36166   2.715   2.571   7.474  0.1595 -0.1806  0.4239
 8177SOL    HW136167   2.769   2.646   7.499  1.7566 -1.2952  0.3645
 8177SOL    HW236168   2.721   2.589   7.380 -0.3847  1.6304  0.7287
 8178SOL     OW36169   4.445   1.150   4.309  0.2105  0.2503 -0.0877
 8178SOL    HW136170   4.442   1.197   4.225  2.0324 -0.0410 -0.3125
 8178SOL    HW236171   4.405   1.068   4.280  0.2064  0.8295 -1.7010
 8179SOL     OW36172   2.701   3.056  14.989  0.4601 -0.2959 -0.1734
 8179SOL    HW136173   2.716   3.144  15.024  1.6215 -0.2553 -0.7799
 8179SOL    HW236174   2.688   3.011  15.073  1.6089 -3.4771 -1.7064
 8180SOL     OW36175   0.736   0.680   8.558 -0.1343  0.4356 -0.0062
 8180SOL    HW136176   0.719   0.726   8.640 -0.0818  0.8377 -0.2208
 8180SOL    HW236177   0.659   0.704   8.506 -0.6777  3.3249  2.1969
 8181SOL     OW36178   0.673   2.289   2.950  0.0744 -0.1240 -0.0950
 8181SOL    HW136179   0.611   2.286   2.876 -0.3831  0.2175  0.2775
 8181SOL    HW236180   0.746   2.245   2.906 -0.3719 -0.0579 -0.9193
 8182SOL     OW36181   2.651   2.741   7.918  0.3346  0.1053 -0.4415
 8182SOL    HW136182   2.683   2.655   7.889 -0.7668 -0.5542  0.2737
 8182SOL    HW236183   2.556   2.730   7.922  0.1278  1.7612 -0.9214
 8183SOL     OW36184   4.447   2.298  15.362  0.0905 -0.6840  0.2394
 8183SOL    HW136185   4.452   2.301  15.458  2.2901 -0.6225  0.1327
 8183SOL    HW236186   4.493   2.219  15.335  0.5493  0.3571 -2.0384
 8184SOL     OW36187   1.562   4.397   8.483  0.4655 -0.2687  0.6358
 8184SOL    HW136188   1.606   4.312   8.484  0.4175 -0.3249 -2.8401
 8184SOL    HW236189   1.511   4.387   8.563  1.5440  0.0066  1.3489
 8185SOL     OW36190   0.503   2.517   5.381 -0.1837  0.1041  0.0360
 8185SOL    HW136191   0.591   2.507   5.417  0.1067 -0.2390 -0.7665
 8185SOL    HW236192   0.513   2.472   5.297 -1.9138  1.1146 -0.6937
 8186SOL     OW36193   4.585   2.660   4.476 -0.3901  0.3193 -0.2009
 8186SOL    HW136194   4.653   2.673   4.409  0.7694 -2.2893  0.4325
 8186SOL    HW236195   4.602   2.565   4.473  3.3289  0.8953  2.0174
 8187SOL     OW36196   2.709   0.912  10.674 -0.3817 -0.2178  0.2685
 8187SOL    HW136197   2.758   0.833  10.697  0.3362  0.6287  1.6156
 8187SOL    HW236198   2.618   0.894  10.700 -0.5215 -0.6320 -0.4877
 8188SOL     OW36199   3.078   4.122   2.504  0.1590 -0.4486 -0.4623
 8188SOL    HW136200   3.119   4.202   2.470 -1.6990  0.1464 -1.2912
 8188SOL    HW236201   3.020   4.154   2.573  0.3905 -2.0406  0.4634
 8189SOL     OW36202   4.089   0.652   8.670 -0.1484  0.5043  0.0479
 8189SOL    HW136203   4.103   0.558   8.677  2.5192  0.9799  0.9139
 8189SOL    HW236204   4.000   0.673   8.700  0.0975 -0.4784  1.4188
 8190SOL     OW36205   3.252   0.372   6.380  0.0979  0.2634  0.0750
 8190SOL    HW136206   3.163   0.400   6.403 -0.6989 -2.2504  0.0028
 8190SOL    HW236207   3.236   0.360   6.286 -1.5485  0.5583  0.3138
 8191SOL     OW36208   0.287   1.649   5.669  0.8344 -0.1557 -0.1699
 8191SOL    HW136209   0.270   1.711   5.598  2.1397  2.1909  1.5741
 8191SOL    HW236210   0.355   1.683   5.727  0.6396 -1.2411  0.6985
 8192SOL     OW36211   1.995   2.779   9.806 -0.3654  0.2920 -0.0692
 8192SOL    HW136212   2.043   2.767   9.888  1.0587  1.1293 -0.7762
 8192SOL    HW236213   1.904   2.772   9.836  0.3205 -0.0582  1.9327
 8193SOL     OW36214   1.061   2.332   6.210 -1.1321  0.3168  0.2295
 8193SOL    HW136215   1.042   2.403   6.148 -3.0042 -0.1897  0.2285
 8193SOL    HW236216   1.030   2.259   6.156 -3.7331  1.1273  0.6504
 8194SOL     OW36217   2.787   2.488   5.584 -0.3714  0.7442  0.4091
 8194SOL    HW136218   2.836   2.417   5.626  2.3991  1.2527 -1.9655
 8194SOL    HW236219   2.784   2.452   5.496 -1.0061  0.3121  0.6059
 8195SOL     OW36220   2.387   3.327   3.338 -0.1408 -0.2158 -0.3603
 8195SOL    HW136221   2.388   3.309   3.432 -0.8783 -0.5201 -0.4163
 8195SOL    HW236222   2.438   3.250   3.312 -0.6469 -0.4814 -0.5565
 8196SOL     OW36223   4.179   3.739   2.210 -0.2591 -0.7919 -0.1276
 8196SOL    HW136224   4.137   3.812   2.163  1.4010  0.5081  0.3973
 8196SOL    HW236225   4.242   3.785   2.265 -0.7279 -3.3687  2.5335
 8197SOL     OW36226   1.404   3.933  16.433  0.1985  0.4964  0.2346
 8197SOL    HW136227   1.399   3.904  16.524 -0.3793 -0.9699 -0.2615
 8197SOL    HW236228   1.498   3.933  16.417 -0.1107 -1.0938 -1.5130
 8198SOL     OW36229   0.405   2.247   6.848 -0.7272  0.1016  0.3542
 8198SOL    HW136230   0.497   2.223   6.836 -0.7305  1.8254 -3.1762
 8198SOL    HW236231   0.391   2.313   6.781 -2.3982 -1.1611 -0.5408
 8199SOL     OW36232   1.364   2.736   5.194 -0.2168  0.3199  0.1206
 8199SOL    HW136233   1.444   2.768   5.152 -0.2606  0.9768  0.5350
 8199SOL    HW236234   1.394   2.656   5.238  0.3833  0.3842 -0.1783
 8200SOL     OW36235   1.400   4.027   8.712 -0.6348  0.4493  0.1062
 8200SOL    HW136236   1.337   4.093   8.740 -2.1857 -0.8321 -0.3418
 8200SOL    HW236237   1.450   4.017   8.794  1.4683  1.5850 -1.0288
 8201SOL     OW36238   1.255   1.406  13.657  0.4231 -0.3624 -0.1706
 8201SOL    HW136239   1.178   1.376  13.610 -0.0354 -2.1881  1.7484
 8201SOL    HW236240   1.250   1.498  13.629  2.5733 -0.5188 -1.0179
 8202SOL     OW36241   4.087   3.023   0.899  0.0487  0.4816 -0.0368
 8202SOL    HW136242   4.023   3.009   0.969  1.1473  1.3663  1.1545
 8202SOL    HW236243   4.131   3.104   0.922  1.2481 -0.5373  1.2576
 8203SOL     OW36244   3.888   1.328   5.605 -0.1719 -0.1630 -0.6471
 8203SOL    HW136245   3.869   1.242   5.642 -2.3239 -0.0819 -1.5411
 8203SOL    HW236246   3.950   1.360   5.669 -1.6842 -1.0023  1.2473
 8204SOL     OW36247   4.383   3.449   9.160  0.0840 -0.1632  0.4902
 8204SOL    HW136248   4.399   3.499   9.080  0.5077  1.9810  1.9056
 8204SOL    HW236249   4.314   3.384   9.146 -1.5583  1.6461  0.1204
 8205SOL     OW36250   3.997   1.713  13.799 -0.3801  0.1181 -0.5217
 8205SOL    HW136251   3.924   1.753  13.751  0.0481  1.7979  0.2666
 8205SOL    HW236252   3.986   1.741  13.890  0.7005  0.5306 -0.5215
 8206SOL     OW36253   0.339   0.784  15.124 -0.3808 -0.1363  0.5105
 8206SOL    HW136254   0.317   0.795  15.217 -0.7784  0.7415  0.3078
 8206SOL    HW236255   0.263   0.732  15.095 -1.1579  0.2457  1.8542
 8207SOL     OW36256   0.152   4.613   7.040  0.6729  0.5799  0.1386
 8207SOL    HW136257   0.071   4.634   7.087  0.7371 -0.8279  0.8900
 8207SOL    HW236258   0.124   4.591   6.951  0.2616  1.4932  0.0444
 8208SOL     OW36259   2.652   4.253   7.306 -0.1868 -0.3585 -0.2943
 8208SOL    HW136260   2.693   4.270   7.222  0.9627  1.2852  0.6037
 8208SOL    HW236261   2.734   4.243   7.355 -1.3689  0.2913  1.8541
 8209SOL     OW36262   4.081   1.043   2.033  0.6553 -0.1075 -0.1221
 8209SOL    HW136263   4.067   1.119   1.977  0.9383 -0.3600 -0.5396
 8209SOL    HW236264   4.160   1.009   1.991  1.0928  0.8494 -0.0642
 8210SOL     OW36265   3.859   3.362   4.553 -0.6069 -0.0632 -0.3647
 8210SOL    HW136266   3.796   3.320   4.496  1.6569 -1.3562 -1.9139
 8210SOL    HW236267   3.914   3.410   4.491 -0.8830 -0.7157 -1.1126
 8211SOL     OW36268   0.550   3.037   8.865  0.1190 -0.1343 -0.2442
 8211SOL    HW136269   0.455   3.030   8.855  0.1557 -0.6983 -0.1910
 8211SOL    HW236270   0.548   3.042   8.960  0.8740  2.0085 -0.3554
 8212SOL     OW36271   2.464   2.658   3.592  0.1513  0.2172  0.0319
 8212SOL    HW136272   2.413   2.645   3.672 -0.5679  0.1850 -0.4313
 8212SOL    HW236273   2.423   2.587   3.542  0.6776  1.7921 -2.5981
 8213SOL     OW36274   1.705   3.558   1.785 -0.1368  0.1464  0.3310
 8213SOL    HW136275   1.633   3.579   1.844  0.1881  1.3149  0.3143
 8213SOL    HW236276   1.674   3.486   1.731 -0.1968 -0.6082  1.3735
 8214SOL     OW36277   3.098   3.021   7.215 -0.0321 -0.1273  0.1887
 8214SOL    HW136278   3.075   2.928   7.222 -2.1909  0.6188  2.9455
 8214SOL    HW236279   3.155   3.028   7.291  0.6740 -0.3428 -0.3152
 8215SOL     OW36280   2.801   1.343   8.987 -0.8281 -0.8715  0.0078
 8215SOL    HW136281   2.851   1.312   9.062 -0.5959  0.6659  0.4915
 8215SOL    HW236282   2.711   1.352   9.017 -0.2051 -0.2772  1.6687
 8216SOL     OW36283   1.019   3.254   3.659  0.0590  0.1892  0.0413
 8216SOL    HW136284   1.021   3.344   3.628 -3.9477  0.3935  0.3435
 8216SOL    HW236285   0.988   3.219   3.575  0.8231 -1.0623  0.2776
 8217SOL     OW36286   2.119   1.579   5.614  0.2473  0.1246  0.3495
 8217SOL    HW136287   2.156   1.599   5.700 -0.1974 -1.6813  0.9527
 8217SOL    HW236288   2.034   1.550   5.648  0.2705  0.3912  0.6315
 8218SOL     OW36289   2.230   0.700   8.789 -0.4521 -0.6483 -0.1684
 8218SOL    HW136290   2.141   0.708   8.755  0.1458 -0.0067 -1.5821
 8218SOL    HW236291   2.273   0.693   8.703  0.4711  0.4259  0.2064
 8219SOL     OW36292   1.752   2.499   8.769 -0.4727  0.3478 -0.5136
 8219SOL    HW136293   1.686   2.504   8.838 -0.1069 -2.9076  0.0389
 8219SOL    HW236294   1.699   2.465   8.698  0.6541 -0.8108 -0.7880
 8220SOL     OW36295   3.362   4.395  15.127  0.1393  0.2549 -0.3825
 8220SOL    HW136296   3.289   4.424  15.183  0.1498  0.2618 -0.3722
 8220SOL    HW236297   3.343   4.431  15.041 -1.8117 -0.3402 -0.1972
 8221SOL     OW36298   3.525   0.922   2.443  0.2046 -0.2896  0.3276
 8221SOL    HW136299   3.522   0.838   2.398 -2.2027 -0.4357  0.7777
 8221SOL    HW236300   3.507   0.973   2.364  1.9907  0.1649  0.1912
 8222SOL     OW36301   2.011   2.316   5.913  0.5158  0.5153  0.1902
 8222SOL    HW136302   1.930   2.361   5.934  1.4097  1.5154  1.4555
 8222SOL    HW236303   2.039   2.272   5.994 -0.7838  0.3344  0.5478
 8223SOL     OW36304   2.201   2.206   2.341 -0.2754 -0.0468  0.3387
 8223SOL    HW136305   2.203   2.294   2.305 -1.0757  0.9481  2.7141
 8223SOL    HW236306   2.191   2.215   2.436  1.0071 -0.8388  0.5490
 8224SOL     OW36307   0.926   1.131   8.795  0.1525  0.1098  0.1775
 8224SOL    HW136308   0.864   1.171   8.734 -1.6189 -0.7228  1.4205
 8224SOL    HW236309   0.956   1.216   8.828 -0.8204  0.1845  0.9145
 8225SOL     OW36310   0.340   2.949   6.246 -0.2282 -0.0740 -0.0413
 8225SOL    HW136311   0.265   2.924   6.193 -0.7069  2.0663 -0.3821
 8225SOL    HW236312   0.300   2.942   6.332 -0.1881  0.0402 -0.0133
 8226SOL     OW36313   1.668   1.561   5.361 -0.1255 -0.0368  0.2035
 8226SOL    HW136314   1.640   1.471   5.346 -2.8639  0.4078  2.5067
 8226SOL    HW236315   1.730   1.573   5.289  0.8989  3.1046  1.6202
 8227SOL     OW36316   4.086   4.649  14.630 -1.2963  0.1641 -0.3438
 8227SOL    HW136317   4.145   4.580  14.660 -2.6496  0.0610  2.0999
 8227SOL    HW236318   4.076   4.697  14.712  0.1974  0.7820 -0.5088
 8228SOL     OW36319   1.735   2.767   9.435  0.0512  0.1748  0.7749
 8228SOL    HW136320   1.672   2.832   9.466 -0.8107 -0.1163 -0.3887
 8228SOL    HW236321   1.812   2.818   9.411 -0.6456  0.9802  0.2379
 8229SOL     OW36322   0.574   1.182   5.340 -0.5031 -0.1511  0.0715
 8229SOL    HW136323   0.516   1.157   5.268 -0.1366 -2.5449  0.6031
 8229SOL    HW236324   0.553   1.273   5.363 -0.4963 -0.3535  0.8774
 8230SOL     OW36325   1.944   3.093   0.196  0.1742 -0.1554 -0.1348
 8230SOL    HW136326   1.964   3.176   0.152 -2.8824  1.3676  1.4065
 8230SOL    HW236327   1.965   3.115   0.286  0.9468 -0.3574 -0.2626
 8231SOL     OW36328   1.483   3.782  17.449  0.0145 -0.3784  0.3967
 8231SOL    HW136329   1.455   3.863  17.492  2.5434  0.2066  0.8850
 8231SOL    HW236330   1.452   3.717  17.513 -0.5156 -1.1886 -0.6677
 8232SOL     OW36331   2.649   0.244   8.853  0.1042 -0.7413 -0.2381
 8232SOL    HW136332   2.636   0.202   8.938 -0.6625  1.2615  0.6313
 8232SOL    HW236333   2.564   0.289   8.854  0.1288 -0.6864 -0.9815
 8233SOL     OW36334   0.628   3.181   7.461 -0.1527  0.5017  0.7946
 8233SOL    HW136335   0.533   3.181   7.472 -0.3958  0.8141 -1.2325
 8233SOL    HW236336   0.643   3.251   7.398  0.0796  0.1906  0.4994
 8234SOL     OW36337   3.000   0.779   0.534 -0.4078  0.4376 -0.1243
 8234SOL    HW136338   3.026   0.709   0.595 -0.8434  2.0093  1.8533
 8234SOL    HW236339   2.939   0.730   0.479 -1.0171 -1.6662  2.3771
 8235SOL     OW36340   3.259   4.532   7.196 -0.5027  0.1791  0.2454
 8235SOL    HW136341   3.317   4.463   7.165 -0.2703 -0.2769  1.7059
 8235SOL    HW236342   3.243   4.499   7.284  1.2215  2.1646  1.3020
 8236SOL     OW36343   3.364   4.443   3.620  0.6806 -0.5777 -0.2121
 8236SOL    HW136344   3.350   4.531   3.585  0.6184 -1.0547 -1.4020
 8236SOL    HW236345   3.455   4.451   3.650  1.0589 -1.6810 -1.0377
 8237SOL     OW36346   3.754   1.705   7.360 -0.6715 -0.5697 -0.1966
 8237SOL    HW136347   3.743   1.743   7.448 -1.3292 -0.1062 -0.4721
 8237SOL    HW236348   3.796   1.622   7.379 -0.8371 -0.5165  0.4074
 8238SOL     OW36349   1.924   1.921   4.163 -1.1148 -0.4321 -0.0954
 8238SOL    HW136350   1.846   1.894   4.211 -3.1827  0.5586 -2.9205
 8238SOL    HW236351   1.894   2.012   4.162  0.2469  0.0283  0.4555
 8239SOL     OW36352   3.818   3.421   8.697 -0.1934 -0.1038  0.7705
 8239SOL    HW136353   3.780   3.361   8.633  1.0742 -0.3097  0.2079
 8239SOL    HW236354   3.831   3.503   8.650 -2.6533 -0.1657 -0.0150
 8240SOL     OW36355   3.620   3.630   9.339  0.5570 -0.5004  0.1861
 8240SOL    HW136356   3.663   3.619   9.424  1.8901 -1.0006 -0.5540
 8240SOL    HW236357   3.579   3.544   9.328  0.1193 -0.2549 -0.1141
 8241SOL     OW36358   2.285   1.115   9.650  0.5556 -0.1063  0.3304
 8241SOL    HW136359   2.211   1.174   9.640  0.9257  0.0999 -1.2439
 8241SOL    HW236360   2.229   1.041   9.626 -0.6655  1.0347 -0.3119
 8242SOL     OW36361   0.768   3.562   1.535 -0.7568 -0.2589 -0.2304
 8242SOL    HW136362   0.852   3.556   1.580 -1.7499  1.2656  1.8494
 8242SOL    HW236363   0.767   3.481   1.485 -0.4023  0.1741 -0.9328
 8243SOL     OW36364   0.238   2.767   2.680  0.6695  0.5400 -0.0430
 8243SOL    HW136365   0.273   2.839   2.732 -0.0213 -0.3655  1.6633
 8243SOL    HW236366   0.194   2.819   2.613 -0.2068 -0.8604 -0.5574
 8244SOL     OW36367   1.740   2.749   9.857 -0.1451 -0.0194  0.6290
 8244SOL    HW136368   1.677   2.784   9.920  0.7172  2.7435 -0.0409
 8244SOL    HW236369   1.691   2.674   9.824  2.3641 -0.5661 -1.7547
 8245SOL     OW36370   0.053   1.520   3.597  0.2521  0.3289 -0.2064
 8245SOL    HW136371   4.712   1.544   3.545  0.8674 -3.2375 -2.7655
 8245SOL    HW236372   0.103   1.602   3.597  2.1545 -0.8321  0.4779
 8246SOL     OW36373   1.221   4.715   0.778 -0.3773  0.9916  0.2539
 8246SOL    HW136374   1.182   0.026   0.851 -1.5494  0.5393 -0.0903
 8246SOL    HW236375   1.254   0.052   0.727 -1.2424 -1.5744 -4.0162
 8247SOL     OW36376   4.446   0.093   7.937 -0.3188  0.3207 -0.6456
 8247SOL    HW136377   4.366   0.134   7.971 -1.3307  0.5031 -3.2134
 8247SOL    HW236378   4.490   0.078   8.020  1.5373 -1.0702 -1.8859
 8248SOL     OW36379   2.592   1.966   6.383  0.6646 -0.1468  0.4503
 8248SOL    HW136380   2.583   2.042   6.440 -0.1725  1.1534 -1.4099
 8248SOL    HW236381   2.663   1.979   6.321 -0.7953  0.7475 -1.0529
 8249SOL     OW36382   2.887   3.761   7.824 -0.2112  0.5390 -0.0768
 8249SOL    HW136383   2.829   3.783   7.897  1.5837  2.9209  0.6291
 8249SOL    HW236384   2.898   3.667   7.835  0.3983  0.8206  1.7734
 8250SOL     OW36385   0.635   0.420   5.224  0.5590  0.3245 -0.4845
 8250SOL    HW136386   0.703   0.393   5.162  2.6144 -0.4026  2.1028
 8250SOL    HW236387   0.661   0.509   5.249  2.4997  0.1021 -1.7285
 8251SOL     OW36388   4.109   0.029   4.209  0.0369 -0.3842 -0.6573
 8251SOL    HW136389   4.047   0.032   4.281  0.1538 -0.7117 -0.5437
 8251SOL    HW236390   4.123   4.671   4.198 -0.4749 -0.4090 -1.1060
 8252SOL     OW36391   3.259   1.071   8.557 -0.0097  0.1065  0.5180
 8252SOL    HW136392   3.213   1.122   8.491  1.0932  1.2989  0.6646
 8252SOL    HW236393   3.184   1.054   8.615  0.1391  0.8202  0.9242
 8253SOL     OW36394   0.938   4.063   3.995 -0.6111  0.2156 -0.4647
 8253SOL    HW136395   0.918   4.154   3.975 -1.5976 -0.0676 -0.8166
 8253SOL    HW236396   0.922   4.026   3.908 -1.0910  0.6387 -0.5581
 8254SOL     OW36397   0.529   2.289   9.235  0.0465 -0.2066 -0.1349
 8254SOL    HW136398   0.487   2.376   9.234 -1.2681 -0.8341  0.0563
 8254SOL    HW236399   0.541   2.258   9.324  1.1676 -1.1083 -0.5983
 8255SOL     OW36400   0.797   0.286   8.003 -0.4403 -0.0012 -1.6639
 8255SOL    HW136401   0.799   0.202   7.958  0.6280 -0.7794 -0.1542
 8255SOL    HW236402   0.708   0.284   8.039 -0.4833  2.2778 -1.6439
 8256SOL     OW36403   3.339   4.265   7.162  0.1127 -0.1881 -0.1216
 8256SOL    HW136404   3.435   4.262   7.167  0.0869 -1.1193 -0.2057
 8256SOL    HW236405   3.312   4.264   7.070 -0.8921  1.0858  0.1642
 8257SOL     OW36406   4.243   2.396   6.721 -0.2108 -0.0204 -0.2439
 8257SOL    HW136407   4.214   2.419   6.633 -2.8458 -1.7502  0.1578
 8257SOL    HW236408   4.328   2.359   6.701  0.3062 -0.3367  2.4930
 8258SOL     OW36409   0.868   2.580   6.196  0.4140 -0.3284  0.4296
 8258SOL    HW136410   0.931   2.631   6.249 -0.4459 -0.4789  1.5885
 8258SOL    HW236411   0.921   2.551   6.122 -0.7907  1.8996 -1.3013
 8259SOL     OW36412   0.685   2.376   1.280 -0.1312 -0.0039  0.2057
 8259SOL    HW136413   0.690   2.413   1.192  0.5043  1.2692  0.7851
 8259SOL    HW236414   0.778   2.355   1.289  0.1177  1.8809  1.9227
 8260SOL     OW36415   3.280   4.321   6.882  0.1040  0.4001  0.5771
 8260SOL    HW136416   3.304   4.413   6.869 -0.2546  0.5611  1.0642
 8260SOL    HW236417   3.364   4.289   6.850 -0.4047  0.9328 -1.2834
 8261SOL     OW36418   0.743   1.358   2.293  0.2228 -0.1580 -0.0556
 8261SOL    HW136419   0.795   1.382   2.216 -0.8192 -2.2709 -1.4438
 8261SOL    HW236420   0.798   1.286   2.322 -0.1890 -0.3632  0.2144
 8262SOL     OW36421   1.358   1.398  11.988 -0.0374  0.0844  0.2636
 8262SOL    HW136422   1.267   1.428  11.981  0.1718  0.8619  0.8839
 8262SOL    HW236423   1.404   1.463  11.935 -2.8530  0.9450 -1.1496
 8263SOL     OW36424   2.514   0.736   1.892  0.5541 -0.4785 -0.2217
 8263SOL    HW136425   2.548   0.779   1.814 -0.5494  0.4232 -0.2019
 8263SOL    HW236426   2.560   0.778   1.964  2.6950 -1.0074 -1.2793
 8264SOL     OW36427   1.704   3.885  12.321  0.0206 -0.0855  0.7009
 8264SOL    HW136428   1.701   3.928  12.406 -0.2294  0.8531  0.2256
 8264SOL    HW236429   1.792   3.849  12.317 -0.3804 -1.0872  1.0116
 8265SOL     OW36430   0.417   1.625   3.306 -1.0598  0.2349  0.1910
 8265SOL    HW136431   0.376   1.546   3.270  1.0944 -0.6023 -0.4367
 8265SOL    HW236432   0.507   1.592   3.301 -1.2259 -0.6526  3.0470
 8266SOL     OW36433   3.631   2.795  13.262 -0.6344  0.0498 -0.2588
 8266SOL    HW136434   3.672   2.777  13.177 -0.1018 -0.4070  0.0935
 8266SOL    HW236435   3.546   2.829  13.234 -0.8916 -2.1080 -2.1378
 8267SOL     OW36436   4.038   1.855  13.077  0.2604 -0.0777 -0.6958
 8267SOL    HW136437   4.029   1.849  13.173  0.3274 -2.8610 -0.8392
 8267SOL    HW236438   3.946   1.839  13.055  0.0522 -0.7536  0.6269
 8268SOL     OW36439   1.351   3.928  12.759  0.1766 -0.6645 -0.0212
 8268SOL    HW136440   1.306   4.012  12.770  0.1239 -1.0849  2.8167
 8268SOL    HW236441   1.412   3.927  12.833  0.9990  2.6995 -0.6349
 8269SOL     OW36442   0.853   4.234   1.944 -0.1658 -0.4638 -0.2578
 8269SOL    HW136443   0.913   4.307   1.929  0.8533 -1.5375 -1.3359
 8269SOL    HW236444   0.864   4.179   1.868 -2.2807  1.4965 -1.9850
 8270SOL     OW36445   0.401   3.789   4.022  0.5892  0.2855 -0.5091
 8270SOL    HW136446   0.351   3.709   4.042  2.3132  0.0164  2.7948
 8270SOL    HW236447   0.491   3.776   4.050  1.6001  1.7435 -3.1084
 8271SOL     OW36448   2.395   1.006   4.718 -0.4224 -0.3218  0.1800
 8271SOL    HW136449   2.353   0.948   4.782  2.3614 -0.8214  1.5897
 8271SOL    HW236450   2.470   0.956   4.686  0.5972  1.9739 -1.0000
 8272SOL     OW36451   3.116   1.908  17.615  0.5046 -0.9600 -0.0406
 8272SOL    HW136452   3.179   1.845  17.579 -2.2581 -1.7527 -3.4650
 8272SOL    HW236453   3.171   1.986  17.623 -2.1983  0.8382  1.0305
 8273SOL     OW36454   2.836   1.632   6.841  0.0471  0.1728 -0.3923
 8273SOL    HW136455   2.878   1.718   6.833 -1.6518  0.8092 -2.3480
 8273SOL    HW236456   2.892   1.583   6.781  0.3261  1.3051 -1.0644
 8274SOL     OW36457   0.817   3.666   3.212  0.7185  0.6171 -0.4210
 8274SOL    HW136458   0.781   3.653   3.299  0.8027  2.8796 -0.0546
 8274SOL    HW236459   0.735   3.672   3.163 -0.9114  0.5581  2.3187
 8275SOL     OW36460   2.972   4.287  15.904 -0.2767  0.1128 -0.2907
 8275SOL    HW136461   3.060   4.307  15.936 -0.6363  1.5880 -0.2201
 8275SOL    HW236462   2.918   4.294  15.982  0.6679 -2.1734  0.5750
 8276SOL     OW36463   0.074   2.037   8.737 -0.2716  0.7196  0.1440
 8276SOL    HW136464   0.046   1.962   8.684 -0.7223  0.8721  0.1688
 8276SOL    HW236465   0.167   2.013   8.742 -0.6643 -0.9369 -0.5165
 8277SOL     OW36466   4.487   2.413  16.205  0.3654  0.1572  0.1297
 8277SOL    HW136467   4.446   2.400  16.120  1.0505 -1.3816  0.0362
 8277SOL    HW236468   4.404   2.418  16.253 -0.0650 -1.8470 -0.4226
 8278SOL     OW36469   1.173   0.343  12.023  0.3173 -0.5897  0.5072
 8278SOL    HW136470   1.151   0.275  11.960  2.3027 -0.4341 -0.3681
 8278SOL    HW236471   1.113   0.333  12.097 -0.5440  0.5209 -0.0395
 8279SOL     OW36472   4.228   0.888   9.506 -0.0343  0.5175 -0.4272
 8279SOL    HW136473   4.183   0.807   9.530  1.8308 -0.8870 -1.5924
 8279SOL    HW236474   4.318   0.857   9.516  0.2343  1.6913  0.8112
 8280SOL     OW36475   1.660   3.856   3.227 -0.5878  0.3192 -0.1758
 8280SOL    HW136476   1.700   3.937   3.195  1.7683 -0.7100  0.2055
 8280SOL    HW236477   1.737   3.806   3.253 -0.2718  0.7800 -0.2332
 8281SOL     OW36478   3.483   0.336   1.741 -0.0185 -0.2596 -0.1481
 8281SOL    HW136479   3.509   0.404   1.678  0.2662  0.8387  1.1728
 8281SOL    HW236480   3.387   0.341   1.746 -0.0494  2.2639 -3.0243
 8282SOL     OW36481   2.863   2.290   9.232  0.5719 -0.6111 -0.3214
 8282SOL    HW136482   2.871   2.378   9.194  0.0024 -1.2386 -1.8802
 8282SOL    HW236483   2.815   2.239   9.167  2.3888 -0.3759 -1.8495
 8283SOL     OW36484   1.996   2.852   4.392  0.1639 -0.3313  0.5338
 8283SOL    HW136485   2.036   2.872   4.308  2.1069 -1.7970  1.1147
 8283SOL    HW236486   2.049   2.890   4.462 -1.0437 -1.1889  1.9320
 8284SOL     OW36487   1.236   3.452  17.049  0.1163  0.1824 -0.2973
 8284SOL    HW136488   1.150   3.452  17.006 -0.0868 -0.3474  0.1028
 8284SOL    HW236489   1.225   3.434  17.142 -0.8633 -0.2612 -0.5004
 8285SOL     OW36490   3.712   3.363   6.910 -0.6368  0.5513  0.7929
 8285SOL    HW136491   3.641   3.378   6.848  0.7970  2.9065 -0.2798
 8285SOL    HW236492   3.714   3.442   6.963  3.5299  3.4144 -3.6492
 8286SOL     OW36493   1.871   4.428   6.001  0.3132  0.6442  0.5513
 8286SOL    HW136494   1.813   4.425   5.925 -1.6304  2.3359  1.9877
 8286SOL    HW236495   1.821   4.372   6.060 -0.3214  0.7027  0.0598
 8287SOL     OW36496   1.362   4.369   7.733  0.1273 -0.3401  0.7171
 8287SOL    HW136497   1.395   4.371   7.643 -1.6117 -2.6617  0.0378
 8287SOL    HW236498   1.268   4.378   7.718  0.3530  1.4389  0.3921
 8288SOL     OW36499   4.064   3.680   6.985  0.2168 -0.8287 -0.0245
 8288SOL    HW136500   4.097   3.730   7.059 -0.8383  0.1241 -0.1876
 8288SOL    HW236501   4.090   3.590   7.007  0.2340 -0.1067  2.8608
 8289SOL     OW36502   1.275   4.455  14.742  0.0912  0.6004  0.4901
 8289SOL    HW136503   1.297   4.365  14.718  0.7540  1.6963 -3.0202
 8289SOL    HW236504   1.361   4.490  14.764 -0.7204  2.3567  0.8522
 8290SOL     OW36505   1.388   4.501   2.275 -0.2191 -0.1776  0.0917
 8290SOL    HW136506   1.301   4.539   2.284 -0.1940 -0.0183 -0.3240
 8290SOL    HW236507   1.388   4.467   2.365  0.9587 -1.1263 -0.2632
 8291SOL     OW36508   2.293   3.882   6.478 -0.4548  0.5162 -0.6711
 8291SOL    HW136509   2.261   3.793   6.486  0.7463 -0.2197 -3.8806
 8291SOL    HW236510   2.374   3.871   6.528 -2.4105 -2.3530  1.8406
 8292SOL     OW36511   1.865   1.242   3.871  0.4090 -0.6899 -0.0019
 8292SOL    HW136512   1.878   1.248   3.966  0.9224 -2.7241  0.0480
 8292SOL    HW236513   1.847   1.332   3.845 -3.7981 -1.4476  0.3029
 8293SOL     OW36514   4.462   3.059   8.876  0.3024  0.4605  0.6073
 8293SOL    HW136515   4.472   3.108   8.795  1.9084 -0.6698  0.1069
 8293SOL    HW236516   4.459   2.969   8.843 -0.8966  0.0039  2.0038
 8294SOL     OW36517   0.922   1.215   1.213  0.2594  0.0796  0.3104
 8294SOL    HW136518   0.998   1.266   1.239  0.3655 -0.4380  1.0110
 8294SOL    HW236519   0.920   1.150   1.283  0.4958  0.8016  0.9887
 8295SOL     OW36520   3.914   0.435   5.901  0.1365  0.4603 -0.0101
 8295SOL    HW136521   3.845   0.411   5.963  0.5054 -3.2048 -1.0224
 8295SOL    HW236522   3.881   0.370   5.840  0.6113  0.9871 -0.8251
 8296SOL     OW36523   2.424   0.304   1.312 -0.3567  0.6895 -0.2523
 8296SOL    HW136524   2.358   0.264   1.369  2.6195 -0.8696  2.1380
 8296SOL    HW236525   2.501   0.290   1.368 -1.0187  0.2870  0.5648
 8297SOL     OW36526   3.893   3.349   9.188 -0.0213 -0.5486 -0.0183
 8297SOL    HW136527   3.810   3.345   9.236 -0.6952 -1.8774 -1.3147
 8297SOL    HW236528   3.844   3.367   9.108 -1.4188  2.1889  1.4478
 8298SOL     OW36529   0.608   3.738   6.817  0.3726 -0.3994  0.1883
 8298SOL    HW136530   0.573   3.737   6.729  0.1376  2.0531  0.2428
 8298SOL    HW236531   0.537   3.704   6.872  0.0778 -0.1865 -0.0668
 8299SOL     OW36532   4.166   2.789  17.365  0.0836  0.6330 -0.4441
 8299SOL    HW136533   4.175   2.875  17.323 -0.9211  0.4210 -1.1097
 8299SOL    HW236534   4.201   2.740  17.290 -1.7905 -0.7416 -0.4402
 8300SOL     OW36535   1.226   3.624  12.950  0.3773  0.2473  0.2859
 8300SOL    HW136536   1.133   3.628  12.971  0.7552  2.2501  1.5947
 8300SOL    HW236537   1.212   3.555  12.886  2.0120 -0.9404  1.2158
 8301SOL     OW36538   4.323   3.144   1.534 -0.2600 -0.4015 -0.3644
 8301SOL    HW136539   4.293   3.146   1.443 -1.2117 -2.1354 -0.0998
 8301SOL    HW236540   4.389   3.075   1.530 -0.5353 -0.6816 -0.0132
 8302SOL     OW36541   1.586   2.869  10.059 -0.4251  0.2399  0.8092
 8302SOL    HW136542   1.553   2.796  10.112  1.9050 -0.2146  1.6395
 8302SOL    HW236543   1.515   2.932  10.071 -1.6743 -0.8475 -0.9760
 8303SOL     OW36544   3.130   1.212   6.699  0.1356  0.2777  0.7865
 8303SOL    HW136545   3.154   1.143   6.637 -0.9120 -1.4113  2.2337
 8303SOL    HW236546   3.213   1.255   6.720  0.4825  0.1189 -0.2733
 8304SOL     OW36547   2.720   2.207   9.474  0.4749  0.0378 -0.0787
 8304SOL    HW136548   2.792   2.231   9.416 -2.2064  1.3470 -2.8589
 8304SOL    HW236549   2.658   2.280   9.472  1.8306  1.1734 -0.1666
 8305SOL     OW36550   3.427   0.652  12.336  0.6882  0.2665 -0.3650
 8305SOL    HW136551   3.391   0.664  12.424  0.3627 -0.4031 -0.4110
 8305SOL    HW236552   3.475   0.734  12.326  1.7524 -0.2029  0.7430
 8306SOL     OW36553   2.167   0.258  12.372 -0.5215 -0.2469  0.2754
 8306SOL    HW136554   2.166   0.170  12.411 -0.5866 -0.8970 -1.2031
 8306SOL    HW236555   2.072   0.273  12.377 -0.6811 -0.7848 -1.0249
 8307SOL     OW36556   0.172   1.476   3.054 -0.2433 -0.0993 -0.0663
 8307SOL    HW136557   0.218   1.412   2.999  0.3935 -0.4366  0.8539
 8307SOL    HW236558   0.120   1.411   3.102  1.7157 -1.8160 -0.2326
 8308SOL     OW36559   2.730   4.164   6.721  0.1168 -0.0779  0.3599
 8308SOL    HW136560   2.663   4.203   6.665  1.4999  0.5731 -0.8376
 8308SOL    HW236561   2.797   4.233   6.719 -2.4664  2.3035 -3.4688
 8309SOL     OW36562   3.777   2.402   8.888 -0.0963  0.0022 -0.7587
 8309SOL    HW136563   3.693   2.355   8.890  1.0937 -2.1791 -2.6239
 8309SOL    HW236564   3.759   2.486   8.930  4.5196  0.5524  0.0385
 8310SOL     OW36565   4.527   1.921   4.906  0.4958  0.0256  0.3560
 8310SOL    HW136566   4.435   1.895   4.902  0.1743  0.8320  2.2610
 8310SOL    HW236567   4.550   1.928   4.813  2.4890  0.9803  0.9210
 8311SOL     OW36568   0.831   1.892   2.193  0.2619  0.4766 -0.4489
 8311SOL    HW136569   0.884   1.960   2.151  1.9917 -0.0085  0.9232
 8311SOL    HW236570   0.903   1.875   2.253  1.3398  1.7797 -1.3646
 8312SOL     OW36571   2.981   4.201  15.068 -0.7477  0.1494  0.0161
 8312SOL    HW136572   2.964   4.295  15.069  4.3156  1.0762 -1.0083
 8312SOL    HW236573   3.074   4.200  15.046 -0.4731  1.0290  1.1512
 8313SOL     OW36574   0.970   3.032   1.991 -0.1296  0.0576  0.0556
 8313SOL    HW136575   1.012   3.098   1.935  1.6393  0.5510  1.9467
 8313SOL    HW236576   0.918   2.981   1.928 -0.4211 -0.6555  0.8707
 8314SOL     OW36577   0.848   2.894   4.287  0.4427 -0.1336  0.2327
 8314SOL    HW136578   0.846   2.987   4.311 -0.0046 -0.4464  1.4136
 8314SOL    HW236579   0.833   2.902   4.193  2.1308 -1.8969 -0.1830
 8315SOL     OW36580   2.759   1.124   5.341  0.4487 -0.0130 -0.3890
 8315SOL    HW136581   2.847   1.115   5.306 -0.0103  0.3615 -1.6208
 8315SOL    HW236582   2.735   1.207   5.301 -2.4997  0.6323  2.6454
 8316SOL     OW36583   2.672   1.492   5.959  0.1056 -0.3683 -0.5670
 8316SOL    HW136584   2.608   1.541   5.908  1.6312  2.2683  0.0459
 8316SOL    HW236585   2.623   1.494   6.042  1.5365  1.8971  0.2097
 8317SOL     OW36586   0.859   2.401  14.959  0.4845 -0.1617 -0.0743
 8317SOL    HW136587   0.871   2.361  15.046 -3.3100 -0.0202  0.5021
 8317SOL    HW236588   0.838   2.491  14.983 -0.2084 -0.6162  1.0471
 8318SOL     OW36589   1.608   2.042  15.299  0.7694 -0.1178 -0.1027
 8318SOL    HW136590   1.694   2.069  15.332  1.0963 -0.1908 -0.9108
 8318SOL    HW236591   1.572   2.128  15.277 -0.0117 -0.4773 -0.2255
 8319SOL     OW36592   2.336   0.745   4.579 -0.0125  0.5124  0.6110
 8319SOL    HW136593   2.279   0.758   4.655 -1.8458 -0.1809 -0.6424
 8319SOL    HW236594   2.412   0.711   4.626  0.0629  0.6861  0.6147
 8320SOL     OW36595   3.200   3.790   2.275 -0.7994  0.2143 -0.2437
 8320SOL    HW136596   3.244   3.817   2.194  1.1685 -2.9941 -0.2268
 8320SOL    HW236597   3.229   3.855   2.339 -1.9108  2.0291 -1.5493
 8321SOL     OW36598   2.224   1.726  11.067 -0.3441  0.2128 -0.5193
 8321SOL    HW136599   2.195   1.636  11.054  0.5444 -0.0560 -0.6951
 8321SOL    HW236600   2.214   1.733  11.161 -3.4216  3.2002 -1.0643
 8322SOL     OW36601   2.519   3.737   7.406  0.1456 -0.8182 -0.0051
 8322SOL    HW136602   2.564   3.738   7.491 -1.6230  1.1446  0.9037
 8322SOL    HW236603   2.559   3.815   7.367  0.7448 -0.8005  0.6375
 8323SOL     OW36604   4.710   2.807  16.022  0.2193  0.5530 -0.3481
 8323SOL    HW136605   0.017   2.867  15.961  2.2591 -0.8817 -0.2963
 8323SOL    HW236606   4.703   2.722  15.980 -0.8176  1.0791 -1.2470
 8324SOL     OW36607   0.227   3.440   8.158  0.2477  0.1940 -0.2887
 8324SOL    HW136608   0.149   3.470   8.203  0.1320 -0.8512  0.1938
 8324SOL    HW236609   0.239   3.360   8.209  0.7796  1.2447  1.2375
 8325SOL     OW36610   2.232   1.169   2.741  0.3569 -0.5796  0.1823
 8325SOL    HW136611   2.306   1.197   2.688  1.8411 -2.7612  1.1194
 8325SOL    HW236612   2.214   1.249   2.790 -3.1258 -1.4514  0.3367
 8326SOL     OW36613   2.725   0.888   4.633 -0.3587  0.0927  0.1648
 8326SOL    HW136614   2.779   0.912   4.708 -0.7870 -2.5554  1.3154
 8326SOL    HW236615   2.757   0.800   4.613 -0.8835  0.3118 -1.6749
 8327SOL     OW36616   1.057   1.629   9.066 -0.1847 -0.0160  0.5838
 8327SOL    HW136617   0.975   1.678   9.069  0.0157  0.2688  1.7714
 8327SOL    HW236618   1.086   1.632   8.975  0.2071 -1.0315  0.6729
 8328SOL     OW36619   4.142   3.302   8.876  0.7343 -0.7239 -0.7476
 8328SOL    HW136620   4.173   3.235   8.937 -0.4652 -0.7920 -0.2285
 8328SOL    HW236621   4.097   3.253   8.807 -0.3482  0.7630 -1.0977
 8329SOL     OW36622   1.987   0.202   5.320  0.0038  0.9117 -0.0552
 8329SOL    HW136623   1.898   0.198   5.285  0.0155 -1.6451  0.2200
 8329SOL    HW236624   1.967   0.234   5.408  0.0648  1.1256 -0.1203
 8330SOL     OW36625   4.163   1.204  12.249 -0.3804  0.1964 -0.3304
 8330SOL    HW136626   4.237   1.253  12.216  1.3873 -0.1218  3.1743
 8330SOL    HW236627   4.194   1.169  12.332  2.4207  0.7168 -1.1562
 8331SOL     OW36628   3.043   0.275   8.270 -0.5449 -0.0614 -0.3799
 8331SOL    HW136629   3.064   0.325   8.348 -0.0916  0.2342 -0.6889
 8331SOL    HW236630   3.131   0.251   8.239 -0.8224 -3.4639  1.4460
 8332SOL     OW36631   2.870   0.745   8.483 -0.0402  0.3341  0.9990
 8332SOL    HW136632   2.895   0.700   8.402  0.6373  0.5943  1.0644
 8332SOL    HW236633   2.813   0.679   8.521  0.8804 -1.7334 -1.2029
 8333SOL     OW36634   2.498   3.468   5.029 -0.4558 -0.0010  0.7826
 8333SOL    HW136635   2.455   3.382   5.032  1.7374 -1.1579 -1.1150
 8333SOL    HW236636   2.423   3.527   5.041 -1.7130 -1.9528  2.5597
 8334SOL     OW36637   3.294   1.804   0.885 -0.1509 -0.0845 -0.1664
 8334SOL    HW136638   3.366   1.787   0.825 -0.3901  1.2107 -0.8154
 8334SOL    HW236639   3.286   1.898   0.873  2.0047  0.0483 -0.6369
 8335SOL     OW36640   3.652   3.503   8.387 -0.7546  0.2038 -0.2350
 8335SOL    HW136641   3.693   3.420   8.408  0.7318  0.8182 -0.7450
 8335SOL    HW236642   3.727   3.537   8.339 -0.9277  0.8740 -0.0353
 8336SOL     OW36643   0.200   3.567   5.522 -0.3379 -0.0744  0.0202
 8336SOL    HW136644   0.241   3.482   5.503  0.4631  0.2480  0.3168
 8336SOL    HW236645   0.143   3.548   5.597 -2.4911 -0.0085 -1.5746
 8337SOL     OW36646   0.972   0.007   8.254  0.0081  0.7022  0.1765
 8337SOL    HW136647   0.975   4.647   8.252 -0.4374  0.6879  0.1600
 8337SOL    HW236648   0.882   0.024   8.282 -0.6026  1.4347 -2.2918
 8338SOL     OW36649   0.816   3.221   3.883  0.6045  0.1084 -0.3593
 8338SOL    HW136650   0.887   3.199   3.823  0.3689  0.1873 -0.6662
 8338SOL    HW236651   0.739   3.224   3.826 -0.0571 -3.2726  0.3436
 8339SOL     OW36652   3.893   2.843  16.452 -0.4668 -0.0810  0.3630
 8339SOL    HW136653   3.943   2.923  16.469 -1.1865  0.4133  0.1318
 8339SOL    HW236654   3.851   2.825  16.536 -1.3008  1.0789  0.1882
 8340SOL     OW36655   4.576   0.084   6.840 -0.0707  0.0559  0.2905
 8340SOL    HW136656   4.509   0.153   6.846  1.1243  1.4330 -2.1960
 8340SOL    HW236657   4.540   0.036   6.914 -0.6489 -1.5926 -1.0597
 8341SOL     OW36658   3.758   2.743  15.077  0.4245  0.3404  0.1960
 8341SOL    HW136659   3.811   2.665  15.087 -0.7552 -0.1239  3.1067
 8341SOL    HW236660   3.674   2.701  15.096 -0.3100  2.5987  2.0231
 8342SOL     OW36661   3.566   0.472   5.066  0.4254 -0.3608 -0.0940
 8342SOL    HW136662   3.484   0.425   5.079  0.2129 -0.0959 -0.4880
 8342SOL    HW236663   3.575   0.473   4.971  1.4943 -4.4560 -0.0230
 8343SOL     OW36664   3.408   3.838  16.176 -0.2474  0.1860 -0.5305
 8343SOL    HW136665   3.375   3.799  16.095 -0.9597 -1.8439  0.7216
 8343SOL    HW236666   3.343   3.908  16.183  0.7895  0.8631  2.8010
 8344SOL     OW36667   1.223   0.663   4.532  0.0163 -0.3832 -0.4331
 8344SOL    HW136668   1.155   0.596   4.524 -0.1390 -0.2409 -0.2958
 8344SOL    HW236669   1.296   0.602   4.547 -0.3591 -0.6896  0.1522
 8345SOL     OW36670   1.515   1.827   5.811 -0.1298  0.2754  0.0196
 8345SOL    HW136671   1.477   1.868   5.733  1.4458 -0.0261 -0.9026
 8345SOL    HW236672   1.437   1.821   5.866 -1.1378 -1.9817 -1.6885
 8346SOL     OW36673   1.048   2.693   9.350  0.1476  0.4268  0.0022
 8346SOL    HW136674   1.052   2.786   9.324 -0.2931  0.2951 -0.5386
 8346SOL    HW236675   1.087   2.706   9.437  0.3561  0.2769 -0.0699
 8347SOL     OW36676   2.587   0.885   4.025 -0.1505  0.1720 -0.3288
 8347SOL    HW136677   2.569   0.874   4.119 -2.3968  2.5486 -0.4868
 8347SOL    HW236678   2.522   0.944   3.987 -1.5315 -1.9262 -1.2129
 8348SOL     OW36679   3.270   0.715  16.157 -0.0121 -0.3690 -0.2623
 8348SOL    HW136680   3.241   0.806  16.168  3.5404  0.8191 -0.6868
 8348SOL    HW236681   3.363   0.724  16.135 -0.2451  0.3358 -0.9686
 8349SOL     OW36682   1.745   3.871   8.129 -0.4192 -0.0984  0.3259
 8349SOL    HW136683   1.665   3.893   8.176 -0.3942  0.5413  0.0712
 8349SOL    HW236684   1.801   3.925   8.185 -0.3365 -0.9900  1.0944
 8350SOL     OW36685   1.428   4.305   9.796 -0.3176 -0.3957 -0.1057
 8350SOL    HW136686   1.495   4.372   9.787  0.0001 -0.6421  0.4058
 8350SOL    HW236687   1.430   4.268   9.708  0.2568  1.5484 -0.9044
 8351SOL     OW36688   2.873   1.081   0.276 -0.0437  0.2895  0.0267
 8351SOL    HW136689   2.936   1.018   0.241 -0.8584 -0.1038 -0.7310
 8351SOL    HW236690   2.862   1.053   0.367  0.8376 -0.3496 -0.0652
 8352SOL     OW36691   3.225   0.810   8.917  0.1992  1.1450  0.0145
 8352SOL    HW136692   3.247   0.901   8.938  0.5154  0.9512  0.4926
 8352SOL    HW236693   3.170   0.815   8.838 -3.7602  0.2699  2.7132
 8353SOL     OW36694   1.624   3.010   7.597  0.2220 -0.0901  0.1298
 8353SOL    HW136695   1.597   3.097   7.626 -2.7763 -1.1271  0.4972
 8353SOL    HW236696   1.538   2.967   7.596  0.9780 -1.5629 -1.2952
 8354SOL     OW36697   3.538   1.923   3.763 -0.0354 -0.0190  0.0403
 8354SOL    HW136698   3.546   1.910   3.858  0.5903 -1.4873 -0.2081
 8354SOL    HW236699   3.615   1.976   3.743 -1.2409  0.3866 -3.4633
 8355SOL     OW36700   2.986   4.145   5.167 -0.1795 -0.2795 -0.2449
 8355SOL    HW136701   3.008   4.114   5.079 -1.5859 -1.3144 -0.2484
 8355SOL    HW236702   2.895   4.117   5.178  0.0657 -1.6651 -1.6194
 8356SOL     OW36703   0.449   4.618   8.841 -0.1022 -0.0405  0.1623
 8356SOL    HW136704   0.512   4.649   8.776 -0.1168  2.0997  1.1782
 8356SOL    HW236705   0.426   4.530   8.810 -2.3236  0.3134  0.7790
 8357SOL     OW36706   4.722   2.117   0.492 -0.0147 -0.0122  0.3389
 8357SOL    HW136707   4.723   2.033   0.446  1.0012  0.5391 -0.6241
 8357SOL    HW236708   4.686   2.102   0.580 -1.9961  0.2241 -0.4361
 8358SOL     OW36709   3.884   1.280   9.081  0.6411  0.0905 -0.2515
 8358SOL    HW136710   3.834   1.276   9.162 -0.3561 -1.5816 -0.9290
 8358SOL    HW236711   3.861   1.369   9.055  1.8512 -0.2849 -2.6652
 8359SOL     OW36712   1.259   3.129   6.873 -0.2293 -0.0105 -0.5169
 8359SOL    HW136713   1.331   3.185   6.843  0.3423  0.1106  1.1158
 8359SOL    HW236714   1.210   3.114   6.792  1.9012 -1.6549 -1.5085
 8360SOL     OW36715   4.295   2.670   8.174 -0.2792 -0.0623  0.7578
 8360SOL    HW136716   4.313   2.593   8.229  2.5363 -1.2022 -1.7392
 8360SOL    HW236717   4.370   2.726   8.197 -0.9257  1.0830  0.0568
 8361SOL     OW36718   4.204   0.477   2.356  0.0909  0.2180  0.0945
 8361SOL    HW136719   4.138   0.539   2.325  0.6793  0.7817 -0.0301
 8361SOL    HW236720   4.228   0.434   2.274  1.9120  1.6250 -0.1076
 8362SOL     OW36721   4.071   0.528   9.261  0.1061 -0.4579  0.1688
 8362SOL    HW136722   4.065   0.513   9.167 -1.8303  1.6431 -0.0404
 8362SOL    HW236723   4.138   0.462   9.277 -1.8010 -2.9354 -2.1799
 8363SOL     OW36724   2.007   3.855   7.221 -0.8923 -0.0660  0.2402
 8363SOL    HW136725   2.086   3.880   7.174 -1.7780  1.7337 -0.2904
 8363SOL    HW236726   2.035   3.791   7.287  1.6246 -0.1200 -0.9100
 8364SOL     OW36727   3.266   1.660   2.439  0.1005  0.5754 -0.1247
 8364SOL    HW136728   3.292   1.727   2.377 -0.6940  1.8109  0.8758
 8364SOL    HW236729   3.301   1.581   2.397  0.6219  0.2715  0.8716
 8365SOL     OW36730   1.756   0.548   2.917  0.1800  0.7767 -0.2419
 8365SOL    HW136731   1.762   0.484   2.846 -2.3590  1.0064 -0.6708
 8365SOL    HW236732   1.838   0.595   2.904  0.4114  0.3749 -0.2490
 8366SOL     OW36733   4.674   1.466   1.130 -0.4091  0.0370 -0.8353
 8366SOL    HW136734   4.619   1.532   1.088 -1.5541 -0.8378 -0.7017
 8366SOL    HW236735   0.019   1.472   1.080 -0.0876 -1.4110 -0.5006
 8367SOL     OW36736   1.097   0.860  14.762 -0.9965  0.0868 -0.0887
 8367SOL    HW136737   1.161   0.912  14.809 -1.6104 -1.2513  2.2139
 8367SOL    HW236738   1.148   0.782  14.738  2.3324  2.0806  0.6031
 8368SOL     OW36739   4.206   0.196   2.642  0.2682 -0.2546  0.1915
 8368SOL    HW136740   4.177   0.124   2.699  0.8270  0.1884  1.0339
 8368SOL    HW236741   4.287   0.168   2.600 -1.3795 -2.3004 -1.6612
 8369SOL     OW36742   1.070   3.745   4.576 -0.4031 -0.6506 -0.0246
 8369SOL    HW136743   1.073   3.794   4.659 -2.1879  0.5895 -0.6829
 8369SOL    HW236744   1.089   3.658   4.612  1.8259 -0.4694 -0.8100
 8370SOL     OW36745   0.386   4.687   2.294 -0.2176  0.2279 -0.2336
 8370SOL    HW136746   0.441   0.018   2.335  0.0654  0.5260 -1.0909
 8370SOL    HW236747   0.455   4.627   2.263 -1.3234  0.4578 -3.0995
 8371SOL     OW36748   1.449   2.260   3.803 -0.1317 -0.1083  0.3669
 8371SOL    HW136749   1.510   2.333   3.795 -1.2234  1.2715  4.3231
 8371SOL    HW236750   1.401   2.283   3.883 -0.1250 -0.6653  0.5276
 8372SOL     OW36751   4.041   1.135   7.073  0.5670 -0.0006  0.1340
 8372SOL    HW136752   4.015   1.112   6.984  0.0869  2.2197 -0.3081
 8372SOL    HW236753   3.984   1.209   7.096 -1.9624 -1.6386 -0.9182
 8373SOL     OW36754   1.430   3.791  16.695 -0.2776  0.0725 -0.0110
 8373SOL    HW136755   1.510   3.755  16.656 -1.2060 -2.4775  0.4546
 8373SOL    HW236756   1.401   3.709  16.735  0.1020 -0.3750 -0.6548
 8374SOL     OW36757   2.283   0.939   3.393  0.4214  0.2904  0.0171
 8374SOL    HW136758   2.195   0.938   3.430  0.6476 -0.6312  0.5082
 8374SOL    HW236759   2.269   0.994   3.316  2.5447  4.7498  2.7872
 8375SOL     OW36760   0.186   1.006   3.053 -0.2077 -0.0651  0.4215
 8375SOL    HW136761   0.231   0.923   3.070  0.2311  0.5748  2.3386
 8375SOL    HW236762   0.119   0.977   2.991  0.4244  0.2005 -0.3977
 8376SOL     OW36763   1.010   3.703   5.437  0.2576  0.6522 -0.4100
 8376SOL    HW136764   1.013   3.782   5.384 -1.0943  2.8543  2.7607
 8376SOL    HW236765   0.923   3.671   5.416  0.8987  0.9972 -3.4651
 8377SOL     OW36766   0.964   2.471   3.755  0.1117  0.0842  0.6180
 8377SOL    HW136767   0.937   2.381   3.772  0.9968 -0.8433 -2.8684
 8377SOL    HW236768   0.887   2.527   3.770  0.8602  1.1752  0.3862
 8378SOL     OW36769   3.644   4.438   0.926 -0.4780 -0.4088 -1.0264
 8378SOL    HW136770   3.657   4.513   0.869 -1.3485  0.9178  0.5162
 8378SOL    HW236771   3.706   4.373   0.892 -0.6001  0.1567 -2.3084
 8379SOL     OW36772   3.817   2.714  12.432 -0.1842 -0.0551  0.2121
 8379SOL    HW136773   3.834   2.713  12.338 -0.5020 -1.8292  0.1741
 8379SOL    HW236774   3.897   2.692  12.480  0.3621  1.5984  0.0604
 8380SOL     OW36775   3.084   4.656   4.987 -0.0555 -0.0248  0.3105
 8380SOL    HW136776   3.051   4.685   4.902  3.0907  0.5924 -0.7023
 8380SOL    HW236777   3.116   4.568   4.966 -0.2944  0.5237 -2.3024
 8381SOL     OW36778   3.794   2.289   1.521  0.4624  0.2780  0.3882
 8381SOL    HW136779   3.729   2.348   1.560  1.6118  1.9151 -0.1723
 8381SOL    HW236780   3.779   2.215   1.580 -1.7661  1.7634  1.6823
 8382SOL     OW36781   3.123   1.258   6.987 -0.2236  0.1832  0.8208
 8382SOL    HW136782   3.131   1.296   6.899  0.8444  0.8184  1.1983
 8382SOL    HW236783   3.169   1.178   6.962 -0.9340 -0.0785  0.3504
 8383SOL     OW36784   3.668   0.576   1.256 -0.3870  0.1104  0.0649
 8383SOL    HW136785   3.648   0.488   1.287  2.1458  0.6794  3.3320
 8383SOL    HW236786   3.762   0.577   1.275 -0.0791 -0.7939 -1.4770
 8384SOL     OW36787   4.721   0.375   7.993 -0.1573 -0.2316 -0.4445
 8384SOL    HW136788   4.655   0.391   8.061  0.1004 -0.0083 -0.2477
 8384SOL    HW236789   0.021   0.297   8.035 -1.5066 -0.9295 -0.5555
 8385SOL     OW36790   3.345   0.997  15.446  0.1641  0.0180 -0.2128
 8385SOL    HW136791   3.384   1.052  15.513  1.1479 -2.2957  1.1125
 8385SOL    HW236792   3.279   1.057  15.412 -1.6606 -0.1117  3.1656
 8386SOL     OW36793   4.082   1.565   4.842 -0.3785  0.0171 -0.0615
 8386SOL    HW136794   4.113   1.542   4.930  0.4636  1.4680  0.0413
 8386SOL    HW236795   4.114   1.492   4.789  1.7149  0.2818  0.8398
 8387SOL     OW36796   1.348   2.573   1.496 -0.3368 -0.0373 -0.4503
 8387SOL    HW136797   1.399   2.589   1.576  0.0813  0.7976 -0.8858
 8387SOL    HW236798   1.344   2.663   1.466  2.4314  0.5696  1.0137
 8388SOL     OW36799   0.885   1.166   7.589 -0.3688  0.3891 -0.6835
 8388SOL    HW136800   0.961   1.211   7.551 -0.7682  0.5475 -1.2821
 8388SOL    HW236801   0.929   1.129   7.666 -2.5010 -1.0347 -0.1455
 8389SOL     OW36802   4.350   3.216   5.773 -0.0368  0.3471 -0.4184
 8389SOL    HW136803   4.438   3.232   5.738 -0.4631  0.6053 -1.3875
 8389SOL    HW236804   4.294   3.249   5.703  0.3542  1.0374 -0.4037
 8390SOL     OW36805   0.095   4.630   7.784  0.0055  0.3133  0.4667
 8390SOL    HW136806   0.015   4.580   7.771  0.0953  0.0439  0.9563
 8390SOL    HW236807   0.157   4.558   7.778 -0.2675  0.1836 -0.6585
 8391SOL     OW36808   0.520   4.224   0.368  0.1179 -0.0512 -0.1322
 8391SOL    HW136809   0.480   4.193   0.287  1.8077  0.2379 -1.0827
 8391SOL    HW236810   0.440   4.218   0.419  1.1288  0.6254  1.5216
 8392SOL     OW36811   0.129   0.883  12.182 -0.5688  0.0805 -0.3811
 8392SOL    HW136812   0.204   0.901  12.125  0.3838 -1.4433  0.3716
 8392SOL    HW236813   0.167   0.822  12.246  0.1485  0.7708 -0.1534
 8393SOL     OW36814   3.726   3.626   7.015 -0.0405  0.4492  0.2606
 8393SOL    HW136815   3.695   3.716   7.011  0.8994  0.7986  1.1258
 8393SOL    HW236816   3.779   3.625   7.094 -1.2218  0.3462  1.0447
 8394SOL     OW36817   3.124   2.353   6.240  0.6918 -0.2128 -0.0978
 8394SOL    HW136818   3.067   2.312   6.305 -0.5224  2.1704  0.3360
 8394SOL    HW236819   3.062   2.416   6.205  4.3186  1.3327 -3.7040
 8395SOL     OW36820   2.171   1.321   1.242 -0.0140 -0.6187  0.1624
 8395SOL    HW136821   2.113   1.245   1.245  0.7402 -1.3272 -3.0952
 8395SOL    HW236822   2.204   1.309   1.153 -2.3229 -0.5607 -0.6986
 8396SOL     OW36823   2.927   3.974  14.214  0.4487  0.0989 -0.6584
 8396SOL    HW136824   2.903   4.035  14.144 -2.5555 -0.2679  0.0297
 8396SOL    HW236825   2.976   4.039  14.264  2.5279 -1.2936 -0.9033
 8397SOL     OW36826   4.650   3.560   3.725 -0.0169  0.2462 -0.8680
 8397SOL    HW136827   4.736   3.559   3.681 -0.3979 -1.1110 -1.5966
 8397SOL    HW236828   4.623   3.651   3.719  1.1225  0.6999  0.8867
 8398SOL     OW36829   4.307   1.199  17.337  1.2509  0.6260 -0.0221
 8398SOL    HW136830   4.329   1.106  17.327 -2.0338 -0.0043 -1.3233
 8398SOL    HW236831   4.258   1.209  17.419  1.9823 -0.6195  0.5684
 8399SOL     OW36832   1.843   4.342   6.473  0.2935  0.5674  0.3870
 8399SOL    HW136833   1.939   4.343   6.479  0.3707  1.7321 -0.9671
 8399SOL    HW236834   1.826   4.266   6.417  0.9621  1.4427 -1.0081
 8400SOL     OW36835   0.222   0.064   4.547  0.0030  0.2472  0.1035
 8400SOL    HW136836   0.241   0.030   4.634 -2.1568  1.0077  0.8602
 8400SOL    HW236837   0.137   0.105   4.560 -0.8770 -1.0228 -1.5580
 8401SOL     OW36838   2.981   1.955   9.424  0.0192  0.2752  0.0273
 8401SOL    HW136839   3.028   1.984   9.345  1.1981 -2.6496 -0.3664
 8401SOL    HW236840   3.057   1.973   9.480 -0.5890  0.1843  0.8697
 8402SOL     OW36841   3.579   1.147   5.956  0.1996  0.4185 -0.6433
 8402SOL    HW136842   3.655   1.092   5.974  0.7972  2.2539  2.3224
 8402SOL    HW236843   3.520   1.085   5.999  0.4260  0.2155 -0.6288
 8403SOL     OW36844   4.077   1.923   1.419 -0.1719 -0.2049 -0.0419
 8403SOL    HW136845   4.008   1.882   1.471 -0.8513 -1.2471 -1.8142
 8403SOL    HW236846   4.118   1.994   1.469  0.0886 -1.1169  1.0313
 8404SOL     OW36847   1.022   0.664   4.178 -0.3367 -0.1190 -0.4040
 8404SOL    HW136848   0.988   0.672   4.088 -0.2653  0.4068 -0.3836
 8404SOL    HW236849   1.104   0.616   4.164 -0.7399 -1.3171  1.4018
 8405SOL     OW36850   2.166   4.218   9.456 -0.3409  0.3332 -0.2002
 8405SOL    HW136851   2.074   4.227   9.430 -0.4659  2.3669  0.9028
 8405SOL    HW236852   2.203   4.289   9.404 -0.8065  0.4464 -0.3732
 8406SOL     OW36853   2.605   4.257   7.692  0.3601  0.3091 -0.1741
 8406SOL    HW136854   2.618   4.349   7.668  0.4324  0.0056 -1.3204
 8406SOL    HW236855   2.677   4.239   7.753 -0.1352  1.6177  0.7843
 8407SOL     OW36856   4.523   0.223   3.872  0.2966 -0.3166  0.8587
 8407SOL    HW136857   4.455   0.274   3.916 -1.1741 -0.9854 -0.5891
 8407SOL    HW236858   4.478   0.173   3.803 -2.0052  0.6190  1.6765
 8408SOL     OW36859   4.177   0.242   9.066  0.6230  0.3614 -0.2790
 8408SOL    HW136860   4.092   0.207   9.038  1.5848 -0.0792 -2.6337
 8408SOL    HW236861   4.224   0.165   9.097  2.1638  1.3385 -0.1805
 8409SOL     OW36862   1.483   3.138   5.460 -0.4818  0.3863  0.0994
 8409SOL    HW136863   1.575   3.152   5.483 -0.6845  0.6276  0.7679
 8409SOL    HW236864   1.437   3.202   5.514  1.5912  4.1117 -2.5826
 8410SOL     OW36865   3.528   3.409   5.804  0.0078 -0.4996 -0.1280
 8410SOL    HW136866   3.482   3.485   5.767 -0.5193 -1.3392 -1.1994
 8410SOL    HW236867   3.498   3.400   5.895 -2.8494 -2.4379 -1.2804
 8411SOL     OW36868   0.696   1.406  15.774 -0.3311 -1.0067 -0.1955
 8411SOL    HW136869   0.676   1.317  15.802 -2.7952 -0.6866 -0.9760
 8411SOL    HW236870   0.619   1.422  15.719 -1.0092  0.2388  1.0900
 8412SOL     OW36871   0.432   1.004  11.121  0.0898  0.1890  0.1209
 8412SOL    HW136872   0.418   0.912  11.099 -0.1583  0.2428  0.0524
 8412SOL    HW236873   0.503   1.030  11.062  0.0888 -3.0808 -1.3211
 8413SOL     OW36874   2.863   4.586   7.796 -0.0852 -0.3177  0.1976
 8413SOL    HW136875   2.933   4.526   7.821  0.2435  0.5824  1.4205
 8413SOL    HW236876   2.871   4.643   7.873 -1.5739  1.9797 -1.3372
 8414SOL     OW36877   0.618   3.988   8.684  0.7763  0.2132  0.4872
 8414SOL    HW136878   0.644   3.926   8.752 -1.8059 -0.9487  0.4404
 8414SOL    HW236879   0.704   4.000   8.645 -0.5200  0.7878 -2.2009
 8415SOL     OW36880   4.654   4.342   9.075  0.3091 -0.1887  0.5959
 8415SOL    HW136881   4.692   4.301   9.153  0.9700  0.5505  0.6614
 8415SOL    HW236882   4.724   4.324   9.012  0.2392 -0.1226  0.4997
 8416SOL     OW36883   2.665   0.582   6.292 -0.5577  0.1013 -0.3391
 8416SOL    HW136884   2.688   0.543   6.376 -1.8043 -1.4003 -0.6932
 8416SOL    HW236885   2.578   0.547   6.273 -0.6176  0.5480 -0.8938
 8417SOL     OW36886   3.939   4.297   1.708 -0.1582 -0.0856  0.7881
 8417SOL    HW136887   3.986   4.286   1.625  3.9892  0.2684  3.0443
 8417SOL    HW236888   4.014   4.294   1.768  2.0657 -2.2515 -2.0757
 8418SOL     OW36889   4.650   3.278   0.468 -0.1994  0.4124 -0.4740
 8418SOL    HW136890   4.689   3.364   0.484  3.0952 -0.7808 -1.8877
 8418SOL    HW236891   4.589   3.301   0.398  0.3325  0.1165 -1.0360
 8419SOL     OW36892   1.705   3.982   4.877  0.4661 -0.2875 -0.6031
 8419SOL    HW136893   1.701   4.022   4.790 -0.7134  0.0669 -0.3778
 8419SOL    HW236894   1.728   3.893   4.850  1.5674 -0.0450 -0.4721
 8420SOL     OW36895   1.049   4.463   8.287  0.4286 -0.5306  0.1812
 8420SOL    HW136896   1.109   4.455   8.362 -0.3452 -2.1480  0.6262
 8420SOL    HW236897   1.103   4.466   8.208  2.0820  1.1859  1.3467
 8421SOL     OW36898   0.186   2.637   6.529 -0.3814 -0.8706 -0.4333
 8421SOL    HW136899   0.206   2.727   6.506 -0.6461 -0.4585  0.9503
 8421SOL    HW236900   0.233   2.594   6.458 -3.5759  0.3506 -3.2794
 8422SOL     OW36901   0.270   3.272   2.896  0.3000  0.6219  0.0195
 8422SOL    HW136902   0.265   3.313   2.982 -1.1101 -0.0322  0.2362
 8422SOL    HW236903   0.346   3.313   2.854  0.0763  0.5424 -0.4618
 8423SOL     OW36904   2.535   4.234   8.728  0.2353  0.0002 -0.2259
 8423SOL    HW136905   2.516   4.243   8.635 -0.0594  0.8589 -0.0796
 8423SOL    HW236906   2.502   4.144   8.738 -1.3327  0.5338 -0.6798
 8424SOL     OW36907   3.697   1.072   7.315 -0.1754 -0.0175  0.0233
 8424SOL    HW136908   3.704   0.977   7.303 -3.1764 -0.3580  0.9836
 8424SOL    HW236909   3.641   1.096   7.241 -0.0522  0.2300  0.0115
 8425SOL     OW36910   4.497   4.569  17.024 -0.0428 -0.1247 -0.4205
 8425SOL    HW136911   4.501   4.532  16.936  0.3844  1.5517 -1.0936
 8425SOL    HW236912   4.432   4.638  17.014 -2.5641 -2.7393 -2.3612
 8426SOL     OW36913   0.612   4.723  12.212  0.4206 -0.4052 -0.0305
 8426SOL    HW136914   0.632   4.682  12.128 -0.0986  0.7450 -0.7184
 8426SOL    HW236915   0.516   4.723  12.212  0.4223  0.9959  1.0849
 8427SOL     OW36916   2.151   2.751  14.986 -0.2290  0.2604 -0.0435
 8427SOL    HW136917   2.208   2.817  15.026  1.3709  0.3240 -2.4375
 8427SOL    HW236918   2.208   2.678  14.962 -0.4844 -0.0720  0.3502
 8428SOL     OW36919   0.038   3.502   5.299  0.4219  0.7015  0.0592
 8428SOL    HW136920   0.099   3.533   5.366  1.4012  1.0712 -0.9980
 8428SOL    HW236921   0.090   3.516   5.220 -1.0618 -0.8639 -1.1873
 8429SOL     OW36922   2.870   2.282   8.024 -0.0570 -0.5361 -0.6490
 8429SOL    HW136923   2.805   2.227   7.981 -1.4447  0.7902 -0.2253
 8429SOL    HW236924   2.844   2.274   8.116 -1.9964  1.1069 -1.0585
 8430SOL     OW36925   3.743   0.899  12.623  0.0975 -0.0738 -0.4204
 8430SOL    HW136926   3.810   0.898  12.691  0.0428 -1.3715 -0.3733
 8430SOL    HW236927   3.789   0.933  12.547  1.4749 -0.4560  0.2399
 8431SOL     OW36928   0.231   1.586   6.403  0.3115 -0.0054 -0.2232
 8431SOL    HW136929   0.294   1.557   6.337  0.0749 -2.3148  0.5737
 8431SOL    HW236930   0.294   1.619   6.467 -0.4026 -0.1493  0.5451
 8432SOL     OW36931   1.176   4.697  15.776 -0.1558 -0.5873  0.1792
 8432SOL    HW136932   1.138   4.615  15.807 -0.3296 -0.9684 -1.0303
 8432SOL    HW236933   1.100   0.012  15.748 -0.2828 -0.2087  1.1992
 8433SOL     OW36934   1.058   0.637  11.139  0.3362 -0.1281  0.0061
 8433SOL    HW136935   1.117   0.708  11.163  0.3558 -0.9525  2.3454
 8433SOL    HW236936   0.971   0.655  11.175 -0.2859 -3.9962  0.4262
 8434SOL     OW36937   0.956   3.753   9.260 -0.5818  0.7720  0.5833
 8434SOL    HW136938   0.904   3.740   9.340 -3.4839  0.1135 -1.3955
 8434SOL    HW236939   0.914   3.690   9.202  0.7160  0.5234 -0.0739
 8435SOL     OW36940   2.105   0.693   3.133  0.6444  0.1202  0.1988
 8435SOL    HW136941   2.169   0.707   3.063  0.5241 -0.4341 -0.0231
 8435SOL    HW236942   2.094   0.598   3.136  0.8695  0.1921  2.8793
 8436SOL     OW36943   4.702   2.021   3.036 -0.1619 -0.0698 -0.0013
 8436SOL    HW136944   4.714   2.116   3.037 -0.0840 -0.0672 -0.9619
 8436SOL    HW236945   4.708   2.013   2.941 -2.4249  1.9966 -0.3226
 8437SOL     OW36946   4.162   3.148   5.969 -0.5437  0.1671 -0.3963
 8437SOL    HW136947   4.107   3.225   5.953  0.7713  0.8102 -1.8819
 8437SOL    HW236948   4.232   3.169   5.907  0.1083 -0.6560  0.0789
 8438SOL     OW36949   3.289   0.570   4.105 -0.0113 -0.0483 -1.1573
 8438SOL    HW136950   3.195   0.554   4.100 -0.1498  1.3788 -3.4406
 8438SOL    HW236951   3.325   0.482   4.091 -0.1931 -0.0548 -1.6066
 8439SOL     OW36952   0.113   3.871  12.754 -0.3052  0.0291  0.2792
 8439SOL    HW136953   0.084   3.882  12.845 -1.1054  3.0237 -0.3336
 8439SOL    HW236954   0.147   3.784  12.775  0.8943 -0.3313 -3.3053
 8440SOL     OW36955   0.017   0.798   1.077 -0.3861  0.4862  0.7082
 8440SOL    HW136956   0.057   0.810   0.992 -1.1273 -0.7416  0.1881
 8440SOL    HW236957   0.033   0.706   1.097 -1.6766  0.1449  0.1539
 8441SOL     OW36958   2.503   2.238   6.837  0.5776 -0.5013  0.7404
 8441SOL    HW136959   2.452   2.212   6.914 -0.6498  0.5314  0.2908
 8441SOL    HW236960   2.595   2.230   6.861  0.8351  0.1032 -0.0392
 8442SOL     OW36961   1.776   3.537   2.995 -0.1359  0.1576  0.0786
 8442SOL    HW136962   1.729   3.454   2.985 -2.5574  1.4150  0.8226
 8442SOL    HW236963   1.851   3.507   2.944  0.3370  1.4301  0.0242
 8443SOL     OW36964   2.706   0.824   7.918  0.3607  0.6186 -0.1537
 8443SOL    HW136965   2.759   0.744   7.922  0.0419  0.3848 -0.6313
 8443SOL    HW236966   2.762   0.886   7.964  0.4238  0.2522  0.2558
 8444SOL     OW36967   0.245   3.222  10.867 -0.4158  0.0525  0.3883
 8444SOL    HW136968   0.289   3.281  10.928  0.9845 -0.0175 -0.5419
 8444SOL    HW236969   0.152   3.243  10.877 -0.1758  0.1242  2.4661
 8445SOL     OW36970   0.694   1.711   1.604  0.0721 -0.0428  0.2529
 8445SOL    HW136971   0.695   1.664   1.688  1.4475  0.1162  0.3311
 8445SOL    HW236972   0.740   1.644   1.555  0.2997  1.2256 -1.2621
 8446SOL     OW36973   4.548   3.216  15.957  0.4998 -0.4450  0.4852
 8446SOL    HW136974   4.565   3.128  15.991 -0.3848 -0.7351  0.1712
 8446SOL    HW236975   4.468   3.239  16.004 -0.8353 -1.9755 -1.0760
 8447SOL     OW36976   0.285   3.848  14.657 -0.4572 -0.1470 -0.4609
 8447SOL    HW136977   0.257   3.768  14.702 -1.0218 -0.9159 -2.2031
 8447SOL    HW236978   0.311   3.816  14.571  0.5492  0.5764 -0.4218
 8448SOL     OW36979   1.912   3.312   3.495 -0.1809  0.0194  0.1280
 8448SOL    HW136980   1.827   3.356   3.495  1.4518  3.1702  0.8389
 8448SOL    HW236981   1.929   3.309   3.401  0.6243 -0.3061  0.2872
 8449SOL     OW36982   4.039   0.502   0.984  0.0410  0.0043 -0.0102
 8449SOL    HW136983   4.053   0.592   0.954 -2.4938 -0.4033 -2.4573
 8449SOL    HW236984   4.105   0.466   0.925 -0.6409 -1.8625  0.3666
 8450SOL     OW36985   2.495   2.160   2.390 -0.2985  0.0976  1.0396
 8450SOL    HW136986   2.430   2.208   2.441 -2.4283 -0.8744 -0.7798
 8450SOL    HW236987   2.457   2.072   2.397  1.5256 -0.8282 -0.4929
 8451SOL     OW36988   2.934   0.780   7.669  0.1494  0.0290  1.0985
 8451SOL    HW136989   3.024   0.755   7.648 -0.5543 -0.3109 -1.5224
 8451SOL    HW236990   2.936   0.753   7.761  1.9303  0.2563  1.1309
 8452SOL     OW36991   0.463   2.432   5.949 -0.2844 -0.2532  0.0277
 8452SOL    HW136992   0.519   2.476   6.014 -0.2295  0.4396 -0.4882
 8452SOL    HW236993   0.380   2.423   5.996  0.1884  0.9535  1.1088
 8453SOL     OW36994   0.844   4.001   8.971 -0.1162  0.2611  0.0648
 8453SOL    HW136995   0.874   4.049   9.048 -2.4195 -0.4182  1.3923
 8453SOL    HW236996   0.885   3.915   8.979 -0.9678 -0.1271  0.3170
 8454SOL     OW36997   1.787   0.707   9.741  0.5325 -0.0960  0.0652
 8454SOL    HW136998   1.827   0.788   9.710 -1.5637  1.0686  0.4385
 8454SOL    HW236999   1.752   0.734   9.826  0.8302 -0.6821  0.3711
 8455SOL     OW37000   2.039   4.306   7.421  0.0261  0.6122  0.0525
 8455SOL    HW137001   1.985   4.300   7.500 -2.3521  1.9496 -1.4733
 8455SOL    HW237002   2.115   4.255   7.448 -1.1042  0.0974  2.2447
 8456SOL     OW37003   3.550   0.643  16.157 -0.1565  0.0915 -0.6666
 8456SOL    HW137004   3.617   0.609  16.098  1.2678  1.4208  0.1597
 8456SOL    HW237005   3.593   0.632  16.242 -0.2487  1.3075 -0.4569
 8457SOL     OW37006   1.699   3.366   4.268  0.0018  0.1399  0.2784
 8457SOL    HW137007   1.738   3.281   4.287 -0.2263  0.1678  0.8731
 8457SOL    HW237008   1.611   3.349   4.236  0.0934  0.1734  0.0102
 8458SOL     OW37009   1.076   2.478  11.021  0.2777  0.0670 -0.8845
 8458SOL    HW137010   1.039   2.548  11.076  0.4182  0.0385 -0.7547
 8458SOL    HW237011   1.123   2.418  11.079 -2.5589  0.0878  1.4454
 8459SOL     OW37012   1.304   0.584   7.008  0.5005  0.0428  0.2127
 8459SOL    HW137013   1.325   0.656   6.950 -2.3568  0.3136 -0.4943
 8459SOL    HW237014   1.390   0.541   7.006  0.2728 -0.3977 -0.1565
 8460SOL     OW37015   2.989   3.911  13.816 -0.6223 -0.4090  0.2292
 8460SOL    HW137016   2.968   3.831  13.864 -3.6634  0.1536 -0.1954
 8460SOL    HW237017   2.926   3.914  13.744  0.4334  0.8391 -0.6417
 8461SOL     OW37018   0.643   0.272   4.829 -0.0958 -0.6100 -0.4349
 8461SOL    HW137019   0.577   0.294   4.763  0.7141  1.9923 -0.3854
 8461SOL    HW237020   0.632   0.178   4.818  1.0084 -0.9851  1.6604
 8462SOL     OW37021   4.330   4.263  10.497  0.4190 -0.2858 -0.5277
 8462SOL    HW137022   4.259   4.225  10.446  0.1776 -1.3313  0.5894
 8462SOL    HW237023   4.276   4.300  10.567 -0.5029  0.1987 -1.4945
 8463SOL     OW37024   1.767   3.944   0.367  0.4095  0.2276 -0.1242
 8463SOL    HW137025   1.696   4.004   0.390 -1.5390 -2.4746  0.9204
 8463SOL    HW237026   1.817   3.981   0.294 -1.0076 -1.6298 -2.0529
 8464SOL     OW37027   3.737   3.951   4.990 -0.2950 -0.0373 -0.1700
 8464SOL    HW137028   3.756   3.903   5.070  0.9415 -0.9816 -1.0260
 8464SOL    HW237029   3.797   3.915   4.925 -0.8928  0.6075 -1.0851
 8465SOL     OW37030   3.519   2.544  15.362  0.5685 -0.7504 -0.7530
 8465SOL    HW137031   3.446   2.605  15.349 -0.7354 -2.4207 -1.2241
 8465SOL    HW237032   3.559   2.548  15.275  0.3958 -2.2986 -0.9039
 8466SOL     OW37033   3.653   1.829   1.613 -0.0180  0.2516 -0.2142
 8466SOL    HW137034   3.588   1.758   1.609  0.3625 -0.1970  1.1920
 8466SOL    HW237035   3.727   1.797   1.561 -1.4759 -0.1807 -1.9922
 8467SOL     OW37036   3.502   1.585  10.079 -0.2486 -0.2177 -0.6965
 8467SOL    HW137037   3.471   1.499  10.050 -3.3048  2.0392 -4.2110
 8467SOL    HW237038   3.491   1.558  10.170 -1.7636  2.2069 -0.1676
 8468SOL     OW37039   1.119   4.044  16.960 -0.2124 -0.1335  0.4627
 8468SOL    HW137040   1.073   3.992  17.026  0.3413 -1.0434  0.1328
 8468SOL    HW237041   1.100   4.004  16.874 -1.0337  2.8900 -0.7554
 8469SOL     OW37042   3.438   1.634   6.655 -0.5109  0.2027  0.3245
 8469SOL    HW137043   3.387   1.554   6.644 -0.5779  0.2971 -0.0521
 8469SOL    HW237044   3.415   1.670   6.570  1.1270 -1.5543 -0.8506
 8470SOL     OW37045   1.806   1.046   7.302  0.3801  0.5473 -0.7599
 8470SOL    HW137046   1.711   1.050   7.289  0.4417 -1.8020 -1.9861
 8470SOL    HW237047   1.827   0.955   7.279 -1.0464  0.6046 -2.3236
 8471SOL     OW37048   1.087   0.946   0.231  0.3800  0.5619  0.0552
 8471SOL    HW137049   0.997   0.952   0.200 -0.3981  1.2487  2.5314
 8471SOL    HW237050   1.126   0.949   0.143  0.8061  0.6336  0.2471
 8472SOL     OW37051   4.291   3.638   8.092  0.1080 -0.9283  0.0862
 8472SOL    HW137052   4.324   3.552   8.065 -3.1717 -2.1357 -0.0722
 8472SOL    HW237053   4.260   3.620   8.181 -1.6085 -2.0756 -0.7504
 8473SOL     OW37054   4.492   2.242   4.873  0.2705  0.4720  0.4275
 8473SOL    HW137055   4.432   2.167   4.882 -1.4620  2.0046  1.6183
 8473SOL    HW237056   4.471   2.288   4.954 -0.7675 -0.0285  0.4438
 8474SOL     OW37057   2.951   3.239   7.756 -0.2630  0.2023  0.2069
 8474SOL    HW137058   2.874   3.185   7.740 -0.0712  0.4155 -1.3693
 8474SOL    HW237059   2.961   3.205   7.845  0.5358 -0.0442  0.0224
 8475SOL     OW37060   2.925   0.521   3.717 -0.6503  0.2309 -0.1269
 8475SOL    HW137061   2.848   0.535   3.772 -0.0830 -0.0450  0.7277
 8475SOL    HW237062   2.982   0.480   3.781 -1.0030 -3.0561 -1.9049
 8476SOL     OW37063   2.041   1.428   1.704  0.2853 -0.1086 -0.2017
 8476SOL    HW137064   2.083   1.514   1.704  1.6710 -0.7778 -0.9859
 8476SOL    HW237065   1.973   1.443   1.638  0.5704 -1.6470 -0.8375
 8477SOL     OW37066   3.489   1.455   1.627  0.3550 -0.0008  0.0572
 8477SOL    HW137067   3.511   1.508   1.551 -0.3736 -0.5513 -0.5440
 8477SOL    HW237068   3.424   1.394   1.591  1.1885 -1.4971  1.0670
 8478SOL     OW37069   4.576   0.617  15.109 -0.5225  0.6615  0.1012
 8478SOL    HW137070   4.569   0.609  15.013 -1.4171  0.4405  0.1844
 8478SOL    HW237071   4.595   0.711  15.108 -0.3299  0.6354  1.2163
 8479SOL     OW37072   0.724   2.641   8.534  0.0474 -0.2924 -0.0907
 8479SOL    HW137073   0.692   2.671   8.449  0.5755 -0.1803 -0.2474
 8479SOL    HW237074   0.677   2.710   8.580  1.0198 -0.1190  0.6461
 8480SOL     OW37075   4.275   3.978   8.257 -0.5279  0.1847 -0.3097
 8480SOL    HW137076   4.284   3.899   8.311 -0.0912  1.9242  2.1519
 8480SOL    HW237077   4.362   4.015   8.269 -0.2885 -0.1201 -1.1030
 8481SOL     OW37078   1.467   1.457   9.308 -0.8180 -0.4598  0.7713
 8481SOL    HW137079   1.395   1.414   9.260 -1.0048  0.8744 -0.1503
 8481SOL    HW237080   1.477   1.538   9.259 -0.3011 -0.3046  1.1400
 8482SOL     OW37081   3.929   3.364   2.613  0.1845 -0.3212  0.0233
 8482SOL    HW137082   3.951   3.450   2.577 -1.2265  0.4312  0.9235
 8482SOL    HW237083   3.855   3.381   2.672  1.8004  2.4822  1.2482
 8483SOL     OW37084   2.430   1.013   4.295  0.1670  0.2623  0.0651
 8483SOL    HW137085   2.417   0.919   4.290  1.2458  0.0583  1.1730
 8483SOL    HW237086   2.340   1.045   4.288  0.1156 -0.1373 -1.0995
 8484SOL     OW37087   2.599   0.092   5.842  0.0053 -0.7800 -0.0178
 8484SOL    HW137088   2.637   0.014   5.882 -1.2314 -0.8526  1.0274
 8484SOL    HW237089   2.557   0.053   5.766 -1.4899  1.0398 -0.1369
 8485SOL     OW37090   3.425   0.584   7.592  0.2284  0.6214 -0.3889
 8485SOL    HW137091   3.414   0.650   7.661  1.2205  0.1741  0.2095
 8485SOL    HW237092   3.514   0.605   7.564  0.3014 -1.8648 -2.0191
 8486SOL     OW37093   0.494   3.615   8.784  0.6344  0.4700 -0.3829
 8486SOL    HW137094   0.477   3.556   8.857 -1.7907 -0.3898 -1.6693
 8486SOL    HW237095   0.436   3.585   8.714  1.6280  0.2493 -1.1150
 8487SOL     OW37096   3.314   2.236   4.459  0.4492 -0.1001  0.7444
 8487SOL    HW137097   3.309   2.256   4.366  1.3421 -1.8923  0.2983
 8487SOL    HW237098   3.386   2.172   4.457  2.2858  1.9319  2.3772
 8488SOL     OW37099   0.785   0.028   3.448 -0.0092 -0.4782 -0.4097
 8488SOL    HW137100   0.738   0.054   3.527  1.6260 -2.7015  1.3037
 8488SOL    HW237101   0.721   0.033   3.378  1.3139 -0.7744 -1.6424
 8489SOL     OW37102   1.032   4.625  10.684  0.7137 -0.0134 -0.0819
 8489SOL    HW137103   0.962   4.637  10.620 -2.3651 -1.5146  2.9853
 8489SOL    HW237104   0.983   4.576  10.751 -0.1624  0.5486 -0.3070
 8490SOL     OW37105   4.568   3.339   2.849  0.1007  0.3856 -0.2982
 8490SOL    HW137106   4.592   3.418   2.898  0.0543  0.1694  0.0712
 8490SOL    HW237107   4.651   3.336   2.801 -0.0094  0.7995 -0.5200
 8491SOL     OW37108   0.279   0.991   1.886  0.0046  0.4024 -0.1061
 8491SOL    HW137109   0.332   1.035   1.952  0.6029 -0.4901  0.0022
 8491SOL    HW237110   0.202   1.049   1.885  0.0171  0.4271  0.3813
 8492SOL     OW37111   4.344   1.453   2.480 -0.6273  0.4429 -0.3029
 8492SOL    HW137112   4.437   1.457   2.504 -0.8864  1.0352  0.6016
 8492SOL    HW237113   4.315   1.364   2.496 -3.5152  0.8287 -3.5216
 8493SOL     OW37114   3.739   3.885  17.231  0.3038  0.1999 -0.6418
 8493SOL    HW137115   3.722   3.816  17.294 -0.8802  0.7019 -0.4018
 8493SOL    HW237116   3.661   3.938  17.248  1.3994  1.9294 -0.9985
 8494SOL     OW37117   2.792   0.774   1.755  0.0922  0.4900 -0.5454
 8494SOL    HW137118   2.884   0.768   1.730  0.1793 -0.6668  0.0545
 8494SOL    HW237119   2.784   0.700   1.815 -1.0684 -0.1919 -1.5497
 8495SOL     OW37120   1.694   0.021   7.976  0.5187  0.2051 -0.4943
 8495SOL    HW137121   1.757   0.072   8.027 -1.5113  2.5219 -0.2912
 8495SOL    HW237122   1.727   0.036   7.888 -2.6644 -0.0607 -1.7191
 8496SOL     OW37123   3.739   1.146   4.966 -0.4723 -0.0156 -0.1693
 8496SOL    HW137124   3.755   1.098   4.884 -0.3293  1.1409 -0.8175
 8496SOL    HW237125   3.816   1.199   4.985  0.0061  1.0687 -5.1175
 8497SOL     OW37126   4.145   1.895   5.777  0.7435  0.1601 -0.2677
 8497SOL    HW137127   4.221   1.885   5.835 -1.5117 -0.6235  2.5537
 8497SOL    HW237128   4.155   1.852   5.692  0.2830  1.2054 -0.8545
 8498SOL     OW37129   2.093   2.189   9.831  0.2003 -0.7213  0.0185
 8498SOL    HW137130   2.156   2.189   9.903 -0.7772 -0.6264  0.8814
 8498SOL    HW237131   2.030   2.252   9.866 -0.3379 -1.2769  0.0477
 8499SOL     OW37132   4.051   0.929   7.912  0.3820 -0.0544  0.2595
 8499SOL    HW137133   4.055   0.949   8.006  2.3068  0.3057  0.0967
 8499SOL    HW237134   4.053   0.833   7.916  2.3083 -0.0748 -1.2064
 8500SOL     OW37135   4.598   0.236   7.727 -0.5574  0.7903  0.3114
 8500SOL    HW137136   4.662   0.300   7.759  1.2448  0.2471 -2.2518
 8500SOL    HW237137   4.569   0.192   7.807  3.6355  1.4747  2.2276
 8501SOL     OW37138   3.269   0.203  14.663  0.1563 -0.3505  0.1575
 8501SOL    HW137139   3.266   0.293  14.694 -2.7174 -0.1088 -0.8015
 8501SOL    HW237140   3.268   0.215  14.568  0.9455 -1.4105  0.0043
 8502SOL     OW37141   2.816   2.765  12.992 -0.3113 -0.4405 -0.0022
 8502SOL    HW137142   2.772   2.711  12.926 -0.7746 -1.2504  0.9654
 8502SOL    HW237143   2.882   2.802  12.934  0.6779  0.6607  1.8126
 8503SOL     OW37144   1.472   0.916   6.000 -0.2604 -0.6766  0.5304
 8503SOL    HW137145   1.455   0.926   6.093 -0.3143  2.0735  0.2149
 8503SOL    HW237146   1.485   0.821   5.995 -0.2793 -0.6342 -0.3221
 8504SOL     OW37147   3.143   1.899   8.015 -0.2019 -0.1328  0.0030
 8504SOL    HW137148   3.164   1.874   7.925  0.8484 -0.6170  0.3851
 8504SOL    HW237149   3.228   1.903   8.057  0.2910 -1.6835 -0.8465
 8505SOL     OW37150   0.079   3.267   9.568  0.5307  0.0669 -0.4953
 8505SOL    HW137151   0.069   3.307   9.655  0.7645 -0.1349 -0.3753
 8505SOL    HW237152   0.174   3.254   9.558  0.8864  1.5826  0.8290
 8506SOL     OW37153   3.044   1.856   8.337 -0.1463  0.0603 -0.9425
 8506SOL    HW137154   2.959   1.831   8.301  0.5555  1.8464 -3.8478
 8506SOL    HW237155   3.104   1.838   8.264 -0.8460 -1.2956 -1.1824
 8507SOL     OW37156   4.634   2.197   7.279 -0.2993 -0.0531  0.9146
 8507SOL    HW137157   4.569   2.261   7.249 -0.4020 -0.9470 -0.7404
 8507SOL    HW237158   4.580   2.131   7.322 -2.4705  2.4079  2.0010
 8508SOL     OW37159   1.249   0.754   8.928  0.6445  0.7122  0.3465
 8508SOL    HW137160   1.189   0.798   8.867  0.8966 -2.0534 -1.8853
 8508SOL    HW237161   1.223   0.662   8.930  0.1201  0.8938  1.4795
 8509SOL     OW37162   3.633   3.848   2.742 -0.5096 -0.1911  0.5751
 8509SOL    HW137163   3.666   3.760   2.759 -0.9258 -0.1099  1.7491
 8509SOL    HW237164   3.706   3.899   2.776  0.3024 -0.7665 -0.2865
 8510SOL     OW37165   4.084   1.406   6.908  0.4466  0.1881 -0.0313
 8510SOL    HW137166   4.032   1.346   6.854  0.4670  0.1120  0.0330
 8510SOL    HW237167   4.175   1.377   6.893  1.3263  3.0162 -0.1470
 8511SOL     OW37168   0.331   0.929   5.148 -0.3417 -0.6976  0.6040
 8511SOL    HW137169   0.287   1.001   5.193  0.3659  0.2756 -0.2439
 8511SOL    HW237170   0.402   0.910   5.210 -0.7569  1.7529  1.8217
 8512SOL     OW37171   1.228   1.853   5.183 -0.3805 -0.0467  0.0154
 8512SOL    HW137172   1.278   1.929   5.213 -0.3512  0.8017 -2.2004
 8512SOL    HW237173   1.303   1.795   5.170 -0.4534 -0.5752  1.9405
 8513SOL     OW37174   2.837   3.623   6.277  1.2014 -0.3904 -0.3368
 8513SOL    HW137175   2.870   3.690   6.217  1.4872 -0.8107 -0.6466
 8513SOL    HW237176   2.827   3.679   6.355  1.8559  1.9128 -1.9169
 8514SOL     OW37177   0.198   3.877   3.563 -0.2088 -0.1310  0.0199
 8514SOL    HW137178   0.241   3.892   3.647  0.9256  0.6538 -0.6907
 8514SOL    HW237179   0.114   3.913   3.591 -1.4027 -2.9124 -0.0090
 8515SOL     OW37180   0.358   0.465   2.647 -0.5571  0.1029 -0.0243
 8515SOL    HW137181   0.320   0.390   2.601 -2.2082 -0.3795  2.0877
 8515SOL    HW237182   0.394   0.517   2.575 -1.7003 -1.0227 -1.3975
 8516SOL     OW37183   1.560   0.943   7.615 -0.4173  0.4311  0.2289
 8516SOL    HW137184   1.650   0.909   7.620  0.0375  1.4427 -1.0886
 8516SOL    HW237185   1.542   0.948   7.709 -2.4531 -0.0364 -0.1427
 8517SOL     OW37186   3.860   3.548  14.860 -0.2423  0.5083 -0.1949
 8517SOL    HW137187   3.784   3.573  14.911 -1.6101  1.0450 -2.5014
 8517SOL    HW237188   3.889   3.484  14.926 -0.8959  1.9705  1.5012
 8518SOL     OW37189   3.491   2.230  15.210  0.7929  0.5067 -0.4905
 8518SOL    HW137190   3.539   2.303  15.170 -0.9009  0.6525 -2.2447
 8518SOL    HW237191   3.557   2.210  15.276  0.4655 -2.7225 -1.1707
 8519SOL     OW37192   0.665   4.501   5.416  0.2962  0.2753  0.3043
 8519SOL    HW137193   0.655   4.407   5.431  0.9844 -0.1583 -2.0590
 8519SOL    HW237194   0.724   4.524   5.488 -0.3133  2.2904  0.1510
 8520SOL     OW37195   4.528   3.398   7.748  0.4380 -0.6153  0.3385
 8520SOL    HW137196   4.466   3.326   7.735  0.6464 -0.4731 -1.3898
 8520SOL    HW237197   4.582   3.385   7.670 -0.2731  2.1828 -0.6335
 8521SOL     OW37198   3.073   1.026   9.593  0.4629 -0.1524 -0.0809
 8521SOL    HW137199   3.148   1.052   9.645 -0.7809 -0.6748  1.9652
 8521SOL    HW237200   3.058   1.103   9.538 -1.6226  1.1176  2.2380
 8522SOL     OW37201   1.625   4.247   5.009 -0.3781 -0.6413 -0.1171
 8522SOL    HW137202   1.696   4.298   5.048 -1.2296  0.1070  0.4417
 8522SOL    HW237203   1.675   4.203   4.940 -0.5810 -1.0675  0.0101
 8523SOL     OW37204   1.188   0.705  15.242  0.6702  0.2716 -0.3089
 8523SOL    HW137205   1.283   0.695  15.231  0.8922  2.1056 -0.1775
 8523SOL    HW237206   1.175   0.767  15.169 -1.6239 -0.1679 -0.2680
 8524SOL     OW37207   1.612   4.237  10.908 -0.2554  0.1501  0.5494
 8524SOL    HW137208   1.591   4.227  11.001  0.0521 -0.4043  0.5591
 8524SOL    HW237209   1.607   4.333  10.902 -2.7911 -0.2481 -3.6710
 8525SOL     OW37210   0.107   3.840   5.509 -0.7737 -0.0649 -0.0119
 8525SOL    HW137211   0.186   3.851   5.456 -1.6647 -1.1775 -1.5644
 8525SOL    HW237212   0.086   3.748   5.494 -0.5120  0.1869 -1.9307
 8526SOL     OW37213   2.172   2.868   7.452 -0.0638  0.3769  0.0700
 8526SOL    HW137214   2.244   2.840   7.509 -0.3611 -0.2852  0.1309
 8526SOL    HW237215   2.206   2.946   7.409 -1.7389  1.2227  0.2465
 8527SOL     OW37216   1.971   2.623  16.532  0.0134 -0.1016 -0.2275
 8527SOL    HW137217   1.953   2.691  16.468  0.5009  1.1564  0.9640
 8527SOL    HW237218   1.963   2.538  16.488  2.0502 -1.6667  2.3485
 8528SOL     OW37219   1.668   3.290   2.942  0.7223 -0.2130  0.3961
 8528SOL    HW137220   1.584   3.287   2.897  0.7373  0.9114  0.3059
 8528SOL    HW237221   1.732   3.265   2.874 -0.5040  0.6258 -1.0709
 8529SOL     OW37222   1.616   1.947   5.045  0.0415  0.0581  0.0733
 8529SOL    HW137223   1.623   1.954   5.140  0.6834  1.1141 -0.0432
 8529SOL    HW237224   1.708   1.957   5.023 -0.7904  1.8510 -2.5686
 8530SOL     OW37225   1.156   3.830   6.100  0.6442 -0.2570 -0.1898
 8530SOL    HW137226   1.073   3.868   6.128  1.5318  0.3089  1.6767
 8530SOL    HW237227   1.186   3.894   6.035 -3.1868  1.0073 -0.7223
 8531SOL     OW37228   3.228   2.741   8.593 -0.3657  0.5134  0.5838
 8531SOL    HW137229   3.237   2.821   8.542 -0.3553  1.6661  2.4063
 8531SOL    HW237230   3.145   2.713   8.555  0.0359 -0.7195  0.6046
 8532SOL     OW37231   2.231   1.348   4.425 -0.3037  0.5687 -0.2849
 8532SOL    HW137232   2.209   1.405   4.352 -3.0029  1.6870  1.3936
 8532SOL    HW237233   2.321   1.318   4.412 -1.2397 -2.4399  0.0028
 8533SOL     OW37234   2.225   1.292   9.903  0.0776 -0.6363  0.4497
 8533SOL    HW137235   2.276   1.217   9.871 -0.1657 -0.0517 -1.3131
 8533SOL    HW237236   2.147   1.284   9.848  0.6657  0.6549 -0.5716
 8534SOL     OW37237   2.225   0.350  13.411  0.0305 -0.4528 -0.0764
 8534SOL    HW137238   2.179   0.329  13.330 -2.5358  0.9375  1.0195
 8534SOL    HW237239   2.183   0.292  13.474 -0.6589 -0.2901 -0.3847
 8535SOL     OW37240   3.787   4.631   3.481 -0.0585 -0.0545  0.5795
 8535SOL    HW137241   3.719   4.613   3.547 -0.9715  0.4137 -0.2331
 8535SOL    HW237242   3.870   4.618   3.527  0.8270  0.8219 -0.7736
 8536SOL     OW37243   3.833   2.322   5.059 -0.5393 -0.0334  0.4510
 8536SOL    HW137244   3.805   2.283   5.141  2.1568 -1.1605  0.8463
 8536SOL    HW237245   3.851   2.408   5.097  1.0480 -0.8133  1.4428
 8537SOL     OW37246   2.387   0.364   4.654  0.0636 -0.4102  0.4304
 8537SOL    HW137247   2.314   0.353   4.592 -0.2257 -0.3624  0.7620
 8537SOL    HW237248   2.388   0.276   4.690 -1.8810 -1.4620 -2.0520
 8538SOL     OW37249   2.374   0.783   6.968  0.1176  0.2358 -0.4590
 8538SOL    HW137250   2.325   0.841   6.909 -1.2526 -0.1384  0.3155
 8538SOL    HW237251   2.457   0.829   6.981  1.2611 -2.3984  1.6413
 8539SOL     OW37252   2.071   3.448   9.186  0.3360 -0.2000 -0.6127
 8539SOL    HW137253   1.990   3.461   9.235  0.1828 -0.9545 -0.6745
 8539SOL    HW237254   2.115   3.531   9.205 -0.8350  0.0872  0.8051
 8540SOL     OW37255   3.104   4.311   3.025  0.0285  0.0965  0.5943
 8540SOL    HW137256   3.050   4.258   3.084 -0.2554 -1.9825 -1.5369
 8540SOL    HW237257   3.066   4.397   3.040  0.3570  0.5339 -1.0629
 8541SOL     OW37258   1.542   0.906  14.756 -0.8039 -0.1810  0.1757
 8541SOL    HW137259   1.510   0.838  14.697  0.2132 -0.5691  0.0874
 8541SOL    HW237260   1.607   0.859  14.808  0.8733  0.7989 -1.0319
 8542SOL     OW37261   3.959   1.926   2.872 -0.5335 -0.2983 -0.0489
 8542SOL    HW137262   3.872   1.890   2.888 -0.4820 -0.1430  0.6068
 8542SOL    HW237263   3.929   1.974   2.795  1.0682 -0.3039 -0.6763
 8543SOL     OW37264   1.214   1.267   9.432  0.1578  0.1012 -0.5584
 8543SOL    HW137265   1.190   1.337   9.371 -0.5720 -0.0085 -0.3878
 8543SOL    HW237266   1.201   1.195   9.371  0.6949 -0.9574  0.5836
 8544SOL     OW37267   1.151   2.759   3.182  0.2015 -0.6927 -0.0807
 8544SOL    HW137268   1.134   2.667   3.203 -0.0421 -0.3470  1.2355
 8544SOL    HW237269   1.244   2.778   3.191  0.1998 -0.3430 -0.7363
 8545SOL     OW37270   1.182   1.241  10.718  0.0722  0.2840 -0.0857
 8545SOL    HW137271   1.166   1.277  10.631  0.9978  1.9187  0.4085
 8545SOL    HW237272   1.135   1.158  10.713  1.0947 -0.2247 -1.0948
 8546SOL     OW37273   0.273   3.994   4.178 -0.8916  0.1850 -0.1856
 8546SOL    HW137274   0.315   3.931   4.120 -0.2629 -1.0814  1.6355
 8546SOL    HW237275   0.300   4.080   4.145  0.4479 -0.2373 -0.1975
 8547SOL     OW37276   2.004   1.668   4.683 -0.0012 -0.0482 -0.0703
 8547SOL    HW137277   2.067   1.740   4.691 -0.6559  0.5862 -0.6432
 8547SOL    HW237278   1.923   1.711   4.656  0.4581 -0.0251 -1.4224
 8548SOL     OW37279   4.548   1.615   6.066 -0.2458  0.2192  0.1472
 8548SOL    HW137280   4.625   1.621   6.123  0.1807  0.8259 -0.4958
 8548SOL    HW237281   4.542   1.702   6.029 -1.9227 -0.5131 -1.2814
 8549SOL     OW37282   1.181   0.648   6.432  0.3382 -0.6089 -0.5468
 8549SOL    HW137283   1.154   0.558   6.416 -0.1829 -0.6824  0.7496
 8549SOL    HW237284   1.237   0.637   6.509 -0.4079  0.5899  0.1811
 8550SOL     OW37285   1.132   2.227   7.695  0.7636  0.1932  0.2875
 8550SOL    HW137286   1.124   2.258   7.605  0.4672 -1.9910 -0.4339
 8550SOL    HW237287   1.216   2.180   7.700  0.3986 -0.5219 -0.4565
 8551SOL     OW37288   4.735   3.843   5.865 -0.2387  0.1620  0.2345
 8551SOL    HW137289   4.692   3.819   5.947  0.5794 -0.0871  0.6006
 8551SOL    HW237290   4.674   3.805   5.802 -2.7685  0.8654  2.2643
 8552SOL     OW37291   2.628   1.435   2.029  0.0783 -0.2185 -0.5518
 8552SOL    HW137292   2.553   1.442   2.087  0.7909 -0.8235  0.4287
 8552SOL    HW237293   2.699   1.453   2.090  0.5188 -1.9390 -0.5483
 8553SOL     OW37294   2.375   4.167   6.871  0.5976 -0.0584 -0.3859
 8553SOL    HW137295   2.295   4.125   6.901  0.7719 -0.8503 -1.0261
 8553SOL    HW237296   2.440   4.176   6.940  1.2481  1.9525 -1.2572
 8554SOL     OW37297   3.105   1.292   9.419 -0.2006  0.2958 -0.0878
 8554SOL    HW137298   3.086   1.382   9.447 -0.5183  0.8581 -2.0848
 8554SOL    HW237299   3.181   1.269   9.472  1.0357  1.6264 -1.2941
 8555SOL     OW37300   1.942   2.754   2.723  0.1538 -0.2832 -0.2568
 8555SOL    HW137301   2.023   2.802   2.744  0.4202 -1.3575  1.1959
 8555SOL    HW237302   1.896   2.760   2.807 -2.2005  1.1607 -1.6515
 8556SOL     OW37303   1.150   2.596   3.921  0.6343 -0.3736 -0.1124
 8556SOL    HW137304   1.189   2.515   3.954 -1.2993 -1.2609 -0.0373
 8556SOL    HW237305   1.097   2.559   3.850  0.4673  1.8888 -1.1683
 8557SOL     OW37306   4.326   0.630   6.910  0.1065 -0.6544  0.0684
 8557SOL    HW137307   4.386   0.584   6.969  1.1910  0.9011  0.1944
 8557SOL    HW237308   4.384   0.625   6.833  2.0895 -2.2642  1.6794
 8558SOL     OW37309   3.845   2.676   0.156 -0.1063  0.1390 -0.1690
 8558SOL    HW137310   3.934   2.654   0.182  0.7653  2.5999 -1.0834
 8558SOL    HW237311   3.810   2.677   0.245 -2.3536  0.1938 -1.0617
 8559SOL     OW37312   0.321   0.238  17.312 -0.5689 -0.0641 -0.0854
 8559SOL    HW137313   0.306   0.320  17.264  0.7438  0.3627  0.2433
 8559SOL    HW237314   0.314   0.269  17.402  3.3228  0.4668  0.0418
 8560SOL     OW37315   0.488   0.164   3.392 -0.4228  0.1063  0.4597
 8560SOL    HW137316   0.431   0.237   3.367 -0.0483  0.2197 -0.0578
 8560SOL    HW237317   0.429   0.091   3.376 -1.6315  1.6385 -2.1181
 8561SOL     OW37318   0.114   4.385   0.273 -0.3374 -0.2520  0.4672
 8561SOL    HW137319   0.180   4.360   0.339 -0.7446 -1.8235  0.2603
 8561SOL    HW237320   0.161   4.451   0.221 -2.6974  3.1829  2.6441
 8562SOL     OW37321   1.394   0.004   1.844 -0.0106  0.5179  0.0269
 8562SOL    HW137322   1.460   0.069   1.817  0.9476 -0.5097 -0.0889
 8562SOL    HW237323   1.313   0.054   1.834 -0.1252  0.1696 -0.7488
 8563SOL     OW37324   0.502   3.577  14.635 -0.8286  0.1827  0.2540
 8563SOL    HW137325   0.505   3.591  14.730 -1.7695  1.4097  0.0941
 8563SOL    HW237326   0.567   3.508  14.624 -1.9615 -1.2084  2.1986
 8564SOL     OW37327   1.919   0.032   3.301 -0.0342 -0.1512 -0.0888
 8564SOL    HW137328   1.925   0.079   3.218 -0.9443  2.8526  1.5404
 8564SOL    HW237329   1.833   4.726   3.293  1.1146 -2.6056  0.6324
 8565SOL     OW37330   1.934   3.769   4.055 -0.2603  0.2949 -0.0316
 8565SOL    HW137331   1.926   3.858   4.019 -2.8679 -0.2532 -0.8473
 8565SOL    HW237332   1.925   3.716   3.976 -1.1263 -0.6887  0.7297
 8566SOL     OW37333   1.008   3.751   8.885  0.8907 -0.2095  0.1324
 8566SOL    HW137334   1.071   3.823   8.887  1.0119 -0.3358  0.7025
 8566SOL    HW237335   1.070   3.681   8.866 -2.4783 -3.0440 -0.5986
 8567SOL     OW37336   0.342   2.569  15.751 -0.6963 -0.8378  0.1506
 8567SOL    HW137337   0.285   2.625  15.699 -2.2241 -1.7255  0.8747
 8567SOL    HW237338   0.333   2.605  15.840 -1.5967 -1.2790  0.2311
 8568SOL     OW37339   3.178   3.815   5.872 -0.0718  0.0304 -0.2327
 8568SOL    HW137340   3.190   3.902   5.910 -0.1320 -1.2445  2.7044
 8568SOL    HW237341   3.185   3.838   5.779  0.2564  0.6808 -0.0517
 8569SOL     OW37342   3.594   3.713   4.896  0.6157 -0.3946  1.0014
 8569SOL    HW137343   3.625   3.803   4.888  2.5150 -1.1973 -0.7492
 8569SOL    HW237344   3.573   3.711   4.990 -3.4035  1.2075  0.1190
 8570SOL     OW37345   0.663   0.412   3.851  0.4796  0.1518 -0.2250
 8570SOL    HW137346   0.697   0.330   3.889 -0.8522 -0.3485 -0.1231
 8570SOL    HW237347   0.575   0.386   3.825 -0.4533  2.5974  0.5816
 8571SOL     OW37348   2.897   0.196   8.760 -0.1074  0.2958  0.1492
 8571SOL    HW137349   2.809   0.210   8.795  0.6587  0.5617  1.9810
 8571SOL    HW237350   2.880   0.159   8.674  0.9058  0.1051  0.0233
 8572SOL     OW37351   0.923   1.683   1.978  0.4176  0.1384  0.0076
 8572SOL    HW137352   1.015   1.671   2.001  0.0991 -1.6756  0.3202
 8572SOL    HW237353   0.919   1.774   1.949 -0.1691 -0.7536 -2.7098
 8573SOL     OW37354   1.029   1.639   7.825 -0.0420 -0.0740 -0.1174
 8573SOL    HW137355   1.119   1.666   7.807 -0.0805 -0.2471 -0.5822
 8573SOL    HW237356   1.029   1.543   7.820  1.7242 -0.0185 -1.0282
 8574SOL     OW37357   3.403   2.427   3.674  0.8569  0.1814  0.0696
 8574SOL    HW137358   3.436   2.340   3.697 -1.2603 -0.5691  0.2351
 8574SOL    HW237359   3.345   2.446   3.747  0.7305 -0.5237  0.1501
 8575SOL     OW37360   1.388   2.475  11.413 -0.2583 -0.2226 -0.7278
 8575SOL    HW137361   1.459   2.531  11.444 -2.5981  2.6499 -0.5783
 8575SOL    HW237362   1.370   2.524  11.333 -2.1399 -2.1938 -1.5196
 8576SOL     OW37363   1.480   2.871   7.861 -0.3763  0.0348 -0.0693
 8576SOL    HW137364   1.530   2.797   7.827  0.0771  0.8818 -1.2387
 8576SOL    HW237365   1.400   2.863   7.809 -0.6720 -1.0337  0.5294
 8577SOL     OW37366   3.860   1.059   6.585  0.1412  0.1565 -0.3046
 8577SOL    HW137367   3.863   0.994   6.514  1.4980  0.1747 -0.2581
 8577SOL    HW237368   3.894   1.024   6.667 -0.6663  2.8190  1.1789
 8578SOL     OW37369   3.853   2.359   7.102 -0.1899 -0.3190 -0.2124
 8578SOL    HW137370   3.925   2.300   7.080  0.2077  0.0812 -0.0009
 8578SOL    HW237371   3.888   2.395   7.183 -1.4737  2.5551 -0.9245
 8579SOL     OW37372   1.293   3.710   5.379 -0.2231  0.2625 -0.4963
 8579SOL    HW137373   1.301   3.795   5.337  1.1207  0.2543 -0.2447
 8579SOL    HW237374   1.209   3.710   5.425  0.3917  1.9025  0.6249
 8580SOL     OW37375   3.543   1.303   3.427 -0.2806 -0.2638 -0.0387
 8580SOL    HW137376   3.484   1.377   3.407 -1.0532 -1.1855 -1.1580
 8580SOL    HW237377   3.507   1.225   3.386 -1.0196  0.8458 -1.5096
 8581SOL     OW37378   1.492   1.544   8.201 -0.3906 -0.2262 -0.2591
 8581SOL    HW137379   1.452   1.535   8.115 -0.3538 -3.0041  0.0242
 8581SOL    HW237380   1.423   1.599   8.238 -1.2252 -1.5667  0.1831
 8582SOL     OW37381   1.487   0.921   8.872  0.0940  0.6016 -0.3110
 8582SOL    HW137382   1.421   0.865   8.912 -0.1072  0.2104 -1.2016
 8582SOL    HW237383   1.512   0.972   8.949 -1.4123  0.0089  0.5669
 8583SOL     OW37384   0.117   4.100  13.877  0.1291 -0.1149 -0.2633
 8583SOL    HW137385   0.191   4.149  13.911 -1.1088  0.3789  1.7070
 8583SOL    HW237386   0.158   4.014  13.869  1.1049  0.5568 -2.5035
 8584SOL     OW37387   0.551   2.632   3.475 -0.2307  0.7286 -0.0227
 8584SOL    HW137388   0.515   2.707   3.427  0.3083  1.6192  0.9781
 8584SOL    HW237389   0.578   2.670   3.558  0.4258  0.1200  0.0394
 8585SOL     OW37390   1.560   3.390   1.629 -0.1663 -0.3128 -0.0029
 8585SOL    HW137391   1.485   3.447   1.645 -0.7489 -1.2011  0.4364
 8585SOL    HW237392   1.532   3.309   1.670  0.0425 -1.2096 -1.6269
 8586SOL     OW37393   2.542   2.402   4.975 -0.2629 -0.0246  0.4584
 8586SOL    HW137394   2.483   2.403   4.900  0.0192  0.6364  0.2408
 8586SOL    HW237395   2.485   2.452   5.033 -1.4335 -0.3460 -0.4206
 8587SOL     OW37396   3.658   3.357   2.835 -0.4828 -0.3502  0.2382
 8587SOL    HW137397   3.591   3.290   2.845 -0.5372 -0.0106  2.3288
 8587SOL    HW237398   3.679   3.384   2.925 -2.2229 -0.4597  0.6804
 8588SOL     OW37399   0.463   2.646   6.915 -0.1400 -0.0268 -0.6081
 8588SOL    HW137400   0.545   2.666   6.959  0.5765 -2.2649 -0.9468
 8588SOL    HW237401   0.411   2.726   6.928 -0.3428 -0.4493  1.1549
 8589SOL     OW37402   3.389   3.178   6.881 -0.0504 -0.5839  0.1605
 8589SOL    HW137403   3.414   3.271   6.880  0.2026 -0.6527  0.2340
 8589SOL    HW237404   3.326   3.183   6.809  0.6886 -1.5817 -0.5546
 8590SOL     OW37405   1.060   4.520   9.534  0.1575 -0.7900 -0.5839
 8590SOL    HW137406   0.969   4.537   9.511 -0.1666 -0.1077  1.1946
 8590SOL    HW237407   1.062   4.535   9.629  2.0224  0.3339 -0.7928
 8591SOL     OW37408   4.519   1.763   2.702  0.1903 -0.4023  0.5052
 8591SOL    HW137409   4.519   1.667   2.706 -1.5438 -0.5972 -3.7040
 8591SOL    HW237410   4.503   1.789   2.793 -0.0608 -0.2247  0.4117
 8592SOL     OW37411   3.095   2.095   0.348 -0.6222 -0.3876  0.2341
 8592SOL    HW137412   3.042   2.015   0.351  3.5489 -3.2203 -1.3451
 8592SOL    HW237413   3.020   2.147   0.322 -0.9323  0.4342  2.7201
 8593SOL     OW37414   2.075   3.382   4.223 -0.3910 -0.3046  0.4641
 8593SOL    HW137415   2.077   3.352   4.132 -2.2062 -0.7051  0.5489
 8593SOL    HW237416   2.072   3.477   4.218  0.2030 -0.2116  2.1508
 8594SOL     OW37417   4.720   1.383   1.394 -0.5466 -0.0097 -0.5016
 8594SOL    HW137418   4.714   1.288   1.379  1.8881  0.1905 -2.9152
 8594SOL    HW237419   4.707   1.414   1.304 -0.0232 -1.8648 -1.2339
 8595SOL     OW37420   4.127   3.086   7.564  0.7853 -0.4549  0.0581
 8595SOL    HW137421   4.186   3.012   7.554  1.7358  0.4142 -0.7310
 8595SOL    HW237422   4.061   3.065   7.498  1.6256 -2.1043 -0.2591
 8596SOL     OW37423   0.265   1.724  13.262  0.6225  0.1465 -0.1731
 8596SOL    HW137424   0.171   1.729  13.279  0.8722 -0.4311  1.3419
 8596SOL    HW237425   0.264   1.732  13.167  0.3587 -1.0995 -0.2774
 8597SOL     OW37426   4.588   3.495   3.974 -0.0283 -0.0486  0.0917
 8597SOL    HW137427   4.552   3.565   4.029 -0.2056  0.8008 -1.1095
 8597SOL    HW237428   4.582   3.542   3.891 -0.7246  0.1357  0.2482
 8598SOL     OW37429   4.719   1.920   6.551 -0.0447  0.8731  0.0473
 8598SOL    HW137430   4.647   1.925   6.613  0.0870  0.6527  0.2173
 8598SOL    HW237431   0.063   1.919   6.603 -1.3905 -0.4674  2.0879
 8599SOL     OW37432   3.816   2.614   2.762  0.2594  0.8237  0.0538
 8599SOL    HW137433   3.774   2.551   2.704  0.7280  1.4643 -0.9694
 8599SOL    HW237434   3.895   2.571   2.793 -0.7034 -2.2001 -1.7258
 8600SOL     OW37435   2.552   1.053   5.511 -0.6266 -0.3118 -0.7000
 8600SOL    HW137436   2.625   1.093   5.466  0.2567 -0.7606  0.3179
 8600SOL    HW237437   2.481   1.067   5.448  0.9935  1.3731 -2.1241
 8601SOL     OW37438   4.268   3.108   0.203  0.2606 -0.0284  0.3636
 8601SOL    HW137439   4.334   3.155   0.152  1.4240  0.3871  2.2434
 8601SOL    HW237440   4.193   3.122   0.145  0.5953  1.0029  0.1780
 8602SOL     OW37441   2.404   0.949  15.732 -0.3682 -0.7689  0.3502
 8602SOL    HW137442   2.410   0.908  15.818  2.2318  0.4774  0.7525
 8602SOL    HW237443   2.310   0.971  15.732  0.0931  1.1899  0.8400
 8603SOL     OW37444   1.389   1.307   3.692  0.0580  0.2299 -0.3449
 8603SOL    HW137445   1.359   1.319   3.601 -1.4751 -3.5987 -0.3471
 8603SOL    HW237446   1.326   1.239   3.715  1.2522 -1.2977 -1.6505
 8604SOL     OW37447   2.127   0.217   7.092 -0.2218 -0.6939  0.2961
 8604SOL    HW137448   2.067   0.257   7.155 -0.9451  0.1641 -0.9214
 8604SOL    HW237449   2.197   0.282   7.091 -1.6709  0.8451 -0.5071
 8605SOL     OW37450   3.436   0.567   6.424  0.4404  0.5255 -0.3899
 8605SOL    HW137451   3.403   0.607   6.343 -0.0162 -0.8428 -0.8864
 8605SOL    HW237452   3.376   0.493   6.433 -0.2103  1.4171  2.4609
 8606SOL     OW37453   0.304   2.159   9.002 -0.2697 -0.7376 -0.1982
 8606SOL    HW137454   0.371   2.192   8.942  0.4735 -1.2406  0.3554
 8606SOL    HW237455   0.340   2.071   9.015  1.5829  0.2364  1.1624
 8607SOL     OW37456   1.473   2.614   9.267 -0.7499 -0.0954  0.1927
 8607SOL    HW137457   1.553   2.563   9.275 -0.5644  0.1314 -0.2340
 8607SOL    HW237458   1.406   2.563   9.222 -1.5075  2.5024 -1.6071
 8608SOL     OW37459   3.846   1.727   1.476 -0.2954  0.3542 -0.4589
 8608SOL    HW137460   3.860   1.686   1.391 -4.5385  0.6779 -1.3042
 8608SOL    HW237461   3.924   1.702   1.526 -1.3397  0.8513  1.3996
 8609SOL     OW37462   3.171   0.870  15.614  0.0642  0.3815 -0.1125
 8609SOL    HW137463   3.183   0.775  15.609 -1.1704  0.2178  0.0120
 8609SOL    HW237464   3.243   0.897  15.557 -0.0258 -2.5887 -1.6124
 8610SOL     OW37465   0.345   0.980   8.640 -0.0398  0.0249  0.2177
 8610SOL    HW137466   0.400   0.926   8.582  2.2080  1.0020  1.4413
 8610SOL    HW237467   0.278   0.914   8.650 -1.9529  1.7801 -0.9741
 8611SOL     OW37468   1.416   2.424   3.292  0.4321  0.0498 -0.0583
 8611SOL    HW137469   1.464   2.489   3.240  0.9509  1.4755  2.1875
 8611SOL    HW237470   1.413   2.351   3.231 -1.7431  0.2529 -0.1741
 8612SOL     OW37471   2.811   0.874   5.471 -0.0737 -0.0762  0.3845
 8612SOL    HW137472   2.751   0.841   5.404  1.5709  0.0988 -1.1749
 8612SOL    HW237473   2.773   0.962   5.475  0.8370  0.2770  1.2745
 8613SOL     OW37474   3.430   1.521   6.183  0.3227 -0.2530  0.5091
 8613SOL    HW137475   3.458   1.551   6.096 -2.4976 -0.7009 -0.5563
 8613SOL    HW237476   3.499   1.457   6.201  1.7537  1.1582  0.0620
 8614SOL     OW37477   1.464   0.853   7.871  0.6352  0.7103  0.0098
 8614SOL    HW137478   1.456   0.893   7.958  0.4697  0.7563 -0.0254
 8614SOL    HW237479   1.519   0.778   7.893  2.8722  1.9967 -1.2097
 8615SOL     OW37480   4.219   4.299   7.497  0.5002  0.4445  0.1623
 8615SOL    HW137481   4.191   4.210   7.518  0.8831  0.0899 -0.7976
 8615SOL    HW237482   4.165   4.353   7.554  1.1335  0.4537  0.7531
 8616SOL     OW37483   2.345   4.419   7.401 -0.0430  0.4811  0.4993
 8616SOL    HW137484   2.310   4.340   7.443 -1.5877  1.1175  0.4050
 8616SOL    HW237485   2.320   4.418   7.309  0.8087 -1.0360  0.2862
 8617SOL     OW37486   4.486   2.985  11.041  0.2110 -0.9254  0.0167
 8617SOL    HW137487   4.480   2.928  10.964  0.8297  0.2226 -0.8744
 8617SOL    HW237488   4.470   3.067  10.995 -2.5232 -0.6718  1.4004
 8618SOL     OW37489   0.869   1.896   4.829 -0.2951 -0.7272 -0.2965
 8618SOL    HW137490   0.877   1.807   4.862 -0.7058 -2.0339 -3.7566
 8618SOL    HW237491   0.961   1.921   4.843 -0.4979 -0.4253  0.4776
 8619SOL     OW37492   3.130   0.607  15.113  0.6973 -0.0236 -0.0578
 8619SOL    HW137493   3.081   0.683  15.080  0.2064 -0.7423 -0.9592
 8619SOL    HW237494   3.183   0.640  15.186  2.2343  1.1003 -1.6951
 8620SOL     OW37495   2.695   2.886   2.821  0.4188  0.2269  0.1204
 8620SOL    HW137496   2.644   2.929   2.890 -0.8211  1.4007 -1.5370
 8620SOL    HW237497   2.643   2.806   2.824  1.8320 -0.5884  2.8711
 8621SOL     OW37498   1.058   1.350   5.000 -0.8143 -0.1049  0.0822
 8621SOL    HW137499   1.092   1.260   5.006  0.0374  0.1786 -0.4698
 8621SOL    HW237500   1.004   1.341   4.922 -0.5511  0.5898 -0.1817
 8622SOL     OW37501   3.934   0.576   2.229 -0.4283  0.1161  0.2804
 8622SOL    HW137502   3.872   0.544   2.164 -0.9558  1.0088  0.3443
 8622SOL    HW237503   3.911   0.514   2.298  1.2941 -0.4472  0.3723
 8623SOL     OW37504   2.515   0.629   3.484  0.5148 -0.0478 -0.0382
 8623SOL    HW137505   2.530   0.722   3.474  0.0977  0.0096 -0.1538
 8623SOL    HW237506   2.488   0.637   3.576  1.9195  0.3353  0.3317
 8624SOL     OW37507   4.370   1.433  15.406 -0.5758 -0.0071 -0.3379
 8624SOL    HW137508   4.377   1.340  15.387  0.1790  0.4916 -2.5410
 8624SOL    HW237509   4.438   1.452  15.341  0.4251  0.0015  0.7226
 8625SOL     OW37510   3.746   0.526   8.740 -0.2459  0.3696  0.0821
 8625SOL    HW137511   3.650   0.519   8.740  0.0273 -3.2996 -1.5975
 8625SOL    HW237512   3.752   0.616   8.708 -2.1113  0.2113 -0.7502
 8626SOL     OW37513   0.739   3.792   0.108  0.5136 -0.2347 -0.2528
 8626SOL    HW137514   0.794   3.823   0.037  0.2651  0.5864 -0.0929
 8626SOL    HW237515   0.750   3.700   0.085  1.7336 -0.2898  0.5095
 8627SOL     OW37516   0.259   4.602   0.193  0.2702  0.3024 -0.5597
 8627SOL    HW137517   0.263   4.679   0.249  0.3850  0.3822 -0.6782
 8627SOL    HW237518   0.351   4.602   0.165  0.5084 -0.2760  0.2372
 8628SOL     OW37519   3.397   1.781   9.439 -0.2619 -0.3054 -0.1683
 8628SOL    HW137520   3.347   1.777   9.520  0.2584  0.3626  0.1880
 8628SOL    HW237521   3.482   1.809   9.473 -1.5096 -1.4282  3.8682
 8629SOL     OW37522   3.045   2.617   5.860 -0.2574  0.3194  1.0455
 8629SOL    HW137523   3.084   2.607   5.773 -1.7618 -0.3332  0.4591
 8629SOL    HW237524   2.957   2.644   5.836 -0.1133  0.0589  0.2496
 8630SOL     OW37525   3.907   4.418   0.332  0.1507  0.4848  0.4531
 8630SOL    HW137526   3.891   4.511   0.314 -2.9646 -0.3123 -0.9666
 8630SOL    HW237527   3.891   4.418   0.426 -0.0753  1.2497  0.4176
 8631SOL     OW37528   3.655   1.356   6.172 -0.4275  0.1865  0.1101
 8631SOL    HW137529   3.675   1.295   6.101  1.3721  1.8953 -0.8678
 8631SOL    HW237530   3.710   1.434   6.156 -0.8535  0.2689 -0.9874
 8632SOL     OW37531   4.722   3.010   8.505 -0.5299  0.2679 -0.1850
 8632SOL    HW137532   4.691   3.083   8.559  1.7138 -1.0177  2.8070
 8632SOL    HW237533   4.698   3.043   8.418  0.3578 -0.5745 -0.7452
 8633SOL     OW37534   4.144   2.598   5.510  0.4596  0.2438 -0.0973
 8633SOL    HW137535   4.064   2.649   5.521  0.9217  1.0210 -0.2833
 8633SOL    HW237536   4.124   2.510   5.540 -2.1057  1.0567  0.5497
 8634SOL     OW37537   4.389   3.257   0.020 -0.2616 -0.0739 -0.2540
 8634SOL    HW137538   4.438   3.316  17.705  0.1715 -0.2421 -0.0569
 8634SOL    HW237539   4.315   3.256  17.703  1.1433 -4.3208 -1.8954
 8635SOL     OW37540   3.103   4.204   6.499 -0.1878  0.3422 -0.1090
 8635SOL    HW137541   3.012   4.230   6.486 -0.2549 -1.3651 -3.1436
 8635SOL    HW237542   3.122   4.188   6.407  0.9356  0.9586  0.0161
 8636SOL     OW37543   2.116   0.902   9.570  0.2561  0.0950  0.2502
 8636SOL    HW137544   2.144   0.812   9.553 -0.2366 -0.3714  1.9191
 8636SOL    HW237545   2.029   0.911   9.531  0.5119 -2.0742 -0.8446
 8637SOL     OW37546   2.509   3.526   2.504 -0.5069 -0.6602 -0.0123
 8637SOL    HW137547   2.532   3.584   2.576  0.4592  0.9443 -1.6257
 8637SOL    HW237548   2.489   3.447   2.555 -2.8233  0.3801  0.7212
 8638SOL     OW37549   2.750   0.602   6.013  0.6788 -0.2775  0.3751
 8638SOL    HW137550   2.696   0.632   6.086  1.2899 -0.8159  1.0519
 8638SOL    HW237551   2.703   0.524   5.982  2.7669 -1.0053 -0.9680
 8639SOL     OW37552   4.663   1.064   1.543 -1.0496 -0.4384 -0.2337
 8639SOL    HW137553   4.714   1.052   1.462 -1.3914 -0.7011 -0.4095
 8639SOL    HW237554   4.572   1.059   1.513 -0.8652 -2.7962 -0.4292
 8640SOL     OW37555   2.546   3.723   6.496  0.0735  0.3032 -0.3063
 8640SOL    HW137556   2.589   3.796   6.452  1.0370 -1.2846 -2.0147
 8640SOL    HW237557   2.543   3.752   6.587 -0.6397  0.7953 -0.4862
 8641SOL     OW37558   3.513   0.887   6.882 -0.5291  0.1487  0.1552
 8641SOL    HW137559   3.551   0.844   6.805  0.4509 -0.3408  0.9133
 8641SOL    HW237560   3.485   0.812   6.934 -0.2611 -0.6913 -0.9225
 8642SOL     OW37561   2.173   1.765   3.336 -0.1745  0.4111 -0.0682
 8642SOL    HW137562   2.190   1.806   3.421 -1.2040 -0.1339  0.4054
 8642SOL    HW237563   2.145   1.842   3.286 -0.6939  0.2466 -0.0308
 8643SOL     OW37564   4.034   2.367  12.459  0.4795 -0.3219  0.3619
 8643SOL    HW137565   4.104   2.303  12.477  0.0263 -0.7947  0.4304
 8643SOL    HW237566   4.055   2.389  12.368  0.0309 -0.6124  0.1914
 8644SOL     OW37567   0.318   1.710  17.638  0.0299 -0.4045 -0.6503
 8644SOL    HW137568   0.316   1.699  17.543  2.0341 -1.5306 -0.5575
 8644SOL    HW237569   0.402   1.748  17.661 -0.2552  1.1537 -2.2287
 8645SOL     OW37570   0.385   0.646   4.319 -0.2332 -0.0112 -0.0485
 8645SOL    HW137571   0.462   0.678   4.367  0.3394 -0.1411 -0.8849
 8645SOL    HW237572   0.318   0.675   4.381  0.7369  0.8673  0.5908
 8646SOL     OW37573   4.183   1.993   2.062  0.1011 -0.3792  0.5321
 8646SOL    HW137574   4.268   1.991   2.107 -0.0929  0.9706  0.9267
 8646SOL    HW237575   4.204   1.966   1.972 -0.8862 -0.4018  0.3064
 8647SOL     OW37576   3.172   1.474   8.384  0.3945  0.2386  0.4214
 8647SOL    HW137577   3.148   1.385   8.410  0.3980 -0.2088 -1.0771
 8647SOL    HW237578   3.087   1.517   8.377  0.7110  0.5321 -1.7562
 8648SOL     OW37579   1.194   0.127   3.434 -0.5171 -0.5246  0.5820
 8648SOL    HW137580   1.139   0.049   3.444 -0.6559 -0.5007 -0.0045
 8648SOL    HW237581   1.270   0.114   3.491 -0.0933 -1.3045 -0.1549
 8649SOL     OW37582   3.945   3.113  17.043 -0.1146  0.3487 -0.0600
 8649SOL    HW137583   4.013   3.145  16.985  1.1063  1.0835  1.8002
 8649SOL    HW237584   3.891   3.059  16.985 -2.2147  0.8925  1.3878
 8650SOL     OW37585   0.126   0.564   6.854  0.0316  0.0060  0.4929
 8650SOL    HW137586   0.124   0.651   6.895  3.3730  1.1361 -1.7730
 8650SOL    HW237587   0.052   0.577   6.795  0.6332 -2.6695 -0.8444
 8651SOL     OW37588   3.794   0.335   5.658  0.4395 -0.3615 -0.0589
 8651SOL    HW137589   3.707   0.308   5.689 -0.4977  1.1451 -1.3432
 8651SOL    HW237590   3.772   0.396   5.587 -1.8632 -1.3252 -0.1735
 8652SOL     OW37591   1.138   1.749   5.817 -0.6144  0.2392  0.1662
 8652SOL    HW137592   1.178   1.715   5.737  1.0614 -1.0841  1.5624
 8652SOL    HW237593   1.044   1.742   5.798 -0.2974 -1.3163 -0.8443
 8653SOL     OW37594   1.143   4.705   2.917 -0.5574  0.2083 -0.1992
 8653SOL    HW137595   1.077   0.033   2.940 -0.0705  0.5603  0.2322
 8653SOL    HW237596   1.096   4.624   2.897 -0.2198 -0.1458  0.4158
 8654SOL     OW37597   4.296   0.604   8.074 -0.3042  0.2282  0.2464
 8654SOL    HW137598   4.377   0.602   8.126 -0.9573  0.4105  1.2771
 8654SOL    HW237599   4.233   0.618   8.145  0.3859 -1.8516  1.2673
 8655SOL     OW37600   1.019   1.395  16.419 -0.2518 -0.4621 -0.2158
 8655SOL    HW137601   1.034   1.345  16.338 -0.3045 -2.7537  1.1915
 8655SOL    HW237602   0.960   1.327  16.453  2.5490 -2.3956  0.7044
 8656SOL     OW37603   0.361   2.662   0.233 -0.4700 -0.1083 -0.6313
 8656SOL    HW137604   0.417   2.609   0.289 -1.6223 -1.7272 -0.9957
 8656SOL    HW237605   0.424   2.682   0.163  1.3292 -0.1439  0.9880
 8657SOL     OW37606   3.244   3.175   2.214 -0.6888 -0.6368  0.2289
 8657SOL    HW137607   3.247   3.271   2.205  0.8744 -0.5977  1.2585
 8657SOL    HW237608   3.173   3.153   2.153 -1.7856  0.7275  0.9904
 8658SOL     OW37609   2.196   0.505   5.010 -0.4105 -0.3961 -0.2124
 8658SOL    HW137610   2.248   0.425   5.003 -1.1853 -1.1454  2.9092
 8658SOL    HW237611   2.109   0.468   4.994 -0.1479 -0.6467 -1.0583
 8659SOL     OW37612   4.613   0.697   6.325  0.4910 -0.0596  0.0080
 8659SOL    HW137613   4.547   0.630   6.341 -0.6745  1.1878  0.3631
 8659SOL    HW237614   4.621   0.722   6.417  0.5043  0.0022 -0.0102
 8660SOL     OW37615   1.702   0.939  13.268 -0.3477  0.0385 -0.1496
 8660SOL    HW137616   1.737   0.923  13.355  2.8795  1.9258 -1.0958
 8660SOL    HW237617   1.734   0.871  13.209 -2.4261  0.2618 -1.5273
 8661SOL     OW37618   0.070   1.091   3.785  0.5001 -0.1762  0.0542
 8661SOL    HW137619   4.720   1.089   3.827  0.3710 -0.8815 -0.2455
 8661SOL    HW237620   0.046   1.067   3.696  0.3884 -2.1156  0.6120
 8662SOL     OW37621   2.638   1.717   6.525 -0.1931 -0.1876  0.1054
 8662SOL    HW137622   2.614   1.804   6.493  0.2336 -0.2745 -0.4576
 8662SOL    HW237623   2.598   1.711   6.611 -0.3355 -1.6488 -0.0732
 8663SOL     OW37624   2.508   3.360  17.306 -0.3544 -0.4195  0.5031
 8663SOL    HW137625   2.459   3.415  17.244  2.9725 -1.3684 -2.9068
 8663SOL    HW237626   2.584   3.418  17.301  0.7460 -1.6858  2.2782
 8664SOL     OW37627   1.637   2.786   4.075  0.3839 -0.4215  0.0382
 8664SOL    HW137628   1.555   2.795   4.027  0.8670  1.6429 -0.4021
 8664SOL    HW237629   1.671   2.702   4.046 -0.8658 -0.9138 -0.0061
 8665SOL     OW37630   2.162   1.850  14.163  0.2329  0.1962  0.2689
 8665SOL    HW137631   2.246   1.810  14.139  1.3070  1.6929  1.5443
 8665SOL    HW237632   2.192   1.918  14.223  3.2577 -1.0640  0.1610
 8666SOL     OW37633   3.821   0.735  16.295  0.2131 -0.5390  0.1653
 8666SOL    HW137634   3.761   0.676  16.342 -0.2846  0.0451  0.2567
 8666SOL    HW237635   3.876   0.777  16.361  0.4168  0.2914 -0.5424
 8667SOL     OW37636   4.282   0.397   0.889 -0.1375  0.2608 -0.8238
 8667SOL    HW137637   4.312   0.479   0.928  2.1983 -0.7335 -0.5060
 8667SOL    HW237638   4.359   0.346   0.915 -0.8818 -0.2429  0.4141
 8668SOL     OW37639   1.927   2.297   7.482  0.1939 -0.9753  0.1046
 8668SOL    HW137640   1.914   2.219   7.537  1.1389 -0.2704  1.3235
 8668SOL    HW237641   1.986   2.355   7.529  0.7880 -1.3486 -0.1633
 8669SOL     OW37642   4.335   1.177  10.908  0.1577 -0.9335  0.1128
 8669SOL    HW137643   4.244   1.206  10.916  0.7381  1.5321 -2.3831
 8669SOL    HW237644   4.384   1.256  10.933  1.3068 -1.3718 -0.7648
 8670SOL     OW37645   1.374   3.686   6.614 -0.3380 -0.3985  0.6899
 8670SOL    HW137646   1.285   3.654   6.597  0.0734 -0.4674 -1.2614
 8670SOL    HW237647   1.380   3.761   6.555 -0.9065  0.4845  1.7460
 8671SOL     OW37648   1.215   1.682   8.659 -0.2811 -0.1900 -0.0569
 8671SOL    HW137649   1.203   1.764   8.708  1.3673 -0.6209  1.0804
 8671SOL    HW237650   1.289   1.636   8.698  1.4585  3.1912  0.6364
 8672SOL     OW37651   1.655   2.677  10.384  0.3794 -0.2580  0.0899
 8672SOL    HW137652   1.748   2.676  10.408  0.2485  0.7524  0.6513
 8672SOL    HW237653   1.618   2.593  10.412  2.1419 -1.4881 -1.2571
 8673SOL     OW37654   3.488   4.218  14.389  0.4920  0.1883 -0.2960
 8673SOL    HW137655   3.580   4.196  14.376  0.2393  0.7214 -2.8717
 8673SOL    HW237656   3.449   4.190  14.307  1.3727 -0.8519 -0.3461
 8674SOL     OW37657   0.330   1.617   1.967 -0.2972 -0.8333 -0.1109
 8674SOL    HW137658   0.274   1.618   1.889 -0.8524  1.5782  0.2998
 8674SOL    HW237659   0.323   1.712   1.981  0.3678 -0.5271 -1.8384
 8675SOL     OW37660   4.519   2.034  12.002  0.5903  0.3520 -0.0106
 8675SOL    HW137661   4.494   2.017  12.093 -2.9559 -2.2972 -1.4755
 8675SOL    HW237662   4.576   1.960  11.984  0.7988  0.0468  1.8427
 8676SOL     OW37663   1.082   4.315  17.001 -0.3438 -0.0500 -0.1790
 8676SOL    HW137664   1.072   4.233  16.953 -0.8759 -0.0239 -0.1112
 8676SOL    HW237665   1.023   4.369  16.950 -1.6324 -0.4788  0.8517
 8677SOL     OW37666   1.431   3.291   6.315 -0.2811  0.5014 -0.1759
 8677SOL    HW137667   1.412   3.231   6.387  0.3470 -0.2082 -0.6060
 8677SOL    HW237668   1.485   3.352   6.365  1.0966 -1.1597  0.3567
 8678SOL     OW37669   2.605   4.396   6.871  0.2070  0.0119 -0.4054
 8678SOL    HW137670   2.545   4.453   6.919  0.9312  0.2464  0.2201
 8678SOL    HW237671   2.547   4.323   6.848  1.3301 -1.2356  0.8182
 8679SOL     OW37672   0.027   3.451   7.367  0.0883  0.2452 -0.8754
 8679SOL    HW137673   4.679   3.407   7.381 -0.4465  1.9034  1.0265
 8679SOL    HW237674   0.035   3.456   7.271  0.6345  0.0809 -0.8358
 8680SOL     OW37675   2.493   3.129   8.525  0.0693 -1.1997 -0.2503
 8680SOL    HW137676   2.539   3.060   8.573  0.8351 -0.1352  0.5758
 8680SOL    HW237677   2.570   3.157   8.474 -0.0998 -2.5382 -1.2216
 8681SOL     OW37678   4.032   4.455   7.334  0.0448 -0.2712 -0.0517
 8681SOL    HW137679   4.072   4.378   7.375 -1.7939 -0.5783  1.1590
 8681SOL    HW237680   4.034   4.439   7.239  1.8195  0.2688 -0.1081
 8682SOL     OW37681   0.702   4.421   7.298  0.3836 -0.1090 -0.0258
 8682SOL    HW137682   0.618   4.387   7.330 -0.7832  2.2958 -0.5737
 8682SOL    HW237683   0.677   4.510   7.275  2.5040  0.9200  1.6826
 8683SOL     OW37684   4.408   4.449  10.887 -0.0871  0.5875 -0.2763
 8683SOL    HW137685   4.448   4.455  10.800  0.9610 -3.4582 -0.0464
 8683SOL    HW237686   4.325   4.417  10.853 -0.1550  1.2124 -0.7043
 8684SOL     OW37687   3.662   2.212   5.927  0.2210 -0.7639 -0.3684
 8684SOL    HW137688   3.595   2.223   5.860 -0.9385 -3.1560  0.4186
 8684SOL    HW237689   3.716   2.288   5.905 -0.0772  0.0147  1.6563
 8685SOL     OW37690   4.283   2.968   4.179 -0.3617  0.1872 -0.5092
 8685SOL    HW137691   4.283   2.922   4.263 -0.4256 -1.0711 -1.1937
 8685SOL    HW237692   4.374   2.946   4.156  0.3964  2.2697  0.5140
 8686SOL     OW37693   1.962   2.822   7.113  0.2034 -0.2147  0.0261
 8686SOL    HW137694   1.948   2.893   7.175 -2.7572 -1.0524  0.3345
 8686SOL    HW237695   2.007   2.759   7.169  1.0116 -0.0035 -0.3901
 8687SOL     OW37696   2.705   1.647   4.191 -0.3861 -0.3222  0.3833
 8687SOL    HW137697   2.747   1.720   4.237 -0.7164 -0.6743  1.2490
 8687SOL    HW237698   2.698   1.692   4.106 -0.7204 -1.3418 -0.1246
 8688SOL     OW37699   2.761   0.318  11.494  0.0976  0.7795 -0.2721
 8688SOL    HW137700   2.847   0.350  11.522 -0.3097  2.2287 -0.6809
 8688SOL    HW237701   2.698   0.353  11.557  0.6851  0.4020  0.5156
 8689SOL     OW37702   4.039   1.602   8.896 -0.0187 -0.3632 -0.0864
 8689SOL    HW137703   4.116   1.644   8.935 -0.9993  0.3654  1.0773
 8689SOL    HW237704   4.063   1.513   8.921 -0.7452  0.1494  2.4209
 8690SOL     OW37705   3.389   2.257  13.674  0.5089 -0.1284 -0.0499
 8690SOL    HW137706   3.483   2.278  13.670  0.3138  0.7837  0.1206
 8690SOL    HW237707   3.356   2.346  13.662  3.9873  1.2077  0.2566
 8691SOL     OW37708   4.398   2.988   3.216  0.4612 -0.7858 -0.6449
 8691SOL    HW137709   4.346   2.908   3.209 -1.0663  0.1733 -0.2163
 8691SOL    HW237710   4.368   3.019   3.301 -1.6032 -1.8232 -1.0040
 8692SOL     OW37711   0.672   4.097   2.099  0.4117 -0.2392  0.0595
 8692SOL    HW137712   0.741   4.153   2.062  1.0507 -1.6299 -0.8469
 8692SOL    HW237713   0.706   4.018   2.056 -1.8078  0.0337 -2.1999
 8693SOL     OW37714   3.920   0.682  10.625  0.3110 -1.2048 -0.2173
 8693SOL    HW137715   3.851   0.687  10.691  0.2714  1.1428 -0.4442
 8693SOL    HW237716   3.959   0.769  10.628  0.0822 -1.0997 -0.2811
 8694SOL     OW37717   4.230   3.486   0.187  0.7067  0.5262  0.0308
 8694SOL    HW137718   4.184   3.434   0.121 -0.5508  1.7775 -0.0838
 8694SOL    HW237719   4.219   3.572   0.148 -1.6365 -0.0987 -0.7192
 8695SOL     OW37720   3.625   0.298  11.275  0.4972 -0.1627  0.8684
 8695SOL    HW137721   3.677   0.378  11.281  0.0703  0.0615  1.4993
 8695SOL    HW237722   3.669   0.240  11.212  1.4791 -0.4081  1.7894
 8696SOL     OW37723   3.163   1.356  11.020  0.5477  0.0167  0.4717
 8696SOL    HW137724   3.121   1.390  11.098  2.4302  3.9936 -0.2228
 8696SOL    HW237725   3.238   1.414  11.007  0.2563 -0.6645 -4.4820
 8697SOL     OW37726   2.688   2.513  11.564 -0.0308 -0.0802 -0.2192
 8697SOL    HW137727   2.675   2.566  11.642 -2.5139 -0.1082 -0.6073
 8697SOL    HW237728   2.774   2.477  11.584  1.0407  2.7568  0.3015
 8698SOL     OW37729   0.648   0.818   0.939 -0.0524  0.5191 -0.8205
 8698SOL    HW137730   0.564   0.782   0.964 -0.3109  2.2175  0.7734
 8698SOL    HW237731   0.682   0.734   0.908  0.9091 -0.1505  2.0683
 8699SOL     OW37732   2.007   0.816   5.587  0.3520  0.0278  0.1311
 8699SOL    HW137733   2.074   0.824   5.519  0.5341 -0.0070  0.3088
 8699SOL    HW237734   1.984   0.908   5.601 -1.6331 -0.3571 -0.5318
 8700SOL     OW37735   4.069   3.593   6.016 -0.2538 -0.3617 -0.1696
 8700SOL    HW137736   4.038   3.676   6.050  0.7600  0.1464 -0.4907
 8700SOL    HW237737   4.070   3.605   5.921 -0.1941  1.1042  0.0264
 8701SOL     OW37738   0.940   0.835   0.705 -0.3265 -0.0046 -0.8585
 8701SOL    HW137739   0.974   0.916   0.667 -2.4510  0.6867 -1.2871
 8701SOL    HW237740   0.974   0.861   0.791 -1.2408 -0.4038 -0.3807
 8702SOL     OW37741   0.326   1.899   2.483 -0.1964 -0.1702  0.2528
 8702SOL    HW137742   0.408   1.914   2.529 -0.6370  0.3065  0.8887
 8702SOL    HW237743   0.326   1.967   2.416  1.4439 -0.8848 -0.4775
 8703SOL     OW37744   0.977   2.963   8.693  0.0724 -0.3707  0.1225
 8703SOL    HW137745   1.056   2.925   8.731 -1.0702  0.2034  3.0947
 8703SOL    HW237746   0.909   2.926   8.750 -1.3919  1.4833 -0.4293
 8704SOL     OW37747   1.430   0.727   7.487 -0.1617  0.7715 -0.6792
 8704SOL    HW137748   1.434   0.663   7.558 -1.7813 -0.3891 -1.6303
 8704SOL    HW237749   1.480   0.798   7.527  1.9749  0.4957 -2.8867
 8705SOL     OW37750   0.394   2.161   3.072  0.2903  0.7853  0.6102
 8705SOL    HW137751   0.406   2.138   2.980 -0.0974  2.4602  0.1433
 8705SOL    HW237752   0.418   2.073   3.103 -0.3370  0.2117 -0.5306
 8706SOL     OW37753   1.108   2.539   5.444  0.4669  0.6453  0.3752
 8706SOL    HW137754   1.033   2.481   5.456 -1.0024  1.9262 -2.8745
 8706SOL    HW237755   1.164   2.464   5.424 -0.6623  0.0341 -0.4514
 8707SOL     OW37756   0.890   0.185  11.612  0.3781 -0.6012 -0.1641
 8707SOL    HW137757   0.902   0.191  11.707  0.7637  1.2027 -0.3207
 8707SOL    HW237758   0.978   0.216  11.588  1.6293 -3.7893  0.2703
 8708SOL     OW37759   3.522   4.631   7.598  0.4788  0.0706 -0.3649
 8708SOL    HW137760   3.504   4.562   7.662  1.9195 -0.4510 -0.5184
 8708SOL    HW237761   3.595   4.597   7.546  0.9355 -0.6726  0.7462
 8709SOL     OW37762   2.222   3.153   6.603 -0.0464  0.0611 -0.1210
 8709SOL    HW137763   2.313   3.174   6.579  0.3285 -0.6391  0.6762
 8709SOL    HW237764   2.202   3.083   6.541 -0.2800 -0.1554  0.2011
 8710SOL     OW37765   1.439   2.736   5.804 -0.1530 -0.1174 -0.1280
 8710SOL    HW137766   1.417   2.657   5.754 -1.0059 -0.9581  1.5924
 8710SOL    HW237767   1.384   2.809   5.774  1.3785  1.0982  0.0372
 8711SOL     OW37768   4.463   4.183   6.898  0.6463  0.1225  0.7324
 8711SOL    HW137769   4.474   4.092   6.924 -1.5011  0.3320  2.4606
 8711SOL    HW237770   4.545   4.219   6.932 -0.0108  1.0641  1.3494
 8712SOL     OW37771   1.900   1.124   2.427  0.1195 -0.0737  0.4328
 8712SOL    HW137772   1.965   1.189   2.400  2.0308 -0.5816  3.8968
 8712SOL    HW237773   1.824   1.179   2.444 -0.7761 -0.9912 -0.5482
 8713SOL     OW37774   1.382   3.015   2.959 -0.0384 -0.3882  0.1527
 8713SOL    HW137775   1.308   3.049   3.010  1.0843 -1.8448  2.7804
 8713SOL    HW237776   1.399   2.925   2.986 -1.0760 -0.2224  1.3631
 8714SOL     OW37777   4.421   4.616   4.081 -0.2074  0.4089 -0.4364
 8714SOL    HW137778   4.405   4.705   4.112 -0.9029  0.5622 -1.2354
 8714SOL    HW237779   4.469   4.642   4.002 -1.7492  1.0371 -1.1697
 8715SOL     OW37780   2.257   3.282   8.320 -0.3427 -0.2174  0.1803
 8715SOL    HW137781   2.167   3.313   8.331 -0.7005 -0.7910 -1.1299
 8715SOL    HW237782   2.302   3.301   8.403  1.2234 -1.7158 -0.3289
 8716SOL     OW37783   0.126   0.142   6.801  0.2787 -0.1314  0.1924
 8716SOL    HW137784   0.034   0.120   6.819  0.3604 -2.0898 -1.7355
 8716SOL    HW237785   0.151   0.191   6.879  0.9802  0.0455 -0.1477
 8717SOL     OW37786   4.159   1.711   6.949  0.2226  0.3331  0.2525
 8717SOL    HW137787   4.098   1.719   6.876 -0.4871  0.8800  0.9074
 8717SOL    HW237788   4.223   1.649   6.913 -2.0508 -0.8800 -1.6907
 8718SOL     OW37789   3.067   2.339   7.726 -0.0963  0.6146  0.4130
 8718SOL    HW137790   2.999   2.371   7.667  1.5228  0.9087 -1.2759
 8718SOL    HW237791   3.048   2.245   7.735  1.7878 -0.1104 -3.0566
 8719SOL     OW37792   1.612   1.982  12.104  0.4963 -0.3056  0.1734
 8719SOL    HW137793   1.536   1.925  12.113  0.3788 -0.0778  0.6030
 8719SOL    HW237794   1.630   1.966  12.011 -2.5514 -1.8719 -0.1350
 8720SOL     OW37795   3.836   3.165   2.414  0.2894  0.3780  0.5784
 8720SOL    HW137796   3.824   3.221   2.338  1.0684 -0.4661 -0.1654
 8720SOL    HW237797   3.852   3.220   2.490  0.6421  0.1408  0.6754
 8721SOL     OW37798   3.334   4.122   7.634 -0.4997 -0.1894 -0.0006
 8721SOL    HW137799   3.360   4.030   7.638  3.3229  0.9143  0.3181
 8721SOL    HW237800   3.290   4.121   7.549 -2.8032  1.1641  1.1824
 8722SOL     OW37801   3.374   1.626   3.609  0.1180 -0.1542  0.1377
 8722SOL    HW137802   3.368   1.621   3.514 -2.6170 -2.7186  0.4400
 8722SOL    HW237803   3.467   1.647   3.614  0.4465 -1.2531 -1.2538
 8723SOL     OW37804   3.216   0.619  11.373 -0.2106 -0.3237  0.5319
 8723SOL    HW137805   3.275   0.548  11.351 -1.0950 -1.3148  1.3863
 8723SOL    HW237806   3.287   0.681  11.359  1.1281 -1.3498  2.9175
 8724SOL     OW37807   3.183   4.382   4.994 -0.2334 -0.4455 -0.2861
 8724SOL    HW137808   3.185   4.371   5.090 -2.0855 -0.4864 -0.2422
 8724SOL    HW237809   3.154   4.296   4.964  0.3474 -0.1786 -1.5750
 8725SOL     OW37810   3.810   2.541   4.273  0.0074 -0.3055  0.3130
 8725SOL    HW137811   3.905   2.553   4.270  0.0577 -1.5811 -3.0345
 8725SOL    HW237812   3.795   2.635   4.272 -2.5885 -0.7430 -1.6153
 8726SOL     OW37813   0.443   4.518   6.952  0.3383  0.3265  0.4462
 8726SOL    HW137814   0.472   4.478   6.870  0.0591 -0.9272  0.9665
 8726SOL    HW237815   0.361   4.554   6.917 -0.3967 -0.0043  1.8315
 8727SOL     OW37816   0.448   4.690  16.052 -0.3232 -0.1161 -0.1782
 8727SOL    HW137817   0.430   4.627  15.982 -0.1558 -0.7203  0.3206
 8727SOL    HW237818   0.490   4.649  16.128  2.0134  1.2664 -0.7082
 8728SOL     OW37819   4.451   1.654  11.986  0.5573 -0.0414  0.4010
 8728SOL    HW137820   4.470   1.575  11.935 -1.7101 -0.3486  0.0086
 8728SOL    HW237821   4.484   1.630  12.072 -0.9963  1.6813  1.5063
 8729SOL     OW37822   0.317   2.213   4.026 -0.1097 -0.0784 -0.2457
 8729SOL    HW137823   0.336   2.156   4.100 -0.3187 -0.0441 -0.1667
 8729SOL    HW237824   0.353   2.297   4.056  2.0719 -0.7779 -0.8738
 8730SOL     OW37825   1.278   2.673   4.934  0.0539  0.6327  0.6593
 8730SOL    HW137826   1.271   2.675   5.030  1.4276  0.2501  0.7715
 8730SOL    HW237827   1.305   2.763   4.914  0.1654  0.5745  0.5494
 8731SOL     OW37828   3.238   3.861   1.576 -0.6084 -0.1143  0.3507
 8731SOL    HW137829   3.307   3.797   1.591  0.8166  0.9751 -1.5880
 8731SOL    HW237830   3.258   3.885   1.485 -1.5565  2.3510  0.7904
 8732SOL     OW37831   0.258   4.215   5.388  0.1319  0.4369 -0.2721
 8732SOL    HW137832   0.320   4.288   5.395  0.9110 -0.3700  1.4237
 8732SOL    HW237833   0.262   4.189   5.296 -1.6263 -0.4862 -0.0935
 8733SOL     OW37834   3.462   0.013  11.157  0.0769 -0.4648  0.2552
 8733SOL    HW137835   3.449   0.024  11.063  0.7001  2.5470  0.5492
 8733SOL    HW237836   3.528   0.081  11.165 -0.1313 -0.2161 -0.1682
 8734SOL     OW37837   0.491   0.372   8.311 -0.6002  0.1982  0.0749
 8734SOL    HW137838   0.571   0.424   8.323  0.5611 -1.7613  0.7014
 8734SOL    HW237839   0.434   0.414   8.376  0.9183  2.4975 -0.0899
 8735SOL     OW37840   0.788   1.696   5.425 -0.0155  0.0433 -0.0146
 8735SOL    HW137841   0.816   1.609   5.456  0.3866  0.0596 -0.3293
 8735SOL    HW237842   0.863   1.721   5.370 -1.0767  0.4443 -1.2618
 8736SOL     OW37843   2.118   2.721   5.071 -0.4564 -0.5823 -0.1500
 8736SOL    HW137844   2.031   2.686   5.054 -0.3411 -2.0035  2.2734
 8736SOL    HW237845   2.106   2.778   5.147 -0.4795  0.9524 -1.2910
 8737SOL     OW37846   0.300   4.713   6.677 -0.0234  0.3752 -0.1709
 8737SOL    HW137847   0.265   4.627   6.656  4.7071 -2.5365  3.9262
 8737SOL    HW237848   0.227   0.011   6.728 -0.7812  1.1123 -1.7282
 8738SOL     OW37849   2.786   2.744  14.456 -0.1760  0.6704 -0.1924
 8738SOL    HW137850   2.855   2.681  14.479 -0.8274  0.6952  1.7748
 8738SOL    HW237851   2.833   2.828  14.459  0.6251  0.1056  3.1776
 8739SOL     OW37852   4.088   0.543   5.723  0.1162  0.4678 -0.1967
 8739SOL    HW137853   4.087   0.638   5.721 -1.3210  0.4624  0.1325
 8739SOL    HW237854   4.033   0.528   5.800  1.3317 -1.8620  0.2456
 8740SOL     OW37855   2.516   2.808   5.216 -0.2892  0.4504 -0.1932
 8740SOL    HW137856   2.464   2.730   5.201  0.0582  0.0151  0.8617
 8740SOL    HW237857   2.586   2.767   5.267 -0.3717 -0.1305 -0.5505
 8741SOL     OW37858   1.438   1.986   8.201  0.2613  0.2500 -0.1093
 8741SOL    HW137859   1.408   2.071   8.233  0.5787  0.1540  0.4509
 8741SOL    HW237860   1.533   1.973   8.208  0.1163  0.0109  1.4501
 8742SOL     OW37861   1.945   0.125   5.794  0.5278 -0.2390 -0.0964
 8742SOL    HW137862   2.019   0.084   5.839 -0.9122 -0.6225  1.9343
 8742SOL    HW237863   1.948   0.068   5.717 -1.3769  1.3811 -1.3899
 8743SOL     OW37864   0.408   3.140   9.971 -0.4410 -0.5837 -0.2691
 8743SOL    HW137865   0.389   3.203   9.902 -0.2262  2.3905  2.3686
 8743SOL    HW237866   0.503   3.127   9.962 -0.4091 -0.6467  0.1321
 8744SOL     OW37867   1.430   0.381  16.600 -0.4058  0.4306 -0.1687
 8744SOL    HW137868   1.359   0.348  16.545  0.7776 -0.7136 -1.0049
 8744SOL    HW237869   1.483   0.307  16.627 -0.4979  0.9240  1.3937
 8745SOL     OW37870   0.480   3.528   7.689 -0.3184 -0.1805  0.6174
 8745SOL    HW137871   0.553   3.499   7.745  0.1327  0.7714  0.5213
 8745SOL    HW237872   0.426   3.549   7.766  0.4583  3.7966  0.0600
 8746SOL     OW37873   2.429   2.019   4.673 -0.4563  0.3669  0.2276
 8746SOL    HW137874   2.513   1.985   4.704  1.7489  3.7015 -2.0004
 8746SOL    HW237875   2.454   2.067   4.594  1.0988  0.6803  0.9100
 8747SOL     OW37876   1.302   1.393   8.630 -0.6156  0.3849  0.2831
 8747SOL    HW137877   1.390   1.423   8.651 -0.5422  1.5067 -1.6162
 8747SOL    HW237878   1.253   1.422   8.707 -1.3561  1.9036 -0.7379
 8748SOL     OW37879   2.460   1.326  15.642  0.2219  0.8762 -0.0908
 8748SOL    HW137880   2.409   1.292  15.715 -0.4998  0.1838 -0.9203
 8748SOL    HW237881   2.387   1.347  15.584 -0.5251  0.4697  0.7239
 8749SOL     OW37882   3.157   3.384   0.857 -0.3686 -0.1928 -0.4070
 8749SOL    HW137883   3.191   3.358   0.771  0.0173 -0.2769 -0.2284
 8749SOL    HW237884   3.230   3.348   0.908  0.5843  0.8914 -1.0185
 8750SOL     OW37885   4.445   4.439   7.424 -0.0861  0.5355 -0.4052
 8750SOL    HW137886   4.370   4.382   7.444  1.1826 -0.6904  0.8825
 8750SOL    HW237887   4.490   4.369   7.378  0.2745  1.7904 -1.9806
 8751SOL     OW37888   3.288   1.485   5.165 -1.0232 -0.3762 -0.3746
 8751SOL    HW137889   3.196   1.460   5.172 -0.6463 -1.1689  1.8515
 8751SOL    HW237890   3.318   1.416   5.106  1.8556  0.6794 -0.1435
 8752SOL     OW37891   4.199   2.916   8.548  0.0151 -0.1686 -0.0199
 8752SOL    HW137892   4.294   2.927   8.546 -0.2452  1.7278 -2.1380
 8752SOL    HW237893   4.199   2.821   8.558  1.2808 -0.2402 -0.7692
 8753SOL     OW37894   3.463   3.423   6.764 -0.1444 -0.1124 -0.0332
 8753SOL    HW137895   3.504   3.360   6.706  0.4639  1.6655 -1.5446
 8753SOL    HW237896   3.486   3.505   6.719  1.7091  0.2546  1.5668
 8754SOL     OW37897   2.407   2.019  14.883 -0.0380  0.0745  0.0064
 8754SOL    HW137898   2.380   1.999  14.793 -0.2248  1.0198 -0.1493
 8754SOL    HW237899   2.460   1.943  14.903  3.7247  2.5231 -0.7499
 8755SOL     OW37900   4.356   3.838   4.430 -0.3210  0.1205 -0.0260
 8755SOL    HW137901   4.345   3.769   4.365  0.8889 -0.0442 -0.0501
 8755SOL    HW237902   4.374   3.786   4.509 -0.0513  2.7532  1.6330
 8756SOL     OW37903   1.043   2.579   1.187  0.0628  0.3081  0.2178
 8756SOL    HW137904   1.045   2.656   1.244 -0.4834  0.0104  0.6373
 8756SOL    HW237905   1.129   2.567   1.145 -0.7811 -3.4278 -0.4098
 8757SOL     OW37906   4.470   1.524   2.821 -0.1572  0.3319  0.8567
 8757SOL    HW137907   4.378   1.540   2.804 -0.2181 -1.3524 -0.4439
 8757SOL    HW237908   4.471   1.449   2.880  0.9911  0.3008  0.8046
 8758SOL     OW37909   2.982   1.798   1.916  0.2524 -0.3640 -0.3638
 8758SOL    HW137910   3.008   1.721   1.967  0.4148 -1.0777 -1.5468
 8758SOL    HW237911   3.000   1.873   1.973  0.2262 -1.2756  0.8522
 8759SOL     OW37912   0.162   4.259   0.982  0.2039  0.1303  0.1300
 8759SOL    HW137913   0.210   4.322   1.036  0.2292  0.3093 -0.0992
 8759SOL    HW237914   0.215   4.266   0.903 -1.9333 -2.0010 -1.4986
 8760SOL     OW37915   2.771   2.307   5.900 -0.1899 -0.2516 -0.0482
 8760SOL    HW137916   2.723   2.373   5.950 -1.8048 -1.7379  0.3597
 8760SOL    HW237917   2.698   2.266   5.855 -1.4557  1.8760  0.0575
 8761SOL     OW37918   1.445   1.324   9.549 -0.1129  0.7468 -0.5356
 8761SOL    HW137919   1.358   1.307   9.513 -1.0366  1.3121  1.4360
 8761SOL    HW237920   1.478   1.393   9.491  1.6326 -1.1121 -1.7635
 8762SOL     OW37921   3.773   0.507   2.452  0.0191  0.0910 -0.2566
 8762SOL    HW137922   3.806   0.596   2.468  0.2491  0.0942 -0.7329
 8762SOL    HW237923   3.690   0.526   2.407 -0.3379 -1.3322 -0.1924
 8763SOL     OW37924   2.911   2.664   8.143 -0.3485  0.2635 -0.2433
 8763SOL    HW137925   2.939   2.628   8.059  0.5921 -0.2410  0.2944
 8763SOL    HW237926   2.909   2.760   8.133  0.1562  0.8065  5.1549
 8764SOL     OW37927   1.619   0.130   1.709  0.2823 -0.3145  0.3509
 8764SOL    HW137928   1.670   0.200   1.748  0.8804 -1.8220  2.2748
 8764SOL    HW237929   1.666   0.114   1.627 -2.5032 -2.7549 -0.7920
 8765SOL     OW37930   4.564   4.442   4.865  0.5427  0.3840  0.0722
 8765SOL    HW137931   4.523   4.520   4.827  0.2544  0.2534  0.1196
 8765SOL    HW237932   4.518   4.424   4.947  1.5120 -1.3680  0.2262
 8766SOL     OW37933   3.730   1.849   8.534 -0.1667  0.1606 -0.1420
 8766SOL    HW137934   3.804   1.879   8.482 -0.3379 -0.2096 -0.6039
 8766SOL    HW237935   3.769   1.793   8.602 -0.8798  1.0012  0.9646
 8767SOL     OW37936   1.260   3.500  10.181 -0.8357  0.8571 -0.0264
 8767SOL    HW137937   1.320   3.545  10.122  0.6235 -0.7001  0.2753
 8767SOL    HW237938   1.207   3.572  10.216 -0.7120 -0.0868  2.0526
 8768SOL     OW37939   1.267   0.296   1.901 -0.1926 -0.8768 -0.3510
 8768SOL    HW137940   1.228   0.279   1.816  0.3167 -0.8526 -0.5882
 8768SOL    HW237941   1.211   0.240   1.954 -1.2525 -0.2537 -0.8181
 8769SOL     OW37942   1.722   4.159   7.176  0.1703 -0.5974 -0.2981
 8769SOL    HW137943   1.741   4.214   7.252  0.7936  0.5943 -1.3260
 8769SOL    HW237944   1.713   4.224   7.107 -2.5455 -1.0647 -0.3830
 8770SOL     OW37945   2.032   4.588   5.339 -0.4973  0.3297 -0.2688
 8770SOL    HW137946   2.075   4.578   5.424 -1.2831 -0.0443  0.0831
 8770SOL    HW237947   2.113   4.592   5.289  0.9162 -1.1798  1.8905
 8771SOL     OW37948   3.840   1.864   0.530 -0.1221 -0.2926  0.5472
 8771SOL    HW137949   3.799   1.861   0.443  0.5534  0.6060  0.2072
 8771SOL    HW237950   3.861   1.771   0.538 -2.1432 -0.8815 -0.7806
 8772SOL     OW37951   2.197   3.301   8.046  0.2681 -0.2095 -0.3045
 8772SOL    HW137952   2.267   3.268   7.990  1.1103  0.4419  0.3703
 8772SOL    HW237953   2.234   3.298   8.134  1.4255 -1.4079 -0.8335
 8773SOL     OW37954   2.379   1.804   3.130 -0.4089  0.1673 -0.1913
 8773SOL    HW137955   2.455   1.790   3.187  0.2738 -0.1641 -1.1835
 8773SOL    HW237956   2.329   1.856   3.193  0.5864  2.0008 -0.9247
 8774SOL     OW37957   4.708   2.645  15.149 -0.0993 -0.0986 -0.5617
 8774SOL    HW137958   4.612   2.652  15.151  0.0302  1.9202 -2.1010
 8774SOL    HW237959   4.714   2.578  15.218 -0.3385 -1.3516 -1.7566
 8775SOL     OW37960   3.899   2.076   5.404 -0.3028 -0.2304  0.1798
 8775SOL    HW137961   3.858   1.990   5.417  1.5866 -1.1728 -0.1332
 8775SOL    HW237962   3.990   2.053   5.384  0.1405 -0.2933  2.2997
 8776SOL     OW37963   3.932   3.520   8.329  0.0126 -0.3638 -0.1114
 8776SOL    HW137964   4.020   3.510   8.365  0.1733  1.3973 -0.0081
 8776SOL    HW237965   3.945   3.454   8.261  0.1479 -0.3964 -0.0523
 8777SOL     OW37966   1.862   1.833   0.968  0.1821 -0.0980 -0.7294
 8777SOL    HW137967   1.893   1.771   0.903 -0.0408  1.2293 -2.1108
 8777SOL    HW237968   1.946   1.852   1.009  0.0503  2.3073 -1.5715
 8778SOL     OW37969   3.192   1.157  14.532  0.8556  0.2153  0.2081
 8778SOL    HW137970   3.152   1.137  14.617  1.4891  1.4476  0.7994
 8778SOL    HW237971   3.284   1.165  14.557  1.5415  0.0629 -2.2743
 8779SOL     OW37972   1.193   0.491   8.988  0.0691 -0.2080  0.3300
 8779SOL    HW137973   1.154   0.414   8.946  0.8892  0.6603 -2.0549
 8779SOL    HW237974   1.131   0.506   9.059  0.1377  1.2505  0.0676
 8780SOL     OW37975   2.161   1.227   7.492  0.3269 -0.1306  0.0862
 8780SOL    HW137976   2.148   1.290   7.562 -0.4940  0.2642 -0.4323
 8780SOL    HW237977   2.210   1.152   7.526  1.0160 -0.9735 -2.7484
 8781SOL     OW37978   4.046   2.392   3.488 -0.4093 -0.1880  0.4441
 8781SOL    HW137979   3.974   2.375   3.428 -1.6299  2.1852  1.2251
 8781SOL    HW237980   4.119   2.427   3.438  0.0051 -1.0518  0.4490
 8782SOL     OW37981   3.858   0.242   2.480  0.9807 -0.6243  0.4182
 8782SOL    HW137982   3.844   0.337   2.478  0.5970 -0.6869 -0.0875
 8782SOL    HW237983   3.948   0.234   2.511  1.4726  0.8248 -0.6219
 8783SOL     OW37984   0.559   3.104  15.037  0.2860  0.7617 -0.3255
 8783SOL    HW137985   0.577   3.030  14.979 -0.8661 -0.1069  0.4278
 8783SOL    HW237986   0.578   3.181  14.984  2.1760  2.7380  3.1690
 8784SOL     OW37987   2.202   2.206   4.768  0.1063 -0.2735  0.4042
 8784SOL    HW137988   2.296   2.197   4.756 -0.0655  0.4541 -1.5143
 8784SOL    HW237989   2.190   2.188   4.861  0.6225  1.6346  0.8377
 8785SOL     OW37990   2.355   4.458   5.201 -0.2616 -0.6706  0.1205
 8785SOL    HW137991   2.415   4.460   5.276 -1.7001 -0.7474  1.2587
 8785SOL    HW237992   2.390   4.381   5.155  1.0886 -0.0539  0.1024
 8786SOL     OW37993   1.585   2.559  10.749  0.2277 -0.3073 -0.6869
 8786SOL    HW137994   1.594   2.536  10.657  0.4636  1.0306 -0.9945
 8786SOL    HW237995   1.509   2.508  10.779 -1.4999  2.6844  0.0257
 8787SOL     OW37996   1.202   0.595   5.845 -0.6310  0.1344  0.3624
 8787SOL    HW137997   1.281   0.548   5.818 -0.8098  0.1343 -0.1665
 8787SOL    HW237998   1.155   0.528   5.894 -2.3793 -0.8617 -2.6269
 8788SOL     OW37999   1.207   4.304   4.230  0.3386 -0.4041 -0.4687
 8788SOL    HW138000   1.209   4.344   4.143 -0.5473 -2.7363 -1.5587
 8788SOL    HW238001   1.292   4.331   4.265  0.5886 -2.0843  0.1958
 8789SOL     OW38002   4.053   3.032   8.104 -0.5448  0.0471 -0.1455
 8789SOL    HW138003   4.099   3.088   8.042  0.3186 -0.7894 -0.2521
 8789SOL    HW238004   4.109   3.035   8.181  1.7516 -1.6325 -1.7650
 8790SOL     OW38005   3.406   1.160   3.251  0.0162  0.3542 -0.0786
 8790SOL    HW138006   3.350   1.236   3.239 -0.2159 -0.1485 -2.3767
 8790SOL    HW238007   3.335   1.098   3.266 -0.4383  1.6022  2.8957
 8791SOL     OW38008   0.183   2.222   7.317  0.5083 -0.1900  0.0887
 8791SOL    HW138009   0.215   2.249   7.231 -3.0231  4.2413  0.1434
 8791SOL    HW238010   0.089   2.236   7.305  0.1516 -1.2171  1.6361
 8792SOL     OW38011   3.983   3.873   3.562  0.2624 -0.0081  0.7267
 8792SOL    HW138012   4.035   3.831   3.630  1.3924  0.3081  0.0549
 8792SOL    HW238013   3.947   3.792   3.527  1.8207 -0.2876 -0.2070
 8793SOL     OW38014   0.599   2.353   7.426  0.5867 -0.3403 -0.2216
 8793SOL    HW138015   0.560   2.276   7.384 -0.0915  0.6013 -1.3119
 8793SOL    HW238016   0.594   2.425   7.363 -2.0883 -0.3979 -0.0796
 8794SOL     OW38017   2.319   0.284   1.757  0.3849  0.0027  0.2348
 8794SOL    HW138018   2.410   0.260   1.773  0.2119 -0.4521  0.5277
 8794SOL    HW238019   2.281   0.197   1.771 -1.1886  0.5548 -0.6143
 8795SOL     OW38020   2.930   1.638  13.695 -0.3234 -0.1805 -0.2772
 8795SOL    HW138021   2.998   1.695  13.730 -1.1038  0.8010 -0.3463
 8795SOL    HW238022   2.933   1.563  13.754 -1.3887 -0.4953 -0.6193
 8796SOL     OW38023   1.255   0.686   1.622  0.2422 -0.8265  0.6016
 8796SOL    HW138024   1.289   0.741   1.693 -1.3764 -1.2226  1.6850
 8796SOL    HW238025   1.163   0.683   1.647  0.1792  0.9087  0.5818
 8797SOL     OW38026   4.173   0.479   7.545  0.6785  0.1292 -0.1342
 8797SOL    HW138027   4.187   0.393   7.505 -0.4451 -0.4768  0.7865
 8797SOL    HW238028   4.246   0.483   7.607  0.0851 -1.1051  0.6408
 8798SOL     OW38029   1.058   3.483  12.184  0.1488 -0.3124 -0.0448
 8798SOL    HW138030   1.136   3.490  12.239 -0.1255  2.6406  0.0181
 8798SOL    HW238031   1.086   3.404  12.137 -1.0031 -0.1501 -1.0021
 8799SOL     OW38032   2.137   4.694   7.249  0.0393 -0.2779 -0.8183
 8799SOL    HW138033   2.096   0.013   7.183  4.0072  2.6639 -0.7948
 8799SOL    HW238034   2.063   4.636   7.267  0.8815 -1.4978 -1.3186
 8800SOL     OW38035   3.575   2.104  17.354 -0.3393 -0.0384 -0.0926
 8800SOL    HW138036   3.596   2.022  17.309  3.3905 -0.3866  2.3044
 8800SOL    HW238037   3.533   2.071  17.433  1.5811  1.3240  1.5156
 8801SOL     OW38038   1.434   0.968   1.433  0.9861  0.7504 -0.0759
 8801SOL    HW138039   1.524   0.941   1.452  0.3927 -0.9328  0.3571
 8801SOL    HW238040   1.398   0.887   1.395  0.4471  0.9720 -0.0349
 8802SOL     OW38041   4.506   2.853  15.456 -0.2236  0.2204 -0.0827
 8802SOL    HW138042   4.487   2.810  15.372  0.2642 -2.4356  1.1516
 8802SOL    HW238043   4.446   2.927  15.458 -0.6573 -0.2095  2.9043
 8803SOL     OW38044   4.113   3.196  17.722 -0.1414  0.2541 -0.0446
 8803SOL    HW138045   4.129   3.184  17.629  1.3470  2.7821 -0.1368
 8803SOL    HW238046   4.075   3.284  17.727 -2.2477 -0.6920  0.5385
 8804SOL     OW38047   0.430   2.817   3.290 -0.3251  0.0483 -0.1612
 8804SOL    HW138048   0.355   2.777   3.246 -1.0439  0.7295  0.4396
 8804SOL    HW238049   0.402   2.907   3.306 -0.7956 -0.0987 -0.1637
 8805SOL     OW38050   0.782   1.057   6.519 -0.0470  0.4229 -0.1503
 8805SOL    HW138051   0.703   1.009   6.545 -0.5626  0.4620 -1.6904
 8805SOL    HW238052   0.741   1.143   6.514 -0.6296  0.0045 -2.6088
 8806SOL     OW38053   3.669   0.475   4.807 -0.4031 -0.2028 -0.1341
 8806SOL    HW138054   3.707   0.412   4.745 -0.3080 -0.1772 -0.1014
 8806SOL    HW238055   3.703   0.558   4.774  0.0818 -1.3334 -2.4839
 8807SOL     OW38056   1.379   2.462   4.577  0.8697  0.0384 -0.2519
 8807SOL    HW138057   1.389   2.448   4.482 -0.8777  0.2203 -0.4678
 8807SOL    HW238058   1.315   2.533   4.571 -0.8777 -1.6262 -1.3704
 8808SOL     OW38059   2.411   0.175  12.234  0.0033 -0.2993 -0.2885
 8808SOL    HW138060   2.401   0.249  12.294 -1.7507 -0.8176  0.0525
 8808SOL    HW238061   2.397   0.234  12.160  1.2823  0.9912  0.4963
 8809SOL     OW38062   2.195   1.069   7.930 -0.1762 -0.3678  0.0712
 8809SOL    HW138063   2.260   1.079   7.860  0.1968  0.4501  0.5298
 8809SOL    HW238064   2.247   1.043   8.006  1.2944 -2.4806 -1.6289
 8810SOL     OW38065   1.365   3.683   9.963  0.4638  0.7550  0.4840
 8810SOL    HW138066   1.439   3.735   9.994  0.8960  0.0886  0.5851
 8810SOL    HW238067   1.413   3.629   9.900  0.7029  0.7151  0.6966
 8811SOL     OW38068   3.275   0.678  11.995 -0.2666 -0.3638 -0.3801
 8811SOL    HW138069   3.331   0.638  11.928  1.7358 -1.1732  1.8078
 8811SOL    HW238070   3.251   0.594  12.035 -0.0818  0.3061  1.1006
 8812SOL     OW38071   3.459   3.892   3.594 -0.3880 -0.3065  0.0532
 8812SOL    HW138072   3.437   3.820   3.534  2.5434  0.6726 -2.2475
 8812SOL    HW238073   3.389   3.956   3.582 -0.0814  0.4021  2.0633
 8813SOL     OW38074   3.918   1.506   5.239  0.5335 -0.2161  0.3486
 8813SOL    HW138075   3.842   1.562   5.224  1.2375  0.6387  0.0583
 8813SOL    HW238076   3.875   1.427   5.273 -1.8476  0.1303 -1.8090
 8814SOL     OW38077   4.726   4.308   3.017 -0.8602 -0.1709 -0.0903
 8814SOL    HW138078   4.701   4.341   3.103 -2.6160 -0.1282 -0.6166
 8814SOL    HW238079   4.735   4.390   2.968  0.6765 -0.3909 -0.1956
 8815SOL     OW38080   3.445   0.878   7.475 -0.1674 -0.0978 -0.5371
 8815SOL    HW138081   3.497   0.798   7.474 -0.5193 -0.3358  0.1318
 8815SOL    HW238082   3.499   0.942   7.522  2.2158 -1.5020 -1.3562
 8816SOL     OW38083   3.656   3.638  10.533 -0.1653  0.0885  0.4360
 8816SOL    HW138084   3.735   3.645  10.480 -0.2629  0.4764  0.3432
 8816SOL    HW238085   3.672   3.560  10.585 -0.4649 -1.1645 -1.3549
 8817SOL     OW38086   0.469   1.010   7.950 -0.2407  0.3321 -0.2549
 8817SOL    HW138087   0.445   1.039   8.038  0.7758 -0.8370  0.4210
 8817SOL    HW238088   0.565   1.007   7.957 -0.4195 -1.0174  1.6522
 8818SOL     OW38089   3.698   3.495   3.910  0.0397 -0.2021 -0.3809
 8818SOL    HW138090   3.784   3.504   3.952  0.0481 -0.9825 -0.2275
 8818SOL    HW238091   3.657   3.581   3.920 -0.1611 -0.2471 -0.8678
 8819SOL     OW38092   1.637   3.961   0.663 -0.4238  0.1119 -0.0340
 8819SOL    HW138093   1.648   3.876   0.706  2.5577  0.4094 -0.2324
 8819SOL    HW238094   1.725   3.984   0.632  0.0695  1.8017  2.6979
 8820SOL     OW38095   0.860   2.305   9.127 -0.5064  0.2004 -0.0799
 8820SOL    HW138096   0.825   2.387   9.162 -2.3737 -1.0379  0.9390
 8820SOL    HW238097   0.919   2.285   9.200  1.2867  0.7294 -1.3710
 8821SOL     OW38098   2.848   4.653  13.075 -0.3821 -0.2939  0.5537
 8821SOL    HW138099   2.869   4.705  13.153 -0.1109 -2.5770  2.0236
 8821SOL    HW238100   2.923   4.596  13.061 -1.5875 -2.5152  3.1532
 8822SOL     OW38101   0.539   2.937   9.268  0.1452 -0.4316 -0.4014
 8822SOL    HW138102   0.489   2.855   9.270 -1.0709  0.3314  0.6399
 8822SOL    HW238103   0.494   2.987   9.201  1.4483  1.6593  0.3118
 8823SOL     OW38104   2.102   2.158   8.956  0.1985  0.3337 -0.0747
 8823SOL    HW138105   2.140   2.191   8.875 -1.6820  0.6011 -0.8400
 8823SOL    HW238106   2.010   2.173   8.935 -0.4276 -2.1054  0.9135
 8824SOL     OW38107   2.630   2.576   4.193  0.1812 -0.3951 -0.3091
 8824SOL    HW138108   2.573   2.598   4.266  0.3931  0.7919 -0.5006
 8824SOL    HW238109   2.709   2.625   4.216 -0.5916  0.7286 -0.0374
 8825SOL     OW38110   1.379   1.546   1.916  0.6908  0.2854  0.2045
 8825SOL    HW138111   1.344   1.479   1.857 -0.2478  0.8328  0.1405
 8825SOL    HW238112   1.402   1.499   1.996  2.8375  0.9725 -0.0082
 8826SOL     OW38113   0.917   4.587   0.144 -0.3769  0.1254  0.6003
 8826SOL    HW138114   0.845   4.578   0.083 -0.2098  1.0249  0.2775
 8826SOL    HW238115   0.885   4.527   0.211  1.0063 -1.0929  0.1870
 8827SOL     OW38116   4.603   1.339  12.532  0.2873 -0.0352 -0.1350
 8827SOL    HW138117   4.523   1.300  12.497  0.0245  0.9683 -0.6477
 8827SOL    HW238118   4.672   1.300  12.479 -0.1256 -1.9089  0.6727
 8828SOL     OW38119   1.983   2.152   5.044 -0.2336  0.2835 -0.1728
 8828SOL    HW138120   1.933   2.079   5.006 -0.6081  0.5273 -0.1459
 8828SOL    HW238121   2.072   2.120   5.027 -0.3037 -0.0137  0.0078
 8829SOL     OW38122   1.559   3.271   6.040  0.0773  0.2310  0.1320
 8829SOL    HW138123   1.556   3.292   6.133 -0.1053  0.1819  0.1377
 8829SOL    HW238124   1.567   3.175   6.045  0.3225  0.2921  0.8872
 8830SOL     OW38125   0.011   1.223   8.134  0.3179 -0.0291  0.5103
 8830SOL    HW138126   0.069   1.300   8.141  0.4769 -0.1415  0.4330
 8830SOL    HW238127   0.007   1.182   8.220 -0.7244  0.3141  0.6271
 8831SOL     OW38128   2.242   4.581   5.509 -0.6922 -0.3391  0.1256
 8831SOL    HW138129   2.315   4.642   5.502 -1.7588  0.9726  0.4806
 8831SOL    HW238130   2.288   4.499   5.525 -0.2133  0.0083  0.4937
 8832SOL     OW38131   2.610   4.110   2.730 -0.1852  0.2743  0.0026
 8832SOL    HW138132   2.610   4.055   2.808  1.8767 -1.2135 -1.0319
 8832SOL    HW238133   2.540   4.065   2.682 -0.1837 -0.6221  0.8408
 8833SOL     OW38134   2.110   4.642   4.862  0.2528 -0.5130 -0.8684
 8833SOL    HW138135   2.097   4.592   4.942 -1.5396  0.2194 -0.7033
 8833SOL    HW238136   2.197   4.667   4.893 -0.0590 -1.1565  0.5001
 8834SOL     OW38137   0.407   1.773   8.112 -0.4446  0.0876 -0.2091
 8834SOL    HW138138   0.454   1.703   8.067 -2.1696  0.1641 -2.1124
 8834SOL    HW238139   0.324   1.772   8.064  0.6319 -1.8185 -2.0243
 8835SOL     OW38140   2.901   3.242  11.941  0.1540 -0.2296 -0.0421
 8835SOL    HW138141   2.867   3.310  11.883  2.1047  1.6252  0.9623
 8835SOL    HW238142   2.836   3.174  11.925  0.6195 -1.2943  2.5099
 8836SOL     OW38143   2.738   3.194   8.473 -0.4278  0.2209 -0.1176
 8836SOL    HW138144   2.769   3.107   8.448 -1.8939 -0.4325  0.3477
 8836SOL    HW238145   2.823   3.223   8.509 -1.0518  0.8331  0.8610
 8837SOL     OW38146   3.752   1.171   8.681  0.3358 -0.1453  0.0113
 8837SOL    HW138147   3.825   1.173   8.743  0.5288  1.5709 -0.2579
 8837SOL    HW238148   3.673   1.179   8.735  0.6260  2.5368  0.0493
 8838SOL     OW38149   2.653   3.418   5.253  0.2562  0.4107  0.6420
 8838SOL    HW138150   2.626   3.429   5.162  0.9246  1.0035  0.5209
 8838SOL    HW238151   2.739   3.459   5.261  0.6633  0.1862 -2.3857
 8839SOL     OW38152   1.936   3.780  12.389 -0.2241 -0.2056  0.3352
 8839SOL    HW138153   1.992   3.852  12.416  1.5839 -0.6266 -2.3321
 8839SOL    HW238154   1.951   3.710  12.453 -1.5377 -0.3658  0.4799
 8840SOL     OW38155   3.079   2.415   5.277 -0.1910 -0.2302 -0.3892
 8840SOL    HW138156   3.134   2.426   5.355 -1.1594  3.6005 -0.2500
 8840SOL    HW238157   3.099   2.501   5.240 -0.6546  0.8735  1.8672
 8841SOL     OW38158   3.273   2.532   4.472 -0.6156 -0.1963  0.1542
 8841SOL    HW138159   3.316   2.447   4.480 -1.3104 -0.5566  0.1020
 8841SOL    HW238160   3.347   2.590   4.492 -0.0753 -0.5746 -0.7530
 8842SOL     OW38161   1.743   3.068   4.615 -0.0801 -0.1365  0.4911
 8842SOL    HW138162   1.667   3.031   4.660 -0.9129  2.4529  1.2418
 8842SOL    HW238163   1.777   2.982   4.590 -1.0625 -0.4665  0.2853
 8843SOL     OW38164   4.377   1.231  10.422  0.0559  0.8908 -0.1272
 8843SOL    HW138165   4.414   1.151  10.385  0.0166  0.0034  1.7738
 8843SOL    HW238166   4.416   1.242  10.509  1.0590 -0.0229 -0.4709
 8844SOL     OW38167   0.419   3.151  14.384  0.4551 -0.0866 -0.1483
 8844SOL    HW138168   0.447   3.089  14.452 -1.1629  1.2228  1.7178
 8844SOL    HW238169   0.501   3.195  14.360  0.4962  0.0691  0.2716
 8845SOL     OW38170   2.225   3.966   7.049 -0.1355  0.0234 -0.3344
 8845SOL    HW138171   2.271   3.886   7.024 -0.8628 -0.5405  0.1503
 8845SOL    HW238172   2.305   4.015   7.070 -1.8768  1.3911  3.1134
 8846SOL     OW38173   4.374   1.251   9.334 -0.2856  0.0601  0.5050
 8846SOL    HW138174   4.306   1.254   9.401 -0.8833  0.5543 -0.1226
 8846SOL    HW238175   4.456   1.271   9.379  0.0796 -0.7355  0.1922
 8847SOL     OW38176   4.365   2.368   4.435  0.4344  0.2238 -0.4881
 8847SOL    HW138177   4.302   2.380   4.363 -1.1853 -2.9015  0.4196
 8847SOL    HW238178   4.442   2.366   4.378  0.9791  0.1869  0.2573
 8848SOL     OW38179   0.737   3.396   0.942 -0.4959  0.3632 -0.0760
 8848SOL    HW138180   0.735   3.445   0.860 -0.0484 -0.0940 -0.3557
 8848SOL    HW238181   0.651   3.401   0.985 -0.1159 -0.2885  0.7770
 8849SOL     OW38182   1.392   3.279   7.471  0.3009 -0.3201  0.1284
 8849SOL    HW138183   1.392   3.226   7.550 -1.6191 -0.0599  0.2941
 8849SOL    HW238184   1.300   3.274   7.446  0.1991 -0.8466  0.6160
 8850SOL     OW38185   3.525   0.966   1.383 -0.0303  0.2609 -0.6682
 8850SOL    HW138186   3.441   0.979   1.426  0.3472  2.4209 -0.5855
 8850SOL    HW238187   3.527   1.056   1.352 -0.1417  1.1705  1.9804
 8851SOL     OW38188   4.071   1.607   3.966  0.7290  0.1806  0.0895
 8851SOL    HW138189   4.120   1.527   3.986  0.5787 -0.1528 -0.8432
 8851SOL    HW238190   3.988   1.592   3.921  0.0044  0.5135  1.3407
 8852SOL     OW38191   0.805   0.325   2.843  0.1836 -0.4280  0.9033
 8852SOL    HW138192   0.807   0.258   2.913  2.5421 -2.6957 -1.3399
 8852SOL    HW238193   0.900   0.336   2.838  0.4710 -2.4659  1.6217
 8853SOL     OW38194   0.182   0.422   4.765  0.4821 -0.6092 -0.0332
 8853SOL    HW138195   0.139   0.358   4.821 -1.6740 -0.3654 -1.3951
 8853SOL    HW238196   0.175   0.494   4.828  1.1848  1.8067 -2.7282
 8854SOL     OW38197   1.248   3.582   7.521  0.4643  0.5834  0.2427
 8854SOL    HW138198   1.298   3.618   7.594  0.0289  0.2827  0.6923
 8854SOL    HW238199   1.196   3.513   7.562  0.1307  1.8271  1.9383
 8855SOL     OW38200   4.536   1.548   8.231 -0.4482  0.7002  0.4182
 8855SOL    HW138201   4.466   1.488   8.204  0.9999  0.0778 -1.9488
 8855SOL    HW238202   4.488   1.627   8.205 -1.6116  0.4040  1.6609
 8856SOL     OW38203   0.871   1.728  16.214 -0.1295  0.7592 -0.1778
 8856SOL    HW138204   0.946   1.710  16.157 -0.2018  0.5017 -0.1916
 8856SOL    HW238205   0.931   1.757  16.283 -1.3240  1.7485  0.4575
 8857SOL     OW38206   2.292   2.373  13.143  0.2077  0.0080  0.1567
 8857SOL    HW138207   2.333   2.300  13.189  1.2495  1.4712  1.5744
 8857SOL    HW238208   2.258   2.330  13.065  0.5741  0.2549 -0.1363
 8858SOL     OW38209   0.716   2.894   3.784 -0.2298  0.1259 -0.1278
 8858SOL    HW138210   0.757   2.922   3.865 -0.1936 -0.7278  0.1493
 8858SOL    HW238211   0.750   2.952   3.716 -0.9033 -0.5397 -1.0326
 8859SOL     OW38212   1.925   0.669  11.534 -0.1228 -0.0113 -0.4242
 8859SOL    HW138213   1.992   0.605  11.556 -0.2608  0.6806  1.9673
 8859SOL    HW238214   1.979   0.747  11.522  0.2911  0.0580  1.9923
 8860SOL     OW38215   4.088   2.507  12.221 -0.4006  0.0027 -0.5473
 8860SOL    HW138216   4.069   2.477  12.132 -0.2629 -1.0905 -0.2064
 8860SOL    HW238217   4.056   2.598  12.223 -0.1624  0.0712  0.0807
 8861SOL     OW38218   3.588   0.532   7.887  0.0184 -0.2856 -0.2127
 8861SOL    HW138219   3.642   0.537   7.808 -0.2623 -0.4157 -0.4102
 8861SOL    HW238220   3.609   0.607   7.942 -1.2403  0.3333 -0.5649
 8862SOL     OW38221   0.508   1.368   3.702  0.2327  0.2603  0.1034
 8862SOL    HW138222   0.442   1.377   3.771  2.7900 -1.1313  2.7159
 8862SOL    HW238223   0.504   1.452   3.656  0.2451  1.6249  2.6153
 8863SOL     OW38224   3.284   2.264   5.775  0.0056 -0.7999  0.0293
 8863SOL    HW138225   3.205   2.307   5.808  2.1386  3.0747 -0.0673
 8863SOL    HW238226   3.257   2.173   5.789  0.9889 -1.0440  0.3324
 8864SOL     OW38227   1.436   3.906   3.938 -0.1171  0.3652 -0.5627
 8864SOL    HW138228   1.452   3.947   3.853  1.8679 -0.3729 -0.5399
 8864SOL    HW238229   1.433   3.812   3.919  0.2713  0.4615 -1.0899
 8865SOL     OW38230   0.107   0.671  15.037  0.2591 -0.0515  0.3465
 8865SOL    HW138231   0.042   0.605  15.013 -0.6789  0.7214  0.7690
 8865SOL    HW238232   0.056   0.743  15.074 -1.8720 -0.2512 -2.2332
 8866SOL     OW38233   4.100   2.419   5.251  0.0109 -0.0181 -0.5037
 8866SOL    HW138234   4.063   2.390   5.335  1.8078  0.6115  0.4983
 8866SOL    HW238235   4.170   2.472   5.288 -0.3363 -0.1666  0.3750
 8867SOL     OW38236   0.795   3.609   9.423  0.1863  0.1482  0.5491
 8867SOL    HW138237   0.727   3.588   9.359  0.8890 -0.3348 -0.0364
 8867SOL    HW238238   0.794   3.533   9.481 -1.6934  0.1433  0.4892
 8868SOL     OW38239   4.645   3.298   4.312  0.1017 -0.0723 -1.0802
 8868SOL    HW138240   4.581   3.333   4.374  1.1589 -0.4560  0.2482
 8868SOL    HW238241   4.718   3.353   4.341 -1.3278  1.2339  0.0139
 8869SOL     OW38242   3.280   1.993  13.754 -0.1441  0.0515 -0.2607
 8869SOL    HW138243   3.212   1.980  13.688 -3.6884 -2.0194  3.8332
 8869SOL    HW238244   3.306   2.085  13.744  0.5745  0.1720  2.6547
 8870SOL     OW38245   4.607   1.613   3.453  0.4999 -0.4995 -0.4513
 8870SOL    HW138246   4.515   1.621   3.424  1.5209  1.3463 -3.2455
 8870SOL    HW238247   4.648   1.639   3.370  0.1740 -0.2387 -0.5332
 8871SOL     OW38248   3.998   2.761   6.219  0.3432  0.2990  0.4652
 8871SOL    HW138249   3.909   2.763   6.256  0.4477 -1.0200  0.7618
 8871SOL    HW238250   4.006   2.836   6.159 -0.6181  0.2809  0.3123
 8872SOL     OW38251   2.574   1.083   6.045 -0.0061  0.1753  0.2250
 8872SOL    HW138252   2.662   1.120   6.052  0.9267 -1.3966 -3.2516
 8872SOL    HW238253   2.534   1.140   6.111 -2.0618 -1.8317  0.7211
 8873SOL     OW38254   1.014   3.497   5.779 -0.4391 -0.3868  0.7871
 8873SOL    HW138255   0.989   3.440   5.852 -1.5674 -0.8062  0.0787
 8873SOL    HW238256   0.981   3.579   5.815  3.9476  0.1021  3.6677
 8874SOL     OW38257   3.861   2.918   7.813 -0.6269  0.1214 -0.1848
 8874SOL    HW138258   3.789   2.867   7.848  0.3912  0.0750  1.8216
 8874SOL    HW238259   3.938   2.861   7.810  0.9847  2.2362  0.2914
 8875SOL     OW38260   2.838   3.510   4.219  0.2797  0.6529 -0.2956
 8875SOL    HW138261   2.822   3.437   4.160  1.2838 -0.9664  1.4460
 8875SOL    HW238262   2.885   3.463   4.288 -0.9368 -0.3817 -0.1825
 8876SOL     OW38263   1.277   1.089   2.480  0.7014  0.6834 -0.4942
 8876SOL    HW138264   1.220   1.039   2.539  1.0634  2.1056  1.0747
 8876SOL    HW238265   1.362   1.045   2.479 -0.2900 -1.2193 -0.4512
 8877SOL     OW38266   4.730   2.476   4.057  0.0684 -0.0154  0.2216
 8877SOL    HW138267   0.044   2.439   4.130  1.2452 -1.1628 -1.1631
 8877SOL    HW238268   4.646   2.498   4.098 -0.0676 -0.4091  0.1613
 8878SOL     OW38269   0.223   3.675   4.605 -0.0023 -0.1674 -0.0384
 8878SOL    HW138270   0.227   3.580   4.613 -0.9193 -0.2199 -0.2256
 8878SOL    HW238271   0.163   3.686   4.532  0.8676  0.0416 -0.7180
 8879SOL     OW38272   3.656   4.164  10.729  0.4965 -0.0137 -0.3741
 8879SOL    HW138273   3.670   4.106  10.653  1.2812  0.1482 -0.3476
 8879SOL    HW238274   3.639   4.100  10.798  2.1373  0.4082  0.4184
 8880SOL     OW38275   3.020   2.257   8.660 -0.0377  0.1297  0.4172
 8880SOL    HW138276   3.091   2.193   8.663  0.2261  0.4196  0.2663
 8880SOL    HW238277   3.055   2.326   8.715 -1.1585  1.4809 -0.5682
 8881SOL     OW38278   1.406   0.690  11.711  0.1561 -0.3734  0.4815
 8881SOL    HW138279   1.412   0.750  11.785 -1.2299  2.2082 -1.5019
 8881SOL    HW238280   1.494   0.702  11.675 -0.1222 -1.7271 -0.6272
 8882SOL     OW38281   3.629   0.058   2.016  0.0529  0.2838  0.3468
 8882SOL    HW138282   3.596   0.034   1.929  1.9323  0.9385 -0.5256
 8882SOL    HW238283   3.659   4.711   2.053  1.3625 -0.2452 -1.9017
 8883SOL     OW38284   3.092   2.284   2.219 -0.5790 -0.1701  0.2385
 8883SOL    HW138285   3.007   2.283   2.174 -0.5682  0.9649  0.2120
 8883SOL    HW238286   3.146   2.272   2.141 -0.3057  1.1594  0.2312
 8884SOL     OW38287   3.729   1.897  13.035  0.3857 -0.5763 -0.2009
 8884SOL    HW138288   3.725   1.891  13.131  2.9390 -0.1542 -0.0565
 8884SOL    HW238289   3.643   1.878  12.998 -0.2658  0.0720  0.9852
 8885SOL     OW38290   0.726   1.317   8.136  0.2442  0.1040 -0.3292
 8885SOL    HW138291   0.694   1.271   8.214  0.4320 -1.0965 -0.9676
 8885SOL    HW238292   0.750   1.402   8.174 -0.2789  0.1808 -0.1653
 8886SOL     OW38293   2.523   0.665  12.560  0.0374 -0.1592 -0.0727
 8886SOL    HW138294   2.433   0.633  12.552  1.0477 -2.8141 -1.0241
 8886SOL    HW238295   2.503   0.751  12.598  2.8730  0.3080  0.3696
 8887SOL     OW38296   0.255   0.366   6.699 -0.6341 -0.0604  0.1749
 8887SOL    HW138297   0.224   0.285   6.741 -0.4626 -0.6696 -0.8765
 8887SOL    HW238298   0.285   0.424   6.769 -0.2748 -1.1578  0.9468
 8888SOL     OW38299   2.979   4.690  16.127  0.1477  0.5481 -0.2783
 8888SOL    HW138300   2.990   4.603  16.165 -1.1874  0.4126 -0.1775
 8888SOL    HW238301   2.912   4.680  16.059  0.5891 -1.1382 -0.4465
 8889SOL     OW38302   1.721   2.051  12.895 -0.3101  0.3977  0.0282
 8889SOL    HW138303   1.744   1.963  12.923  1.2564  1.1111  0.9895
 8889SOL    HW238304   1.627   2.041  12.909  0.0075 -1.3217  0.9190
 8890SOL     OW38305   1.751   2.748   4.353 -0.1210 -0.5550 -0.2400
 8890SOL    HW138306   1.835   2.793   4.349 -1.2470  1.2009 -3.8457
 8890SOL    HW238307   1.721   2.729   4.264 -2.2852  2.9071 -0.2467
 8891SOL     OW38308   4.638   2.158   4.157  0.0540 -0.3689  0.1107
 8891SOL    HW138309   4.600   2.098   4.092 -2.5704  1.3323  0.1009
 8891SOL    HW238310   4.583   2.232   4.131 -1.2966 -1.4461 -0.1733
 8892SOL     OW38311   4.331   4.657  10.222  0.3599 -0.1413 -0.0628
 8892SOL    HW138312   4.283   4.633  10.300  0.6531  0.1275  0.2000
 8892SOL    HW238313   4.272   4.622  10.155 -1.2544  0.2391  1.1549
 8893SOL     OW38314   0.076   4.358   5.026  0.1581 -0.2030 -0.0400
 8893SOL    HW138315   0.121   4.426   5.077 -1.2221  0.6593  0.0318
 8893SOL    HW238316   0.088   4.401   4.941 -0.3743  1.7091  0.8358
 8894SOL     OW38317   2.910   2.952   7.600  0.1214  0.2203  0.3987
 8894SOL    HW138318   2.920   2.946   7.695 -0.7043 -0.8366  0.4139
 8894SOL    HW238319   2.832   3.004   7.584 -1.2540 -1.3744  1.8895
 8895SOL     OW38320   3.167   1.790   8.558 -0.1240 -0.3750  0.0312
 8895SOL    HW138321   3.083   1.775   8.601 -0.4963  1.2424 -0.1358
 8895SOL    HW238322   3.127   1.800   8.472 -0.1356 -1.5092 -0.0918
 8896SOL     OW38323   3.910   1.326   3.905 -0.3171 -0.1784 -0.2272
 8896SOL    HW138324   3.874   1.414   3.921  1.5721  0.8026 -1.4225
 8896SOL    HW238325   3.825   1.293   3.934 -0.0970 -0.5104  0.0389
 8897SOL     OW38326   2.253   1.767   9.375  0.2866 -0.3264 -0.0668
 8897SOL    HW138327   2.249   1.834   9.444  1.2682 -1.2226  0.8673
 8897SOL    HW238328   2.284   1.812   9.297 -2.3545  1.4968 -0.0653
 8898SOL     OW38329   3.126   0.124   2.429  0.3087  0.2976  0.2565
 8898SOL    HW138330   3.125   0.187   2.501  0.4815  0.9019 -0.2722
 8898SOL    HW238331   3.126   0.038   2.471 -0.2143 -0.3452 -1.0614
 8899SOL     OW38332   1.398   2.650  11.198  0.9373 -0.5415  0.2157
 8899SOL    HW138333   1.447   2.727  11.227  1.1429 -0.1293 -1.2305
 8899SOL    HW238334   1.341   2.675  11.126  0.5176 -1.3654  0.2637
 8900SOL     OW38335   4.250   3.257  13.655 -0.1381  0.2412  0.2336
 8900SOL    HW138336   4.186   3.197  13.617  1.1361 -0.5430 -0.6814
 8900SOL    HW238337   4.242   3.256  13.751  0.7133 -0.6027  0.3024
 8901SOL     OW38338   1.377   0.452   7.404  0.3543 -0.7608 -0.1592
 8901SOL    HW138339   1.382   0.464   7.499  0.4450  2.8000 -0.6419
 8901SOL    HW238340   1.415   0.535   7.376  0.2825 -0.6458  0.0801
 8902SOL     OW38341   3.274   0.995   5.938  0.5727  0.3212 -0.4330
 8902SOL    HW138342   3.298   1.014   6.029 -0.1081 -0.5287 -0.0771
 8902SOL    HW238343   3.182   0.971   5.952 -0.0884  2.5654 -1.0900
 8903SOL     OW38344   4.587   1.547  15.683  0.1747 -0.1447 -0.0724
 8903SOL    HW138345   4.678   1.567  15.660  0.4466 -0.2322  0.9635
 8903SOL    HW238346   4.575   1.455  15.658 -0.7207  0.0448 -0.3497
 8904SOL     OW38347   1.516   2.149  10.803 -0.0787 -0.5033  0.4329
 8904SOL    HW138348   1.501   2.054  10.810  0.0507 -0.5676 -0.1732
 8904SOL    HW238349   1.602   2.145  10.845  0.0625 -0.0506  0.1775
 8905SOL     OW38350   0.123   3.437   2.305 -0.5675  1.0882 -0.4733
 8905SOL    HW138351   0.189   3.503   2.322 -1.2217  1.9042 -1.1128
 8905SOL    HW238352   0.045   3.487   2.281 -1.3035 -0.4311 -1.2818
 8906SOL     OW38353   3.505   2.076   1.548  0.4031  0.1839 -0.1486
 8906SOL    HW138354   3.544   2.145   1.603 -1.2309 -0.9605  2.4284
 8906SOL    HW238355   3.564   2.004   1.569 -1.0382 -1.1153 -0.5428
 8907SOL     OW38356   1.620   2.785   4.871  0.0624  0.0758 -0.3320
 8907SOL    HW138357   1.569   2.707   4.850  0.0525 -0.0466  0.1581
 8907SOL    HW238358   1.609   2.846   4.798 -0.1951  0.1902 -0.1963
 8908SOL     OW38359   0.833   2.554   9.258  0.3060  0.2294 -0.1255
 8908SOL    HW138360   0.780   2.595   9.325  0.2711  0.8321 -0.5240
 8908SOL    HW238361   0.916   2.596   9.278  0.1806 -0.3143  1.4846
 8909SOL     OW38362   0.260   0.465   0.075 -0.7128  0.2200 -0.3600
 8909SOL    HW138363   0.340   0.497   0.117 -1.9942  0.1927  2.0857
 8909SOL    HW238364   0.201   0.539   0.089 -1.2563 -0.4853  1.1156
 8910SOL     OW38365   4.419   4.080   1.141 -0.2166 -0.3677 -0.2694
 8910SOL    HW138366   4.491   4.123   1.095 -0.0403  0.1413  0.4748
 8910SOL    HW238367   4.463   4.017   1.197 -1.7395 -0.9634  0.2547
 8911SOL     OW38368   4.495   2.577   8.009 -0.5107  0.5715 -0.2289
 8911SOL    HW138369   4.476   2.586   7.915 -1.1529  1.1824 -0.0334
 8911SOL    HW238370   4.415   2.603   8.055 -1.5852 -1.1213 -1.1133
 8912SOL     OW38371   4.057   4.121   0.672  0.2233 -0.3009 -0.1699
 8912SOL    HW138372   4.040   4.146   0.582 -0.1637 -3.4789 -0.9963
 8912SOL    HW238373   4.101   4.201   0.700  0.3462 -0.0488 -1.0816
 8913SOL     OW38374   2.748   4.634   5.968  0.2431 -0.0196  0.1290
 8913SOL    HW138375   2.811   4.578   5.923  1.2178  2.3587 -1.4947
 8913SOL    HW238376   2.750   4.593   6.054 -2.4464 -0.5190 -0.0331
 8914SOL     OW38377   2.603   3.407   7.002 -0.1268 -0.6614 -0.1189
 8914SOL    HW138378   2.600   3.492   7.047  0.1239 -0.6603 -0.1048
 8914SOL    HW238379   2.521   3.409   6.952 -0.5550 -1.7171  0.5468
 8915SOL     OW38380   3.034   0.873   8.659 -0.2261  0.4852  0.1905
 8915SOL    HW138381   2.992   0.958   8.674 -2.5568  0.1629 -4.8018
 8915SOL    HW238382   2.975   0.834   8.595  0.0597 -2.4059  1.6742
 8916SOL     OW38383   1.611   4.666   3.212 -0.5650 -0.1232  1.1343
 8916SOL    HW138384   1.639   0.008   3.164 -1.4390 -1.1551 -1.0537
 8916SOL    HW238385   1.526   4.697   3.242 -0.5573  0.5517  0.4649
 8917SOL     OW38386   2.792   1.331   3.692  0.3759 -0.2011 -0.8595
 8917SOL    HW138387   2.716   1.386   3.673 -0.3372 -0.0295  2.4457
 8917SOL    HW238388   2.751   1.253   3.728  2.0242 -1.0201 -0.7653
 8918SOL     OW38389   1.349   2.370  10.816  0.1442  0.5494 -0.0688
 8918SOL    HW138390   1.403   2.293  10.834  0.7880  1.0629  0.2366
 8918SOL    HW238391   1.320   2.395  10.904  0.9673  1.2648 -0.0011
 8919SOL     OW38392   1.884   1.143  12.294  0.1400 -0.1747  0.5100
 8919SOL    HW138393   1.912   1.159  12.204  2.2294 -1.3987  0.9362
 8919SOL    HW238394   1.808   1.087  12.277  1.1644 -1.1946 -0.7843
 8920SOL     OW38395   2.283   2.000  16.818  0.1813  0.0499 -0.5253
 8920SOL    HW138396   2.279   1.906  16.834 -1.3278  0.3981  1.2251
 8920SOL    HW238397   2.219   2.011  16.747 -1.5258 -1.4322  0.7728
 8921SOL     OW38398   0.854   0.976   7.937  0.4034  0.1160 -0.1231
 8921SOL    HW138399   0.884   0.895   7.896  1.5048  0.6911 -0.4605
 8921SOL    HW238400   0.836   0.945   8.025  0.3654  2.8126  0.8160
 8922SOL     OW38401   3.490   4.665  13.280 -0.5605 -0.1469  0.1240
 8922SOL    HW138402   3.540   0.005  13.252  0.9013 -0.6319  1.4423
 8922SOL    HW238403   3.496   4.655  13.375 -0.4013  0.5857  0.1881
 8923SOL     OW38404   3.206   1.237  15.422  0.2087  0.4481 -0.0896
 8923SOL    HW138405   3.229   1.326  15.398 -0.2271  0.5500 -0.1395
 8923SOL    HW238406   3.114   1.251  15.446  0.4318  1.5074  0.1545
 8924SOL     OW38407   3.341   3.701   6.782  0.3342  0.1990 -0.2202
 8924SOL    HW138408   3.424   3.664   6.751  1.1651  1.6296  0.2798
 8924SOL    HW238409   3.376   3.783   6.818 -0.7380  0.0148  1.2383
 8925SOL     OW38410   2.065   0.475   9.045  0.4366 -0.7082  0.8615
 8925SOL    HW138411   1.999   0.535   9.081  0.9541 -0.9111  2.1559
 8925SOL    HW238412   2.054   0.475   8.950 -1.0327 -0.6357  1.0281
 8926SOL     OW38413   1.318   2.075   6.654 -0.0140  0.6532 -0.5546
 8926SOL    HW138414   1.396   2.029   6.623  0.7782  1.1413  0.7103
 8926SOL    HW238415   1.269   2.100   6.575 -1.3953 -1.9187 -0.5016
 8927SOL     OW38416   0.246   4.577   5.846  0.3999  0.3703  0.4240
 8927SOL    HW138417   0.212   4.655   5.803 -0.7256 -0.7461 -0.6814
 8927SOL    HW238418   0.193   4.504   5.815 -2.6302  2.0442  1.6628
 8928SOL     OW38419   3.583   2.729   5.717 -0.5374  0.7806  0.4115
 8928SOL    HW138420   3.543   2.658   5.767  1.5798 -1.4278 -1.0156
 8928SOL    HW238421   3.502   2.772   5.691 -0.6738 -0.8049 -1.7666
 8929SOL     OW38422   2.226   2.061   8.676 -0.2709  0.4389  0.2695
 8929SOL    HW138423   2.164   2.131   8.656 -1.3953 -0.7846 -0.5418
 8929SOL    HW238424   2.255   2.050   8.586  0.0289  1.0253  0.2934
 8930SOL     OW38425   0.790   2.432  16.719 -0.6344 -0.0887 -0.2893
 8930SOL    HW138426   0.754   2.460  16.803  0.0657  0.3374 -0.1335
 8930SOL    HW238427   0.884   2.418  16.735 -0.4532  0.5487 -0.7976
 8931SOL     OW38428   1.635   0.041   3.489  0.1474 -0.3287 -0.5101
 8931SOL    HW138429   1.636   0.123   3.439 -0.1447  0.4988  0.8290
 8931SOL    HW238430   1.548   0.049   3.530  1.1303 -0.9451  1.7232
 8932SOL     OW38431   1.508   1.977  15.024  0.0685  0.0007  0.4068
 8932SOL    HW138432   1.514   1.882  15.018  1.2804  0.0998  0.1357
 8932SOL    HW238433   1.554   1.991  15.106  2.4775 -0.1521 -0.9355
 8933SOL     OW38434   2.926   1.983  10.390 -0.1824  0.1301  0.8328
 8933SOL    HW138435   3.006   1.945  10.425 -0.5107  0.8059  2.3310
 8933SOL    HW238436   2.949   2.003  10.299 -3.1370 -1.3561 -0.2601
 8934SOL     OW38437   4.367   2.580   5.941  0.2304 -0.3739  0.1158
 8934SOL    HW138438   4.325   2.666   5.952  2.0944  0.2164  2.6426
 8934SOL    HW238439   4.300   2.539   5.887 -2.2012  1.8431  1.4584
 8935SOL     OW38440   4.726   2.508   8.953 -0.0704  0.2289 -0.1235
 8935SOL    HW138441   0.042   2.429   8.967 -2.5972 -1.5996 -0.9572
 8935SOL    HW238442   0.024   2.552   9.031  0.2251 -1.6382  0.8086
 8936SOL     OW38443   1.585   3.166   8.523  0.9436 -0.1507  0.3071
 8936SOL    HW138444   1.510   3.112   8.551  0.4392  0.5306  0.2644
 8936SOL    HW238445   1.635   3.097   8.480  1.3013  0.4268 -0.1901
 8937SOL     OW38446   0.462   0.096   8.436  0.1091  0.1470 -0.1286
 8937SOL    HW138447   0.422   0.076   8.521 -0.2438  2.8909  0.3630
 8937SOL    HW238448   0.487   0.187   8.452  1.3073 -0.2719  0.3494
 8938SOL     OW38449   4.190   1.151   7.812  0.6271  0.1573 -0.1126
 8938SOL    HW138450   4.140   1.070   7.824  1.3772 -0.5576 -1.9101
 8938SOL    HW238451   4.140   1.194   7.743  1.9198  3.0204  0.7361
 8939SOL     OW38452   2.413   4.148   7.187  0.4585 -0.2084  0.4341
 8939SOL    HW138453   2.372   4.145   7.274 -0.6772 -1.5197 -0.1410
 8939SOL    HW238454   2.494   4.191   7.214  0.2281  0.8438 -0.5949
 8940SOL     OW38455   2.665   3.560  13.697  0.1521  0.5016 -0.0796
 8940SOL    HW138456   2.756   3.587  13.682 -0.2727  0.7549 -2.1508
 8940SOL    HW238457   2.669   3.466  13.679  0.0758  0.1963  1.4849
 8941SOL     OW38458   1.015   1.894   6.716 -0.2070  0.2775 -0.4656
 8941SOL    HW138459   1.028   1.986   6.736  1.5762  0.0043 -0.2833
 8941SOL    HW238460   1.042   1.895   6.624 -1.5419 -3.4931 -0.9140
 8942SOL     OW38461   0.480   3.963   5.691  0.5052 -0.6346 -0.1330
 8942SOL    HW138462   0.449   4.042   5.647 -1.1755 -0.8809  0.6198
 8942SOL    HW238463   0.398   3.914   5.702  0.7857 -1.2144 -0.6662
 8943SOL     OW38464   3.200   0.280  11.755  0.6495  0.7229  0.3837
 8943SOL    HW138465   3.183   0.349  11.691  1.1311  0.9202  0.4620
 8943SOL    HW238466   3.294   0.294  11.770  0.8483 -2.4654  1.9293
 8944SOL     OW38467   1.337   2.867   5.491 -0.3584 -0.0921  0.1484
 8944SOL    HW138468   1.393   2.940   5.468  1.2088 -1.0941  0.8140
 8944SOL    HW238469   1.324   2.819   5.410 -0.5949  0.5608 -0.2014
 8945SOL     OW38470   2.919   3.998  15.225  0.0474  0.2390  0.3212
 8945SOL    HW138471   2.952   4.063  15.163  0.2650 -2.1748 -2.0832
 8945SOL    HW238472   2.994   3.991  15.283  0.6141  0.5821 -0.3625
 8946SOL     OW38473   3.663   0.234   3.273  0.2223  0.2301  0.1296
 8946SOL    HW138474   3.739   0.271   3.229 -1.3834  1.0133 -2.0179
 8946SOL    HW238475   3.604   0.308   3.259 -0.6026 -0.2231  1.1683
 8947SOL     OW38476   1.034   0.803  15.485 -0.1300 -0.0587  0.4237
 8947SOL    HW138477   1.038   0.898  15.474 -0.3954 -0.0029  0.8160
 8947SOL    HW238478   1.082   0.761  15.413  1.0288  1.2519  0.4382
 8948SOL     OW38479   0.605   2.405   3.888 -0.2916 -0.5014 -0.4195
 8948SOL    HW138480   0.670   2.336   3.875  0.2852  0.2455 -1.5237
 8948SOL    HW238481   0.656   2.476   3.849 -3.3712  2.0479  0.2436
 8949SOL     OW38482   4.277   3.419  12.671 -0.0945 -0.0522 -0.3228
 8949SOL    HW138483   4.369   3.442  12.663  0.3418 -1.3412  1.2647
 8949SOL    HW238484   4.242   3.508  12.658  0.4977  0.5068  1.9437
 8950SOL     OW38485   2.509   3.625   4.625 -0.3254 -0.2760  0.1853
 8950SOL    HW138486   2.497   3.530   4.617  0.5528 -0.0765 -3.4868
 8950SOL    HW238487   2.591   3.625   4.675 -0.8333  1.1111  1.0275
 8951SOL     OW38488   1.841   3.401   5.043  0.2951 -0.1113 -0.1050
 8951SOL    HW138489   1.844   3.355   4.959  0.4648 -3.1617  1.5723
 8951SOL    HW238490   1.837   3.333   5.110 -0.3736 -1.7104 -1.7639
 8952SOL     OW38491   2.087   3.714   7.473  0.4078  0.3197 -0.0575
 8952SOL    HW138492   2.076   3.737   7.565 -0.5559  0.0907 -0.1156
 8952SOL    HW238493   2.017   3.649   7.475  0.9282 -0.2396  0.0640
 8953SOL     OW38494   0.028   0.076   5.434 -0.0015 -0.5055 -0.4817
 8953SOL    HW138495   4.727   0.154   5.474 -0.1382 -0.2345 -1.1363
 8953SOL    HW238496   4.708   0.064   5.358  1.5585 -1.2493 -1.5268
 8954SOL     OW38497   0.227   1.098   8.917  0.4092  0.2827 -0.5642
 8954SOL    HW138498   0.259   1.168   8.860  0.3775  1.3268  0.6773
 8954SOL    HW238499   0.257   1.123   9.005  0.3062  0.2354 -0.5150
 8955SOL     OW38500   3.016   4.299   8.885 -0.2014 -0.1617  0.1258
 8955SOL    HW138501   2.947   4.349   8.841  2.1189  2.8498 -0.0886
 8955SOL    HW238502   3.085   4.364   8.894 -1.0820  0.6368  1.1308
 8956SOL     OW38503   3.202   2.004   5.738  0.0746  0.7079 -0.3371
 8956SOL    HW138504   3.294   1.981   5.748 -0.0546  0.9489  1.3176
 8956SOL    HW238505   3.188   1.932   5.677  3.4506 -0.4928  0.3187
 8957SOL     OW38506   3.053   4.452   7.383  0.2788  0.0196 -0.0160
 8957SOL    HW138507   2.975   4.397   7.379  0.5689 -0.4758  1.3936
 8957SOL    HW238508   3.033   4.514   7.312 -1.5648 -2.3865 -1.6160
 8958SOL     OW38509   3.618   1.760   4.907  0.7381 -0.0368  0.2696
 8958SOL    HW138510   3.532   1.796   4.930  0.5665  0.5816 -1.3342
 8958SOL    HW238511   3.680   1.823   4.943 -1.4401  2.9530 -1.1931
 8959SOL     OW38512   4.247   2.409   0.383  0.3381 -0.6840 -0.3737
 8959SOL    HW138513   4.332   2.372   0.405  0.7440  0.3191 -0.2327
 8959SOL    HW238514   4.234   2.378   0.293  1.1618 -0.6160 -0.5238
 8960SOL     OW38515   4.059   3.464  15.555 -0.0093 -0.0281 -0.6354
 8960SOL    HW138516   4.110   3.395  15.597 -0.9348  0.4015  1.2036
 8960SOL    HW238517   4.123   3.483  15.487 -0.2881  2.0326 -0.3255
 8961SOL     OW38518   0.183   0.705   8.329  0.0531  0.3242 -0.1663
 8961SOL    HW138519   0.149   0.654   8.256 -2.1127 -0.9566  1.7419
 8961SOL    HW238520   0.152   0.660   8.408  0.2865  0.2920 -0.0927
 8962SOL     OW38521   2.418   2.148   8.074 -0.5714 -0.6287  0.5618
 8962SOL    HW138522   2.462   2.220   8.120  2.0715 -1.7371 -0.3011
 8962SOL    HW238523   2.387   2.203   8.002  0.4486 -0.1513  0.4871
 8963SOL     OW38524   3.010   0.919   9.181 -0.1750 -0.6090 -0.1804
 8963SOL    HW138525   3.052   0.885   9.260 -0.6981  0.1553  0.4188
 8963SOL    HW238526   2.983   0.841   9.132 -0.0599 -0.2061 -0.8751
 8964SOL     OW38527   4.719   0.533   0.959 -0.1729 -0.1553 -0.1330
 8964SOL    HW138528   0.021   0.512   1.044  1.1082  0.1202 -0.6344
 8964SOL    HW238529   4.658   0.460   0.951 -0.0694 -0.5462  2.7551
 8965SOL     OW38530   3.313   3.710   0.788 -0.2266  0.2356 -0.5085
 8965SOL    HW138531   3.305   3.740   0.697 -0.8977 -1.1185 -0.9005
 8965SOL    HW238532   3.371   3.636   0.772  0.3237  0.4804  0.3767
 8966SOL     OW38533   1.965   3.856   5.789  0.6749  0.5842 -0.2358
 8966SOL    HW138534   1.923   3.770   5.791  3.1749 -0.7214 -2.8928
 8966SOL    HW238535   2.045   3.845   5.841 -0.0675  0.7546  0.9420
 8967SOL     OW38536   3.467   2.723   4.941 -0.3489 -0.5110 -0.2452
 8967SOL    HW138537   3.424   2.682   4.866 -0.7452  3.6402 -2.3217
 8967SOL    HW238538   3.503   2.650   4.990 -0.3511  0.2206  0.8410
 8968SOL     OW38539   2.373   1.220   7.743  0.4389  0.1665  0.1960
 8968SOL    HW138540   2.373   1.263   7.829  0.3026 -1.5361  1.0437
 8968SOL    HW238541   2.417   1.293   7.699 -1.2436  1.9299  1.4165
 8969SOL     OW38542   4.255   2.237   0.990  0.4578  0.0536  0.1352
 8969SOL    HW138543   4.248   2.300   0.918 -1.4369 -2.4449 -1.8587
 8969SOL    HW238544   4.164   2.240   1.019  0.6900  2.3572  0.6185
 8970SOL     OW38545   3.068   4.650   2.186  0.4604 -0.2858 -0.5252
 8970SOL    HW138546   3.022   4.727   2.219  1.5400 -0.8864  2.4185
 8970SOL    HW238547   3.056   4.594   2.263  1.2190  0.1859 -0.0569
 8971SOL     OW38548   2.700   1.488  13.500  0.7489  0.2815  0.0543
 8971SOL    HW138549   2.702   1.396  13.526  2.3199 -0.1090 -1.4087
 8971SOL    HW238550   2.630   1.528  13.552 -0.7791 -1.5567 -0.5815
 8972SOL     OW38551   4.115   3.440   7.062 -0.0590 -0.0285  0.7282
 8972SOL    HW138552   4.107   3.386   7.140  1.9655  0.3007  1.1800
 8972SOL    HW238553   4.168   3.382   7.006 -1.3130 -0.3959 -0.0910
 8973SOL     OW38554   2.265   4.409   5.739  0.0194  0.7529  0.0197
 8973SOL    HW138555   2.223   4.372   5.817 -0.2965  1.5971  0.2500
 8973SOL    HW238556   2.204   4.473   5.704 -2.6748 -0.1029  3.1111
 8974SOL     OW38557   3.156   1.202   8.882  0.0604  0.3621 -0.0819
 8974SOL    HW138558   3.067   1.175   8.858  0.8941  0.3576 -3.0463
 8974SOL    HW238559   3.150   1.296   8.865 -1.4169  0.1983 -0.5065
 8975SOL     OW38560   2.683   1.029   5.062  0.6133  0.0811  0.7597
 8975SOL    HW138561   2.596   1.056   5.035  2.0400  2.1113 -1.7475
 8975SOL    HW238562   2.696   1.028   5.157  0.4635 -0.3258  0.7729
 8976SOL     OW38563   1.441   4.641   7.914 -0.5639 -0.5605 -0.4826
 8976SOL    HW138564   1.504   4.703   7.952 -1.0701 -0.7331  0.6186
 8976SOL    HW238565   1.493   4.582   7.860  1.0219 -1.4055  1.9667
 8977SOL     OW38566   1.381   2.931   8.365  0.0808  0.9627 -0.4147
 8977SOL    HW138567   1.467   2.907   8.399 -1.5394 -2.2500  1.4184
 8977SOL    HW238568   1.323   2.866   8.406  1.9297  1.4737  3.0390
 8978SOL     OW38569   1.792   3.084   1.889  0.5054 -0.2684  0.4243
 8978SOL    HW138570   1.814   3.165   1.935 -0.6153  0.5400 -0.4755
 8978SOL    HW238571   1.701   3.105   1.866  1.7254  2.9768 -1.4804
 8979SOL     OW38572   4.622   2.778   5.498 -0.0911 -0.2541  0.1046
 8979SOL    HW138573   4.574   2.785   5.416 -0.6226  2.7333  0.6333
 8979SOL    HW238574   4.557   2.733   5.552 -1.3566  2.0895  0.5697
 8980SOL     OW38575   3.783   3.823   2.405  0.0101 -0.5826 -0.0897
 8980SOL    HW138576   3.692   3.811   2.431 -0.4901 -0.7590 -1.9681
 8980SOL    HW238577   3.775   3.891   2.339  2.1709  2.2551  2.5558
 8981SOL     OW38578   3.710   2.775   7.126  0.0984  0.4167  0.0899
 8981SOL    HW138579   3.675   2.699   7.079 -1.4480  0.3339  1.3536
 8981SOL    HW238580   3.626   2.817   7.148  1.4486  1.4327  3.3672
 8982SOL     OW38581   3.964   0.417  10.630  0.3890  0.3282 -0.4260
 8982SOL    HW138582   3.948   0.510  10.610 -1.1333  0.3012  0.6194
 8982SOL    HW238583   4.056   0.411  10.655  0.4972  3.1302 -0.0820
 8983SOL     OW38584   2.998   4.559   3.055 -0.2964  0.1903 -0.4172
 8983SOL    HW138585   3.061   4.626   3.082 -2.4604  1.5892  1.1583
 8983SOL    HW238586   2.914   4.589   3.088 -0.2081 -2.1048  1.8074
 8984SOL     OW38587   1.067   1.797   8.292  0.9359  0.2432  0.2496
 8984SOL    HW138588   1.026   1.876   8.327  1.0046 -0.8400  2.7654
 8984SOL    HW238589   1.082   1.815   8.199  1.6414  0.3097  0.3749
 8985SOL     OW38590   2.138   0.797   5.867 -0.6190 -0.0467 -0.6985
 8985SOL    HW138591   2.183   0.802   5.783  0.2008  0.0714 -0.2530
 8985SOL    HW238592   2.176   0.866   5.922 -0.7590  1.0556 -1.9790
 8986SOL     OW38593   4.693   1.647  15.384  0.0725  0.2685  0.3419
 8986SOL    HW138594   0.006   1.601  15.452 -1.0179  1.5301  2.0041
 8986SOL    HW238595   4.656   1.575  15.333 -0.1000 -0.9287  2.1344
 8987SOL     OW38596   2.389   3.269  12.043 -0.6188 -0.2043  0.3898
 8987SOL    HW138597   2.303   3.231  12.060 -0.1816 -1.2403  0.3153
 8987SOL    HW238598   2.427   3.224  11.968  0.1229 -1.2764  1.4023
 8988SOL     OW38599   2.640   2.623   2.081  0.0936 -0.3712  0.3866
 8988SOL    HW138600   2.692   2.654   2.154 -0.3180 -1.6570  1.2327
 8988SOL    HW238601   2.635   2.528   2.094  1.8182 -0.8238 -2.1373
 8989SOL     OW38602   1.877   3.301   8.073 -0.0529  0.4842 -0.1466
 8989SOL    HW138603   1.965   3.307   8.110 -0.1995 -1.0647  0.4431
 8989SOL    HW238604   1.827   3.289   8.154  0.5413  1.3716  0.3466
 8990SOL     OW38605   3.470   3.707  11.023  0.0090  0.9166  0.4411
 8990SOL    HW138606   3.420   3.746  10.951 -0.6722  0.3287  0.5910
 8990SOL    HW238607   3.552   3.755  11.026 -0.3969  1.6239  0.1682
 8991SOL     OW38608   1.206   2.055  17.108 -0.2507 -0.1476 -0.4024
 8991SOL    HW138609   1.225   2.149  17.108  0.4849 -0.2924  0.6901
 8991SOL    HW238610   1.111   2.063  17.116 -0.3254 -0.0246 -1.4197
 8992SOL     OW38611   4.233   4.194   2.667  0.1104  0.2103  0.5730
 8992SOL    HW138612   4.207   4.145   2.745  3.1259  0.1729  1.5523
 8992SOL    HW238613   4.148   4.207   2.626 -0.8265 -2.6565  1.6013
 8993SOL     OW38614   0.264   1.927  15.497 -0.2705  0.5904  0.5318
 8993SOL    HW138615   0.338   1.869  15.478 -0.0563  0.6925  1.0791
 8993SOL    HW238616   0.289   1.958  15.584 -0.5746  0.2930  0.7243
 8994SOL     OW38617   1.100   3.362   7.648  0.7463  0.4075 -0.3300
 8994SOL    HW138618   1.162   3.377   7.719  0.8984  0.5569 -0.4918
 8994SOL    HW238619   1.025   3.327   7.695  2.3053 -0.7494  1.3206
 8995SOL     OW38620   0.863   2.167   7.761  0.0267 -0.0210 -0.0985
 8995SOL    HW138621   0.945   2.216   7.770 -1.2190  1.4764  3.0484
 8995SOL    HW238622   0.851   2.143   7.853  1.3148 -0.0666  0.0665
 8996SOL     OW38623   3.331   4.625   4.489  0.0062 -0.1658  0.7630
 8996SOL    HW138624   3.240   4.650   4.505  0.1646  0.4425  0.6963
 8996SOL    HW238625   3.321   4.531   4.503 -0.9462 -0.2491 -0.4621
 8997SOL     OW38626   2.197   3.403   2.854 -0.1712 -0.2280 -0.2942
 8997SOL    HW138627   2.191   3.425   2.947 -2.1779  2.1786 -0.9890
 8997SOL    HW238628   2.275   3.348   2.858 -0.0850  0.0852  2.2418
 8998SOL     OW38629   2.069   3.984   4.374  0.5008 -0.7042  0.0432
 8998SOL    HW138630   2.013   3.911   4.397 -0.3956  0.3561  1.1795
 8998SOL    HW238631   2.069   4.041   4.451  1.8308  0.2780 -0.6685
 8999SOL     OW38632   2.842   4.311   3.735 -0.2744  0.6156 -0.1638
 8999SOL    HW138633   2.908   4.374   3.709  0.8600 -0.0751  1.0477
 8999SOL    HW238634   2.798   4.352   3.810  1.1956  4.6852 -1.5296
 9000SOL     OW38635   0.033   2.713   0.368  0.3200 -0.5600 -0.4086
 9000SOL    HW138636   0.040   2.669   0.284 -0.1449 -0.1035 -0.6861
 9000SOL    HW238637   0.070   2.798   0.343  0.6623  0.0308  2.0381
 9001SOL     OW38638   3.199   2.455   7.028  1.0743  0.1309 -0.2916
 9001SOL    HW138639   3.205   2.547   7.002 -0.3351 -0.1576 -1.6198
 9001SOL    HW238640   3.127   2.463   7.091  1.0185 -2.4270 -0.0367
 9002SOL     OW38641   4.237   2.704   4.057 -0.1960  0.3483  0.6015
 9002SOL    HW138642   4.161   2.704   3.999 -0.2146 -0.3070  0.6258
 9002SOL    HW238643   4.201   2.661   4.134 -3.1513  0.5907 -0.6562
 9003SOL     OW38644   2.825   3.615   1.340  0.7233 -0.4041  0.5189
 9003SOL    HW138645   2.892   3.684   1.341 -0.7866  1.0635  0.9606
 9003SOL    HW238646   2.861   3.564   1.268  2.6501 -0.6935  1.6790
 9004SOL     OW38647   0.840   4.090   9.382 -0.7981  0.6156  0.3348
 9004SOL    HW138648   0.905   4.113   9.448 -2.3251  2.0079  1.3531
 9004SOL    HW238649   0.799   4.010   9.416 -1.4508  0.7719 -0.0655
 9005SOL     OW38650   0.383   0.822   6.838 -1.0039  0.5697  0.0651
 9005SOL    HW138651   0.419   0.794   6.923 -2.0702  1.8506  0.9393
 9005SOL    HW238652   0.438   0.766   6.783 -0.1164  0.3174  1.1891
 9006SOL     OW38653   2.669   2.719   9.471  0.3074 -0.6590  0.3379
 9006SOL    HW138654   2.709   2.803   9.493  0.2443  0.1982 -2.7563
 9006SOL    HW238655   2.743   2.676   9.427  0.5702 -1.8105  1.9037
 9007SOL     OW38656   2.598   4.575  13.348  0.1484  0.1463 -0.3900
 9007SOL    HW138657   2.622   4.650  13.402  2.0834 -1.4294  0.9240
 9007SOL    HW238658   2.510   4.607  13.328 -0.1302 -0.1191  0.4090
 9008SOL     OW38659   2.195   1.374   7.273 -0.4064 -0.1775 -0.5333
 9008SOL    HW138660   2.199   1.458   7.318 -0.5735 -0.1957 -0.4831
 9008SOL    HW238661   2.197   1.312   7.346  0.2430 -0.2422 -0.6048
 9009SOL     OW38662   0.970   2.839   8.191  0.6707 -0.0624 -0.1358
 9009SOL    HW138663   0.925   2.760   8.220  2.5615 -1.7115 -1.6860
 9009SOL    HW238664   1.004   2.816   8.104  2.2701  4.4917 -0.6893
 9010SOL     OW38665   0.891   4.072   8.616 -0.5022  0.2039 -0.0767
 9010SOL    HW138666   0.886   4.077   8.521 -2.3111  0.2170  0.0084
 9010SOL    HW238667   0.899   3.979   8.636  0.2006  0.0669 -1.0311
 9011SOL     OW38668   1.611   4.044   6.577  0.4380 -0.6000  0.3641
 9011SOL    HW138669   1.564   3.988   6.515  3.3715 -2.0452 -0.5445
 9011SOL    HW238670   1.685   4.076   6.526  1.3731 -2.0136  0.8053
 9012SOL     OW38671   1.408   4.451   4.955  0.4705  0.3263  0.8094
 9012SOL    HW138672   1.474   4.382   4.954 -2.9180 -2.8707 -2.0702
 9012SOL    HW238673   1.464   4.527   4.967  0.2564  0.9036 -1.9109
 9013SOL     OW38674   1.126   3.508   4.719  0.3481 -0.4050 -0.1466
 9013SOL    HW138675   1.082   3.452   4.782  1.2585 -1.0102 -0.0476
 9013SOL    HW238676   1.198   3.542   4.772 -1.6070  1.3537  1.3437
 9014SOL     OW38677   2.160   1.778  12.735  0.6815  0.1215  0.0635
 9014SOL    HW138678   2.125   1.691  12.714 -0.7800  0.1879  2.1824
 9014SOL    HW238679   2.246   1.757  12.770  0.5477  2.1001  1.5490
 9015SOL     OW38680   2.891   3.568   8.722  0.5252 -0.0271 -0.4406
 9015SOL    HW138681   2.936   3.565   8.637 -2.0856  1.1488 -1.8291
 9015SOL    HW238682   2.942   3.516   8.784  0.9560  1.8907  0.7889
 9016SOL     OW38683   1.701   1.320   6.755  0.8239  0.6318  0.5565
 9016SOL    HW138684   1.669   1.237   6.790 -0.2088  1.8788  2.5663
 9016SOL    HW238685   1.748   1.296   6.675 -0.6425 -1.4424  0.3219
 9017SOL     OW38686   4.441   1.307  16.016  0.4466  0.5881  0.5748
 9017SOL    HW138687   4.402   1.389  16.046 -1.9957 -0.7334  1.0343
 9017SOL    HW238688   4.409   1.320  15.926  0.1313 -0.1290  0.5814
 9018SOL     OW38689   1.221   0.690   1.981  0.8516  0.7438  0.0042
 9018SOL    HW138690   1.156   0.755   1.955 -1.0684 -0.9660  0.5153
 9018SOL    HW238691   1.299   0.725   1.938  1.2634 -0.4074 -0.2104
 9019SOL     OW38692   2.477   2.705   1.688 -0.5608 -0.6744  0.8330
 9019SOL    HW138693   2.472   2.748   1.603  0.1103 -0.6012  0.8280
 9019SOL    HW238694   2.549   2.643   1.676 -0.1332 -0.1421  0.6473
 9020SOL     OW38695   0.408   0.574   4.063 -0.0584  0.5752  0.3928
 9020SOL    HW138696   0.439   0.555   4.152 -0.3489 -0.6111  0.2404
 9020SOL    HW238697   0.466   0.641   4.026 -1.6692  1.9511  0.3469
 9021SOL     OW38698   0.653   4.487   1.565  0.5758  0.1785 -0.6113
 9021SOL    HW138699   0.575   4.535   1.594 -1.0475 -1.5245 -2.1049
 9021SOL    HW238700   0.629   4.483   1.472  1.6274 -2.7952 -0.7622
 9022SOL     OW38701   1.181   3.952   7.437 -0.8507 -0.1426  0.1624
 9022SOL    HW138702   1.177   3.963   7.532 -2.1037 -2.1632  0.3376
 9022SOL    HW238703   1.275   3.943   7.424 -0.5142 -0.9460  3.2820
 9023SOL     OW38704   3.265   0.374   9.552 -0.0440 -0.5302 -0.3176
 9023SOL    HW138705   3.247   0.396   9.644 -0.1203 -1.2784 -0.1485
 9023SOL    HW238706   3.323   0.445   9.526 -1.1702  1.5307  2.7969
 9024SOL     OW38707   1.321   4.503  12.423  0.6449 -0.3246  0.6396
 9024SOL    HW138708   1.270   4.557  12.364 -0.7798 -0.3548  1.8298
 9024SOL    HW238709   1.371   4.579  12.451 -1.3283  1.4465 -0.6904
 9025SOL     OW38710   0.194   0.671   5.912 -0.5088  0.3672 -0.1327
 9025SOL    HW138711   0.102   0.669   5.940 -0.6005 -0.8563 -0.5231
 9025SOL    HW238712   0.219   0.705   5.998 -1.1946 -0.9105  0.5713
 9026SOL     OW38713   3.348   0.646   4.395 -0.4144  0.0191  0.0169
 9026SOL    HW138714   3.312   0.580   4.455 -0.5078  0.8261  0.8496
 9026SOL    HW238715   3.339   0.590   4.317 -0.1394 -0.0419  0.0290
 9027SOL     OW38716   3.387   3.541   4.460  0.2620  0.4429  0.1276
 9027SOL    HW138717   3.305   3.532   4.411  1.4275 -0.2439 -1.6543
 9027SOL    HW238718   3.384   3.621   4.513 -0.0141  1.7139 -1.8288
 9028SOL     OW38719   0.534   2.587   2.165 -0.1465 -0.1145 -0.2202
 9028SOL    HW138720   0.449   2.629   2.154 -0.6538 -1.0666  0.1193
 9028SOL    HW238721   0.500   2.506   2.202  0.9275 -0.6692 -0.4329
 9029SOL     OW38722   1.852   3.932  17.599 -0.7818 -0.9774 -0.6052
 9029SOL    HW138723   1.799   4.008  17.618 -0.3400 -1.0193  0.7501
 9029SOL    HW238724   1.932   3.951  17.648 -0.8746 -2.0895 -0.0136
 9030SOL     OW38725   3.674   3.980  14.309  0.0230  0.0592  0.1637
 9030SOL    HW138726   3.718   3.898  14.331  0.5703  0.7942  1.7644
 9030SOL    HW238727   3.641   3.960  14.221 -0.6931  0.7874  0.2689
 9031SOL     OW38728   2.714   4.585   9.082  0.6648 -0.0149  0.7081
 9031SOL    HW138729   2.698   4.603   8.989  0.4480  0.1569  0.7805
 9031SOL    HW238730   2.694   4.671   9.118  0.2497  0.2489 -0.1487
 9032SOL     OW38731   1.114   3.060   6.668 -0.2661  0.5691 -0.0774
 9032SOL    HW138732   1.022   3.065   6.695 -0.3944 -0.6804 -0.2674
 9032SOL    HW238733   1.116   2.967   6.642  0.7628  0.4534  0.4409
 9033SOL     OW38734   3.350   3.593  10.055  0.2947  0.2626  0.1910
 9033SOL    HW138735   3.297   3.663  10.017 -2.4826 -2.0982 -0.2124
 9033SOL    HW238736   3.414   3.653  10.094  1.3064 -0.5682 -0.1862
 9034SOL     OW38737   3.772   4.144  10.298  0.0199  0.0808  0.4546
 9034SOL    HW138738   3.716   4.204  10.249  0.7998 -1.5289 -2.3553
 9034SOL    HW238739   3.814   4.100  10.225  1.2982  2.6754 -0.3814
 9035SOL     OW38740   4.027   1.795   9.204 -0.6688  0.2765  0.1618
 9035SOL    HW138741   4.098   1.736   9.180 -0.0487  0.8249  0.6337
 9035SOL    HW238742   4.001   1.750   9.284 -2.1512  0.5166 -0.1862
 9036SOL     OW38743   3.776   0.565   9.228 -0.5729  0.5883  0.4700
 9036SOL    HW138744   3.718   0.624   9.277 -2.0126  1.4709 -2.3281
 9036SOL    HW238745   3.861   0.606   9.241  0.0080 -0.7525  0.9098
 9037SOL     OW38746   2.190   4.464   2.724  0.2981 -0.0050  0.6111
 9037SOL    HW138747   2.182   4.415   2.806  0.1692 -1.8845 -0.5174
 9037SOL    HW238748   2.103   4.435   2.695  0.4152  2.1623 -1.8602
 9038SOL     OW38749   3.064   3.182   9.052  0.3727  0.0936 -0.0150
 9038SOL    HW138750   3.136   3.161   9.112 -2.4543 -1.1006  3.0163
 9038SOL    HW238751   2.996   3.171   9.119 -2.5814  0.7090 -2.9120
 9039SOL     OW38752   3.585   1.351   4.779  0.0255  0.0323  0.2273
 9039SOL    HW138753   3.647   1.423   4.787 -0.4955  0.4249  0.7384
 9039SOL    HW238754   3.630   1.279   4.824  0.7725  0.6898  0.5185
 9040SOL     OW38755   2.299   2.585   3.050  0.5985  0.4000  0.1712
 9040SOL    HW138756   2.218   2.631   3.074  0.7106  1.4624 -1.4512
 9040SOL    HW238757   2.285   2.507   3.102  0.6150  0.2746 -0.0109
 9041SOL     OW38758   3.440   4.021   8.143  0.6093 -0.2389  0.4095
 9041SOL    HW138759   3.493   4.045   8.067 -2.0112 -0.7010 -1.5559
 9041SOL    HW238760   3.391   4.099   8.172 -0.8301 -0.9107 -0.2280
 9042SOL     OW38761   4.228   1.717   6.618 -0.1846  0.5613 -0.0319
 9042SOL    HW138762   4.288   1.734   6.545  2.1457  1.4385  2.0606
 9042SOL    HW238763   4.213   1.624   6.603  2.1024  0.7710 -3.6288
 9043SOL     OW38764   0.046   1.293   8.591 -0.1120 -0.3077 -0.2856
 9043SOL    HW138765   0.083   1.371   8.632 -0.6754 -0.7253  1.0042
 9043SOL    HW238766   0.013   1.333   8.510  1.6413  0.8616 -0.4199
 9044SOL     OW38767   2.362   3.816  14.168  0.5819 -0.4754  0.8224
 9044SOL    HW138768   2.383   3.727  14.198  0.3615  0.0117  2.4022
 9044SOL    HW238769   2.269   3.811  14.146  0.9043 -0.5953 -0.5521
 9045SOL     OW38770   3.165   4.040   1.759  0.3673  0.0428 -0.1919
 9045SOL    HW138771   3.180   3.968   1.697  0.1903  0.1937 -0.4075
 9045SOL    HW238772   3.122   4.093   1.693 -0.1433 -0.6737 -0.4342
 9046SOL     OW38773   4.062   4.146   8.010 -0.0745  0.0059 -0.0786
 9046SOL    HW138774   4.049   4.072   7.951  2.4215  1.3375 -2.3019
 9046SOL    HW238775   4.001   4.123   8.080 -0.7641 -0.8788 -0.9731
 9047SOL     OW38776   1.299   1.446   4.666  0.0348  0.2535 -0.0813
 9047SOL    HW138777   1.366   1.500   4.624 -0.3957  0.4569 -0.5163
 9047SOL    HW238778   1.229   1.434   4.601 -1.1597  1.7814  0.9205
 9048SOL     OW38779   2.135   1.811  10.011 -0.0969 -0.1645 -0.2347
 9048SOL    HW138780   2.190   1.861  10.072  1.2909  1.4828 -2.8727
 9048SOL    HW238781   2.184   1.732   9.989 -0.1888 -0.4971  0.7339
 9049SOL     OW38782   0.594   0.894  17.324 -0.2299 -0.0737 -0.0998
 9049SOL    HW138783   0.516   0.908  17.270  0.2098  1.5676 -0.2977
 9049SOL    HW238784   0.612   0.985  17.346 -1.2096 -0.1687  1.0779
 9050SOL     OW38785   1.131   3.992   2.097  0.1973  0.3696  0.2286
 9050SOL    HW138786   1.182   4.072   2.086  0.2576  0.5130  1.4691
 9050SOL    HW238787   1.203   3.931   2.113 -0.8583 -1.1991 -1.0586
 9051SOL     OW38788   2.788   0.716   7.375 -0.2255 -0.7768  0.4057
 9051SOL    HW138789   2.784   0.729   7.470  3.1487 -1.2670  0.6081
 9051SOL    HW238790   2.707   0.667   7.357 -0.7615  0.5336 -0.7267
 9052SOL     OW38791   4.472   4.164  11.220 -0.6269 -0.0038 -0.0284
 9052SOL    HW138792   4.441   4.253  11.237  0.2424  0.6677 -1.9668
 9052SOL    HW238793   4.442   4.118  11.299 -0.5187 -1.4165 -0.8132
 9053SOL     OW38794   0.602   1.247   7.650  0.0163  0.3952 -0.1319
 9053SOL    HW138795   0.670   1.201   7.700 -1.4307  0.6138  2.0118
 9053SOL    HW238796   0.653   1.327   7.640  1.1567 -0.2295  0.6812
 9054SOL     OW38797   3.043   3.556  13.878 -0.0480 -0.3029 -0.2768
 9054SOL    HW138798   2.987   3.595  13.946  0.6947  1.8750 -0.9163
 9054SOL    HW238799   3.126   3.600  13.896 -0.5193 -0.0614  1.3050
 9055SOL     OW38800   1.712   3.762   8.908 -0.2354  0.0781  0.0799
 9055SOL    HW138801   1.790   3.751   8.963 -1.1523 -0.3364  1.2961
 9055SOL    HW238802   1.757   3.782   8.826  1.6492  2.4584  1.7003
 9056SOL     OW38803   2.060   0.643  14.665  0.3685 -0.6165 -0.0594
 9056SOL    HW138804   2.028   0.556  14.687  0.6969 -0.2778  1.7544
 9056SOL    HW238805   2.105   0.626  14.582  1.2906 -1.2674  0.5783
 9057SOL     OW38806   3.877   3.336   2.163 -0.0485  0.3946  0.2528
 9057SOL    HW138807   3.863   3.419   2.208 -1.0016 -1.1453  2.8211
 9057SOL    HW238808   3.822   3.351   2.087 -0.3047  0.5472  0.4684
 9058SOL     OW38809   4.325   1.246  12.635 -0.1466 -0.6812 -0.4411
 9058SOL    HW138810   4.372   1.172  12.674  0.3708 -0.1285 -0.0067
 9058SOL    HW238811   4.374   1.322  12.667  0.4918 -1.0583 -0.5029
 9059SOL     OW38812   4.608   0.683   1.544 -0.6902  0.2859 -0.1898
 9059SOL    HW138813   4.546   0.675   1.616 -0.6024 -1.3916 -0.3061
 9059SOL    HW238814   4.602   0.777   1.528 -0.2139  0.6443  1.7947
 9060SOL     OW38815   0.392   1.224   3.998  0.2553 -0.2357 -0.2390
 9060SOL    HW138816   0.457   1.294   4.001 -0.4807  0.5156 -1.8634
 9060SOL    HW238817   0.330   1.263   3.936  0.5804  2.2198  0.9738
 9061SOL     OW38818   2.871   0.126   8.490 -0.5454 -0.4940 -0.6518
 9061SOL    HW138819   2.835   0.186   8.425 -0.1498 -0.8759 -1.2149
 9061SOL    HW238820   2.912   0.065   8.429  1.0339 -1.2432  1.1786
 9062SOL     OW38821   2.703   3.061   8.931 -0.0773  0.1511  0.8125
 9062SOL    HW138822   2.690   3.154   8.913  1.6259 -0.0098 -1.2900
 9062SOL    HW238823   2.613   3.031   8.921  0.4216 -1.5365  1.3502
 9063SOL     OW38824   1.850   3.297  14.495  0.4406 -0.1471  0.0537
 9063SOL    HW138825   1.931   3.277  14.450  0.0456  0.1029 -0.7746
 9063SOL    HW238826   1.786   3.295  14.423  2.4480  3.2426 -1.8124
 9064SOL     OW38827   0.334   1.661   1.518  0.4803  0.0366 -0.1529
 9064SOL    HW138828   0.352   1.752   1.494 -2.1434  0.7095  0.3769
 9064SOL    HW238829   0.250   1.648   1.473  0.0727 -2.2887  1.2718
 9065SOL     OW38830   1.068   0.887   8.787 -0.0332  0.3481  0.1490
 9065SOL    HW138831   1.018   0.962   8.817  1.5839  0.5458  2.3080
 9065SOL    HW238832   0.993   0.833   8.762  0.1677 -2.4440  5.5788
 9066SOL     OW38833   2.979   2.718   8.921 -0.5436  0.4132 -0.6040
 9066SOL    HW138834   2.986   2.806   8.885 -1.8983  0.0329 -1.8129
 9066SOL    HW238835   3.019   2.733   9.007  0.9244 -1.5453 -0.9766
 9067SOL     OW38836   3.764   0.881   1.430  0.3014 -0.0562 -0.2326
 9067SOL    HW138837   3.689   0.940   1.428 -1.5976 -2.4807  0.0710
 9067SOL    HW238838   3.830   0.943   1.462  0.0626  0.3074 -0.4504
 9068SOL     OW38839   2.570   0.146   1.741  0.1912 -0.1897 -0.2541
 9068SOL    HW138840   2.555   0.060   1.704 -3.9795  0.5191 -0.2950
 9068SOL    HW238841   2.646   0.142   1.798 -0.8118  2.2106  1.2972
 9069SOL     OW38842   4.265   0.335   2.057 -0.0076 -0.4113  0.1453
 9069SOL    HW138843   4.198   0.360   1.994  0.3817  2.9365  1.0610
 9069SOL    HW238844   4.250   0.241   2.050  0.5944 -0.5950  1.3318
 9070SOL     OW38845   1.479   2.146  13.522 -0.1203  0.1192  0.1347
 9070SOL    HW138846   1.525   2.184  13.596  0.4504  0.3331 -0.3294
 9070SOL    HW238847   1.491   2.217  13.459 -2.0941  0.8911  0.6443
 9071SOL     OW38848   3.775   4.680   5.786 -0.3140 -0.1294 -0.1991
 9071SOL    HW138849   3.725   0.015   5.826  0.8607 -1.0661  2.9743
 9071SOL    HW238850   3.859   4.685   5.831 -0.8961  1.5737  0.6836
 9072SOL     OW38851   3.084   0.805   1.619 -0.3126 -0.0041 -0.0353
 9072SOL    HW138852   3.094   0.855   1.538 -3.5954 -0.2785 -0.6273
 9072SOL    HW238853   3.174   0.771   1.621 -0.5018 -0.5908 -1.4516
 9073SOL     OW38854   4.550   0.714   1.918  0.6437 -0.1727  0.3447
 9073SOL    HW138855   4.544   0.622   1.946 -1.0443 -0.7318 -1.8507
 9073SOL    HW238856   4.644   0.720   1.898  0.6106 -1.0776 -0.1101
 9074SOL     OW38857   1.658   0.392   6.767  0.0944 -0.1576 -0.2087
 9074SOL    HW138858   1.738   0.413   6.720 -0.4666 -0.4789 -1.3026
 9074SOL    HW238859   1.621   0.352   6.688  0.8865 -1.1241 -0.0958
 9075SOL     OW38860   4.589   3.011   2.346 -0.8142 -0.1416  0.1360
 9075SOL    HW138861   4.568   3.088   2.295 -0.4055 -0.7724 -0.9723
 9075SOL    HW238862   4.621   2.959   2.272  0.6164 -0.6658  1.1245
 9076SOL     OW38863   1.854   4.628   5.126  0.2133  0.3347 -0.5192
 9076SOL    HW138864   1.927   4.605   5.182  0.4849  1.1440 -0.5434
 9076SOL    HW238865   1.787   4.663   5.184  1.4177  0.0601  1.0125
 9077SOL     OW38866   1.320   2.717  10.934 -0.0983  0.0698 -0.1192
 9077SOL    HW138867   1.362   2.802  10.939  0.0442  0.0765 -1.3767
 9077SOL    HW238868   1.376   2.679  10.866  1.2022  0.6030  0.6579
 9078SOL     OW38869   1.604   4.146   3.032  0.5236  0.2063  0.3035
 9078SOL    HW138870   1.607   4.241   3.024 -0.6742  0.0931 -1.4873
 9078SOL    HW238871   1.516   4.126   3.062  0.9307 -1.9554  0.0553
 9079SOL     OW38872   1.261   0.718  12.807 -0.3011 -0.0871 -0.1451
 9079SOL    HW138873   1.200   0.786  12.834  1.0995  1.0233  0.2431
 9079SOL    HW238874   1.223   0.640  12.848 -1.4273  1.5703  2.0019
 9080SOL     OW38875   3.218   2.115   6.075 -0.1480 -0.7827  0.5394
 9080SOL    HW138876   3.213   2.181   6.144  0.3199  0.0490 -0.2207
 9080SOL    HW238877   3.179   2.158   5.999 -1.0706 -1.6549  0.5234
 9081SOL     OW38878   3.434   2.501  11.723  0.3362 -0.0578 -0.3939
 9081SOL    HW138879   3.511   2.549  11.753  0.2722  0.6974 -1.4172
 9081SOL    HW238880   3.471   2.430  11.670  0.7952  0.9760 -1.4462
 9082SOL     OW38881   1.007   0.545   2.595  0.7408 -0.0415 -0.1269
 9082SOL    HW138882   0.918   0.574   2.614  0.5231 -0.8487  0.0999
 9082SOL    HW238883   1.032   0.501   2.676 -0.8247  1.2838  1.0587
 9083SOL     OW38884   3.703   3.083   3.249 -0.2511  0.3175  0.5046
 9083SOL    HW138885   3.749   3.141   3.310  2.9369 -0.1638 -1.4583
 9083SOL    HW238886   3.615   3.120   3.255 -1.4386 -1.9818 -2.8736
 9084SOL     OW38887   4.014   0.331   1.951 -0.1374  0.2646 -0.0951
 9084SOL    HW138888   3.952   0.356   2.020 -0.0613 -1.1274  0.4782
 9084SOL    HW238889   3.961   0.261   1.913  2.6611 -2.1490  0.5172
 9085SOL     OW38890   1.830   4.729  15.195 -0.2917  0.6067  0.2926
 9085SOL    HW138891   1.854   4.641  15.224 -1.0095  0.9217  1.8385
 9085SOL    HW238892   1.735   4.720  15.189 -0.2907  2.5218 -2.2876
 9086SOL     OW38893   1.792   2.117   1.759 -0.2044  0.4034 -0.2866
 9086SOL    HW138894   1.877   2.093   1.722  1.1950  2.9562  1.1956
 9086SOL    HW238895   1.787   2.091   1.851 -0.2275 -1.9726 -0.9611
 9087SOL     OW38896   2.612   1.766  17.634 -0.5030 -0.4354 -0.1596
 9087SOL    HW138897   2.628   1.855  17.665 -0.9340 -0.4622  0.1424
 9087SOL    HW238898   2.697   1.725  17.651 -1.8238 -2.9207  0.4159
 9088SOL     OW38899   4.029   0.671   4.804 -0.8533  0.2145  0.1635
 9088SOL    HW138900   4.117   0.635   4.792 -1.9968 -2.7341  0.5583
 9088SOL    HW238901   3.980   0.595   4.835  0.6690 -0.9953 -0.3913
 9089SOL     OW38902   2.689   1.863  11.571  0.2334 -0.7096 -0.0631
 9089SOL    HW138903   2.714   1.784  11.619  1.0267 -1.0621 -1.0481
 9089SOL    HW238904   2.772   1.870  11.524  0.4139  2.6062  0.7664
 9090SOL     OW38905   0.739   2.945   7.945 -0.0073  0.7685  0.2681
 9090SOL    HW138906   0.817   2.898   7.913 -1.0964 -1.1368  0.3863
 9090SOL    HW238907   0.697   2.871   7.990 -0.6274  1.3533  0.6459
 9091SOL     OW38908   2.923   0.907   8.067  0.0778 -0.5337 -0.5252
 9091SOL    HW138909   2.947   0.931   8.157 -1.7487  0.4210 -0.2937
 9091SOL    HW238910   2.949   0.815   8.064  1.9474  0.0184 -1.2622
 9092SOL     OW38911   4.102   1.189   6.593  0.2895  1.0270 -0.3250
 9092SOL    HW138912   4.135   1.130   6.661 -0.5574  0.7177 -0.1898
 9092SOL    HW238913   4.010   1.164   6.600  1.2207 -2.6899 -1.2329
 9093SOL     OW38914   2.114   3.697  14.098  0.4879  0.2448 -0.3946
 9093SOL    HW138915   2.098   3.626  14.160  0.1683 -0.6541 -1.5215
 9093SOL    HW238916   2.075   3.658  14.020 -2.0508 -1.6585  1.8227
 9094SOL     OW38917   4.346   1.840  11.818 -0.2345  0.1863 -0.0019
 9094SOL    HW138918   4.402   1.805  11.887 -0.2325 -0.2725 -0.2382
 9094SOL    HW238919   4.254   1.827  11.843 -1.7990 -0.0995 -5.8779
 9095SOL     OW38920   2.326   0.961   8.190  0.2407  0.5030 -0.0004
 9095SOL    HW138921   2.359   0.958   8.280 -0.6871  0.2180  0.3308
 9095SOL    HW238922   2.405   0.975   8.138 -0.1968 -0.9544 -1.0381
 9096SOL     OW38923   3.829   3.521   4.774  0.4719  1.0598 -0.1509
 9096SOL    HW138924   3.758   3.578   4.741  0.5599  0.1793 -1.8538
 9096SOL    HW238925   3.843   3.468   4.696 -2.4478 -1.2004  0.8410
 9097SOL     OW38926   2.116   1.165   6.289  0.2008  0.2022 -0.4850
 9097SOL    HW138927   2.146   1.248   6.326  1.5722 -0.9202  0.9172
 9097SOL    HW238928   2.190   1.111   6.315  0.9482  1.7220  0.5652
 9098SOL     OW38929   3.489   0.309   7.669 -0.6214  0.5573 -0.2730
 9098SOL    HW138930   3.490   0.328   7.575 -2.1912  1.7418 -0.0630
 9098SOL    HW238931   3.444   0.390   7.694 -3.9225 -1.7878  1.3766
 9099SOL     OW38932   0.112   3.021   7.618  0.0911  0.2389  0.2683
 9099SOL    HW138933   0.113   3.105   7.664  1.4932  1.7164 -2.4857
 9099SOL    HW238934   0.205   2.998   7.614 -0.1936 -0.8163 -0.1937
 9100SOL     OW38935   0.486   2.564   0.446  0.1961  0.0624 -0.1244
 9100SOL    HW138936   0.448   2.511   0.517  0.8145  0.7390  0.7128
 9100SOL    HW238937   0.576   2.566   0.480  0.8330 -1.4121 -1.7683
 9101SOL     OW38938   1.834   1.639   5.162  0.0452 -0.2184 -0.0484
 9101SOL    HW138939   1.873   1.726   5.158 -3.7442  1.4811  0.4255
 9101SOL    HW238940   1.878   1.606   5.084 -1.8603 -1.7794 -0.4609
 9102SOL     OW38941   3.580   0.785   4.477 -0.0857  0.2597  0.8436
 9102SOL    HW138942   3.586   0.816   4.386 -1.2382  1.5130  1.2026
 9102SOL    HW238943   3.501   0.731   4.469  0.8487 -0.8782 -0.8314
 9103SOL     OW38944   1.641   0.182   2.606  0.9743  0.1523 -0.5849
 9103SOL    HW138945   1.586   0.173   2.528  0.0094  3.2676 -0.2396
 9103SOL    HW238946   1.713   0.123   2.582  1.4500 -0.9935  3.6381
 9104SOL     OW38947   3.508   2.269   9.481  0.0708  0.7155 -0.6084
 9104SOL    HW138948   3.445   2.267   9.409 -1.7262  2.0099  0.9133
 9104SOL    HW238949   3.472   2.342   9.531  0.5461 -0.1000  0.9021
 9105SOL     OW38950   2.971   3.441   6.444 -0.4037 -0.4962 -0.0959
 9105SOL    HW138951   2.911   3.419   6.515 -0.4615 -0.5199 -0.1521
 9105SOL    HW238952   2.912   3.473   6.375  0.7786  2.1051  0.0858
 9106SOL     OW38953   3.887   1.039  14.413 -0.6602  0.0715  0.1606
 9106SOL    HW138954   3.907   1.128  14.383 -0.8217 -0.0771 -0.3941
 9106SOL    HW238955   3.801   1.023  14.374 -0.3735 -2.3443  0.5318
 9107SOL     OW38956   4.385   0.648   0.955  0.6879  0.5096  0.3145
 9107SOL    HW138957   4.408   0.665   1.046 -1.3066  0.8811  0.7541
 9107SOL    HW238958   4.306   0.703   0.948  0.1482 -0.2394  0.4616
 9108SOL     OW38959   2.833   2.062   6.679  0.8525  0.4012  0.0519
 9108SOL    HW138960   2.885   1.989   6.713  1.8988  1.7257  1.2577
 9108SOL    HW238961   2.836   2.121   6.754 -0.4042  1.4187 -0.6838
 9109SOL     OW38962   2.672   4.621   4.569  0.0653 -0.0568 -0.1745
 9109SOL    HW138963   2.734   4.646   4.501  0.9961  0.7595  0.9565
 9109SOL    HW238964   2.587   4.645   4.533 -0.2815  0.2031  0.8022
 9110SOL     OW38965   1.065   1.329   3.511 -0.2749 -0.4500  0.0271
 9110SOL    HW138966   0.972   1.322   3.529  0.1189  0.1145  2.2202
 9110SOL    HW238967   1.082   1.247   3.465  0.7894  0.1850 -0.7216
 9111SOL     OW38968   1.585   1.975   0.063 -0.1360 -0.1859 -0.4695
 9111SOL    HW138969   1.500   1.933   0.053 -0.8093  1.5056 -1.6551
 9111SOL    HW238970   1.624   1.910   0.122 -0.1336  0.7120  0.5293
 9112SOL     OW38971   2.977   0.608   8.278  0.4928  0.2086  0.1582
 9112SOL    HW138972   3.035   0.561   8.338 -0.8739 -0.8401  0.6543
 9112SOL    HW238973   2.971   0.553   8.200  0.1872  2.1010 -1.1572
 9113SOL     OW38974   0.202   0.596   5.001  0.2651  0.0792 -0.0798
 9113SOL    HW138975   0.291   0.590   5.035  0.7701 -0.5444 -1.4823
 9113SOL    HW238976   0.200   0.690   4.981  1.3845  0.5412  2.0105
 9114SOL     OW38977   2.092   2.761   6.027  0.1868 -0.1818 -0.6821
 9114SOL    HW138978   2.121   2.686   5.977  1.7403 -0.1686  0.1968
 9114SOL    HW238979   2.015   2.717   6.064  0.3177  2.0957  2.3628
 9115SOL     OW38980   4.614   4.214   3.947 -0.3681  0.1770  0.1591
 9115SOL    HW138981   4.539   4.165   3.916 -1.7200  2.0616  0.4720
 9115SOL    HW238982   4.627   4.164   4.028  2.1713  0.4961 -0.0257
 9116SOL     OW38983   0.933   0.282  16.462 -0.2401 -0.5792  0.5226
 9116SOL    HW138984   0.900   0.199  16.429 -0.3536 -0.5226  0.4935
 9116SOL    HW238985   0.874   0.343  16.417  0.8419  2.2988  2.9542
 9117SOL     OW38986   0.262   1.462  11.962 -0.2912  0.1050 -0.4261
 9117SOL    HW138987   0.348   1.439  11.998  0.2742  0.6060 -1.4916
 9117SOL    HW238988   0.226   1.477  12.050  2.4771  1.5773  0.4473
 9118SOL     OW38989   0.796   2.213   4.883  0.2449  0.0091 -1.0114
 9118SOL    HW138990   0.851   2.135   4.885  0.1399 -0.0276  0.4682
 9118SOL    HW238991   0.715   2.188   4.839 -0.9923  1.3117  0.5357
 9119SOL     OW38992   2.304   1.502  10.554  0.0484  0.0576  0.0789
 9119SOL    HW138993   2.248   1.579  10.550  0.3224  0.2145 -0.8401
 9119SOL    HW238994   2.297   1.470  10.644 -1.8137 -3.3050 -1.2481
 9120SOL     OW38995   1.947   2.034  15.583  0.6004 -0.3018  0.3527
 9120SOL    HW138996   1.885   2.107  15.576 -1.1553 -1.8255 -0.0659
 9120SOL    HW238997   1.961   2.024  15.677 -3.0973  3.3654  1.3138
 9121SOL     OW38998   4.049   1.827   4.401  0.7042  0.3117  0.0570
 9121SOL    HW138999   4.085   1.761   4.460  3.5716  0.1587 -1.8422
 9121SOL    HW239000   3.998   1.781   4.335  1.4208 -1.6393  0.8465
 9122SOL     OW39001   0.140   3.649   1.999 -0.0765 -0.4597  0.2671
 9122SOL    HW139002   0.178   3.727   2.038 -1.1612  0.6308 -0.8532
 9122SOL    HW239003   0.162   3.587   2.069  0.6214  0.0966  0.5357
 9123SOL     OW39004   1.834   3.979   2.961 -0.7410  0.0518 -0.4614
 9123SOL    HW139005   1.768   4.044   2.986 -1.9849 -1.2745 -0.2922
 9123SOL    HW239006   1.862   4.015   2.877 -1.3892  0.0548 -0.6766
 9124SOL     OW39007   0.261   3.663  16.407  0.2583 -0.3885 -0.2555
 9124SOL    HW139008   0.263   3.668  16.311 -3.1645 -0.6906 -0.3697
 9124SOL    HW239009   0.349   3.634  16.431 -0.4484 -0.5067  2.2315
 9125SOL     OW39010   2.994   3.182   2.051 -0.0633 -0.6226 -0.1600
 9125SOL    HW139011   2.908   3.213   2.078 -0.1178  1.1418 -2.3766
 9125SOL    HW239012   2.976   3.090   2.068  0.6239 -0.4845  1.3289
 9126SOL     OW39013   2.904   1.196  15.320 -0.0808  0.3099  0.1700
 9126SOL    HW139014   2.925   1.278  15.365 -0.7985  0.5023  0.1577
 9126SOL    HW239015   2.828   1.161  15.366 -0.7239  0.2911 -0.9209
 9127SOL     OW39016   0.980   3.729   4.104 -0.0959  0.6780 -0.0222
 9127SOL    HW139017   0.994   3.745   4.197 -1.1143  0.8823  0.0934
 9127SOL    HW239018   1.012   3.813   4.071 -0.0367  0.7564  0.2379
 9128SOL     OW39019   1.475   0.550  16.341  0.0597  0.1588  0.1255
 9128SOL    HW139020   1.399   0.551  16.283 -0.6027  1.7554  1.0251
 9128SOL    HW239021   1.436   0.517  16.422  2.4852  0.1652  1.2998
 9129SOL     OW39022   1.342   0.414   8.750 -0.4176 -0.7545 -0.7186
 9129SOL    HW139023   1.311   0.400   8.660  2.8578 -0.3745 -1.8912
 9129SOL    HW239024   1.434   0.438   8.738 -0.6966  0.4360 -0.5271
 9130SOL     OW39025   0.496   3.775   2.831  0.2873  0.2526 -0.4102
 9130SOL    HW139026   0.501   3.841   2.762 -1.8338  1.7854  0.9107
 9130SOL    HW239027   0.526   3.701   2.778 -0.3439  0.0006 -0.4128
 9131SOL     OW39028   3.985   3.692   5.759  0.0425  0.2260 -0.4117
 9131SOL    HW139029   3.968   3.730   5.673 -0.6469  0.1976 -0.2834
 9131SOL    HW239030   3.904   3.644   5.777 -0.2305  1.8279  2.5875
 9132SOL     OW39031   4.581   4.409  11.337 -0.0382 -0.4567  0.1899
 9132SOL    HW139032   4.490   4.421  11.308 -0.7556 -0.8791  2.2619
 9132SOL    HW239033   4.629   4.424  11.256  0.4199  0.2810  0.6105
 9133SOL     OW39034   2.170   1.088   4.284  0.1928 -0.0288 -0.2655
 9133SOL    HW139035   2.158   1.085   4.379  3.4020 -0.0807  0.1406
 9133SOL    HW239036   2.102   1.147   4.250 -1.1030 -1.4648 -0.2042
 9134SOL     OW39037   0.214   3.126  15.648  0.2748  0.0680  0.3634
 9134SOL    HW139038   0.158   3.090  15.579  1.4780 -1.5084  0.2189
 9134SOL    HW239039   0.173   3.211  15.666 -1.6222 -0.9807  0.9532
 9135SOL     OW39040   0.220   0.985  15.272  0.0212 -0.5208 -0.1484
 9135SOL    HW139041   0.279   1.054  15.241 -1.0946  0.1314 -0.8354
 9135SOL    HW239042   0.162   0.969  15.197 -0.8073 -1.3757  0.6788
 9136SOL     OW39043   0.636   1.398   2.630  0.1493 -0.7703  0.3691
 9136SOL    HW139044   0.619   1.361   2.717 -0.7961 -0.3561  0.3553
 9136SOL    HW239045   0.571   1.340   2.590 -0.7035 -0.6333  1.5437
 9137SOL     OW39046   2.349   0.934  11.560 -0.4256  0.4870  0.0623
 9137SOL    HW139047   2.343   1.018  11.606 -1.4433  1.3563 -1.6385
 9137SOL    HW239048   2.442   0.945  11.541 -1.0632  2.1650 -2.1477
 9138SOL     OW39049   2.772   2.063   3.951 -0.5722 -0.3218 -0.0431
 9138SOL    HW139050   2.866   2.062   3.965 -0.5511  1.7069 -0.0981
 9138SOL    HW239051   2.743   2.148   3.983 -2.1286 -0.6013 -0.6691
 9139SOL     OW39052   2.519   4.588   7.803 -0.1478 -0.1240 -0.0079
 9139SOL    HW139053   2.606   4.612   7.772 -0.9556  2.8589 -0.0630
 9139SOL    HW239054   2.470   4.608   7.723  1.1349  0.2646 -0.6934
 9140SOL     OW39055   3.514   4.360   9.333  0.1631  0.1132  0.2291
 9140SOL    HW139056   3.602   4.341   9.299  0.1787 -0.7237  0.7499
 9140SOL    HW239057   3.462   4.383   9.256  0.1375  0.7139  0.4226
 9141SOL     OW39058   2.508   0.088   3.193 -0.3274 -0.1594  0.2077
 9141SOL    HW139059   2.415   0.093   3.168  0.0516 -1.9936 -1.6039
 9141SOL    HW239060   2.503   0.059   3.284  1.0105 -1.1995 -0.0566
 9142SOL     OW39061   4.632   3.641   2.629  0.4632  0.7405  0.6876
 9142SOL    HW139062   4.575   3.645   2.706  0.2356  3.1523  0.3735
 9142SOL    HW239063   4.694   3.578   2.666  1.9916  0.6651 -2.0239
 9143SOL     OW39064   1.455   0.542   5.792 -0.3667 -0.4983 -0.5868
 9143SOL    HW139065   1.521   0.606   5.820 -0.5231 -1.3539  1.7034
 9143SOL    HW239066   1.507   0.490   5.730  0.3021 -2.0679  1.2970
 9144SOL     OW39067   0.253   4.555   6.119  0.8824  0.4304  0.2065
 9144SOL    HW139068   0.227   4.647   6.123  0.3715  0.3697 -1.5450
 9144SOL    HW239069   0.260   4.541   6.024 -0.1704  0.3112  0.1439
 9145SOL     OW39070   1.169   0.926   2.981  0.3444  0.0545 -0.1425
 9145SOL    HW139071   1.247   0.894   3.026  0.9777  1.7864  0.0097
 9145SOL    HW239072   1.193   0.881   2.900 -2.8539  1.0402 -1.6337
 9146SOL     OW39073   3.699   2.617   7.361 -0.3450  0.3593  0.0422
 9146SOL    HW139074   3.735   2.676   7.295 -2.3424  0.2429 -1.1194
 9146SOL    HW239075   3.781   2.592   7.405  0.3668  2.5715 -0.0294
 9147SOL     OW39076   4.619   1.445  15.224  0.0320 -0.0318  0.6744
 9147SOL    HW139077   4.586   1.440  15.135 -0.4472 -0.0490  0.8514
 9147SOL    HW239078   4.647   1.354  15.229 -0.8761 -0.3172  0.4229
 9148SOL     OW39079   2.739   3.828   5.331  0.0456  0.1162 -0.0526
 9148SOL    HW139080   2.722   3.921   5.316 -2.9399 -0.3306  0.5561
 9148SOL    HW239081   2.711   3.787   5.249  0.6379 -2.3905  0.9879
 9149SOL     OW39082   2.569   3.651   3.867  0.4039  0.3321 -0.1638
 9149SOL    HW139083   2.569   3.696   3.782 -0.3517  0.2241 -0.2249
 9149SOL    HW239084   2.652   3.609   3.844  0.5809  1.0458 -0.8348
 9150SOL     OW39085   4.453   3.293   1.748 -0.0428 -0.6830  0.3940
 9150SOL    HW139086   4.406   3.272   1.667 -1.8383  0.5726  1.1244
 9150SOL    HW239087   4.389   3.329   1.809  1.1591 -0.4113  1.5132
 9151SOL     OW39088   2.652   1.134  15.435 -0.4033 -0.2209  0.6362
 9151SOL    HW139089   2.613   1.071  15.374 -2.5931 -0.0551  1.8764
 9151SOL    HW239090   2.573   1.179  15.463 -0.2265 -0.0648  0.8805
 9152SOL     OW39091   2.119   2.895   9.589 -0.1874 -0.1712  0.5125
 9152SOL    HW139092   2.206   2.921   9.617  0.1085  0.2186 -0.7814
 9152SOL    HW239093   2.084   2.841   9.660  1.1789 -1.5241  0.1591
 9153SOL     OW39094   3.968   1.047  15.771  0.5640 -0.6388  0.6822
 9153SOL    HW139095   3.968   1.091  15.686  2.8776 -0.6600  0.6898
 9153SOL    HW239096   4.059   1.054  15.798  0.4378  1.8887  0.4802
 9154SOL     OW39097   0.410   0.186  13.940  0.7773 -0.6498 -0.0787
 9154SOL    HW139098   0.334   0.243  13.944  0.2481 -1.4486  1.0117
 9154SOL    HW239099   0.474   0.252  13.915  1.2987 -0.9642  0.4359
 9155SOL     OW39100   1.391   0.107   3.704 -0.4631 -0.0452 -0.5338
 9155SOL    HW139101   1.305   0.069   3.718  1.2346 -3.0992  1.6836
 9155SOL    HW239102   1.446   0.031   3.724  1.7793  1.5014 -0.7582
 9156SOL     OW39103   3.666   2.111   2.416  0.1902 -0.0001  0.3359
 9156SOL    HW139104   3.642   2.200   2.389  0.7675  0.2193  0.5417
 9156SOL    HW239105   3.668   2.058   2.337  0.7361  0.3596  0.1177
 9157SOL     OW39106   2.257   4.175   2.891  0.1979 -0.0017 -0.2453
 9157SOL    HW139107   2.270   4.080   2.887 -0.2920 -0.0545 -0.5202
 9157SOL    HW239108   2.172   4.172   2.934 -0.0973 -0.3563 -0.8514
 9158SOL     OW39109   0.274   0.492  10.969 -0.1182  0.3237 -0.3209
 9158SOL    HW139110   0.222   0.451  10.900 -0.7474  0.0489  0.3067
 9158SOL    HW239111   0.276   0.422  11.035  1.6128  1.3243  0.6893
 9159SOL     OW39112   4.295   2.735  15.931 -0.3169  0.1470  0.0609
 9159SOL    HW139113   4.352   2.787  15.987 -0.1599  0.2742 -0.2158
 9159SOL    HW239114   4.223   2.798  15.931  1.0659  1.7204  0.7978
 9160SOL     OW39115   1.820   3.123   4.329  0.9921 -0.2302 -0.0101
 9160SOL    HW139116   1.746   3.064   4.340  1.8000 -1.2966 -0.3518
 9160SOL    HW239117   1.822   3.145   4.423  1.0420 -0.9209  0.1468
 9161SOL     OW39118   1.893   0.247   6.902 -0.1168  0.0154 -0.0764
 9161SOL    HW139119   1.825   0.278   6.961 -1.1315  0.1216 -1.2972
 9161SOL    HW239120   1.967   0.224   6.957 -1.6302 -0.8375  1.6084
 9162SOL     OW39121   3.520   3.144   8.240  0.2575 -0.1256 -0.7572
 9162SOL    HW139122   3.518   3.052   8.214  1.4005 -0.2846 -0.2748
 9162SOL    HW239123   3.607   3.164   8.274 -0.3894 -0.2254  0.9463
 9163SOL     OW39124   0.348   1.311  10.478 -0.0905  0.2102 -0.3379
 9163SOL    HW139125   0.422   1.321  10.538 -0.8606  1.0617  0.4803
 9163SOL    HW239126   0.351   1.219  10.452  0.4385  0.7732 -2.2151
 9164SOL     OW39127   2.668   3.839   0.162  0.5028 -0.2659 -0.1346
 9164SOL    HW139128   2.746   3.849   0.108 -0.0767 -1.8074 -1.2669
 9164SOL    HW239129   2.685   3.887   0.243  0.8752  0.0771 -0.4147
 9165SOL     OW39130   0.907   1.462  12.956  0.3039  0.3706  0.0478
 9165SOL    HW139131   0.831   1.518  12.975  0.7560  1.0682 -0.1703
 9165SOL    HW239132   0.932   1.476  12.865 -2.6864 -0.7786 -0.9560
 9166SOL     OW39133   2.528   0.697   8.074 -0.2753  0.4060 -0.5604
 9166SOL    HW139134   2.477   0.637   8.021  0.4378 -1.2856  0.6519
 9166SOL    HW239135   2.591   0.742   8.018  0.6974  0.7452  0.7841
 9167SOL     OW39136   1.116   3.037   3.049 -0.0250  0.2989  0.1003
 9167SOL    HW139137   1.117   2.958   3.103 -0.1659 -0.2750 -0.7362
 9167SOL    HW239138   1.118   3.103   3.119 -0.0645 -0.3598  0.7194
 9168SOL     OW39139   4.464   0.497   9.433 -0.3570 -0.2584 -0.0086
 9168SOL    HW139140   4.398   0.430   9.413  1.4304 -1.6933 -1.0743
 9168SOL    HW239141   4.544   0.449   9.415 -0.6021  0.4263 -2.8889
 9169SOL     OW39142   1.837   2.037   6.395  0.3688  0.3724  0.2770
 9169SOL    HW139143   1.800   1.952   6.369 -0.7625  1.2003 -0.8351
 9169SOL    HW239144   1.924   2.006   6.421  0.0483 -1.6640 -1.0121
 9170SOL     OW39145   3.709   4.242   6.188 -0.1947 -0.1592 -0.6376
 9170SOL    HW139146   3.693   4.325   6.233 -1.8489 -1.1281  0.5630
 9170SOL    HW239147   3.622   4.247   6.147 -1.6459 -1.5090  2.2847
 9171SOL     OW39148   2.469   0.766   7.540 -0.0989  0.4303  0.0687
 9171SOL    HW139149   2.456   0.813   7.458  1.5271  1.7987  0.6006
 9171SOL    HW239150   2.528   0.811   7.601 -2.0021  0.4315  1.9139
 9172SOL     OW39151   2.540   4.466   2.819  0.2539 -0.1532 -0.0754
 9172SOL    HW139152   2.610   4.402   2.833  2.4417  2.0829 -0.8386
 9172SOL    HW239153   2.580   4.545   2.855 -2.0353 -0.0125  2.0915
 9173SOL     OW39154   0.807   0.716   2.664  0.3172 -0.2565  0.0458
 9173SOL    HW139155   0.780   0.687   2.751 -3.1342 -1.1653 -1.3163
 9173SOL    HW239156   0.725   0.760   2.640  1.0543  0.1714 -1.6740
 9174SOL     OW39157   2.105   2.611  11.273  0.0326  0.1908 -0.0229
 9174SOL    HW139158   2.107   2.707  11.275 -3.6210  0.2860 -0.3632
 9174SOL    HW239159   2.116   2.608  11.178  1.7844 -0.8413  0.2165
 9175SOL     OW39160   2.712   4.381  12.620 -0.2675 -0.8297 -0.2634
 9175SOL    HW139161   2.663   4.449  12.666  0.3798 -0.8944  0.5074
 9175SOL    HW239162   2.689   4.399  12.529 -1.1785 -0.8491 -0.0364
 9176SOL     OW39163   1.202   4.218   1.368  0.2849 -0.2364 -0.5352
 9176SOL    HW139164   1.205   4.277   1.293 -0.1570  0.3288 -0.1093
 9176SOL    HW239165   1.201   4.132   1.326  0.1360 -0.1920 -0.6185
 9177SOL     OW39166   2.384   1.757   1.950  0.0325 -0.0332 -0.3605
 9177SOL    HW139167   2.314   1.693   1.958  0.5530 -0.2511  2.1618
 9177SOL    HW239168   2.373   1.782   1.858 -0.4801  0.8282 -0.0608
 9178SOL     OW39169   1.280   2.135  15.055 -0.3913 -0.2481 -0.1572
 9178SOL    HW139170   1.324   2.209  15.014  0.1332 -0.0857  0.6883
 9178SOL    HW239171   1.346   2.066  15.043  0.2736  0.8608 -2.7517
 9179SOL     OW39172   3.230   2.467   1.038 -0.5604 -0.1916  0.0119
 9179SOL    HW139173   3.323   2.487   1.052 -0.4870  0.5578 -1.5207
 9179SOL    HW239174   3.233   2.436   0.947 -0.9697  1.0090 -0.4119
 9180SOL     OW39175   1.876   1.524  17.006  0.2060 -0.4070  0.0036
 9180SOL    HW139176   1.899   1.602  17.056  1.3968  0.2405 -1.5744
 9180SOL    HW239177   1.820   1.567  16.942 -2.3273  0.8542  3.0279
 9181SOL     OW39178   1.988   0.779  12.661  0.5928 -0.1037 -0.2405
 9181SOL    HW139179   2.070   0.755  12.619  1.6942 -1.0493  2.4820
 9181SOL    HW239180   2.014   0.858  12.709  0.3799 -0.5269  0.5667
 9182SOL     OW39181   0.838   3.013   5.551 -0.8353  0.2591 -0.0726
 9182SOL    HW139182   0.840   3.108   5.536 -2.1947  0.1440 -0.9927
 9182SOL    HW239183   0.889   3.004   5.631 -2.1654 -0.6406  0.6721
 9183SOL     OW39184   2.425   1.767  16.619  0.3492 -0.3844 -0.5133
 9183SOL    HW139185   2.391   1.855  16.599  1.7854 -0.5294 -3.5009
 9183SOL    HW239186   2.390   1.722  16.543 -2.5522  0.3294  0.3850
 9184SOL     OW39187   3.566   1.199   9.733  0.6297 -0.2350 -0.3097
 9184SOL    HW139188   3.628   1.272   9.741  1.3251 -0.8759  0.1573
 9184SOL    HW239189   3.621   1.136   9.687  0.4509 -0.4846 -0.1790
 9185SOL     OW39190   2.375   2.728   8.014 -0.3302  0.0656 -0.1609
 9185SOL    HW139191   2.309   2.785   7.975 -0.9371 -0.2856  0.3477
 9185SOL    HW239192   2.427   2.791   8.064 -0.9265 -1.2701  2.1898
 9186SOL     OW39193   0.528   4.006   6.853 -0.4469 -0.1691  0.1117
 9186SOL    HW139194   0.533   3.910   6.849 -0.0179 -0.1087 -0.7803
 9186SOL    HW239195   0.587   4.035   6.922 -0.6007 -0.6898  0.4597
 9187SOL     OW39196   1.526   0.318   8.119  0.0136 -0.0833 -0.4398
 9187SOL    HW139197   1.501   0.231   8.150 -1.2914  0.0005 -1.2600
 9187SOL    HW239198   1.437   0.350   8.109  0.3337  1.3377  1.1890
 9188SOL     OW39199   0.963   2.663   0.934  0.4095 -0.2138  0.3506
 9188SOL    HW139200   0.877   2.705   0.943  0.2484  0.0637 -2.4714
 9188SOL    HW239201   0.972   2.637   1.025  0.3153 -1.8628 -0.1236
 9189SOL     OW39202   3.115   2.493   8.782 -0.3727  0.0245 -0.0630
 9189SOL    HW139203   3.073   2.575   8.807  0.0892 -0.0207  0.8693
 9189SOL    HW239204   3.205   2.515   8.761 -0.4794 -0.1335 -0.6911
 9190SOL     OW39205   2.807   0.310   4.761 -0.3146  0.6331  0.0919
 9190SOL    HW139206   2.826   0.403   4.775 -1.4875  1.1289 -1.6512
 9190SOL    HW239207   2.820   0.286   4.669  1.5001  2.9022 -0.2560
 9191SOL     OW39208   1.711   3.758   2.821  0.6252  0.2080  0.0988
 9191SOL    HW139209   1.739   3.822   2.887  1.9401 -1.6751  1.3827
 9191SOL    HW239210   1.710   3.679   2.876  0.1122  0.5902  0.6431
 9192SOL     OW39211   4.403   2.531   5.291 -0.1960 -0.6294 -0.5667
 9192SOL    HW139212   4.436   2.578   5.215  0.4232  1.3166  0.9123
 9192SOL    HW239213   4.424   2.602   5.351 -1.7706 -0.3031 -0.4007
 9193SOL     OW39214   3.520   1.120   8.841 -0.0838  0.0351  0.3643
 9193SOL    HW139215   3.456   1.176   8.797  0.1616  0.3952  0.4673
 9193SOL    HW239216   3.562   1.188   8.893 -0.2551  1.2702 -1.1238
 9194SOL     OW39217   1.709   4.324   0.987  0.2573  0.1902  1.0033
 9194SOL    HW139218   1.731   4.392   0.923 -0.7358 -0.5901 -0.1724
 9194SOL    HW239219   1.652   4.266   0.937  1.3892  0.8967 -1.1112
 9195SOL     OW39220   1.291   3.655   2.774 -0.1978 -0.4621  0.1659
 9195SOL    HW139221   1.255   3.621   2.856  1.7709  1.4412  1.8238
 9195SOL    HW239222   1.326   3.741   2.796 -0.1558 -0.8328  1.5235
 9196SOL     OW39223   4.391   2.651   5.620 -0.5175  0.7540 -0.4360
 9196SOL    HW139224   4.363   2.725   5.675 -0.1625  1.7498 -1.6007
 9196SOL    HW239225   4.311   2.645   5.567 -0.0422 -2.8208 -0.7336
 9197SOL     OW39226   2.472   3.167   5.505  0.5540  0.2108  0.4761
 9197SOL    HW139227   2.551   3.177   5.452 -1.2979 -1.4207 -2.6673
 9197SOL    HW239228   2.407   3.133   5.442 -0.0090  0.4055  0.9537
 9198SOL     OW39229   2.098   2.430   7.640  0.1520 -0.0415 -0.3545
 9198SOL    HW139230   2.192   2.445   7.653  0.5503 -1.9706 -0.9467
 9198SOL    HW239231   2.066   2.519   7.628  3.6984  0.9976 -2.3612
 9199SOL     OW39232   3.161   0.808   7.477  0.2323  0.3442  0.1168
 9199SOL    HW139233   3.256   0.818   7.477  0.3405 -0.6872 -0.3511
 9199SOL    HW239234   3.167   0.714   7.459 -1.6003  0.0742  0.9632
 9200SOL     OW39235   0.491   1.120   3.515  0.4602 -0.6102 -0.3475
 9200SOL    HW139236   0.439   1.120   3.435  0.3244 -1.6278 -0.2618
 9200SOL    HW239237   0.445   1.183   3.570  0.7827 -0.6724 -0.0053
 9201SOL     OW39238   3.999   2.938   6.014 -0.2050 -0.0580  0.1549
 9201SOL    HW139239   3.917   2.939   5.964  0.7333  0.5293 -1.3735
 9201SOL    HW239240   4.038   3.024   6.001  0.0307 -0.2863 -0.6483
 9202SOL     OW39241   2.463   4.438   1.863  0.7727 -0.0460  0.3800
 9202SOL    HW139242   2.524   4.365   1.852  0.1402 -0.5823  0.4162
 9202SOL    HW239243   2.464   4.454   1.957  1.5575 -0.0721  0.3715
 9203SOL     OW39244   1.391   3.424  13.250  0.1414 -0.5978  0.2101
 9203SOL    HW139245   1.303   3.462  13.261 -0.2992 -1.3015 -0.8675
 9203SOL    HW239246   1.393   3.439  13.155 -3.0467  2.2733  0.5968
 9204SOL     OW39247   1.097   0.807   6.683 -0.0686  0.0135  0.9934
 9204SOL    HW139248   1.135   0.800   6.596 -1.5144 -0.9521  0.4419
 9204SOL    HW239249   1.163   0.775   6.745  0.3023  1.0846  1.1431
 9205SOL     OW39250   3.643   3.356  16.289  0.0180 -0.2981 -0.4137
 9205SOL    HW139251   3.701   3.280  16.288  0.5257  0.1080 -1.4378
 9205SOL    HW239252   3.572   3.321  16.344 -1.1515  0.7548 -1.2504
 9206SOL     OW39253   3.088   1.586   4.828  0.6776 -0.1443  0.1334
 9206SOL    HW139254   3.157   1.533   4.788  1.2795  0.8460 -0.1510
 9206SOL    HW239255   3.128   1.626   4.905  0.0633  1.6412 -0.4545
 9207SOL     OW39256   1.721   1.529  13.068  0.4050  0.2184  0.2659
 9207SOL    HW139257   1.667   1.513  12.991  0.9790  2.1037 -0.5271
 9207SOL    HW239258   1.810   1.547  13.038  0.4934 -1.8803 -0.7329
 9208SOL     OW39259   4.488   4.628   2.381  0.2953 -0.4378 -0.1106
 9208SOL    HW139260   4.507   4.565   2.311 -0.5245 -1.0521  0.2163
 9208SOL    HW239261   4.392   4.620   2.378  0.1110  1.7274  0.0959
 9209SOL     OW39262   2.760   2.707   5.858  0.0717 -0.1229  0.3671
 9209SOL    HW139263   2.751   2.797   5.826  0.6585 -0.3809 -0.5171
 9209SOL    HW239264   2.679   2.686   5.905 -0.1795  0.7816  0.3373
 9210SOL     OW39265   2.726   4.248  17.466  0.0881  0.2355  0.2245
 9210SOL    HW139266   2.637   4.252  17.430  0.1726 -2.1939 -0.2424
 9210SOL    HW239267   2.710   4.218  17.555  0.6478  0.2920  0.3442
 9211SOL     OW39268   3.495   1.405   9.338 -0.1690  0.9117 -0.8004
 9211SOL    HW139269   3.435   1.403   9.412  0.5299 -4.9173 -0.3726
 9211SOL    HW239270   3.428   1.402   9.270 -0.5295  1.1378 -0.4524
 9212SOL     OW39271   2.515   0.016   3.988  0.1756  0.8305 -0.0771
 9212SOL    HW139272   2.504   0.111   3.974 -0.2551  0.7647 -0.1914
 9212SOL    HW239273   2.433   4.730   4.031  1.3347 -2.1132  0.6082
 9213SOL     OW39274   1.874   1.996   8.558  0.8637 -0.5530 -0.4895
 9213SOL    HW139275   1.900   1.907   8.582 -2.8244 -1.3151  0.6829
 9213SOL    HW239276   1.907   2.011   8.469  3.6095  3.5316  1.2205
 9214SOL     OW39277   1.093   0.419   2.818  0.4280 -0.3384 -1.0704
 9214SOL    HW139278   1.185   0.394   2.807  0.7304 -0.0059  0.7174
 9214SOL    HW239279   1.081   0.430   2.912  2.3118  1.2350 -1.0068
 9215SOL     OW39280   1.522   0.726   2.758  0.0527  0.0688 -0.0583
 9215SOL    HW139281   1.543   0.654   2.818  1.2080 -0.9134 -1.6421
 9215SOL    HW239282   1.528   0.679   2.675 -2.8307 -1.6826  0.7171
 9216SOL     OW39283   1.350   1.219  11.100  0.1177 -0.5513 -0.5162
 9216SOL    HW139284   1.437   1.246  11.072  1.3471 -1.2483  2.5905
 9216SOL    HW239285   1.299   1.276  11.042 -0.9853 -0.1447  0.8513
 9217SOL     OW39286   2.985   1.855   6.772 -0.0775  0.0692 -0.4291
 9217SOL    HW139287   3.053   1.879   6.710  0.9082  1.8406  1.3028
 9217SOL    HW239288   3.028   1.875   6.855  0.2441  1.0751 -0.8320
 9218SOL     OW39289   3.791   1.227   2.311  0.0662 -0.1497  0.3428
 9218SOL    HW139290   3.721   1.273   2.358 -0.5694  0.0302 -0.8039
 9218SOL    HW239291   3.783   1.272   2.227  1.3654  0.8642  0.7540
 9219SOL     OW39292   3.713   4.533   8.057  0.2748 -0.5827  0.8368
 9219SOL    HW139293   3.750   4.575   7.979  1.1748 -0.8428  1.1244
 9219SOL    HW239294   3.699   4.610   8.113 -0.3454  0.4416 -0.7005
 9220SOL     OW39295   0.525   2.243   3.622  0.4649 -0.1788  0.5334
 9220SOL    HW139296   0.544   2.198   3.540  1.5232  1.1458  0.0484
 9220SOL    HW239297   0.471   2.315   3.590 -0.8923 -2.1824 -1.6443
 9221SOL     OW39298   0.395   2.401   0.898 -0.5289  0.3681  0.0788
 9221SOL    HW139299   0.441   2.464   0.843 -0.3874 -0.6999 -1.0004
 9221SOL    HW239300   0.308   2.397   0.859 -0.7795  1.2258  0.5463
 9222SOL     OW39301   3.973   3.078  10.253 -0.7607 -0.5042  0.4490
 9222SOL    HW139302   3.934   3.155  10.211  0.7385  0.0176 -0.0104
 9222SOL    HW239303   3.971   3.004  10.193 -0.5542  1.0032 -1.4398
 9223SOL     OW39304   0.852   3.296   0.595  0.3528  0.0361 -0.0077
 9223SOL    HW139305   0.774   3.293   0.541  0.5570 -2.4710 -0.1507
 9223SOL    HW239306   0.833   3.379   0.640 -1.7847 -0.8313  0.6602
 9224SOL     OW39307   3.024   2.937   2.838 -0.5981 -0.0773 -0.4000
 9224SOL    HW139308   2.958   2.989   2.792  0.4265  3.1005  1.7681
 9224SOL    HW239309   3.029   2.864   2.776  0.2276  0.1963 -0.6576
 9225SOL     OW39310   2.756   3.254   3.362 -0.1030  0.7234 -0.1112
 9225SOL    HW139311   2.755   3.316   3.435  0.4664  0.9575 -0.2964
 9225SOL    HW239312   2.816   3.186   3.394  0.9641  0.2304 -3.1629
 9226SOL     OW39313   2.893   3.420   5.542  0.1114 -0.1511  0.1573
 9226SOL    HW139314   2.808   3.392   5.576  0.2928  1.2156  1.7854
 9226SOL    HW239315   2.881   3.515   5.547  0.4157 -0.0566 -0.9225
 9227SOL     OW39316   3.041   0.490   4.520 -0.0325  0.3906  0.0574
 9227SOL    HW139317   3.122   0.497   4.570  1.2140 -3.5192 -1.4147
 9227SOL    HW239318   3.071   0.443   4.442  1.7228 -0.4124  1.2033
 9228SOL     OW39319   3.373   2.353   7.870 -0.3246 -0.3102  0.0769
 9228SOL    HW139320   3.319   2.327   7.795  2.2484  0.1717 -1.9797
 9228SOL    HW239321   3.321   2.305   7.934 -2.2371 -0.6675 -1.7230
 9229SOL     OW39322   4.218   3.953   3.398 -0.2589  0.2150  0.1885
 9229SOL    HW139323   4.135   3.922   3.436  0.6176 -0.1758  1.7569
 9229SOL    HW239324   4.200   3.954   3.304 -0.5508 -2.7685  0.2154
 9230SOL     OW39325   0.712   2.082   9.737 -0.0229  0.0391  0.1208
 9230SOL    HW139326   0.726   2.044   9.823 -1.0401 -1.4262 -0.3673
 9230SOL    HW239327   0.787   2.142   9.738 -1.5150  1.8993  0.1495
 9231SOL     OW39328   2.585   0.144  13.688  0.0025 -0.1867  0.0838
 9231SOL    HW139329   2.662   0.088  13.701 -0.2238 -1.0410 -2.2744
 9231SOL    HW239330   2.618   0.186  13.608 -0.7257 -0.5136 -0.3868
 9232SOL     OW39331   4.608   1.528   2.542  0.3625  0.2991 -0.4291
 9232SOL    HW139332   4.643   1.474   2.471  1.8305  1.9044 -0.9352
 9232SOL    HW239333   4.685   1.550   2.596 -0.3744 -0.6831  1.0330
 9233SOL     OW39334   2.126   3.990   1.722  0.5372  0.6971 -0.5341
 9233SOL    HW139335   2.145   4.083   1.733 -0.6511  0.8942 -0.2263
 9233SOL    HW239336   2.212   3.950   1.707  0.8798  1.0359  0.5311
 9234SOL     OW39337   3.269   2.025   2.758 -0.6543  0.4464 -0.2499
 9234SOL    HW139338   3.278   2.022   2.663  2.1993 -1.1367  0.0772
 9234SOL    HW239339   3.286   1.935   2.786  0.4311 -0.6457 -4.4302
 9235SOL     OW39340   0.464   1.941   1.658 -0.2165  0.2432  0.1763
 9235SOL    HW139341   0.543   1.996   1.661  0.0680 -0.0941 -1.1341
 9235SOL    HW239342   0.504   1.856   1.678  2.0333  1.4290  0.7204
 9236SOL     OW39343   1.652   2.975   2.798 -0.2634  0.3300  0.4341
 9236SOL    HW139344   1.695   2.906   2.848 -0.4021 -1.0978 -1.4307
 9236SOL    HW239345   1.580   2.994   2.857 -1.6598 -1.7121 -0.6245
 9237SOL     OW39346   4.496   3.677   3.301  0.3216  0.1148  0.4399
 9237SOL    HW139347   4.580   3.638   3.278  0.6219  0.4276  1.0046
 9237SOL    HW239348   4.469   3.631   3.380  1.1279  1.3876  1.4423
 9238SOL     OW39349   2.674   4.539  17.577 -0.0522  0.2698  0.1753
 9238SOL    HW139350   2.650   4.460  17.529 -2.0348  0.7742  0.3536
 9238SOL    HW239351   2.679   4.606  17.508 -1.5205 -1.1501 -1.3251
 9239SOL     OW39352   2.326   1.421   5.142  0.8090 -0.4201  0.0184
 9239SOL    HW139353   2.325   1.453   5.052  0.4009 -0.2382  0.0875
 9239SOL    HW239354   2.248   1.365   5.138  1.0443 -0.8344  1.3707
 9240SOL     OW39355   4.547   0.328   8.195 -0.2347  0.2933  0.1744
 9240SOL    HW139356   4.466   0.350   8.242  0.2751 -0.6877  1.5016
 9240SOL    HW239357   4.567   0.249   8.244  0.5400 -2.0314 -3.9403
 9241SOL     OW39358   4.600   0.828   7.772  0.0978  0.7927 -0.0685
 9241SOL    HW139359   4.651   0.879   7.836  0.1432  2.5538 -1.5238
 9241SOL    HW239360   4.552   0.904   7.740  0.4251  1.3067  0.6433
 9242SOL     OW39361   4.395   2.277   3.409 -0.9915  0.0228  0.3141
 9242SOL    HW139362   4.404   2.247   3.318 -0.4357 -1.4750  0.8575
 9242SOL    HW239363   4.329   2.343   3.386  0.7933  1.4222 -0.7876
 9243SOL     OW39364   2.174   1.992   3.188  0.3246 -0.2787  0.0340
 9243SOL    HW139365   2.207   2.039   3.112  1.5681 -1.8804 -0.4147
 9243SOL    HW239366   2.086   1.977   3.155  0.0412 -0.1872  0.7439
 9244SOL     OW39367   3.275   0.739  13.684  0.1050 -0.1622 -0.1107
 9244SOL    HW139368   3.187   0.727  13.719 -0.8457  0.9896 -2.1338
 9244SOL    HW239369   3.290   0.829  13.712 -0.7143 -0.2131  0.5155
 9245SOL     OW39370   0.826   3.601   9.057  0.2875 -0.1377  0.3967
 9245SOL    HW139371   0.814   3.531   8.993  1.5068  0.2754 -0.2921
 9245SOL    HW239372   0.873   3.666   9.005 -0.2564  1.1863  1.5610
 9246SOL     OW39373   2.455   0.609   5.962  0.0242  0.4317 -0.0755
 9246SOL    HW139374   2.484   0.691   5.923  3.2312 -0.5227  0.3184
 9246SOL    HW239375   2.363   0.628   5.980 -0.8768 -2.5385 -1.4245
 9247SOL     OW39376   2.922   0.067  13.281  0.1900  0.0463  0.1570
 9247SOL    HW139377   2.907   0.122  13.205 -1.1371 -0.4367  0.0745
 9247SOL    HW239378   2.853   0.099  13.339  0.2237 -1.8818  1.2751
 9248SOL     OW39379   1.464   0.528   2.058  0.1464  0.9051 -0.6601
 9248SOL    HW139380   1.532   0.540   1.991  0.7033  0.5732 -0.1503
 9248SOL    HW239381   1.393   0.484   2.011  1.6372 -0.6320 -1.4365
 9249SOL     OW39382   1.690   0.235   5.303 -0.1299  0.2975  0.0519
 9249SOL    HW139383   1.726   0.321   5.280  2.4123 -0.1812  2.3095
 9249SOL    HW239384   1.597   0.251   5.289  0.0918  1.4615 -0.1401
 9250SOL     OW39385   0.903   1.793   4.170  0.2899  0.1307 -0.2513
 9250SOL    HW139386   0.870   1.863   4.115 -0.4130  0.4561  0.5827
 9250SOL    HW239387   0.992   1.782   4.135 -0.3207 -0.2045 -1.6964
 9251SOL     OW39388   2.978   1.522   4.476  0.5011 -1.0897  0.2175
 9251SOL    HW139389   2.986   1.483   4.388  1.3769 -0.7896  0.1699
 9251SOL    HW239390   2.981   1.440   4.525  0.0502  0.0696  2.1981
 9252SOL     OW39391   2.612   0.328   8.335 -0.4420 -0.3565 -0.8048
 9252SOL    HW139392   2.534   0.355   8.286 -1.7362 -1.1559  0.8082
 9252SOL    HW239393   2.668   0.318   8.258  1.1798 -1.4276  0.5108
 9253SOL     OW39394   2.270   2.196   3.619 -0.0631 -0.2798 -0.3713
 9253SOL    HW139395   2.365   2.188   3.627 -0.1345  0.4795  1.2083
 9253SOL    HW239396   2.248   2.213   3.710 -2.3476  0.1068 -1.0042
 9254SOL     OW39397   3.440   1.097   0.082 -0.2097 -0.1216 -0.4938
 9254SOL    HW139398   3.404   1.066   0.165  1.6469  1.4792  0.8878
 9254SOL    HW239399   3.386   1.171   0.055  0.5932  0.9987  0.9761
 9255SOL     OW39400   3.909   0.271   4.212  0.3952 -0.0884 -0.2599
 9255SOL    HW139401   3.979   0.225   4.257  0.7201 -0.1886 -0.8744
 9255SOL    HW239402   3.932   0.362   4.227  0.2937  0.0722 -1.0946
 9256SOL     OW39403   2.462   2.996   6.092 -0.2821  0.1132 -0.0364
 9256SOL    HW139404   2.469   3.080   6.047 -1.9616 -0.3609 -1.1732
 9256SOL    HW239405   2.509   3.022   6.172 -0.3080  0.0679 -0.0066
 9257SOL     OW39406   0.361   1.669   6.621  0.3737 -0.0333  0.0401
 9257SOL    HW139407   0.435   1.697   6.567 -0.3402  0.9266 -0.4539
 9257SOL    HW239408   0.394   1.668   6.711 -0.2617 -0.5638  0.2644
 9258SOL     OW39409   1.875   1.480  10.555 -0.1052 -0.0066  0.0486
 9258SOL    HW139410   1.886   1.397  10.509 -1.0341 -0.2307  0.2502
 9258SOL    HW239411   1.953   1.491  10.610 -1.3702  0.1021  1.8038
 9259SOL     OW39412   3.257   2.752   7.784  0.6861  0.2502  0.1935
 9259SOL    HW139413   3.213   2.798   7.856  1.8284 -3.7444  3.4674
 9259SOL    HW239414   3.297   2.823   7.735 -0.4370  0.7944  0.0680
 9260SOL     OW39415   3.098   4.287   2.766  0.9826 -0.4278  0.2663
 9260SOL    HW139416   3.023   4.227   2.760  0.6212  0.0263  0.2208
 9260SOL    HW239417   3.120   4.283   2.859 -0.3870 -0.5754  0.5856
 9261SOL     OW39418   3.815   3.009   1.856  0.1595 -0.0326  0.2937
 9261SOL    HW139419   3.882   2.974   1.914  0.3155 -0.4279 -0.1287
 9261SOL    HW239420   3.733   3.002   1.906 -0.2291 -0.6888 -0.4186
 9262SOL     OW39421   0.209   3.437   1.734  0.0046 -0.1288 -0.3204
 9262SOL    HW139422   0.256   3.512   1.700 -0.7507  1.2622  1.6617
 9262SOL    HW239423   0.158   3.485   1.800 -0.6117  3.2143 -3.2723
 9263SOL     OW39424   3.432   0.278   4.699  0.7950  0.7185  0.1019
 9263SOL    HW139425   3.512   0.329   4.687  2.2254 -1.8231 -1.1246
 9263SOL    HW239426   3.398   0.281   4.609  1.9082 -1.4042 -0.3957
 9264SOL     OW39427   3.774   4.298   3.393  0.3983 -0.4275 -0.1528
 9264SOL    HW139428   3.810   4.251   3.468  2.4642  2.1859  0.4875
 9264SOL    HW239429   3.684   4.265   3.399  1.1263 -2.1139  1.5073
 9265SOL     OW39430   1.120   3.327   2.038  0.3228 -0.1682  0.5335
 9265SOL    HW139431   1.130   3.331   2.133 -0.1031  0.5549  0.5465
 9265SOL    HW239432   1.150   3.414   2.011 -0.2740  0.6358  2.4169
 9266SOL     OW39433   2.720   4.258   1.011 -0.6261 -0.9837  0.2284
 9266SOL    HW139434   2.680   4.172   1.026  0.0616 -1.5599 -1.2205
 9266SOL    HW239435   2.813   4.243   0.993 -0.7338 -0.2912 -0.8955
 9267SOL     OW39436   4.201   3.422   1.511  0.1480 -0.4470 -0.3659
 9267SOL    HW139437   4.240   3.348   1.465  0.3411  1.2062 -2.9070
 9267SOL    HW239438   4.108   3.421   1.487 -0.5649  2.9652  2.2043
 9268SOL     OW39439   1.912   3.408   8.493 -0.1456 -0.6773 -0.1609
 9268SOL    HW139440   1.953   3.323   8.512 -0.6135 -1.0855 -0.9514
 9268SOL    HW239441   1.928   3.401   8.399  0.7174 -0.5058 -0.0287
 9269SOL     OW39442   3.332   4.708   7.005  0.6595 -0.2793 -0.0225
 9269SOL    HW139443   3.281   4.669   7.076  2.1712 -1.0797  0.6247
 9269SOL    HW239444   3.414   4.729   7.049 -0.0911  1.1517  0.6884
 9270SOL     OW39445   1.712   0.534  17.322  0.1181  0.3457 -0.0358
 9270SOL    HW139446   1.792   0.586  17.327  0.6024 -0.2341 -1.8470
 9270SOL    HW239447   1.670   0.546  17.408  1.5603 -1.5026  0.9053
 9271SOL     OW39448   4.522   2.063   1.511  0.0287 -0.2721 -0.3351
 9271SOL    HW139449   4.488   2.052   1.422  3.2529 -1.9976 -1.3606
 9271SOL    HW239450   4.538   2.158   1.505 -1.5613  0.0367  0.2249
 9272SOL     OW39451   2.129   4.449   5.093 -0.4097  0.3777  0.7579
 9272SOL    HW139452   2.214   4.461   5.137 -0.1391  0.2374  0.2771
 9272SOL    HW239453   2.104   4.365   5.133 -1.8069 -0.1895 -1.3297
 9273SOL     OW39454   4.458   2.145   3.175  0.0790 -0.4647  0.0948
 9273SOL    HW139455   4.441   2.186   3.090  0.2292 -0.3082  0.1390
 9273SOL    HW239456   4.548   2.117   3.161 -0.4715 -0.5411 -3.2864
 9274SOL     OW39457   1.439   1.484   6.446 -0.1831 -0.2392 -0.5611
 9274SOL    HW139458   1.488   1.548   6.497 -0.6504 -0.7702  0.5615
 9274SOL    HW239459   1.447   1.526   6.360  0.1030  1.5032  0.3311
 9275SOL     OW39460   4.693   3.441   3.167 -0.1181 -0.3735 -0.7992
 9275SOL    HW139461   4.640   3.371   3.204 -1.0427  0.0139 -1.3766
 9275SOL    HW239462   4.624   3.479   3.113  0.7327  0.9990 -0.9304
 9276SOL     OW39463   3.260   3.934   2.520  0.4716  0.4087  0.2884
 9276SOL    HW139464   3.224   3.895   2.600 -0.6901 -0.0942 -0.4827
 9276SOL    HW239465   3.202   4.010   2.513 -0.6308 -0.5665 -1.0946
 9277SOL     OW39466   2.459   3.838   1.975 -0.1426 -0.9830  0.5538
 9277SOL    HW139467   2.422   3.840   1.887  2.0475 -0.4739 -0.3557
 9277SOL    HW239468   2.501   3.923   1.987  0.2990 -1.1727  0.3408
 9278SOL     OW39469   0.444   4.294   3.727  0.0993 -0.1193 -0.1798
 9278SOL    HW139470   0.349   4.299   3.729  0.1492  0.4870  0.8785
 9278SOL    HW239471   0.457   4.282   3.633 -1.4177  1.3206 -0.5654
 9279SOL     OW39472   3.492   2.694   0.527  0.1473 -0.4018  0.3046
 9279SOL    HW139473   3.409   2.651   0.504 -0.0432 -0.0518  0.3458
 9279SOL    HW239474   3.496   2.770   0.469 -2.0489  0.4033  1.2062
 9280SOL     OW39475   1.904   0.814  11.815  0.0265 -0.1205  0.1457
 9280SOL    HW139476   1.986   0.773  11.844 -1.2612 -1.3475  2.0141
 9280SOL    HW239477   1.943   0.899  11.791 -0.6538  0.0697 -0.2860
 9281SOL     OW39478   0.792   4.012   8.345  0.2503 -0.0390  0.4056
 9281SOL    HW139479   0.792   3.923   8.308  1.5602 -0.9581  2.6117
 9281SOL    HW239480   0.717   4.054   8.304 -0.1081 -0.1266  0.9744
 9282SOL     OW39481   0.592   2.293   6.364 -0.4703  0.0359  0.4066
 9282SOL    HW139482   0.684   2.314   6.377 -0.1514 -1.9218  1.1888
 9282SOL    HW239483   0.592   2.247   6.280 -1.5925  0.2172  0.3096
 9283SOL     OW39484   2.689   2.251   1.894  0.2190  0.2461  0.8174
 9283SOL    HW139485   2.616   2.289   1.943 -0.2506  0.4023 -0.0169
 9283SOL    HW239486   2.668   2.159   1.908  0.8071 -0.2953 -1.8594
 9284SOL     OW39487   1.199   2.944  10.737 -1.0412 -0.5576  0.3104
 9284SOL    HW139488   1.207   2.852  10.763  0.0430 -1.4503 -3.1496
 9284SOL    HW239489   1.111   2.951  10.773 -0.3619  0.4240  1.8318
 9285SOL     OW39490   1.333   3.574   0.318 -0.3593 -0.3680  0.2622
 9285SOL    HW139491   1.380   3.596   0.398 -0.4062 -0.2484  0.2559
 9285SOL    HW239492   1.346   3.654   0.268 -1.7489 -0.6839 -0.6159
 9286SOL     OW39493   1.811   0.542  14.007 -0.3395  0.3738  0.7308
 9286SOL    HW139494   1.784   0.531  14.098 -0.9719 -1.9126  0.2542
 9286SOL    HW239495   1.798   0.634  13.983  1.1396  0.2301 -0.6630
 9287SOL     OW39496   1.489   2.546   4.808 -0.1476  0.0876 -0.2064
 9287SOL    HW139497   1.411   2.563   4.862  0.1602 -1.9048  0.8577
 9287SOL    HW239498   1.449   2.520   4.725 -1.2243  1.2622 -0.0520
 9288SOL     OW39499   0.070   1.376   2.434 -0.0212  0.8861  0.1304
 9288SOL    HW139500   0.095   1.402   2.346 -3.0760  0.8538 -0.7320
 9288SOL    HW239501   0.151   1.388   2.483 -0.5447 -0.4327  1.3392
 9289SOL     OW39502   2.169   1.537   3.820 -0.0848  0.4323 -0.0257
 9289SOL    HW139503   2.237   1.603   3.834  0.3251  0.2762 -1.2853
 9289SOL    HW239504   2.133   1.572   3.739 -0.9803  0.1943  0.2683
 9290SOL     OW39505   1.121   2.932   8.980  0.4147  0.3541  0.2917
 9290SOL    HW139506   1.130   3.016   8.935 -2.2623  0.2366 -0.4689
 9290SOL    HW239507   1.163   2.946   9.065  0.0871 -2.6638  0.9645
 9291SOL     OW39508   3.761   2.856  13.944  0.1054 -0.0900 -0.2449
 9291SOL    HW139509   3.818   2.909  13.887 -0.2599  0.3663 -0.1829
 9291SOL    HW239510   3.801   2.770  13.953 -1.1603 -0.5425  0.8782
 9292SOL     OW39511   0.621   3.004  14.540 -0.1042 -0.4213 -0.2131
 9292SOL    HW139512   0.566   2.949  14.596  0.8782 -1.2842 -0.1075
 9292SOL    HW239513   0.697   2.991  14.596 -0.8125  0.7075  0.9966
 9293SOL     OW39514   3.618   3.708   6.388  0.0075 -0.1396  0.0302
 9293SOL    HW139515   3.631   3.803   6.395 -0.3750 -0.0732 -0.1932
 9293SOL    HW239516   3.523   3.708   6.391 -0.0913 -1.6041 -2.7811
 9294SOL     OW39517   2.857   0.768   2.554 -0.3947  0.1482 -0.2812
 9294SOL    HW139518   2.885   0.759   2.645  1.2089  0.0741 -0.7979
 9294SOL    HW239519   2.820   0.856   2.553  0.8142  0.6325 -2.1366
 9295SOL     OW39520   3.732   4.724   8.929  0.4924  0.2174 -0.1823
 9295SOL    HW139521   3.770   4.638   8.948  1.8437  0.9593  0.4635
 9295SOL    HW239522   3.655   4.722   8.986  0.9982  0.0977  0.4899
 9296SOL     OW39523   2.605   0.668   5.667 -0.3318 -0.5690 -0.6000
 9296SOL    HW139524   2.582   0.733   5.734 -0.2814  0.3773 -1.4984
 9296SOL    HW239525   2.544   0.678   5.594 -1.0713 -0.6315  0.0040
 9297SOL     OW39526   0.911   3.233   8.681  0.0004 -0.0332 -0.1341
 9297SOL    HW139527   0.956   3.153   8.655  0.8396  0.2622  0.4452
 9297SOL    HW239528   0.818   3.211   8.667  0.4667 -2.0578 -0.0592
 9298SOL     OW39529   3.910   2.899   3.226  0.0243  0.9345 -0.1904
 9298SOL    HW139530   3.880   2.808   3.230 -0.4224  1.0949  0.0705
 9298SOL    HW239531   3.846   2.940   3.167  0.4949  0.0133 -1.3385
 9299SOL     OW39532   0.464   1.195   2.552  0.1897  0.3387 -0.0954
 9299SOL    HW139533   0.531   1.134   2.582  0.2891  0.1390 -0.7151
 9299SOL    HW239534   0.385   1.147   2.578 -0.3484  1.0207 -0.4568
 9300SOL     OW39535   2.926   3.530   5.242 -0.0768  0.5832  0.2250
 9300SOL    HW139536   2.969   3.598   5.294  0.7235  1.3756 -1.4791
 9300SOL    HW239537   2.979   3.528   5.163  1.7833 -0.4127  1.4831
 9301SOL     OW39538   4.638   2.042   8.965  0.2547 -0.0638  0.2181
 9301SOL    HW139539   4.677   1.971   9.016 -0.7201 -1.4541 -0.9649
 9301SOL    HW239540   4.686   2.034   8.882 -0.1195 -0.1063  0.0054
 9302SOL     OW39541   4.171   1.184   7.503  0.2292  0.0876  0.2462
 9302SOL    HW139542   4.084   1.221   7.519 -0.2410 -0.8067 -0.2235
 9302SOL    HW239543   4.133   1.105   7.463  1.4924 -0.1377 -0.5090
 9303SOL     OW39544   4.575   3.612   2.961  0.4351 -0.4980 -0.3225
 9303SOL    HW139545   4.494   3.643   3.001  2.6870 -1.0692  4.6665
 9303SOL    HW239546   4.617   3.694   2.934  1.2182 -0.8411 -0.1600
 9304SOL     OW39547   3.628   3.152  16.510 -0.0680 -0.0017  0.4323
 9304SOL    HW139548   3.704   3.108  16.473 -0.5767 -0.5416  0.0336
 9304SOL    HW239549   3.609   3.104  16.591 -1.1664 -0.2166  0.0511
 9305SOL     OW39550   4.186   2.842   2.733 -0.1764 -0.3452  0.4907
 9305SOL    HW139551   4.141   2.837   2.818 -0.0556  2.2765  0.6964
 9305SOL    HW239552   4.195   2.750   2.705  0.8867  0.2851 -1.2112
 9306SOL     OW39553   0.951   2.367   2.224  0.3815  0.4354  0.3148
 9306SOL    HW139554   0.885   2.326   2.168  0.2614  2.1475 -0.8082
 9306SOL    HW239555   1.027   2.309   2.217 -0.3105 -0.6016  1.5253
 9307SOL     OW39556   1.474   3.544   5.484 -0.0989  0.4018 -0.5371
 9307SOL    HW139557   1.410   3.503   5.542 -0.9876  1.0654 -1.0412
 9307SOL    HW239558   1.411   3.609   5.451 -1.9026 -0.2751  1.6209
 9308SOL     OW39559   0.109   3.738   8.004  0.2860 -0.3650 -0.4451
 9308SOL    HW139560   0.062   3.720   7.923 -0.4681 -1.2120  0.1835
 9308SOL    HW239561   0.161   3.658   7.993 -0.1984 -0.9667  1.6939
 9309SOL     OW39562   3.256   3.444   2.243 -0.1598 -0.3648  0.6937
 9309SOL    HW139563   3.322   3.484   2.186  1.3378 -2.1690  1.1617
 9309SOL    HW239564   3.289   3.468   2.330  1.2194  0.3186 -0.0307
 9310SOL     OW39565   1.457   2.120   6.277  0.0015  0.3985 -0.2496
 9310SOL    HW139566   1.421   2.169   6.203 -0.2173  2.2367  1.0964
 9310SOL    HW239567   1.416   2.169   6.348  1.1175 -0.0878  0.7137
 9311SOL     OW39568   3.126   4.639   1.576  0.0072 -0.9320 -0.0417
 9311SOL    HW139569   3.073   4.629   1.654 -1.3976 -1.5057 -1.0755
 9311SOL    HW239570   3.207   4.599   1.608  0.3375 -0.2988 -0.0643
 9312SOL     OW39571   2.760   3.442   6.602  0.0791 -0.3245 -0.0836
 9312SOL    HW139572   2.756   3.366   6.661 -0.6873  1.4334  2.1465
 9312SOL    HW239573   2.670   3.469   6.582  0.5680  0.1147 -1.5970
 9313SOL     OW39574   3.722   0.894  12.269 -0.3410 -0.0638 -0.6511
 9313SOL    HW139575   3.651   0.929  12.323  1.7303  1.5202  1.0633
 9313SOL    HW239576   3.794   0.955  12.284  0.3897 -1.4784  1.5104
 9314SOL     OW39577   1.497   4.083   5.539  0.2196 -0.4318  0.7400
 9314SOL    HW139578   1.579   4.076   5.588  0.2652 -1.8411  0.4372
 9314SOL    HW239579   1.513   4.089   5.445  0.2156  0.3121  0.7869
 9315SOL     OW39580   1.696   1.680  14.864  0.2142 -0.0286 -0.6106
 9315SOL    HW139581   1.698   1.685  14.959 -3.3485  1.9292 -0.6453
 9315SOL    HW239582   1.758   1.610  14.843 -0.7669 -0.8513 -0.8406
 9316SOL     OW39583   1.367   1.266  12.778 -0.6631 -0.0188 -0.2807
 9316SOL    HW139584   1.387   1.190  12.722  0.6341  0.8517 -1.0039
 9316SOL    HW239585   1.352   1.325  12.705 -0.3011 -0.9481 -1.1166
 9317SOL     OW39586   1.756   2.549  14.274 -0.3967 -0.0452 -0.1434
 9317SOL    HW139587   1.721   2.593  14.197 -0.6489 -1.6484 -0.9429
 9317SOL    HW239588   1.728   2.608  14.344 -1.2159  0.4673 -0.9057
 9318SOL     OW39589   4.163   3.397   6.242 -0.2778  0.4487 -0.0409
 9318SOL    HW139590   4.241   3.366   6.196 -1.2982 -0.4185 -1.1691
 9318SOL    HW239591   4.138   3.465   6.179 -0.9545  0.6702  0.4668
 9319SOL     OW39592   3.860   4.542   4.184 -0.2660  0.3186  0.1515
 9319SOL    HW139593   3.845   4.466   4.240  0.7513  2.6150  3.5581
 9319SOL    HW239594   3.955   4.547   4.186 -0.2600 -1.0861  2.9762
 9320SOL     OW39595   2.000   0.669  12.942 -0.4288 -0.0281 -0.2700
 9320SOL    HW139596   2.021   0.727  12.869  0.7782  0.9905  0.8900
 9320SOL    HW239597   2.077   0.613  12.943 -1.3793 -1.3437 -0.2354
 9321SOL     OW39598   0.416   2.264   1.751 -0.0559 -0.0135  0.2717
 9321SOL    HW139599   0.491   2.262   1.692  0.2220 -0.8581  0.6586
 9321SOL    HW239600   0.426   2.345   1.802 -1.4349 -0.1999  0.8250
 9322SOL     OW39601   3.049   4.387  10.456 -0.2668  0.2147  0.4180
 9322SOL    HW139602   3.026   4.297  10.434 -1.5968  1.0942 -1.6997
 9322SOL    HW239603   2.962   4.423  10.472 -0.3882 -0.0413  0.3267
 9323SOL     OW39604   4.319   3.266   6.960 -0.7075 -0.5810 -0.1847
 9323SOL    HW139605   4.327   3.264   6.864 -1.3783  0.3113 -0.2655
 9323SOL    HW239606   4.298   3.178   6.992  0.1404 -1.4890 -2.1062
 9324SOL     OW39607   4.630   1.079   5.373  0.4443 -0.1877 -0.0947
 9324SOL    HW139608   4.695   1.080   5.302 -0.1688 -0.6469 -0.6571
 9324SOL    HW239609   4.644   1.171   5.395  1.8277 -0.5404  0.5439
 9325SOL     OW39610   3.339   2.061   3.637 -0.6172  0.0066 -0.3925
 9325SOL    HW139611   3.404   1.998   3.669  0.2293  0.5125 -1.1056
 9325SOL    HW239612   3.266   2.024   3.685 -1.0350  0.4614 -0.6800
 9326SOL     OW39613   3.517   0.182   6.697  0.2517 -0.8632  0.0069
 9326SOL    HW139614   3.448   0.221   6.750 -0.9985 -1.6306 -1.0575
 9326SOL    HW239615   3.477   0.185   6.610  0.6886 -1.1578 -0.2042
 9327SOL     OW39616   3.584   0.168   2.933 -0.0991  0.0693  0.1544
 9327SOL    HW139617   3.656   0.184   2.872 -0.6668 -0.0845 -0.5545
 9327SOL    HW239618   3.596   0.077   2.962 -3.4697  0.6278  3.2142
 9328SOL     OW39619   4.410   4.375   5.082  0.0349  0.0639 -0.0293
 9328SOL    HW139620   4.328   4.415   5.055  0.9393  0.8849 -1.5807
 9328SOL    HW239621   4.400   4.291   5.037 -2.3255  0.5606 -0.4368
 9329SOL     OW39622   3.700   4.038   3.742 -0.3461  0.2235  0.6217
 9329SOL    HW139623   3.633   3.997   3.688  0.5707 -2.3416  1.4513
 9329SOL    HW239624   3.645   4.095   3.795 -1.3048 -0.0858 -0.0368
 9330SOL     OW39625   0.638   2.265   1.590 -0.0565  0.1011 -0.0522
 9330SOL    HW139626   0.674   2.178   1.573 -2.1542 -0.7492 -0.0793
 9330SOL    HW239627   0.713   2.325   1.579  0.6117 -0.4913  1.2844
 9331SOL     OW39628   1.287   3.687   7.903  0.4534 -0.4612  0.7435
 9331SOL    HW139629   1.368   3.663   7.857 -0.1159  1.1719 -1.1356
 9331SOL    HW239630   1.307   3.756   7.966  0.1003 -2.3185  2.8824
 9332SOL     OW39631   0.316   1.991  17.344  0.4104  0.4836  0.5772
 9332SOL    HW139632   0.244   1.929  17.346 -0.7994  1.8809  0.1347
 9332SOL    HW239633   0.284   2.044  17.417 -1.3799 -2.0613  1.6283
 9333SOL     OW39634   3.722   1.942   6.771  0.9615 -0.2292  0.3921
 9333SOL    HW139635   3.805   1.895   6.770  2.6142  2.7372 -0.4844
 9333SOL    HW239636   3.686   1.906   6.852  2.1404  1.1378  1.5399
 9334SOL     OW39637   3.059   1.635   3.224  0.0247 -0.1307  0.2565
 9334SOL    HW139638   3.076   1.652   3.317  1.3804  0.5601 -0.1271
 9334SOL    HW239639   3.001   1.704   3.193  0.1029  0.6234  1.7923
 9335SOL     OW39640   0.714   2.557   2.595  0.4498  0.1425 -0.7566
 9335SOL    HW139641   0.700   2.472   2.553  0.0964 -0.7832  1.2571
 9335SOL    HW239642   0.809   2.549   2.583  0.7972 -0.4751  2.5859
 9336SOL     OW39643   3.685   0.321   3.683  0.9908 -0.0809 -0.0655
 9336SOL    HW139644   3.688   0.306   3.778 -2.3046  1.6919  0.3575
 9336SOL    HW239645   3.750   0.391   3.680  2.1856 -1.2317 -0.5784
 9337SOL     OW39646   0.070   0.053   2.651 -0.0116 -0.2188  0.3687
 9337SOL    HW139647   0.056   4.695   2.644 -3.3477  0.0628  2.7579
 9337SOL    HW239648   0.111   0.065   2.737  0.1313 -0.3073  0.3114
 9338SOL     OW39649   4.110   3.323   8.193  0.6411 -0.0971 -0.1185
 9338SOL    HW139650   4.183   3.385   8.193 -1.6047  2.6132 -1.7898
 9338SOL    HW239651   4.124   3.271   8.272 -2.6569 -0.0953  0.4665
 9339SOL     OW39652   4.673   1.389   4.112 -0.2124  0.0827  0.5132
 9339SOL    HW139653   4.591   1.343   4.095  0.4926 -1.2420  0.6764
 9339SOL    HW239654   4.683   1.440   4.031 -0.5391 -2.1565 -0.9419
 9340SOL     OW39655   3.698   4.493   1.889  0.2241  0.3177  0.1268
 9340SOL    HW139656   3.604   4.495   1.906  0.1844  3.1870 -0.4004
 9340SOL    HW239657   3.710   4.403   1.859  2.3182  0.9524 -0.9681
 9341SOL     OW39658   2.356   4.282  11.801 -0.1436  0.4507 -0.4500
 9341SOL    HW139659   2.272   4.238  11.784 -2.1114  2.4119  4.1699
 9341SOL    HW239660   2.319   4.361  11.842  1.7621  0.3399  1.4893
 9342SOL     OW39661   2.993   0.533   1.943 -0.0451  0.3343 -0.2914
 9342SOL    HW139662   2.910   0.549   1.989  0.6844  2.9082  0.1255
 9342SOL    HW239663   2.971   0.444   1.915  0.3456  0.4633 -1.0110
 9343SOL     OW39664   2.781   3.716   5.814  0.0812 -0.7487 -0.0934
 9343SOL    HW139665   2.787   3.711   5.719  2.4759 -1.8534  0.1121
 9343SOL    HW239666   2.741   3.633   5.840  1.0331 -1.0127  0.5435
 9344SOL     OW39667   0.314   2.439   3.144 -0.5524 -0.3655 -0.0421
 9344SOL    HW139668   0.239   2.422   3.202 -0.3605  0.9725  0.5997
 9344SOL    HW239669   0.325   2.351   3.107  2.4560  0.0945 -0.1668
 9345SOL     OW39670   3.085   0.841  11.913 -0.3017  0.1678  0.0988
 9345SOL    HW139671   3.098   0.931  11.881  1.3309  0.6421  2.0899
 9345SOL    HW239672   3.171   0.804  11.932 -0.0298  0.9848  0.4830
 9346SOL     OW39673   2.535   0.297  12.846 -0.2376  0.2406  0.3945
 9346SOL    HW139674   2.550   0.322  12.938  1.3168 -1.6519  0.6547
 9346SOL    HW239675   2.579   0.372  12.806  0.2441  0.4139  1.2310
 9347SOL     OW39676   2.443   0.709   4.335  0.7972 -0.2113  0.2997
 9347SOL    HW139677   2.401   0.745   4.413  1.3513 -1.2946  1.1104
 9347SOL    HW239678   2.496   0.641   4.377 -0.3917 -0.7383  0.9338
 9348SOL     OW39679   2.561   3.922  16.058 -0.0933  0.1939  0.2824
 9348SOL    HW139680   2.500   3.893  15.990  1.2111  1.2432 -1.3068
 9348SOL    HW239681   2.511   3.996  16.092  1.1328  0.8514  0.6304
 9349SOL     OW39682   3.979   3.325   5.864  0.4181 -0.2435 -0.1860
 9349SOL    HW139683   3.892   3.286   5.876 -0.3759  1.0007 -1.8638
 9349SOL    HW239684   3.987   3.409   5.908  1.0866 -0.3949 -0.0256
 9350SOL     OW39685   3.659   2.429   2.121  0.5856 -0.2444  0.6151
 9350SOL    HW139686   3.697   2.459   2.039  1.0987 -1.2540  0.4914
 9350SOL    HW239687   3.694   2.341   2.131 -2.7978 -1.5730  0.5968
 9351SOL     OW39688   1.085   0.150   2.087 -0.3634  0.0638 -0.7907
 9351SOL    HW139689   1.017   0.098   2.044  2.6410 -2.1368 -2.8520
 9351SOL    HW239690   1.056   0.131   2.176  1.6150 -0.2853 -0.2160
 9352SOL     OW39691   3.141   0.060   1.850  0.4901 -0.2127 -0.5782
 9352SOL    HW139692   3.211   4.731   1.859  0.9339  0.4208  0.6342
 9352SOL    HW239693   3.175   0.141   1.811  1.2326 -0.2952 -0.1041
 9353SOL     OW39694   1.708   1.803   9.847 -0.0477 -0.7688 -0.0431
 9353SOL    HW139695   1.628   1.788   9.899  0.5699 -0.2557  1.0542
 9353SOL    HW239696   1.779   1.814   9.910 -2.0892  1.0518  1.9383
 9354SOL     OW39697   4.346   3.540   2.790 -0.2896 -0.2327  0.1499
 9354SOL    HW139698   4.413   3.489   2.836 -0.1193  0.2511  0.4379
 9354SOL    HW239699   4.267   3.530   2.842 -1.0857 -0.7336 -1.1684
 9355SOL     OW39700   0.917   2.453  12.019  0.7436  0.1734  0.6091
 9355SOL    HW139701   0.972   2.418  11.948 -1.8662  0.5579 -1.5783
 9355SOL    HW239702   0.884   2.531  11.976 -0.1589 -0.0964  0.8124
 9356SOL     OW39703   0.694   3.966   6.289 -0.4955 -0.2198  0.1483
 9356SOL    HW139704   0.680   4.050   6.332 -0.8338 -0.4031  0.3980
 9356SOL    HW239705   0.606   3.933   6.305 -0.0967 -1.4583 -0.2319
 9357SOL     OW39706   4.016   4.713   3.151 -0.5737 -0.0655 -0.3871
 9357SOL    HW139707   3.968   4.643   3.195 -2.8023  1.3333 -0.6041
 9357SOL    HW239708   4.063   0.027   3.218 -0.6403 -0.0476 -0.3542
 9358SOL     OW39709   2.782   3.993   2.092 -0.3447  0.2382 -0.1733
 9358SOL    HW139710   2.708   4.031   2.044 -0.3445  0.8377  0.2867
 9358SOL    HW239711   2.791   3.912   2.042  2.2003  0.0433  0.6381
 9359SOL     OW39712   3.226   1.208  12.969  0.5177  0.3005  0.1627
 9359SOL    HW139713   3.131   1.217  12.970  0.8020  3.5712 -0.2235
 9359SOL    HW239714   3.228   1.163  12.885  0.8475 -0.8614  0.7891
 9360SOL     OW39715   1.372   0.371   3.285  0.6813 -0.1400 -1.0959
 9360SOL    HW139716   1.277   0.366   3.285  0.8928 -4.2696 -1.3580
 9360SOL    HW239717   1.381   0.449   3.231 -1.3132  1.7922  1.3544
 9361SOL     OW39718   4.497   4.325  16.108 -0.7319 -0.4386 -0.2071
 9361SOL    HW139719   4.482   4.419  16.097  0.3469 -0.2854 -0.3149
 9361SOL    HW239720   4.408   4.290  16.117  0.1233 -1.7255  3.1418
 9362SOL     OW39721   3.626   1.750   6.384 -0.2552  0.0301 -0.4115
 9362SOL    HW139722   3.664   1.663   6.395  2.2931  1.2910  0.5057
 9362SOL    HW239723   3.681   1.790   6.317 -0.0457 -1.7537 -1.3083
 9363SOL     OW39724   1.551   2.526   3.857  0.2491  0.1326 -0.5944
 9363SOL    HW139725   1.479   2.581   3.888  1.4807  0.9186  0.8847
 9363SOL    HW239726   1.578   2.576   3.779  1.9972 -0.6694 -0.5157
 9364SOL     OW39727   4.322   2.599   2.708 -0.7926 -0.4786  0.4673
 9364SOL    HW139728   4.413   2.598   2.737 -0.6295 -0.1427 -0.0340
 9364SOL    HW239729   4.332   2.603   2.613  2.4589 -2.0206  0.7403
 9365SOL     OW39730   1.065   2.784  13.802 -0.4011 -0.0338 -0.0717
 9365SOL    HW139731   1.064   2.761  13.895 -3.0094 -0.4462 -0.2056
 9365SOL    HW239732   0.983   2.744  13.772  1.6872 -4.0898 -0.3878
 9366SOL     OW39733   1.780   3.722   5.134  0.6049  0.1713  0.1364
 9366SOL    HW139734   1.717   3.651   5.149  0.8844  0.3656  2.1763
 9366SOL    HW239735   1.862   3.673   5.135  0.6974  0.3664  3.2502
 9367SOL     OW39736   2.930   4.227  11.191 -0.6127  0.5072  0.5511
 9367SOL    HW139737   2.982   4.201  11.267 -0.9980  1.4474  1.1419
 9367SOL    HW239738   2.857   4.267  11.239  0.6287  1.2086  1.8772
 9368SOL     OW39739   3.485   3.250   3.912 -0.1602  0.1053  0.1538
 9368SOL    HW139740   3.522   3.206   3.835 -0.6103 -0.3897  0.2238
 9368SOL    HW239741   3.548   3.315   3.942 -0.7590  0.5178  0.5109
 9369SOL     OW39742   1.626   1.093   2.859 -0.6066  0.3990  0.0214
 9369SOL    HW139743   1.623   1.038   2.781  1.9303 -1.4091  1.1700
 9369SOL    HW239744   1.664   1.027   2.917 -0.3485  0.8934  0.4174
 9370SOL     OW39745   3.720   3.373   1.933  0.0334 -0.2070  0.5474
 9370SOL    HW139746   3.703   3.313   1.861 -2.1357  0.5002  0.4683
 9370SOL    HW239747   3.744   3.451   1.883 -0.5471  0.9299  2.0487
 9371SOL     OW39748   2.562   1.373   7.603  0.8465  0.4742 -0.4018
 9371SOL    HW139749   2.641   1.392   7.654  1.5756 -1.5129 -0.8005
 9371SOL    HW239750   2.583   1.294   7.553  0.4537 -1.7688  2.9530
 9372SOL     OW39751   4.546   3.999   7.644 -0.6352  0.7787  0.0267
 9372SOL    HW139752   4.585   4.027   7.726  0.7203  2.1000 -1.0683
 9372SOL    HW239753   4.464   4.049   7.642 -0.1826  1.4573 -2.5320
 9373SOL     OW39754   4.181   2.810   7.788 -0.3571 -0.2024  0.2851
 9373SOL    HW139755   4.124   2.743   7.825 -0.1249 -0.6102 -0.0876
 9373SOL    HW239756   4.165   2.872   7.859  0.7547 -0.3455  0.6659
 9374SOL     OW39757   1.882   1.917   4.938 -0.1322  0.1843 -0.4758
 9374SOL    HW139758   1.959   1.865   4.963  0.7294  2.4939  1.6797
 9374SOL    HW239759   1.890   1.914   4.843  2.7853  2.6842 -0.3032
 9375SOL     OW39760   1.064   2.596  10.758 -0.0149  0.3319  0.6210
 9375SOL    HW139761   0.980   2.641  10.763 -0.4441 -0.0662 -2.6279
 9375SOL    HW239762   1.076   2.562  10.846  1.4769 -1.9285 -0.4458
 9376SOL     OW39763   4.336   3.583   5.555 -0.1451  0.1171 -0.2152
 9376SOL    HW139764   4.318   3.495   5.588 -2.1413  0.6252  0.0824
 9376SOL    HW239765   4.270   3.594   5.486  0.1725  2.0735 -0.2039
 9377SOL     OW39766   3.884   0.361   3.167  0.3386 -0.2358 -0.4907
 9377SOL    HW139767   3.976   0.369   3.194  0.3340  2.2097 -1.1422
 9377SOL    HW239768   3.899   0.347   3.073 -0.4243 -1.0687 -0.4836
 9378SOL     OW39769   0.323   3.588   1.164  0.0457  0.4192  0.8365
 9378SOL    HW139770   0.368   3.530   1.226  2.5489 -1.3192 -2.6295
 9378SOL    HW239771   0.244   3.534   1.157 -0.5566  1.2049  1.4688
 9379SOL     OW39772   1.082   0.467   6.167  0.3386  0.2382 -0.2731
 9379SOL    HW139773   1.045   0.419   6.093 -1.7304 -2.0668  2.2812
 9379SOL    HW239774   1.114   0.546   6.122 -4.5824  0.7839 -2.8038
 9380SOL     OW39775   2.527   1.101   8.060 -0.3847  0.8564 -0.0443
 9380SOL    HW139776   2.619   1.124   8.075 -0.1004 -1.5700  1.9212
 9380SOL    HW239777   2.485   1.186   8.048 -1.5305  0.2561 -0.2549
 9381SOL     OW39778   0.467   2.207  15.637 -0.1038  0.2853 -0.0502
 9381SOL    HW139779   0.554   2.181  15.608 -0.1704 -0.4813  0.4321
 9381SOL    HW239780   0.444   2.237  15.549 -1.6598 -0.9419 -0.0571
 9382SOL     OW39781   4.283   2.241  12.815 -0.5387 -0.2455 -0.7229
 9382SOL    HW139782   4.192   2.218  12.836 -0.7401  1.6020  0.4821
 9382SOL    HW239783   4.319   2.177  12.753  1.2370 -0.2681  0.3384
 9383SOL     OW39784   1.158   1.294  10.459 -0.0278  0.0374  0.4272
 9383SOL    HW139785   1.186   1.369  10.407 -1.8411  1.1026  1.0014
 9383SOL    HW239786   1.221   1.230  10.425  1.5187  2.1853 -0.7617
 9384SOL     OW39787   3.191   1.816   7.303  0.4888 -0.0790 -0.0150
 9384SOL    HW139788   3.226   1.730   7.326 -0.9789 -0.9818 -1.2082
 9384SOL    HW239789   3.271   1.853   7.265  0.7187  0.7197  1.2270
 9385SOL     OW39790   3.438   4.105   3.955 -0.3271  0.4264  0.4895
 9385SOL    HW139791   3.455   4.196   3.929 -0.6813  0.0319 -1.1206
 9385SOL    HW239792   3.510   4.098   4.017  1.8160  1.2065 -1.9229
 9386SOL     OW39793   0.056   4.419   4.730 -0.3394  0.4348  0.6322
 9386SOL    HW139794   4.711   4.413   4.780 -1.4585 -0.4075 -1.2494
 9386SOL    HW239795   0.043   4.368   4.650  2.0397  1.2085 -0.2317
 9387SOL     OW39796   4.526   0.381   4.808  0.1464  0.2332  0.1764
 9387SOL    HW139797   4.485   0.369   4.894  0.6465  0.7441  0.4802
 9387SOL    HW239798   4.453   0.419   4.759 -0.7218  0.5209  1.6883
 9388SOL     OW39799   2.288   1.368   1.521  0.2235  0.0435  0.1621
 9388SOL    HW139800   2.294   1.341   1.429  0.6077  0.4606  0.0662
 9388SOL    HW239801   2.197   1.399   1.528  1.2087  2.5769  1.9125
 9389SOL     OW39802   1.280   2.707   6.119  0.3737  0.5022 -0.1997
 9389SOL    HW139803   1.350   2.665   6.069 -0.1768  0.4410 -0.9102
 9389SOL    HW239804   1.307   2.798   6.129 -0.7316  0.6948  1.0636
 9390SOL     OW39805   3.579   2.548   8.649 -0.3663 -0.1796 -0.4633
 9390SOL    HW139806   3.665   2.540   8.607  0.9615  1.1481  1.9772
 9390SOL    HW239807   3.540   2.461   8.641 -0.2268 -0.4257  1.4757
 9391SOL     OW39808   4.342   3.327  16.111 -0.3282 -0.1322 -0.2592
 9391SOL    HW139809   4.272   3.391  16.101 -2.3106 -2.5250 -1.7379
 9391SOL    HW239810   4.289   3.248  16.124 -0.1437 -0.3780 -1.0064
 9392SOL     OW39811   2.521   3.447   8.599 -0.5909 -0.3283  0.1893
 9392SOL    HW139812   2.565   3.390   8.536  1.7332  0.2985  1.2460
 9392SOL    HW239813   2.429   3.424   8.587 -0.6379 -0.3698  0.6227
 9393SOL     OW39814   1.431   3.233   5.015 -0.6083 -0.4137 -0.7202
 9393SOL    HW139815   1.340   3.263   5.025 -0.7792 -0.3149 -2.6404
 9393SOL    HW239816   1.465   3.320   4.992  0.2915 -0.0978  1.8001
 9394SOL     OW39817   3.638   1.920   7.204 -0.1850  0.2582 -0.0414
 9394SOL    HW139818   3.730   1.936   7.225 -0.4145  0.3293  0.9133
 9394SOL    HW239819   3.615   1.850   7.265 -0.4056  0.7500  0.4374
 9395SOL     OW39820   4.707   1.164  11.947  0.1712  0.1967  0.1749
 9395SOL    HW139821   4.647   1.135  11.878 -0.4124  0.2068  0.6725
 9395SOL    HW239822   0.040   1.204  11.895 -0.4857  2.0629  0.7137
 9396SOL     OW39823   1.789   0.945   5.025  0.3020  0.7126  0.2061
 9396SOL    HW139824   1.866   0.900   4.989  2.0521  3.2728  0.7145
 9396SOL    HW239825   1.825   0.988   5.103  0.0052 -0.4322  0.9819
 9397SOL     OW39826   4.635   3.241   8.634 -0.2904  0.4591 -0.0986
 9397SOL    HW139827   4.583   3.307   8.680  2.7495  2.6837  0.1376
 9397SOL    HW239828   4.719   3.282   8.655  0.5337 -0.0469 -2.3352
 9398SOL     OW39829   3.100   3.468   1.504  0.3512 -0.4777 -0.3397
 9398SOL    HW139830   3.156   3.542   1.480 -1.6437  0.9111 -0.6933
 9398SOL    HW239831   3.030   3.511   1.553  0.5760 -0.5041  0.0046
 9399SOL     OW39832   3.783   1.540   9.075 -0.0613 -0.2409  0.2375
 9399SOL    HW139833   3.742   1.556   9.160 -0.3777 -0.6087  0.1514
 9399SOL    HW239834   3.816   1.628   9.056  2.8882 -1.5109 -0.5753
 9400SOL     OW39835   2.011   2.515   6.889 -0.5976  0.2387  0.3579
 9400SOL    HW139836   2.073   2.511   6.962 -0.9742 -1.1397  0.6162
 9400SOL    HW239837   2.039   2.595   6.846 -1.7197  1.2960  1.5888
 9401SOL     OW39838   3.023   0.184   6.633 -0.4327 -0.0139  0.6272
 9401SOL    HW139839   3.001   0.095   6.607  1.4939 -0.6159  1.0353
 9401SOL    HW239840   2.935   0.222   6.634 -0.5450 -0.2515 -0.2694
 9402SOL     OW39841   1.062   2.988   9.300 -0.1344  0.2366  0.3035
 9402SOL    HW139842   1.154   2.993   9.273 -0.4690 -0.1464 -0.8929
 9402SOL    HW239843   1.056   3.060   9.362 -0.3374  0.9467 -0.5415
 9403SOL     OW39844   1.285   3.279   8.628  0.2792  0.3075  0.7560
 9403SOL    HW139845   1.333   3.358   8.602 -0.9370  1.3302  1.6132
 9403SOL    HW239846   1.270   3.247   8.538  1.1681  0.4716  0.5472
 9404SOL     OW39847   3.744   4.019  10.525  0.6860 -0.4851 -0.0138
 9404SOL    HW139848   3.754   4.067  10.442 -3.3143  1.6679  0.7828
 9404SOL    HW239849   3.793   3.939  10.507 -1.8517 -2.1044  0.3804
 9405SOL     OW39850   1.262   4.522   1.978  0.7184 -0.1536  0.1210
 9405SOL    HW139851   1.289   4.510   1.887 -0.9817  0.1680 -0.4290
 9405SOL    HW239852   1.304   4.605   1.996  2.3383 -0.7288 -0.9847
 9406SOL     OW39853   4.415   1.713  10.537  0.4215  0.1424  0.4011
 9406SOL    HW139854   4.372   1.798  10.531  1.5247  0.6071 -0.9337
 9406SOL    HW239855   4.484   1.734  10.475  0.7883  1.3070  1.2009
 9407SOL     OW39856   1.053   2.991   7.541  0.4805 -0.5863  0.1361
 9407SOL    HW139857   0.968   3.020   7.573  1.7536  2.2571  0.9371
 9407SOL    HW239858   1.073   3.079   7.509 -1.4392  0.6488  2.3058
 9408SOL     OW39859   0.039   2.629   2.011 -0.4795 -0.2962 -0.3392
 9408SOL    HW139860   4.721   2.565   1.964 -1.0251 -0.8234  1.0208
 9408SOL    HW239861   0.054   2.690   1.939  0.6352 -1.0396 -0.7447
 9409SOL     OW39862   0.123   3.890  17.172 -0.5333  0.0945 -0.3161
 9409SOL    HW139863   0.084   3.971  17.205 -1.1382 -0.0219 -0.7600
 9409SOL    HW239864   0.206   3.889  17.220 -0.5977  0.1473 -0.2026
 9410SOL     OW39865   3.980   1.314   7.671  0.8952  0.0764 -0.0964
 9410SOL    HW139866   3.911   1.291   7.609  0.4924  2.8532 -0.7033
 9410SOL    HW239867   3.931   1.305   7.753 -1.4466 -0.6386 -1.5812
 9411SOL     OW39868   3.234   0.114   9.192  0.4801 -0.4277 -0.2561
 9411SOL    HW139869   3.188   0.197   9.204  0.9816  0.1940 -2.6470
 9411SOL    HW239870   3.157   0.057   9.183 -0.8498  1.2220  0.5895
 9412SOL     OW39871   4.421   2.793   0.666  0.3660  0.3404  0.4647
 9412SOL    HW139872   4.439   2.858   0.735  1.2435 -0.0523  0.6084
 9412SOL    HW239873   4.482   2.835   0.605  1.6667 -1.0268  0.8339
 9413SOL     OW39874   0.208   0.729   5.621 -0.2343  0.9466 -0.5858
 9413SOL    HW139875   0.196   0.697   5.711 -0.5287  1.1637 -0.5465
 9413SOL    HW239876   0.121   0.759   5.593 -0.9782 -0.8510 -0.2452
 9414SOL     OW39877   3.632   2.766   1.661  0.7661  0.6532 -0.5077
 9414SOL    HW139878   3.691   2.753   1.735 -1.6000  2.0458  1.6407
 9414SOL    HW239879   3.696   2.786   1.593  0.2239  0.8589 -0.9587
 9415SOL     OW39880   4.594   0.287   2.488  0.7226 -0.2733 -0.4331
 9415SOL    HW139881   4.577   0.277   2.394 -2.2232 -0.0467  0.0611
 9415SOL    HW239882   4.553   0.205   2.515 -1.7789  1.3804  0.8518
 9416SOL     OW39883   1.953   2.983   9.000 -0.4820 -0.1281  0.0724
 9416SOL    HW139884   1.935   2.926   9.075 -2.3796 -1.3159 -1.3040
 9416SOL    HW239885   1.879   3.044   8.998 -0.7083 -0.4003  0.1014
 9417SOL     OW39886   0.573   4.330  17.606 -0.3527 -0.2058 -0.1660
 9417SOL    HW139887   0.493   4.353  17.561  0.3978 -0.2489 -1.5150
 9417SOL    HW239888   0.602   4.251  17.560  2.3084 -0.2670  1.5745
 9418SOL     OW39889   3.258   3.044   4.786 -0.5116 -0.2220  0.2080
 9418SOL    HW139890   3.280   3.024   4.877  1.5073 -1.6765 -0.5967
 9418SOL    HW239891   3.250   3.139   4.791 -3.9100 -0.5083 -0.2083
 9419SOL     OW39892   4.052   3.066  12.782 -0.0180 -0.4115  0.0586
 9419SOL    HW139893   4.094   3.113  12.710 -1.6948  1.9160  0.6246
 9419SOL    HW239894   4.075   3.120  12.858  1.5663  1.2701 -1.6367
 9420SOL     OW39895   2.914   4.480   8.139 -0.0081 -0.8881 -0.6307
 9420SOL    HW139896   2.934   4.533   8.217  2.3049 -1.8804 -0.5458
 9420SOL    HW239897   2.990   4.424   8.123 -0.2583 -1.6188  0.6961
 9421SOL     OW39898   0.646   0.862   5.622 -0.1856 -0.5771  0.0845
 9421SOL    HW139899   0.719   0.916   5.651 -0.5449 -0.1218  0.1319
 9421SOL    HW239900   0.673   0.770   5.624  0.2227 -0.3873  2.9088
 9422SOL     OW39901   3.950   0.801   9.675  0.1727 -0.4998  0.2920
 9422SOL    HW139902   4.019   0.825   9.737  0.6950  2.4992 -1.4139
 9422SOL    HW239903   3.978   0.720   9.634  0.6254 -0.5879  0.7768
 9423SOL     OW39904   2.941   2.689   6.719 -0.0840 -0.0207  0.4106
 9423SOL    HW139905   2.858   2.663   6.758  0.5641 -1.9614  0.4909
 9423SOL    HW239906   2.974   2.607   6.681 -2.5964 -1.5826  1.6245
 9424SOL     OW39907   2.024   2.431   9.949 -0.1780 -0.1420  0.3021
 9424SOL    HW139908   2.106   2.451   9.904 -1.1208  2.6172 -0.2011
 9424SOL    HW239909   2.005   2.519   9.981 -0.3951 -0.6913  1.6918
 9425SOL     OW39910   4.309   1.645   3.357 -0.4919  0.0455  0.3244
 9425SOL    HW139911   4.353   1.668   3.276 -2.5140 -1.9781 -1.3421
 9425SOL    HW239912   4.228   1.695   3.352  0.8022  2.2906  1.6480
 9426SOL     OW39913   0.382   4.348   2.601 -0.3719  0.2260 -0.2902
 9426SOL    HW139914   0.464   4.361   2.553  1.2446  0.0927  2.4768
 9426SOL    HW239915   0.335   4.419   2.558  0.4862  0.8006 -0.2834
 9427SOL     OW39916   0.258   4.387   0.535  0.3193 -0.8129  0.4040
 9427SOL    HW139917   0.280   4.360   0.624 -2.6860 -1.4188  0.9348
 9427SOL    HW239918   0.333   4.443   0.514  0.8591 -2.3834 -1.8798
 9428SOL     OW39919   4.033   2.149   6.055 -0.4009  0.6796 -0.0154
 9428SOL    HW139920   4.102   2.174   6.117 -1.0939  1.8094  0.3050
 9428SOL    HW239921   4.000   2.238   6.047 -0.2019  0.5601 -2.0175
 9429SOL     OW39922   1.510   1.247   7.311  0.3582 -0.1703  0.0457
 9429SOL    HW139923   1.562   1.263   7.233 -0.8313  2.9855 -0.1069
 9429SOL    HW239924   1.426   1.236   7.267 -1.7249  3.5375  3.0643
 9430SOL     OW39925   3.273   3.249   3.700  0.1009  0.1830  0.3434
 9430SOL    HW139926   3.179   3.233   3.710  0.6003 -2.9320  0.0919
 9430SOL    HW239927   3.299   3.239   3.792  0.1871  0.1752  0.3183
 9431SOL     OW39928   0.988   2.524   2.888  0.1971 -0.3278  0.3142
 9431SOL    HW139929   0.948   2.512   2.974 -0.8363 -0.6058 -0.2129
 9431SOL    HW239930   0.964   2.614   2.871 -0.6586 -0.7720 -0.7617
 9432SOL     OW39931   3.330   3.223   5.134  0.2065 -0.0382 -0.0568
 9432SOL    HW139932   3.374   3.139   5.127  3.7904  1.9950 -1.7449
 9432SOL    HW239933   3.351   3.243   5.225  1.7094 -2.4787  0.1137
 9433SOL     OW39934   4.173   2.380  11.783 -0.2536 -0.0235  0.7779
 9433SOL    HW139935   4.198   2.465  11.745 -1.6929  0.7064  1.4636
 9433SOL    HW239936   4.258   2.336  11.782 -0.5157 -0.5099 -1.3493
 9434SOL     OW39937   4.598   3.338  14.688 -0.4071  0.4098  0.1675
 9434SOL    HW139938   4.539   3.263  14.685  0.6717 -0.4645  0.8434
 9434SOL    HW239939   4.588   3.367  14.778 -2.9019  0.0026  0.0080
 9435SOL     OW39940   1.812   1.604   4.293 -0.1303 -0.6040 -0.3528
 9435SOL    HW139941   1.789   1.520   4.332  1.2431 -0.3343  1.0456
 9435SOL    HW239942   1.794   1.596   4.199 -0.4692  1.6689 -0.4896
 9436SOL     OW39943   0.231   0.742   7.586 -0.7914 -0.2537 -0.2425
 9436SOL    HW139944   0.206   0.833   7.570  0.6240 -0.3810 -3.0708
 9436SOL    HW239945   0.309   0.741   7.532 -0.1221 -0.2515  0.7297
 9437SOL     OW39946   1.306   2.629  15.275 -0.0361  0.1005  0.3522
 9437SOL    HW139947   1.273   2.709  15.234  0.3472  0.4483  0.7218
 9437SOL    HW239948   1.261   2.626  15.359 -1.0731 -1.5432 -0.2551
 9438SOL     OW39949   3.748   3.790  11.037  0.3910  0.0781 -0.2092
 9438SOL    HW139950   3.803   3.731  10.985  1.1200 -0.3965  1.0974
 9438SOL    HW239951   3.737   3.734  11.114 -1.1248  0.2996 -0.2748
 9439SOL     OW39952   3.457   1.981   5.523  0.0359 -0.5543 -0.2699
 9439SOL    HW139953   3.501   1.979   5.608  0.2635 -2.3941 -0.4408
 9439SOL    HW239954   3.481   2.070   5.497 -1.2026  0.2192  1.1548
 9440SOL     OW39955   1.333   1.549  10.418 -0.0490 -0.2405 -0.1239
 9440SOL    HW139956   1.416   1.596  10.427  0.3612 -1.1275  0.6972
 9440SOL    HW239957   1.281   1.599  10.482  1.0553 -1.6314  1.8731
 9441SOL     OW39958   1.703   2.948   2.249  0.4321 -0.0123 -0.3437
 9441SOL    HW139959   1.647   2.871   2.251  1.8942 -1.0904 -0.6887
 9441SOL    HW239960   1.712   2.974   2.341 -0.8217 -1.1794  0.0957
 9442SOL     OW39961   0.363   3.109   9.120 -0.1020  0.7530  0.7171
 9442SOL    HW139962   0.281   3.144   9.157 -0.4507  0.2096  0.4532
 9442SOL    HW239963   0.326   3.071   9.040  0.2890 -1.0323  1.3748
 9443SOL     OW39964   2.882   2.673   4.237  0.3995 -0.5951 -0.1981
 9443SOL    HW139965   2.927   2.659   4.154  0.4975 -0.9759 -0.0797
 9443SOL    HW239966   2.932   2.626   4.303  0.8456  1.3196  0.8252
 9444SOL     OW39967   3.627   3.058   8.825  0.1801  0.4585 -0.5325
 9444SOL    HW139968   3.628   2.965   8.800 -2.1539  0.8595 -2.0873
 9444SOL    HW239969   3.627   3.103   8.741  2.2101 -1.1492 -1.4140
 9445SOL     OW39970   2.569   0.882   1.692  0.3056 -0.1823  0.0934
 9445SOL    HW139971   2.589   0.975   1.680 -1.3737  0.2931  0.9687
 9445SOL    HW239972   2.654   0.850   1.721  0.6379 -0.6609 -1.4345
 9446SOL     OW39973   0.278   2.984   8.889 -0.6387 -0.3168  0.2444
 9446SOL    HW139974   0.263   2.890   8.900 -3.6747  0.3925  1.9902
 9446SOL    HW239975   0.189   3.018   8.898 -0.8188 -1.3037  2.1445
 9447SOL     OW39976   3.879   1.371  12.117 -0.1042 -0.0327  0.6404
 9447SOL    HW139977   3.941   1.348  12.186  0.4317  0.4935  0.3330
 9447SOL    HW239978   3.932   1.402  12.043 -1.7024  0.6402 -0.2173
 9448SOL     OW39979   2.116   1.437   4.671 -0.5733  0.5635 -0.0754
 9448SOL    HW139980   2.143   1.409   4.584  0.6822  0.1067  0.4560
 9448SOL    HW239981   2.086   1.527   4.659  1.1451  1.3576  1.5776
 9449SOL     OW39982   4.523   2.125   4.488 -0.0870  0.0111 -0.4255
 9449SOL    HW139983   4.439   2.166   4.508 -0.5709 -0.9072 -0.5724
 9449SOL    HW239984   4.511   2.088   4.401 -3.9293 -0.6075  0.3695
 9450SOL     OW39985   0.826   2.737  10.985 -0.2601 -0.0719 -0.3542
 9450SOL    HW139986   0.792   2.822  11.015 -0.5001  0.0624 -0.9986
 9450SOL    HW239987   0.909   2.737  11.033 -0.3188  0.9777 -0.2424
 9451SOL     OW39988   2.671   1.885   7.016 -0.0780  0.0934  0.7258
 9451SOL    HW139989   2.750   1.833   7.032  0.7452  0.3384 -2.4944
 9451SOL    HW239990   2.715   1.967   6.995  0.5034 -0.3615  0.1551
 9452SOL     OW39991   0.667   3.427   3.449 -0.1202  0.1872  0.2099
 9452SOL    HW139992   0.654   3.517   3.479 -0.8139  0.7163 -1.7177
 9452SOL    HW239993   0.614   3.418   3.370  0.6005 -1.2124 -0.1109
 9453SOL     OW39994   3.278   4.146  14.560 -0.5850  0.2580  0.7550
 9453SOL    HW139995   3.326   4.170  14.640  0.6991  0.7903 -0.1680
 9453SOL    HW239996   3.340   4.166  14.490  0.5139  0.5986  1.8275
 9454SOL     OW39997   1.871   1.924   7.373 -0.1423 -0.2770  0.3466
 9454SOL    HW139998   1.787   1.887   7.346  1.0729 -2.1011 -0.9471
 9454SOL    HW239999   1.923   1.844   7.375 -0.6394 -0.6137 -0.2855
 9455SOL     OW40000   2.686   0.886  14.374 -0.1504 -0.7886  0.2546
 9455SOL    HW140001   2.698   0.964  14.320 -0.5053 -0.0166  1.2876
 9455SOL    HW240002   2.754   0.902  14.439  0.4908 -1.7580 -0.1841
 9456SOL     OW40003   4.072   2.045   8.777 -0.2756  0.3401 -0.6365
 9456SOL    HW140004   4.087   2.020   8.868 -1.0777 -2.0784 -1.1658
 9456SOL    HW240005   4.118   2.128   8.766  1.0189 -0.4637 -1.4076
 9457SOL     OW40006   2.846   2.777  14.007  0.5658  0.2184  0.3160
 9457SOL    HW140007   2.862   2.683  14.009  1.0028  0.3016  0.7352
 9457SOL    HW240008   2.932   2.816  13.993  1.5918 -2.0808  0.3171
 9458SOL     OW40009   2.307   4.676  14.744 -0.0355  0.0839 -0.4050
 9458SOL    HW140010   2.358   4.597  14.726  1.0087  1.0254 -1.5603
 9458SOL    HW240011   2.304   4.668  14.839 -0.3048 -0.2432 -0.4391
 9459SOL     OW40012   2.613   0.301   1.506 -0.2286  0.4826 -0.2113
 9459SOL    HW140013   2.585   0.257   1.586  2.9187 -2.6052 -0.8059
 9459SOL    HW240014   2.589   0.392   1.526  0.3489  0.9842 -1.8181
 9460SOL     OW40015   3.965   3.284   3.038  0.7518 -0.0183 -0.0348
 9460SOL    HW140016   4.001   3.233   3.111 -0.4994  0.3995  0.8856
 9460SOL    HW240017   3.967   3.218   2.969 -0.2515 -0.0489 -0.0376
 9461SOL     OW40018   2.669   0.670  12.326 -0.1642 -0.1446  0.1828
 9461SOL    HW140019   2.581   0.675  12.288  0.9697  2.5629 -2.1418
 9461SOL    HW240020   2.654   0.674  12.421  0.0542 -0.3388  0.2261
 9462SOL     OW40021   0.491   2.115   5.147 -0.0578  0.1329  0.1391
 9462SOL    HW140022   0.402   2.117   5.183 -0.6036 -2.8900 -1.0336
 9462SOL    HW240023   0.483   2.087   5.056  0.4157  2.2464 -0.5440
 9463SOL     OW40024   2.501   2.455   8.241  0.0222 -0.9703 -1.2385
 9463SOL    HW140025   2.468   2.479   8.328 -0.4419 -2.6832 -0.9424
 9463SOL    HW240026   2.564   2.526   8.224 -2.1942  1.1128 -0.7883
 9464SOL     OW40027   3.595   3.486   5.311  0.5071  0.2838 -0.2117
 9464SOL    HW140028   3.550   3.568   5.333  0.0436 -0.2727  0.9064
 9464SOL    HW240029   3.686   3.514   5.301  0.9176  0.2410  3.2419
 9465SOL     OW40030   0.248   3.694   2.653 -0.0596 -0.0459  0.0011
 9465SOL    HW140031   0.238   3.604   2.622 -0.8195  0.4180 -1.0845
 9465SOL    HW240032   0.313   3.739   2.600  0.2685 -0.7600 -0.2089
 9466SOL     OW40033   2.076   1.583   3.176  0.0803  0.2386 -0.3253
 9466SOL    HW140034   2.139   1.620   3.237 -1.4280  1.9199  0.2047
 9466SOL    HW240035   2.021   1.658   3.151  0.6282  0.4774 -0.8238
 9467SOL     OW40036   4.707   0.645   6.079 -0.0103  0.2514  0.3460
 9467SOL    HW140037   4.686   0.675   6.168 -0.2106 -1.3208  0.8237
 9467SOL    HW240038   4.654   0.565   6.078 -2.2795  1.7503  1.3236
 9468SOL     OW40039   1.140   4.142   4.799 -0.1485  0.2265 -0.6365
 9468SOL    HW140040   1.229   4.159   4.831  0.3232 -1.8883 -0.8286
 9468SOL    HW240041   1.166   4.123   4.708  1.4390  1.6649 -0.4795
 9469SOL     OW40042   0.386   3.151   7.029 -0.0966 -0.4141  0.1462
 9469SOL    HW140043   0.415   3.144   7.120 -0.9547  0.1493  0.4645
 9469SOL    HW240044   0.345   3.237   7.017 -2.2651 -1.2091  1.7351
 9470SOL     OW40045   0.491   0.567   3.259  0.2743 -0.1963 -0.2522
 9470SOL    HW140046   0.444   0.600   3.182  0.3368  1.4665  0.4117
 9470SOL    HW240047   0.435   0.492   3.282  0.5899 -0.9984 -2.1388
 9471SOL     OW40048   0.248   2.071   7.555  1.0242  0.4415 -0.5751
 9471SOL    HW140049   0.192   2.092   7.480  0.8072 -3.5132 -1.4921
 9471SOL    HW240050   0.174   2.053   7.613  0.6305  0.7297 -0.9826
 9472SOL     OW40051   2.408   4.435  15.468  0.0296  0.6350  0.4329
 9472SOL    HW140052   2.438   4.520  15.500  0.3976  0.6645  0.0009
 9472SOL    HW240053   2.335   4.454  15.409  0.5164  2.3311  0.3752
 9473SOL     OW40054   0.681   4.283  11.756  0.4004 -0.1199  0.7497
 9473SOL    HW140055   0.599   4.254  11.716 -0.3999  3.4084 -0.1596
 9473SOL    HW240056   0.749   4.253  11.695 -1.4757 -1.5429 -0.6350
 9474SOL     OW40057   2.641   1.589  16.621  0.5194 -0.9884  0.1374
 9474SOL    HW140058   2.601   1.503  16.631 -0.3571 -0.5656  0.2571
 9474SOL    HW240059   2.568   1.648  16.598  2.7047  1.4115 -0.6257
 9475SOL     OW40060   1.426   2.498  12.191  1.0940  0.1803  0.1848
 9475SOL    HW140061   1.448   2.405  12.179 -4.1709 -1.0508  0.2263
 9475SOL    HW240062   1.376   2.511  12.271  0.5886 -0.3572 -0.0467
 9476SOL     OW40063   2.261   2.538   9.845  1.2833  0.6769 -0.6227
 9476SOL    HW140064   2.299   2.452   9.829 -0.6181 -0.5294  1.2790
 9476SOL    HW240065   2.318   2.597   9.797  3.5502 -0.8734  0.1665
 9477SOL     OW40066   3.555   0.272   7.368  0.4482  0.1215  0.0884
 9477SOL    HW140067   3.578   0.278   7.275 -0.9033 -0.9695 -0.3056
 9477SOL    HW240068   3.487   0.205   7.365  2.2452 -1.7136  0.7034
 9478SOL     OW40069   3.376   3.643   5.400  0.4888 -0.5271  0.1202
 9478SOL    HW140070   3.378   3.727   5.446  2.3822 -0.1534 -0.6180
 9478SOL    HW240071   3.356   3.587   5.475 -0.0903 -0.5883 -0.0821
 9479SOL     OW40072   1.025   3.297   4.856 -0.1168  0.2851 -0.1491
 9479SOL    HW140073   1.088   3.318   4.924  1.7677 -0.3565 -1.6975
 9479SOL    HW240074   1.042   3.203   4.857  1.5481  0.5625 -1.3445
 9480SOL     OW40075   2.926   0.279   1.770 -0.0413 -0.1749 -0.9708
 9480SOL    HW140076   2.868   0.206   1.791  0.9405 -1.0935 -1.4505
 9480SOL    HW240077   2.861   0.345   1.748  0.9110  0.8035 -0.8107
 9481SOL     OW40078   0.832   0.873   8.260 -0.4791  0.5650 -0.0202
 9481SOL    HW140079   0.886   0.797   8.280  0.4719  1.7373  1.9000
 9481SOL    HW240080   0.862   0.932   8.330  1.3012  1.4035 -1.4830
 9482SOL     OW40081   0.493   4.352   7.835  0.0121  0.1499 -0.6652
 9482SOL    HW140082   0.473   4.367   7.927  0.6476  0.1577 -0.5305
 9482SOL    HW240083   0.538   4.268   7.826  0.3934  0.2529  0.3115
 9483SOL     OW40084   0.684   2.619   4.113 -0.6065 -0.0703  0.0504
 9483SOL    HW140085   0.607   2.672   4.132  0.0917  0.8789  0.2370
 9483SOL    HW240086   0.701   2.599   4.205 -0.1060 -0.3084 -0.0909
 9484SOL     OW40087   1.664   3.007   7.304 -0.0039  0.2945  0.7351
 9484SOL    HW140088   1.754   3.032   7.286 -0.0467  0.9757  1.4639
 9484SOL    HW240089   1.652   3.023   7.398  0.2325  0.4832  0.7338
 9485SOL     OW40090   1.089   3.927   2.585 -0.2262 -0.5434 -0.1425
 9485SOL    HW140091   1.133   3.990   2.641 -0.8055  0.0316 -0.3367
 9485SOL    HW240092   1.150   3.905   2.515 -0.5461  2.2123 -1.2495
 9486SOL     OW40093   1.460   3.192   7.728 -0.2535 -0.3287  0.2721
 9486SOL    HW140094   1.392   3.162   7.788 -0.2311  0.4869  0.6964
 9486SOL    HW240095   1.479   3.274   7.775  0.4296  0.8618 -2.0929
 9487SOL     OW40096   4.205   1.764   6.227 -0.7508 -0.5037  0.1199
 9487SOL    HW140097   4.147   1.822   6.179 -0.0424  2.2236  2.5748
 9487SOL    HW240098   4.254   1.831   6.275  0.1330  0.1180 -1.6494
 9488SOL     OW40099   4.644   3.068  16.504  0.2513  0.5371  0.7410
 9488SOL    HW140100   4.568   3.063  16.446 -0.2620  0.9111  1.3906
 9488SOL    HW240101   4.713   3.034  16.446  0.0215  1.6383 -0.1830
 9489SOL     OW40102   4.573   2.761  17.469  1.0868  0.1866 -0.8596
 9489SOL    HW140103   4.514   2.819  17.420  1.3084  1.0206 -0.1593
 9489SOL    HW240104   4.547   2.678  17.429  1.2742 -0.5280  0.5040
 9490SOL     OW40105   2.682   0.330   5.028 -0.0108  0.6815  0.2995
 9490SOL    HW140106   2.763   0.332   4.976  0.1186  0.3465  0.4813
 9490SOL    HW240107   2.652   0.420   5.031 -1.0465  0.3925 -1.5660
 9491SOL     OW40108   0.892   4.660  15.123 -0.7832  0.3994  0.1818
 9491SOL    HW140109   0.874   4.623  15.209  0.9886 -1.0068 -0.0508
 9491SOL    HW240110   0.965   4.606  15.092  0.2952  1.5510  0.7064
 9492SOL     OW40111   2.449   0.318   5.196  0.4260  0.0284 -0.4489
 9492SOL    HW140112   2.509   0.275   5.136 -2.4167 -1.9740 -1.8380
 9492SOL    HW240113   2.372   0.265   5.177  1.1782 -0.8754 -0.9137
 9493SOL     OW40114   0.790   2.588   4.732  1.0853 -0.3658  0.0281
 9493SOL    HW140115   0.884   2.592   4.750  1.7071 -0.2753 -3.1891
 9493SOL    HW240116   0.781   2.497   4.704  1.9089 -0.4832  0.1257
 9494SOL     OW40117   0.546   0.762   4.477  0.0294 -0.1396  0.0026
 9494SOL    HW140118   0.555   0.683   4.530 -2.4625 -0.1762  0.3650
 9494SOL    HW240119   0.568   0.824   4.547  0.9509 -0.2014 -0.2212
 9495SOL     OW40120   2.287   0.849  11.265 -0.2538 -0.7838  0.0322
 9495SOL    HW140121   2.325   0.783  11.323 -2.3110 -2.5859 -0.6346
 9495SOL    HW240122   2.361   0.905  11.242  0.9896 -2.1747  0.6946
 9496SOL     OW40123   4.166   2.779   3.217 -0.3182  0.0821  0.0949
 9496SOL    HW140124   4.136   2.792   3.127 -1.5834  0.7163  0.6105
 9496SOL    HW240125   4.092   2.813   3.267  0.4569  1.3233  0.3959
 9497SOL     OW40126   4.068   0.979   8.625 -0.0978 -0.2207  1.0773
 9497SOL    HW140127   4.078   0.884   8.629  2.3198  0.0386  1.7774
 9497SOL    HW240128   3.999   0.993   8.690  0.0862 -0.0193  1.2339
 9498SOL     OW40129   0.990   4.316  17.265  0.1099  0.3218  0.1069
 9498SOL    HW140130   0.922   4.382  17.276  0.6071  1.0581 -1.2529
 9498SOL    HW240131   1.014   4.323  17.172 -0.9325  0.1595 -0.1693
 9499SOL     OW40132   4.385   1.369  12.189  0.4546 -0.5751 -0.1363
 9499SOL    HW140133   4.355   1.356  12.099 -0.4363 -3.0488  0.5090
 9499SOL    HW240134   4.421   1.458  12.190 -2.1925  0.4589  0.9924
 9500SOL     OW40135   4.472   3.371   0.282  0.5010 -0.0247  0.5600
 9500SOL    HW140136   4.392   3.374   0.335  0.8262 -0.4707  1.0900
 9500SOL    HW240137   4.432   3.355   0.197  2.0134 -2.0745  0.2312
 9501SOL     OW40138   2.230   4.365   2.411 -0.2841  0.0664 -0.5558
 9501SOL    HW140139   2.185   4.324   2.485  0.2433 -2.2596 -1.5550
 9501SOL    HW240140   2.285   4.291   2.389 -0.4690 -0.8397  2.0158
 9502SOL     OW40141   3.769   2.807  16.715  0.5856 -0.2730  0.2671
 9502SOL    HW140142   3.803   2.748  16.783 -1.5135  0.1320  1.6715
 9502SOL    HW240143   3.703   2.748  16.677 -1.5714  0.9479  2.0915
 9503SOL     OW40144   0.202   1.327   1.650  0.6460 -0.4594  0.0379
 9503SOL    HW140145   0.233   1.237   1.650  0.8671 -0.3830  0.8457
 9503SOL    HW240146   0.108   1.319   1.634  0.1737 -0.3253  2.7801
 9504SOL     OW40147   2.358   0.168   3.809  0.4078  0.4504  0.8094
 9504SOL    HW140148   2.316   0.208   3.886  1.8976 -1.6150  2.7195
 9504SOL    HW240149   2.316   0.220   3.741  1.2230  0.3823  0.2564
 9505SOL     OW40150   4.025   0.418   4.428 -0.1042  0.0093  0.6718
 9505SOL    HW140151   4.084   0.489   4.402  0.4366 -0.4808  0.5480
 9505SOL    HW240152   3.946   0.465   4.452  1.1518  2.3018  0.2782
 9506SOL     OW40153   3.738   3.217   5.943 -0.3326 -0.1946  0.0435
 9506SOL    HW140154   3.665   3.272   5.971 -0.9993 -0.6895 -0.7154
 9506SOL    HW240155   3.701   3.131   5.960 -1.2450  0.1146 -0.3391
 9507SOL     OW40156   4.592   4.560   4.351 -0.1693 -0.1245 -0.4246
 9507SOL    HW140157   4.525   4.541   4.417 -0.5196 -1.1108 -1.0623
 9507SOL    HW240158   4.534   4.550   4.276  0.4841  3.5368 -1.3933
 9508SOL     OW40159   0.648   4.089   1.388  0.6114  0.4238  0.4476
 9508SOL    HW140160   0.669   3.995   1.385 -0.7495  0.0567  2.0903
 9508SOL    HW240161   0.717   4.123   1.332  0.2269  0.2516 -0.1364
 9509SOL     OW40162   3.329   1.096   1.512 -0.3429 -0.1870 -0.2213
 9509SOL    HW140163   3.255   1.041   1.485  0.2168 -0.6770 -0.7692
 9509SOL    HW240164   3.286   1.181   1.504  1.5275  0.8534  0.8270
 9510SOL     OW40165   3.025   1.227   5.193  0.3412 -0.4439 -0.0246
 9510SOL    HW140166   3.032   1.293   5.262 -1.0719  2.0692 -2.2957
 9510SOL    HW240167   3.013   1.280   5.115 -0.7865 -2.2921 -1.1144
 9511SOL     OW40168   3.228   4.262  17.424 -0.4666 -0.2929  0.1195
 9511SOL    HW140169   3.145   4.280  17.379 -0.6644  1.0143  0.9828
 9511SOL    HW240170   3.246   4.340  17.477  0.2709 -0.4826  0.1391
 9512SOL     OW40171   0.557   0.060   5.954 -0.8739  0.7095  0.3213
 9512SOL    HW140172   0.548   4.721   5.896 -1.7276 -0.1683  1.5857
 9512SOL    HW240173   0.617   0.022   6.018 -1.8695  0.6450  1.2184
 9513SOL     OW40174   2.040   0.749   9.278 -0.0916 -0.2789  0.3882
 9513SOL    HW140175   1.958   0.731   9.324 -0.0843 -1.4817 -0.0630
 9513SOL    HW240176   2.039   0.844   9.268  1.4335 -0.1019  2.0862
 9514SOL     OW40177   2.920   0.046   6.306  0.2062 -0.3165 -0.3018
 9514SOL    HW140178   2.835   0.003   6.305  0.7757 -1.4199 -1.8192
 9514SOL    HW240179   2.896   0.134   6.279 -1.3716 -1.1901 -1.7198
 9515SOL     OW40180   3.968   1.232   0.941  0.3199 -0.3325  0.4155
 9515SOL    HW140181   3.905   1.222   0.870  0.8021 -0.6833  0.0335
 9515SOL    HW240182   4.000   1.321   0.928  1.8899 -0.8790  0.4704
 9516SOL     OW40183   4.397   1.849   3.713  0.0681  0.0763  0.3644
 9516SOL    HW140184   4.490   1.853   3.733 -0.0131 -0.3224  0.8216
 9516SOL    HW240185   4.396   1.898   3.631  1.5266 -1.7281 -0.7181
 9517SOL     OW40186   4.129   3.790   6.296  0.0682 -0.2579 -0.5109
 9517SOL    HW140187   4.218   3.774   6.264 -0.2366  0.9605 -1.9596
 9517SOL    HW240188   4.107   3.855   6.229  0.4986 -1.2762 -1.6426
 9518SOL     OW40189   1.665   4.117   2.257 -0.1266  0.0831  0.4253
 9518SOL    HW140190   1.592   4.129   2.197 -0.3159  2.0552  1.0460
 9518SOL    HW240191   1.624   4.103   2.343  0.5149 -0.3257  0.6616
 9519SOL     OW40192   0.640   1.630   4.728 -0.0245 -0.1144  0.0156
 9519SOL    HW140193   0.545   1.643   4.726  0.0926  0.6844 -0.2986
 9519SOL    HW240194   0.664   1.606   4.638  1.2509 -0.0988  0.3629
 9520SOL     OW40195   0.788   4.256   6.408  0.1438 -0.8480 -0.2185
 9520SOL    HW140196   0.813   4.243   6.317 -0.1428 -0.0382 -0.4112
 9520SOL    HW240197   0.747   4.342   6.404 -1.9737 -1.8788 -0.5869
 9521SOL     OW40198   4.087   1.848   3.154  0.1991 -0.1625  0.2759
 9521SOL    HW140199   4.052   1.914   3.094  1.9754  1.1399  0.6972
 9521SOL    HW240200   4.116   1.784   3.090 -1.1186 -0.0353 -0.4592
 9522SOL     OW40201   1.348   0.369  17.417  0.5141  0.1080 -0.4273
 9522SOL    HW140202   1.287   0.295  17.410  2.1653 -1.2656 -0.1872
 9522SOL    HW240203   1.303   0.425  17.354  2.0174 -0.1928 -1.7669
 9523SOL     OW40204   3.131   4.588   2.793  0.2216 -0.6622  0.3777
 9523SOL    HW140205   3.091   4.613   2.876 -2.5572 -1.5004 -0.7392
 9523SOL    HW240206   3.134   4.492   2.797 -1.3709 -0.8226 -2.6555
 9524SOL     OW40207   3.410   4.467   8.158  0.4228  0.2314 -0.1949
 9524SOL    HW140208   3.323   4.445   8.125  2.2002 -3.7309 -2.2639
 9524SOL    HW240209   3.438   4.532   8.093  0.1579  2.9297  2.3958
 9525SOL     OW40210   0.271   2.650   5.216  0.0572  0.5680 -0.3801
 9525SOL    HW140211   0.223   2.580   5.261 -0.6573  0.0967 -1.8525
 9525SOL    HW240212   0.354   2.647   5.264 -0.3229 -0.0884  0.2404
 9526SOL     OW40213   4.225   2.472   4.926 -0.4617  0.4421  0.1692
 9526SOL    HW140214   4.186   2.460   5.012  1.2134 -1.5770  0.6286
 9526SOL    HW240215   4.158   2.432   4.869  1.9712 -0.9055 -1.7408
 9527SOL     OW40216   4.575   4.231   8.060  0.0034 -0.1602  0.2705
 9527SOL    HW140217   4.542   4.186   8.137  0.0941  1.6129  1.3455
 9527SOL    HW240218   4.635   4.168   8.020  1.2533  1.6136 -0.6305
 9528SOL     OW40219   1.772   0.812  10.328  0.5111 -0.3147  0.2867
 9528SOL    HW140220   1.700   0.774  10.378 -0.0105  1.3727  0.8236
 9528SOL    HW240221   1.815   0.733  10.296  1.1066 -0.0911  0.5166
 9529SOL     OW40222   2.153   2.396   5.517  0.2245 -0.0279 -0.0273
 9529SOL    HW140223   2.088   2.348   5.568  2.0119 -1.8576  0.5371
 9529SOL    HW240224   2.096   2.458   5.472  0.9695  0.0823 -0.8293
 9530SOL     OW40225   3.020   0.087  11.719  0.0772  0.5677  0.3962
 9530SOL    HW140226   2.954   0.088  11.788  0.7022 -1.4602  0.9928
 9530SOL    HW240227   3.065   0.168  11.743  0.5704 -0.1307  1.7996
 9531SOL     OW40228   0.323   3.625   2.343 -0.6048 -0.1216 -0.2050
 9531SOL    HW140229   0.318   3.698   2.405 -0.1405 -0.6433  0.4430
 9531SOL    HW240230   0.407   3.651   2.306 -0.9739  0.8620 -0.3657
 9532SOL     OW40231   1.420   0.161   5.438  0.2955  0.5143 -0.0825
 9532SOL    HW140232   1.365   0.082   5.432 -2.6939  2.4969  1.2275
 9532SOL    HW240233   1.367   0.227   5.393  0.8648  0.7547 -0.3928
 9533SOL     OW40234   1.012   0.655  14.102 -0.0557 -0.2508 -0.2433
 9533SOL    HW140235   1.062   0.602  14.040 -0.3339 -0.0302 -0.6543
 9533SOL    HW240236   0.924   0.625  14.080  0.4084 -1.2979 -0.7011
 9534SOL     OW40237   2.823   1.541   5.721  0.1017 -0.6463  0.2925
 9534SOL    HW140238   2.789   1.488   5.649 -0.6939  0.2369  0.0263
 9534SOL    HW240239   2.779   1.486   5.786  0.2607  0.4649  1.3348
 9535SOL     OW40240   4.301   3.656   0.619 -0.5715  0.5653 -0.4026
 9535SOL    HW140241   4.278   3.723   0.554 -2.3059 -1.5130 -1.9406
 9535SOL    HW240242   4.291   3.586   0.553 -0.5651  0.3753 -0.2013
 9536SOL     OW40243   0.339   1.092   1.578  0.2158  0.1604 -0.0739
 9536SOL    HW140244   0.272   1.026   1.563  0.9592 -0.8096  0.9041
 9536SOL    HW240245   0.407   1.074   1.514  0.1987  1.9288 -0.6054
 9537SOL     OW40246   1.404   3.410   6.861  0.3223 -0.6063  0.1057
 9537SOL    HW140247   1.406   3.502   6.835 -0.8162 -0.6396 -0.1061
 9537SOL    HW240248   1.327   3.400   6.916 -0.9117 -0.8449 -1.6624
 9538SOL     OW40249   1.483   1.602   4.521  0.2867  0.0201  0.1046
 9538SOL    HW140250   1.573   1.625   4.544  0.8149 -2.5951  0.6151
 9538SOL    HW240251   1.490   1.579   4.428 -2.0147 -1.5380  0.3269
 9539SOL     OW40252   3.356   1.069  13.163  0.3319  0.1567 -0.5309
 9539SOL    HW140253   3.319   1.104  13.082 -0.6815  3.7033  1.4830
 9539SOL    HW240254   3.451   1.065  13.148  0.4415 -1.2307  0.5701
 9540SOL     OW40255   3.297   4.646  14.120  0.3205 -0.5026 -0.0163
 9540SOL    HW140256   3.363   4.659  14.188 -0.4937  2.6380  0.1775
 9540SOL    HW240257   3.279   4.554  14.141 -1.8405  0.4869  2.4673
 9541SOL     OW40258   0.077   1.359  11.774  0.3592  0.2157 -0.2767
 9541SOL    HW140259   0.128   1.403  11.842  1.3738 -1.1615 -0.1513
 9541SOL    HW240260   0.143   1.362  11.705 -0.0155  1.7494 -0.5733
 9542SOL     OW40261   2.858   2.348   7.546 -0.4631  0.4705  0.2691
 9542SOL    HW140262   2.806   2.429   7.537 -0.2826  0.8778  2.9449
 9542SOL    HW240263   2.875   2.342   7.452 -1.1517  0.0909  0.1731
 9543SOL     OW40264   3.609   0.601   9.022 -0.6646  0.2617  0.7134
 9543SOL    HW140265   3.629   0.689   8.992  1.7589 -1.7275 -3.5821
 9543SOL    HW240266   3.688   0.583   9.073  0.4411  1.8484 -0.4412
 9544SOL     OW40267   0.253   4.361   8.367 -0.3660 -0.2042  0.0618
 9544SOL    HW140268   0.272   4.280   8.319  2.1040  0.8164 -0.7120
 9544SOL    HW240269   0.214   4.318   8.443  0.1861 -0.8771 -0.0389
 9545SOL     OW40270   3.555   1.113   7.559  0.3000 -0.1402  0.4698
 9545SOL    HW140271   3.623   1.106   7.491  1.6708 -1.7627  2.0106
 9545SOL    HW240272   3.588   1.191   7.603 -1.3119  0.0799  1.2658
 9546SOL     OW40273   3.191   3.916   6.949 -0.5000 -0.0785  0.4120
 9546SOL    HW140274   3.186   3.971   6.871  0.5878 -0.2842  0.1996
 9546SOL    HW240275   3.284   3.919   6.969 -0.3644 -2.4656  0.2144
 9547SOL     OW40276   2.318   1.117   8.609 -0.1802  0.3983  0.9244
 9547SOL    HW140277   2.368   1.193   8.579  0.7352 -1.0534 -1.1888
 9547SOL    HW240278   2.336   1.115   8.703 -3.6194  1.5293  1.6100
 9548SOL     OW40279   4.128   4.195  15.505  0.4265  0.6637  0.2864
 9548SOL    HW140280   4.190   4.130  15.537 -0.1436  0.9506  1.9821
 9548SOL    HW240281   4.192   4.255  15.468  1.5874  0.0383  1.2759
 9549SOL     OW40282   0.237   0.385  13.994  0.0773 -0.0879  0.2122
 9549SOL    HW140283   0.240   0.365  14.087 -1.1444 -0.4681  0.1811
 9549SOL    HW240284   0.145   0.406  13.978  0.9176  1.6926 -2.2419
 9550SOL     OW40285   4.447   1.870   8.753  0.1648 -0.0740  0.5577
 9550SOL    HW140286   4.443   1.959   8.789 -2.8700 -0.4533  1.1959
 9550SOL    HW240287   4.415   1.823   8.831  2.4429  0.9670  2.1324
 9551SOL     OW40288   0.539   3.704   0.761 -0.2483 -0.4252  0.7808
 9551SOL    HW140289   0.524   3.755   0.841  1.8950  0.7572  0.4469
 9551SOL    HW240290   0.483   3.627   0.771 -0.6919 -0.3868 -1.4547
 9552SOL     OW40291   1.986   3.431   0.552  0.5523  0.3618 -0.3764
 9552SOL    HW140292   2.000   3.516   0.594  2.7837  0.2278 -0.8256
 9552SOL    HW240293   1.976   3.377   0.630 -1.0507 -0.0541 -0.8805
 9553SOL     OW40294   0.656   0.317   1.255  0.1504  0.1141  0.1043
 9553SOL    HW140295   0.648   0.387   1.320  0.5854  1.0625 -0.8472
 9553SOL    HW240296   0.598   0.244   1.275 -0.9171  1.4775  2.0355
 9554SOL     OW40297   1.970   3.142   0.508  0.0945  0.2053  0.0761
 9554SOL    HW140298   2.026   3.135   0.586  0.3345 -1.5697 -0.2551
 9554SOL    HW240299   1.933   3.229   0.520 -2.1172 -0.3610 -2.5642
 9555SOL     OW40300   4.521   4.707   7.446 -0.3259  0.3254 -0.6295
 9555SOL    HW140301   4.501   4.613   7.445 -2.9772  0.9161 -0.6832
 9555SOL    HW240302   4.436   0.011   7.457  0.8391  1.9339  2.3843
 9556SOL     OW40303   0.589   4.073   7.342  0.0513 -0.4484 -0.7372
 9556SOL    HW140304   0.680   4.083   7.315  0.1823  0.9375  0.2447
 9556SOL    HW240305   0.550   4.023   7.270 -0.4894 -1.2563  0.1284
 9557SOL     OW40306   4.108   0.147  17.335 -0.1288  0.1555  0.1263
 9557SOL    HW140307   4.130   0.054  17.339 -0.3114  0.0295 -1.6688
 9557SOL    HW240308   4.195   0.184  17.317 -0.3297  0.8307  0.5611
 9558SOL     OW40309   4.304   1.783   5.977  0.1377  0.0176  1.1090
 9558SOL    HW140310   4.280   1.864   6.022  1.2206  1.5944 -1.1867
 9558SOL    HW240311   4.316   1.716   6.044 -1.7001 -2.1495 -0.7348
 9559SOL     OW40312   0.865   2.114  14.526 -0.5040  0.7969  0.4375
 9559SOL    HW140313   0.853   2.124  14.620 -0.4330  1.2638  0.3987
 9559SOL    HW240314   0.784   2.145  14.485 -0.2901  0.4428 -0.2610
 9560SOL     OW40315   1.080   1.483   8.386  0.3834 -0.0086 -0.1505
 9560SOL    HW140316   1.107   1.477   8.295  0.1109 -1.9901 -0.0920
 9560SOL    HW240317   1.169   1.488   8.422  0.5888  0.6282 -0.7432
 9561SOL     OW40318   3.050   3.413   7.555  0.7658 -0.5920  0.8429
 9561SOL    HW140319   2.982   3.480   7.552  0.0963 -1.3441 -0.7270
 9561SOL    HW240320   3.005   3.357   7.619 -3.1885 -1.8592 -2.9904
 9562SOL     OW40321   3.368   0.550   8.509  0.7097 -0.2213 -0.0018
 9562SOL    HW140322   3.376   0.594   8.594 -0.9115 -0.8036  0.4388
 9562SOL    HW240323   3.459   0.519   8.502  0.6198  0.0828 -2.4414
 9563SOL     OW40324   2.529   0.933  10.243 -0.7155  0.2806  0.0197
 9563SOL    HW140325   2.501   1.023  10.233 -1.1684  0.0461 -0.7627
 9563SOL    HW240326   2.447   0.888  10.262 -1.8953  2.5900  0.2703
 9564SOL     OW40327   4.544   1.059  16.014 -0.1643 -0.3693  0.6058
 9564SOL    HW140328   4.585   1.074  16.099  2.1975  0.2961 -0.6099
 9564SOL    HW240329   4.501   1.142  15.996  0.4768 -0.5321 -1.7615
 9565SOL     OW40330   2.624   3.968  13.820 -0.5672 -0.1371  0.1767
 9565SOL    HW140331   2.671   3.906  13.763 -0.0691  1.7978 -1.5387
 9565SOL    HW240332   2.648   4.046  13.769 -0.7449 -0.6648 -0.7030
 9566SOL     OW40333   0.692   4.317   2.300 -0.2910  0.2098  0.0422
 9566SOL    HW140334   0.704   4.294   2.392  0.5061  1.1075  0.1625
 9566SOL    HW240335   0.712   4.235   2.254  0.5754  1.0331 -1.0600
 9567SOL     OW40336   3.695   1.702   3.464  0.1864  0.3124  0.1137
 9567SOL    HW140337   3.724   1.701   3.373  0.2092 -1.0826  0.1396
 9567SOL    HW240338   3.696   1.796   3.484 -0.0416  0.6213 -1.3700
 9568SOL     OW40339   2.133   0.747  13.332  0.0792 -0.5142  0.1369
 9568SOL    HW140340   2.199   0.754  13.400  1.0136  0.5105 -0.8736
 9568SOL    HW240341   2.090   0.669  13.367  1.7491 -0.7022  1.7623
 9569SOL     OW40342   1.133   0.469   5.594 -0.7601  0.3209  0.0484
 9569SOL    HW140343   1.071   0.418   5.647 -0.3868 -1.3842 -1.1832
 9569SOL    HW240344   1.087   0.553   5.596  0.8561  1.1965  0.5477
   4.73618   4.73618  17.74327
